<LesHouchesEvents version="3.0">
<header>
<!--
#*********************************************************************
#                                                                    *
#                        MadGraph5_aMC@NLO                           *
#                                                                    *
#                           Going Beyond                             *
#                                                                    *
#                   http://madgraph.hep.uiuc.edu                     *
#                   http://madgraph.phys.ucl.ac.be                   *
#                   http://amcatnlo.cern.ch                          *
#                                                                    *
#                     The MadGraph5_aMC@NLO team                     *
#                                                                    *
#....................................................................*
#                                                                    *
# This file contains all the information necessary to reproduce      *
# the events generated:                                              *
#                                                                    *
# 1. software version                                                *
# 2. proc_card          : code generation info including model       *
# 3. param_card         : model primary parameters in the LH format  *
# 4. run_card           : running parameters (collider and cuts)     *
# 5. pythia_card        : present only if pythia has been run        *
# 6. pgs_card           : present only if pgs has been run           *
# 7. delphes_cards      : present only if delphes has been run       *
#                                                                    *
#                                                                    *
#*********************************************************************
-->
<MGVersion>
#5.2.2.3
</MGVersion>
<MG5ProcCard>
#************************************************************
#*                     MadGraph5_aMC@NLO                    *
#*                                                          *
#*                *                       *                 *
#*                  *        * *        *                   *
#*                    * * * * 5 * * * *                     *
#*                  *        * *        *                   *
#*                *                       *                 *
#*                                                          *
#*                                                          *
#*         VERSION 2.2.3                 2015-02-10         *
#*                                                          *
#*    The MadGraph5_aMC@NLO Development Team - Find us at   *
#*    https://server06.fynu.ucl.ac.be/projects/madgraph     *
#*                                                          *
#************************************************************
#*                                                          *
#*               Command File for MadGraph5_aMC@NLO         *
#*                                                          *
#*     run as ./bin/mg5_aMC  filename                       *
#*                                                          *
#************************************************************
set group_subprocesses Auto
set ignore_six_quark_processes False
set loop_optimized_output True
set gauge unitary
set complex_mass_scheme False
import model sm
define p = g u c d s u~ c~ d~ s~
define j = g u c d s u~ c~ d~ s~
define l+ = e+ mu+
define l- = e- mu-
define vl = ve vm vt
define vl~ = ve~ vm~ vt~
import model Zprime_UFO
generate p p > zph, zph > j j
add process p p > zph, zph > b b~
output Dijet_signal
</MG5ProcCard>
<MGProcCard>
#*********************************************************************
#                        MadGraph/MadEvent                           *
#                   http://madgraph.hep.uiuc.edu                     *
#                                                                    *
#                          proc_card.dat                             *
#*********************************************************************
#                                                                    *
#            This Files is generated by MADGRAPH 5                   *
#                                                                    *
# WARNING: This Files is generated for MADEVENT (compatibility issue)*
#          This files is NOT a valid MG4 proc_card.dat               *
#          Running this in MG4 will NEVER reproduce the result of MG5*
#                                                                    *
#*********************************************************************
#*********************************************************************
# Process(es) requested : mg2 input                                  *
#*********************************************************************
# Begin PROCESS # This is TAG. Do not modify this line
p p > zph , zph > j j           #Process
# Be carefull the coupling are here in MG5 convention
          
end_coup           # End the couplings input

done               # this tells MG there are no more procs
# End PROCESS  # This is TAG. Do not modify this line
#*********************************************************************
# Model information                                                  *
#*********************************************************************
# Begin MODEL  # This is TAG. Do not modify this line
Zprime_UFO
# End   MODEL  # This is TAG. Do not modify this line
#*********************************************************************
# Start multiparticle definitions                                    *
#*********************************************************************
# Begin MULTIPARTICLES # This is TAG. Do not modify this line

# End  MULTIPARTICLES # This is TAG. Do not modify this line
</MGProcCard>
<MGRunCard>
#*********************************************************************
#                       MadGraph5_aMC@NLO                            *
#                                                                    *
#                     run_card.dat MadEvent                          *
#                                                                    *
#  This file is used to set the parameters of the run.               *
#                                                                    *
#  Some notation/conventions:                                        *
#                                                                    *
#   Lines starting with a '# ' are info or comments                  *
#                                                                    *
#   mind the format:   value    = variable     ! comment             *
#*********************************************************************
#
#*******************                                                 
# Running parameters
#*******************                                                 
#                                                                    
#*********************************************************************
# Tag name for the run (one word)                                    *
#*********************************************************************
  tag_1     = run_tag ! name of the run 
#*********************************************************************
# Run to generate the grid pack                                      *
#*********************************************************************
  .false.     = gridpack  !True = setting up the grid pack
#*********************************************************************
# Number of events and rnd seed                                      *
# Warning: Do not generate more than 1M events in a single run       *
# If you want to run Pythia, avoid more than 50k events in a run.    *
#*********************************************************************
  2000 = nevents ! Number of unweighted events requested 
 2901 = iseed   ! rnd seed (0=assigned automatically=default))
#*********************************************************************
# Collider type and energy                                           *
# lpp: 0=No PDF, 1=proton, -1=antiproton, 2=photon from proton,      *
#                                         3=photon from electron     *
#*********************************************************************
        1     = lpp1    ! beam 1 type 
        1     = lpp2    ! beam 2 type
     4000     = ebeam1  ! beam 1 total energy in GeV
     4000     = ebeam2  ! beam 2 total energy in GeV
#*********************************************************************
# Beam polarization from -100 (left-handed) to 100 (right-handed)    *
#*********************************************************************
        0     = polbeam1 ! beam polarization for beam 1
        0     = polbeam2 ! beam polarization for beam 2
#*********************************************************************
# PDF CHOICE: this automatically fixes also alpha_s and its evol.    *
#*********************************************************************
 'nn23lo1'    = pdlabel     ! PDF set                                     
 230000    = lhaid     ! if pdlabel=lhapdf, this is the lhapdf number
#*********************************************************************
# Renormalization and factorization scales                           *
#*********************************************************************
 F        = fixed_ren_scale  ! if .true. use fixed ren scale
 F        = fixed_fac_scale  ! if .true. use fixed fac scale
 91.1880  = scale            ! fixed ren scale
 91.1880  = dsqrt_q2fact1    ! fixed fact scale for pdf1
 91.1880  = dsqrt_q2fact2    ! fixed fact scale for pdf2
 1        = scalefact        ! scale factor for event-by-event scales
#*********************************************************************
# Matching - Warning! ickkw > 1 is still beta
#*********************************************************************
 0        = ickkw            ! 0 no matching, 1 MLM, 2 CKKW matching
 1        = highestmult      ! for ickkw=2, highest mult group
 1        = ktscheme         ! for ickkw=1, 1 Durham kT, 2 Pythia pTE
 1        = alpsfact         ! scale factor for QCD emission vx
 F        = chcluster        ! cluster only according to channel diag
 T        = pdfwgt           ! for ickkw=1, perform pdf reweighting
 5        = asrwgtflavor     ! highest quark flavor for a_s reweight
 T        = clusinfo         ! include clustering tag in output
 3.0      = lhe_version       ! Change the way clustering information pass to shower.        
#*********************************************************************
#**********************************************************
#
#**********************************************************
# Automatic ptj and mjj cuts if xqcut > 0
# (turn off for VBF and single top processes)
#**********************************************************
   T  = auto_ptj_mjj  ! Automatic setting of ptj and mjj
#**********************************************************
#                                                                    
#**********************************
# BW cutoff (M+/-bwcutoff*Gamma)
#**********************************
  15  = bwcutoff      ! (M+/-bwcutoff*Gamma)
#**********************************************************
# Apply pt/E/eta/dr/mij cuts on decay products or not
# (note that etmiss/ptll/ptheavy/ht/sorted cuts always apply)
#**********************************************************
   T  = cut_decays    ! Cut decay products 
#*************************************************************
# Number of helicities to sum per event (0 = all helicities)
# 0 gives more stable result, but longer run time (needed for
# long decay chains e.g.).
# Use >=2 if most helicities contribute, e.g. pure QCD.
#*************************************************************
   0  = nhel          ! Number of helicities used per event
#*******************                                                 
# Standard Cuts
#*******************                                                 
#                                                                    
#*********************************************************************
# Minimum and maximum pt's (for max, -1 means no cut)                *
#*********************************************************************
 20  = ptj       ! minimum pt for the jets 
  0  = ptb       ! minimum pt for the b 
 10  = pta       ! minimum pt for the photons 
 10  = ptl       ! minimum pt for the charged leptons 
  0  = misset    ! minimum missing Et (sum of neutrino's momenta)
  0  = ptheavy   ! minimum pt for one heavy final state
 1.0 = ptonium   ! minimum pt for the quarkonium states
 -1  = ptjmax    ! maximum pt for the jets
 -1  = ptbmax    ! maximum pt for the b
 -1  = ptamax    ! maximum pt for the photons
 -1  = ptlmax    ! maximum pt for the charged leptons
 -1  = missetmax ! maximum missing Et (sum of neutrino's momenta)
#*********************************************************************
# Minimum and maximum E's (in the center of mass frame)              *
#*********************************************************************
  0  = ej     ! minimum E for the jets 
  0  = eb     ! minimum E for the b 
  0  = ea     ! minimum E for the photons 
  0  = el     ! minimum E for the charged leptons 
 -1   = ejmax ! maximum E for the jets
 -1   = ebmax ! maximum E for the b
 -1   = eamax ! maximum E for the photons
 -1   = elmax ! maximum E for the charged leptons
#*********************************************************************
# Maximum and minimum absolute rapidity (for max, -1 means no cut)   *
#*********************************************************************
   5  = etaj    ! max rap for the jets 
  -1  = etab    ! max rap for the b
 2.5  = etaa    ! max rap for the photons 
 2.5  = etal    ! max rap for the charged leptons 
 0.6  = etaonium ! max rap for the quarkonium states
   0  = etajmin ! min rap for the jets
   0  = etabmin ! min rap for the b
   0  = etaamin ! min rap for the photons
   0  = etalmin ! main rap for the charged leptons
#*********************************************************************
# Minimum and maximum DeltaR distance                                *
#*********************************************************************
 0.4 = drjj    ! min distance between jets 
 0   = drbb    ! min distance between b's 
 0.4 = drll    ! min distance between leptons 
 0.4 = draa    ! min distance between gammas 
 0   = drbj    ! min distance between b and jet 
 0.4 = draj    ! min distance between gamma and jet 
 0.4 = drjl    ! min distance between jet and lepton 
 0   = drab    ! min distance between gamma and b 
 0   = drbl    ! min distance between b and lepton 
 0.4 = dral    ! min distance between gamma and lepton 
 -1  = drjjmax ! max distance between jets
 -1  = drbbmax ! max distance between b's
 -1  = drllmax ! max distance between leptons
 -1  = draamax ! max distance between gammas
 -1  = drbjmax ! max distance between b and jet
 -1  = drajmax ! max distance between gamma and jet
 -1  = drjlmax ! max distance between jet and lepton
 -1  = drabmax ! max distance between gamma and b
 -1  = drblmax ! max distance between b and lepton
 -1  = dralmax ! maxdistance between gamma and lepton
#*********************************************************************
# Minimum and maximum invariant mass for pairs                       *
# WARNING: for four lepton final state mmll cut require to have      *
#          different lepton masses for each flavor!                  *           
#*********************************************************************
 0   = mmjj    ! min invariant mass of a jet pair 
 0   = mmbb    ! min invariant mass of a b pair 
 0   = mmaa    ! min invariant mass of gamma gamma pair
 0   = mmll    ! min invariant mass of l+l- (same flavour) lepton pair
 -1  = mmjjmax ! max invariant mass of a jet pair
 -1  = mmbbmax ! max invariant mass of a b pair
 -1  = mmaamax ! max invariant mass of gamma gamma pair
 -1  = mmllmax ! max invariant mass of l+l- (same flavour) lepton pair
#*********************************************************************
# Minimum and maximum invariant mass for all letpons                 *
#*********************************************************************
 0   = mmnl    ! min invariant mass for all letpons (l+- and vl) 
 -1  = mmnlmax ! max invariant mass for all letpons (l+- and vl) 
#*********************************************************************
# Minimum and maximum pt for 4-momenta sum of leptons                *
#*********************************************************************
 0   = ptllmin  ! Minimum pt for 4-momenta sum of leptons(l and vl)
 -1  = ptllmax  ! Maximum pt for 4-momenta sum of leptons(l and vl)
#*********************************************************************
# Inclusive cuts                                                     *
#*********************************************************************
 0  = xptj ! minimum pt for at least one jet  
 0  = xptb ! minimum pt for at least one b 
 0  = xpta ! minimum pt for at least one photon 
 0  = xptl ! minimum pt for at least one charged lepton 
#*********************************************************************
# Control the pt's of the jets sorted by pt                          *
#*********************************************************************
 0   = ptj1min ! minimum pt for the leading jet in pt
 0   = ptj2min ! minimum pt for the second jet in pt
 0   = ptj3min ! minimum pt for the third jet in pt
 0   = ptj4min ! minimum pt for the fourth jet in pt
 -1  = ptj1max ! maximum pt for the leading jet in pt 
 -1  = ptj2max ! maximum pt for the second jet in pt
 -1  = ptj3max ! maximum pt for the third jet in pt
 -1  = ptj4max ! maximum pt for the fourth jet in pt
 0   = cutuse  ! reject event if fails any (0) / all (1) jet pt cuts
#*********************************************************************
# Control the pt's of leptons sorted by pt                           *
#*********************************************************************
 0   = ptl1min ! minimum pt for the leading lepton in pt
 0   = ptl2min ! minimum pt for the second lepton in pt
 0   = ptl3min ! minimum pt for the third lepton in pt
 0   = ptl4min ! minimum pt for the fourth lepton in pt
 -1  = ptl1max ! maximum pt for the leading lepton in pt 
 -1  = ptl2max ! maximum pt for the second lepton in pt
 -1  = ptl3max ! maximum pt for the third lepton in pt
 -1  = ptl4max ! maximum pt for the fourth lepton in pt
#*********************************************************************
# Control the Ht(k)=Sum of k leading jets                            *
#*********************************************************************
 0   = htjmin ! minimum jet HT=Sum(jet pt)
 -1  = htjmax ! maximum jet HT=Sum(jet pt)
 0   = ihtmin  !inclusive Ht for all partons (including b)
 -1  = ihtmax  !inclusive Ht for all partons (including b)
 0   = ht2min ! minimum Ht for the two leading jets
 0   = ht3min ! minimum Ht for the three leading jets
 0   = ht4min ! minimum Ht for the four leading jets
 -1  = ht2max ! maximum Ht for the two leading jets
 -1  = ht3max ! maximum Ht for the three leading jets
 -1  = ht4max ! maximum Ht for the four leading jets
#***********************************************************************
# Photon-isolation cuts, according to hep-ph/9801442                   *
# When ptgmin=0, all the other parameters are ignored                  *
# When ptgmin>0, pta and draj are not going to be used                 *
#***********************************************************************
   0 = ptgmin ! Min photon transverse momentum
 0.4 = R0gamma ! Radius of isolation code
 1.0 = xn ! n parameter of eq.(3.4) in hep-ph/9801442
 1.0 = epsgamma ! epsilon_gamma parameter of eq.(3.4) in hep-ph/9801442
 .true. = isoEM ! isolate photons from EM energy (photons and leptons)
#*********************************************************************
# WBF cuts                                                           *
#*********************************************************************
 0   = xetamin ! minimum rapidity for two jets in the WBF case  
 0   = deltaeta ! minimum rapidity for two jets in the WBF case 
#*********************************************************************
# KT DURHAM CUT                                                      *
#*********************************************************************
 -1    =  ktdurham        
 0.4  =  dparameter 
#*********************************************************************
# maximal pdg code for quark to be considered as a light jet         *
# (otherwise b cuts are applied)                                     *
#*********************************************************************
 4 = maxjetflavor    ! Maximum jet pdg code
#*********************************************************************
# Jet measure cuts                                                   *
#*********************************************************************
 0   = xqcut   ! minimum kt jet measure between partons
#*********************************************************************
#
#*********************************************************************
# Store info for systematics studies                                 *
# WARNING: If use_syst is T, matched Pythia output is                *
#          meaningful ONLY if plotted taking matchscale              *
#          reweighting into account!                                 *
#*********************************************************************
   F  = use_syst      ! Enable systematics studies
#
#**************************************
# Parameter of the systematics study
#  will be used by SysCalc (if installed)
#**************************************                                  
#
0.5 1 2 = sys_scalefact  # factorization/renormalization scale factor
0.5 1 2 = sys_alpsfact  # \alpha_s emission scale factors
30 50 = sys_matchscale # variation of merging scale
# PDF sets and number of members (0 or none for all members).
CT10nlo.LHgrid = sys_pdf # matching scales
# MSTW2008nlo68cl.LHgrid 1  = sys_pdf
</MGRunCard>
<slha>
######################################################################
## PARAM_CARD AUTOMATICALY GENERATED BY MG5 FOLLOWING UFO MODEL   ####
######################################################################
##                                                                  ##
##  Width set on Auto will be computed following the information    ##
##        present in the decay.py files of the model.               ##
##        See  arXiv:1402.1178 for more details.                    ##
##                                                                  ##
######################################################################

###################################
## INFORMATION FOR CKMBLOCK
###################################
Block ckmblock 
    1 2.277360e-01 # cabi 

###################################
## INFORMATION FOR FRBLOCK
###################################
Block frblock 
    1 1.600000e+00 # gz 

###################################
## INFORMATION FOR MASS
###################################
Block mass 
    1 5.040000e-03 # MD 
    2 2.550000e-03 # MU 
    3 1.010000e-01 # MS 
    4 1.270000e+00 # MC 
    5 4.700000e+00 # MB 
    6 1.720000e+02 # MT 
   11 5.110000e-04 # Me 
   13 1.056600e-01 # MM 
   15 1.777000e+00 # MTA 
   23 9.118760e+01 # MZ 
   25 1.200000e+02 # MH 
  10030 2.000000e+03 # MZph 
  10031 3.000000e+02 # MZpl 
## Dependent parameters, given by model restrictions.
## Those values should be edited following the 
## analytical expression. MG5 ignores those values 
## but they are important for interfacing the output of MG5
## to external program such as Pythia.
  12 0.000000 # ve : 0.0 
  14 0.000000 # vm : 0.0 
  16 0.000000 # vt : 0.0 
  21 0.000000 # g : 0.0 
  22 0.000000 # a : 0.0 
  24 79.824360 # w+ : cmath.sqrt(MZ__exp__2/2. + cmath.sqrt(MZ__exp__4/4. - (aEW*cmath.pi*MZ__exp__2)/(Gf*sqrt__2))) 

###################################
## INFORMATION FOR SMINPUTS
###################################
Block sminputs 
    1 1.279000e+02 # aEWM1 
    2 1.166370e-05 # Gf 
    3 1.184000e-01 # aS 

###################################
## INFORMATION FOR YUKAWA
###################################
Block yukawa 
    1 5.040000e-03 # ymdo 
    2 2.550000e-03 # ymup 
    3 1.010000e-01 # yms 
    4 1.270000e+00 # ymc 
    5 4.700000e+00 # ymb 
    6 1.720000e+02 # ymt 
   11 5.110000e-04 # yme 
   13 1.056600e-01 # ymm 
   15 1.777000e+00 # ymtau 

###################################
## INFORMATION FOR DECAY
###################################
DECAY   6 1.508336e+00 # WT 
DECAY  23 2.495200e+00 # WZ 
DECAY  24 2.085000e+00 # WW 
DECAY  25 5.753088e-03 # WH 
## Dependent parameters, given by model restrictions.
## Those values should be edited following the 
## analytical expression. MG5 ignores those values 
## but they are important for interfacing the output of MG5
## to external program such as Pythia.
DECAY  1 0.000000 # d : 0.0 
DECAY  2 0.000000 # u : 0.0 
DECAY  3 0.000000 # s : 0.0 
DECAY  4 0.000000 # c : 0.0 
DECAY  5 0.000000 # b : 0.0 
DECAY  11 0.000000 # e- : 0.0 
DECAY  12 0.000000 # ve : 0.0 
DECAY  13 0.000000 # mu- : 0.0 
DECAY  14 0.000000 # vm : 0.0 
DECAY  15 0.000000 # ta- : 0.0 
DECAY  16 0.000000 # vt : 0.0 
DECAY  21 0.000000 # g : 0.0 
DECAY  22 0.000000 # a : 0.0 
DECAY  10030 0.308725 # zph : (gz__exp__2*MZph*(5 + cmath.sqrt(1 - (4*MT__exp__2)/MZph__exp__2)))/(144.*cmath.pi) 
DECAY  10031 0.132629 # zpl : (5*gz__exp__2*MZpl)/(144.*cmath.pi) 
#===========================================================
# QUANTUM NUMBERS OF NEW STATE(S) (NON SM PDG CODE)
#===========================================================

Block QNUMBERS 10030  # zph 
        1 0  # 3 times electric charge
        2 3  # number of spin states (2S+1)
        3 1  # colour rep (1: singlet, 3: triplet, 8: octet)
        4 0  # Particle/Antiparticle distinction (0=own anti)
Block QNUMBERS 10031  # zpl 
        1 0  # 3 times electric charge
        2 3  # number of spin states (2S+1)
        3 1  # colour rep (1: singlet, 3: triplet, 8: octet)
        4 0  # Particle/Antiparticle distinction (0=own anti)
</slha>
## END BANNER##
<MGGenerationInfo>
#  Number of Events        :         3921
#  Integrated weight (pb)  :  0.97799E-01
#  Max wgt                 :  0.34606E-04
#  Average wgt             :  0.24942E-04
</MGGenerationInfo>
</header>
<init>
     2212     2212  0.40000000000E+04  0.40000000000E+04 0 0  247000  247000 2   1
  0.97836980575E-01  0.24184388444E-03  0.34606480000E-04   0
</init>
<event>
 5   0  0.3387881E-04  0.1840124E+04  0.7818609E-02  0.8685248E-01
        2   -1    0    0  501    0  0.00000000000E+00  0.00000000000E+00  0.82688197868E+03  0.82688197868E+03  0.25500000920E-02 0. -1.
       -2   -1    0    0    0  501  0.00000000000E+00  0.00000000000E+00 -0.10237420717E+04  0.10237420717E+04  0.25500000920E-02 0.  1.
    10030    2    1    2    0    0  0.00000000000E+00  0.00000000000E+00 -0.19686009301E+03  0.18506240504E+04  0.18401237675E+04 0.  0.
        1    1    3    3  502    0  0.76460858151E+03 -0.35221990561E+03  0.27494134341E+03  0.88559465173E+03  0.50400001928E-02 0. -1.
       -1    1    3    3    0  502 -0.76460858151E+03  0.35221990561E+03 -0.47180143642E+03  0.96502939865E+03  0.50400001928E-02 0.  1.
</event>
<event>
 5   0  0.3387881E-04  0.1991760E+04  0.7818609E-02  0.8610483E-01
       -2   -1    0    0    0  501  0.00000000000E+00  0.00000000000E+00  0.46913661048E+03  0.46913661048E+03  0.25500000920E-02 0.  1.
        2   -1    0    0  501    0  0.00000000000E+00  0.00000000000E+00 -0.21140482692E+04  0.21140482692E+04  0.25500000920E-02 0. -1.
    10030    2    1    2    0    0  0.00000000000E+00  0.00000000000E+00 -0.16449116588E+04  0.25831848797E+04  0.19917604669E+04 0.  0.
        1    1    3    3  502    0 -0.73871934533E+03 -0.50377165143E+03 -0.13911665489E+04  0.16537341125E+04  0.50400001928E-02 0. -1.
       -1    1    3    3    0  502  0.73871934533E+03  0.50377165143E+03 -0.25374510987E+03  0.92945076726E+03  0.50400001928E-02 0.  1.
</event>
<event>
 5   0  0.3431030E-04  0.2044672E+04  0.7818609E-02  0.8586015E-01
       -2   -1    0    0    0  501  0.00000000000E+00  0.00000000000E+00  0.55341893032E+03  0.55341893033E+03  0.25500000920E-02 0. -1.
        2   -1    0    0  501    0  0.00000000000E+00  0.00000000000E+00 -0.18885714097E+04  0.18885714097E+04  0.25500000920E-02 0.  1.
    10030    2    1    2    0    0  0.00000000000E+00  0.00000000000E+00 -0.13351524794E+04  0.24419903401E+04  0.20446722666E+04 0.  0.
        3    1    3    3  502    0  0.22438621668E+03  0.10505520631E+03  0.51702018980E+03  0.57331985617E+03  0.10100000352E+00 0. -1.
       -3    1    3    3    0  502 -0.22438621668E+03 -0.10505520631E+03 -0.18521726692E+04  0.18686704839E+04  0.10100000352E+00 0.  1.
</event>
<event>
 5   0  0.3387881E-04  0.2057532E+04  0.7818609E-02  0.8580185E-01
        2   -1    0    0  501    0  0.00000000000E+00  0.00000000000E+00  0.99182399158E+03  0.99182399158E+03  0.25500000920E-02 0. -1.
       -2   -1    0    0    0  501  0.00000000000E+00  0.00000000000E+00 -0.10670835130E+04  0.10670835130E+04  0.25500000920E-02 0.  1.
    10030    2    1    2    0    0  0.00000000000E+00  0.00000000000E+00 -0.75259521395E+02  0.20589075046E+04  0.20575315591E+04 0.  0.
        1    1    3    3  502    0  0.98009377323E+03 -0.22252483072E+03  0.18219400909E+03  0.10214185046E+04  0.50400001928E-02 0. -1.
       -1    1    3    3    0  502 -0.98009377323E+03  0.22252483072E+03 -0.25745353048E+03  0.10374889999E+04  0.50400001928E-02 0.  1.
</event>
<event>
 5   0  0.3431030E-04  0.2008409E+04  0.7818609E-02  0.8602699E-01
       -2   -1    0    0    0  501  0.00000000000E+00  0.00000000000E+00  0.56529381465E+03  0.56529381466E+03  0.25500000920E-02 0.  1.
        2   -1    0    0  501    0  0.00000000000E+00  0.00000000000E+00 -0.17838977656E+04  0.17838977656E+04  0.25500000920E-02 0. -1.
    10030    2    1    2    0    0  0.00000000000E+00  0.00000000000E+00 -0.12186039509E+04  0.23491915802E+04  0.20084086963E+04 0.  0.
        3    1    3    3  502    0 -0.18257790910E+03  0.69154646451E+03  0.21518014760E+03  0.74690944002E+03  0.10100000352E+00 0.  1.
       -3    1    3    3    0  502  0.18257790910E+03 -0.69154646451E+03 -0.14337840985E+04  0.16022821402E+04  0.10100000352E+00 0. -1.
</event>
<event>
 5   0  0.1650221E-04  0.2216214E+04  0.7818609E-02  0.8511710E-01
       -1   -1    0    0    0  501  0.00000000000E+00  0.00000000000E+00  0.86065327245E+03  0.86065327246E+03  0.50400001928E-02 0. -1.
        1   -1    0    0  501    0  0.00000000000E+00  0.00000000000E+00 -0.14267084799E+04  0.14267084800E+04  0.50400001928E-02 0.  1.
    10030    2    1    2    0    0  0.00000000000E+00  0.00000000000E+00 -0.56605520749E+03  0.22873617524E+04  0.22162141793E+04 0.  0.
        1    1    3    3  502    0  0.97067090020E+03 -0.32610035338E+03  0.15407496918E+03  0.10355107595E+04  0.50400001928E-02 0. -1.
       -1    1    3    3    0  502 -0.97067090020E+03  0.32610035338E+03 -0.72013017667E+03  0.12518509929E+04  0.50400001928E-02 0.  1.
</event>
<event>
 5   0  0.1708578E-04  0.1970598E+04  0.7818609E-02  0.8620492E-01
        1   -1    0    0  501    0  0.00000000000E+00  0.00000000000E+00  0.91169492032E+03  0.91169492033E+03  0.50400001928E-02 0.  1.
       -1   -1    0    0    0  501  0.00000000000E+00  0.00000000000E+00 -0.10648451807E+04  0.10648451807E+04  0.50400001928E-02 0. -1.
    10030    2    1    2    0    0  0.00000000000E+00  0.00000000000E+00 -0.15315026037E+03  0.19765401010E+04  0.19705978201E+04 0.  0.
        3    1    3    3  502    0 -0.86843057773E+03  0.43799531597E+03 -0.23453770177E+03  0.10005096246E+04  0.10100000352E+00 0.  1.
       -3    1    3    3    0  502  0.86843057773E+03 -0.43799531597E+03  0.81387441395E+02  0.97603047645E+03  0.10100000352E+00 0. -1.
</event>
<event>
 5   0  0.3387881E-04  0.1965635E+04  0.7818609E-02  0.8622858E-01
        2   -1    0    0  501    0  0.00000000000E+00  0.00000000000E+00  0.10997985880E+04  0.10997985880E+04  0.25500000920E-02 0.  1.
       -2   -1    0    0    0  501  0.00000000000E+00  0.00000000000E+00 -0.87827953157E+03  0.87827953158E+03  0.25500000920E-02 0. -1.
    10030    2    1    2    0    0  0.00000000000E+00  0.00000000000E+00  0.22151905647E+03  0.19780781196E+04  0.19656353566E+04 0.  0.
        1    1    3    3  502    0  0.61753647385E+03 -0.67725653303E+03 -0.24631454455E+03  0.94905140163E+03  0.50400001928E-02 0. -1.
       -1    1    3    3    0  502 -0.61753647385E+03  0.67725653303E+03  0.46783360102E+03  0.10290267180E+04  0.50400001928E-02 0.  1.
</event>
<event>
 5   0  0.1643565E-04  0.1944621E+04  0.7818609E-02  0.8632959E-01
       -1   -1    0    0    0  501  0.00000000000E+00  0.00000000000E+00  0.11643745219E+04  0.11643745219E+04  0.50400001928E-02 0. -1.
        1   -1    0    0  501    0  0.00000000000E+00  0.00000000000E+00 -0.81192733254E+03  0.81192733255E+03  0.50400001928E-02 0.  1.
    10030    2    1    2    0    0  0.00000000000E+00  0.00000000000E+00  0.35244718937E+03  0.19763018545E+04  0.19446207853E+04 0.  0.
        2    1    3    3  502    0 -0.15690712859E+03 -0.39966403402E+03 -0.71036276326E+03  0.83004002465E+03  0.25500000920E-02 0.  1.
       -2    1    3    3    0  502  0.15690712859E+03  0.39966403402E+03  0.10628099526E+04  0.11462618298E+04  0.25500000920E-02 0. -1.
</event>
<event>
 5   0  0.3387881E-04  0.1976015E+04  0.7818609E-02  0.8617917E-01
        2   -1    0    0  501    0  0.00000000000E+00  0.00000000000E+00  0.11694345485E+04  0.11694345485E+04  0.25500000920E-02 0.  1.
       -2   -1    0    0    0  501  0.00000000000E+00  0.00000000000E+00 -0.83472681888E+03  0.83472681889E+03  0.25500000920E-02 0. -1.
    10030    2    1    2    0    0  0.00000000000E+00  0.00000000000E+00  0.33470772958E+03  0.20041613674E+04  0.19760145551E+04 0.  0.
        1    1    3    3  502    0  0.22301802066E+03  0.65537753007E+03 -0.54759957571E+03  0.88267889961E+03  0.50400001928E-02 0. -1.
       -1    1    3    3    0  502 -0.22301802066E+03 -0.65537753007E+03  0.88230730529E+03  0.11214824677E+04  0.50400001928E-02 0.  1.
</event>
<event>
 5   0  0.1222488E-04  0.1858443E+04  0.7818609E-02  0.8675823E-01
        4   -1    0    0  501    0  0.00000000000E+00  0.00000000000E+00  0.12529572929E+04  0.12529579365E+04  0.12699999809E+01 0.  1.
       -4   -1    0    0    0  501  0.00000000000E+00  0.00000000000E+00 -0.68912995178E+03  0.68913112202E+03  0.12699999809E+01 0. -1.
    10030    2    1    2    0    0  0.00000000000E+00  0.00000000000E+00  0.56382734113E+03  0.19420890586E+04  0.18584425309E+04 0.  0.
        5    1    3    3  502    0 -0.46480239487E+03  0.56010806204E+03 -0.32172510621E+03  0.79579610542E+03  0.46999998093E+01 0. -1.
       -5    1    3    3    0  502  0.46480239487E+03 -0.56010806204E+03  0.88555244734E+03  0.11462929531E+04  0.46999998093E+01 0.  1.
</event>
<event>
 5   0  0.3460648E-04  0.1983012E+04  0.7818609E-02  0.8614605E-01
       -2   -1    0    0    0  501  0.00000000000E+00  0.00000000000E+00  0.83901571002E+03  0.83901571002E+03  0.25500000920E-02 0.  1.
        2   -1    0    0  501    0  0.00000000000E+00  0.00000000000E+00 -0.11717106671E+04  0.11717106671E+04  0.25500000920E-02 0. -1.
    10030    2    1    2    0    0  0.00000000000E+00  0.00000000000E+00 -0.33269495710E+03  0.20107263771E+04  0.19830115051E+04 0.  0.
        5    1    3    3  502    0  0.27648075974E+03  0.94893004911E+03 -0.24587656166E+03  0.10185220774E+04  0.46999998093E+01 0.  1.
       -5    1    3    3    0  502 -0.27648075974E+03 -0.94893004911E+03 -0.86818395434E+02  0.99220429972E+03  0.46999998093E+01 0. -1.
</event>
<event>
 5   0  0.1664168E-04  0.1141816E+04  0.7818609E-02  0.9165367E-01
        1   -1    0    0  501    0  0.00000000000E+00  0.00000000000E+00  0.56530540301E+03  0.56530540303E+03  0.50400001928E-02 0. -1.
       -1   -1    0    0    0  501  0.00000000000E+00  0.00000000000E+00 -0.57656641602E+03  0.57656641604E+03  0.50400001928E-02 0.  1.
    10030    2    1    2    0    0  0.00000000000E+00  0.00000000000E+00 -0.11261013007E+02  0.11418718191E+04  0.11418162903E+04 0.  0.
        5    1    3    3  502    0 -0.83066654961E+02 -0.33154729115E+03  0.45165570825E+03  0.56642620370E+03  0.46999998093E+01 0. -1.
       -5    1    3    3    0  502  0.83066654961E+02  0.33154729115E+03 -0.46291672126E+03  0.57544561538E+03  0.46999998093E+01 0.  1.
</event>
<event>
 5   0  0.1650221E-04  0.2129002E+04  0.7818609E-02  0.8548574E-01
       -1   -1    0    0    0  501  0.00000000000E+00  0.00000000000E+00  0.55699934565E+03  0.55699934567E+03  0.50400001928E-02 0.  1.
        1   -1    0    0  501    0  0.00000000000E+00  0.00000000000E+00 -0.20344045854E+04  0.20344045854E+04  0.50400001928E-02 0. -1.
    10030    2    1    2    0    0  0.00000000000E+00  0.00000000000E+00 -0.14774052397E+04  0.25914039310E+04  0.21290016655E+04 0.  0.
        1    1    3    3  502    0 -0.28904411416E+02  0.10081450492E+04 -0.11532098983E+04  0.15320199002E+04  0.50400001928E-02 0. -1.
       -1    1    3    3    0  502  0.28904411416E+02 -0.10081450492E+04 -0.32419534144E+03  0.10593840308E+04  0.50400001928E-02 0.  1.
</event>
<event>
 5   0  0.1708578E-04  0.2008550E+04  0.7818609E-02  0.8602634E-01
       -1   -1    0    0    0  501  0.00000000000E+00  0.00000000000E+00  0.15115537870E+04  0.15115537870E+04  0.50400001928E-02 0.  1.
        1   -1    0    0  501    0  0.00000000000E+00  0.00000000000E+00 -0.66723933755E+03  0.66723933756E+03  0.50400001928E-02 0. -1.
    10030    2    1    2    0    0  0.00000000000E+00  0.00000000000E+00  0.84431444942E+03  0.21787931245E+04  0.20085498724E+04 0.  0.
        3    1    3    3  502    0 -0.14187830673E+03  0.25219314434E+03 -0.62103909262E+03  0.68514261343E+03  0.10100000352E+00 0. -1.
       -3    1    3    3    0  502  0.14187830673E+03 -0.25219314434E+03  0.14653535420E+04  0.14936505111E+04  0.10100000352E+00 0.  1.
</event>
<event>
 5   0  0.1708578E-04  0.2017534E+04  0.7818609E-02  0.8598467E-01
        1   -1    0    0  501    0  0.00000000000E+00  0.00000000000E+00  0.10580247177E+04  0.10580247177E+04  0.50400001928E-02 0. -1.
       -1   -1    0    0    0  501  0.00000000000E+00  0.00000000000E+00 -0.96180250879E+03  0.96180250881E+03  0.50400001928E-02 0.  1.
    10030    2    1    2    0    0  0.00000000000E+00  0.00000000000E+00  0.96222208880E+02  0.20198272265E+04  0.20175339678E+04 0.  0.
        3    1    3    3  502    0 -0.35910664214E+03 -0.92581654079E+03  0.22584309131E+03  0.10183805574E+04  0.10100000352E+00 0. -1.
       -3    1    3    3    0  502  0.35910664214E+03  0.92581654079E+03 -0.12962088243E+03  0.10014466691E+04  0.10100000352E+00 0.  1.
</event>
<event>
 5   0  0.3387881E-04  0.2020037E+04  0.7818609E-02  0.8597310E-01
        2   -1    0    0  501    0  0.00000000000E+00  0.00000000000E+00  0.68626264889E+03  0.68626264890E+03  0.25500000920E-02 0. -1.
       -2   -1    0    0    0  501  0.00000000000E+00  0.00000000000E+00 -0.14865109342E+04  0.14865109342E+04  0.25500000920E-02 0.  1.
    10030    2    1    2    0    0  0.00000000000E+00  0.00000000000E+00 -0.80024828534E+03  0.21727735831E+04  0.20200365654E+04 0.  0.
        1    1    3    3  502    0 -0.56861503917E+03  0.61491692345E+03 -0.10073359002E+04  0.13100272903E+04  0.50400001928E-02 0.  1.
       -1    1    3    3    0  502  0.56861503917E+03 -0.61491692345E+03  0.20708761486E+03  0.86274629282E+03  0.50400001928E-02 0. -1.
</event>
<event>
 5   0  0.1696052E-04  0.1956274E+04  0.7818609E-02  0.8627341E-01
       -1   -1    0    0    0  501  0.00000000000E+00  0.00000000000E+00  0.58648479093E+03  0.58648479095E+03  0.50400001928E-02 0. -1.
        1   -1    0    0  501    0  0.00000000000E+00  0.00000000000E+00 -0.16313327235E+04  0.16313327235E+04  0.50400001928E-02 0.  1.
    10030    2    1    2    0    0  0.00000000000E+00  0.00000000000E+00 -0.10448479326E+04  0.22178175144E+04  0.19562738370E+04 0.  0.
        4    1    3    3  502    0  0.64044539909E+03 -0.26667990838E+03 -0.13041488702E+04  0.14771913794E+04  0.12699999809E+01 0.  1.
       -4    1    3    3    0  502 -0.64044539909E+03  0.26667990838E+03  0.25930093767E+03  0.74062613506E+03  0.12699999809E+01 0. -1.
</event>
<event>
 5   0  0.1650221E-04  0.2076775E+04  0.7818609E-02  0.8571544E-01
       -1   -1    0    0    0  501  0.00000000000E+00  0.00000000000E+00  0.94736704168E+03  0.94736704170E+03  0.50400001928E-02 0.  1.
        1   -1    0    0  501    0  0.00000000000E+00  0.00000000000E+00 -0.11381530774E+04  0.11381530774E+04  0.50400001928E-02 0. -1.
    10030    2    1    2    0    0  0.00000000000E+00  0.00000000000E+00 -0.19078603570E+03  0.20855201191E+04  0.20767751096E+04 0.  0.
        1    1    3    3  502    0  0.70324827125E+03 -0.57491052992E+03  0.40988420159E+03  0.99653665621E+03  0.50400001928E-02 0.  1.
       -1    1    3    3    0  502 -0.70324827125E+03  0.57491052992E+03 -0.60067023729E+03  0.10889834629E+04  0.50400001928E-02 0. -1.
</event>
<event>
 5   0  0.3371947E-04  0.1662994E+04  0.7818609E-02  0.8782757E-01
        2   -1    0    0  501    0  0.00000000000E+00  0.00000000000E+00  0.68600378834E+03  0.68600378834E+03  0.25500000920E-02 0. -1.
       -2   -1    0    0    0  501  0.00000000000E+00  0.00000000000E+00 -0.10078470820E+04  0.10078470820E+04  0.25500000920E-02 0.  1.
    10030    2    1    2    0    0  0.00000000000E+00  0.00000000000E+00 -0.32184329364E+03  0.16938508703E+04  0.16629935854E+04 0.  0.
        2    1    3    3  502    0 -0.55837957289E+03  0.46910434419E+03 -0.56775802257E+03  0.92422713948E+03  0.25500000920E-02 0.  1.
       -2    1    3    3    0  502  0.55837957289E+03 -0.46910434419E+03  0.24591472893E+03  0.76962373084E+03  0.25500000920E-02 0. -1.
</event>
<event>
 5   0  0.1708578E-04  0.1307786E+04  0.7818609E-02  0.9023414E-01
        1   -1    0    0  501    0  0.00000000000E+00  0.00000000000E+00  0.88513315488E+03  0.88513315489E+03  0.50400001928E-02 0.  1.
       -1   -1    0    0    0  501  0.00000000000E+00  0.00000000000E+00 -0.48306395217E+03  0.48306395220E+03  0.50400001928E-02 0. -1.
    10030    2    1    2    0    0  0.00000000000E+00  0.00000000000E+00  0.40206920271E+03  0.13681971071E+04  0.13077857929E+04 0.  0.
        3    1    3    3  502    0  0.14939961004E+03  0.45501472786E+03 -0.26474749490E+03  0.54722014977E+03  0.10100000352E+00 0. -1.
       -3    1    3    3    0  502 -0.14939961004E+03 -0.45501472786E+03  0.66681669761E+03  0.82097695733E+03  0.10100000352E+00 0.  1.
</event>
<event>
 5   0  0.3431030E-04  0.1986992E+04  0.7818609E-02  0.8612727E-01
       -2   -1    0    0    0  501  0.00000000000E+00  0.00000000000E+00  0.54177381850E+03  0.54177381850E+03  0.25500000920E-02 0.  1.
        2   -1    0    0  501    0  0.00000000000E+00  0.00000000000E+00 -0.18218563693E+04  0.18218563693E+04  0.25500000920E-02 0. -1.
    10030    2    1    2    0    0  0.00000000000E+00  0.00000000000E+00 -0.12800825508E+04  0.23636301878E+04  0.19869917785E+04 0.  0.
        3    1    3    3  502    0 -0.73888742720E+03 -0.60185825832E+03 -0.30602047905E+03  0.10009178473E+04  0.10100000352E+00 0.  1.
       -3    1    3    3    0  502  0.73888742720E+03  0.60185825832E+03 -0.97406207174E+03  0.13627123405E+04  0.10100000352E+00 0. -1.
</event>
<event>
 5   0  0.1650221E-04  0.1985779E+04  0.7818609E-02  0.8613298E-01
       -1   -1    0    0    0  501  0.00000000000E+00  0.00000000000E+00  0.98049921782E+03  0.98049921784E+03  0.50400001928E-02 0. -1.
        1   -1    0    0  501    0  0.00000000000E+00  0.00000000000E+00 -0.10054367707E+04  0.10054367707E+04  0.50400001928E-02 0.  1.
    10030    2    1    2    0    0  0.00000000000E+00  0.00000000000E+00 -0.24937552853E+02  0.19859359885E+04  0.19857794110E+04 0.  0.
        1    1    3    3  502    0  0.71378543813E+03  0.10276754605E+03 -0.69500273363E+03  0.10015386263E+04  0.50400001928E-02 0.  1.
       -1    1    3    3    0  502 -0.71378543813E+03 -0.10276754605E+03  0.67006518078E+03  0.98439736221E+03  0.50400001928E-02 0. -1.
</event>
<event>
 5   0  0.3371947E-04  0.2038659E+04  0.7818609E-02  0.8588756E-01
       -2   -1    0    0    0  501  0.00000000000E+00  0.00000000000E+00  0.78520516385E+03  0.78520516385E+03  0.25500000920E-02 0. -1.
        2   -1    0    0  501    0  0.00000000000E+00  0.00000000000E+00 -0.13232630965E+04  0.13232630965E+04  0.25500000920E-02 0.  1.
    10030    2    1    2    0    0  0.00000000000E+00  0.00000000000E+00 -0.53805793264E+03  0.21084682603E+04  0.20386593796E+04 0.  0.
        2    1    3    3  502    0  0.52199681366E+03  0.24479339877E+03 -0.11384256588E+04  0.12760946134E+04  0.25500000920E-02 0.  1.
       -2    1    3    3    0  502 -0.52199681366E+03 -0.24479339877E+03  0.60036772619E+03  0.83237364699E+03  0.25500000920E-02 0. -1.
</event>
<event>
 5   0  0.1643565E-04  0.1984529E+04  0.7818609E-02  0.8613888E-01
       -1   -1    0    0    0  501  0.00000000000E+00  0.00000000000E+00  0.61352127614E+03  0.61352127616E+03  0.50400001928E-02 0. -1.
        1   -1    0    0  501    0  0.00000000000E+00  0.00000000000E+00 -0.16048158212E+04  0.16048158212E+04  0.50400001928E-02 0.  1.
    10030    2    1    2    0    0  0.00000000000E+00  0.00000000000E+00 -0.99129454506E+03  0.22183370974E+04  0.19845288112E+04 0.  0.
        2    1    3    3  502    0  0.31637539405E+03  0.88849988601E+03 -0.84029576129E+03  0.12631794820E+04  0.25500000920E-02 0.  1.
       -2    1    3    3    0  502 -0.31637539405E+03 -0.88849988601E+03 -0.15099878377E+03  0.95515761532E+03  0.25500000920E-02 0. -1.
</event>
<event>
 5   0  0.3431030E-04  0.1968949E+04  0.7818609E-02  0.8621277E-01
       -2   -1    0    0    0  501  0.00000000000E+00  0.00000000000E+00  0.43378575297E+03  0.43378575298E+03  0.25500000920E-02 0.  1.
        2   -1    0    0  501    0  0.00000000000E+00  0.00000000000E+00 -0.22342608421E+04  0.22342608421E+04  0.25500000920E-02 0. -1.
    10030    2    1    2    0    0  0.00000000000E+00  0.00000000000E+00 -0.18004750892E+04  0.26680465951E+04  0.19689494882E+04 0.  0.
        3    1    3    3  502    0 -0.91641681702E+03  0.35272600012E+03 -0.99562361410E+03  0.13983925789E+04  0.10100000352E+00 0.  1.
       -3    1    3    3    0  502  0.91641681702E+03 -0.35272600012E+03 -0.80485147506E+03  0.12696540162E+04  0.10100000352E+00 0. -1.
</event>
<event>
 5   0  0.3460648E-04  0.2168289E+04  0.7818609E-02  0.8531744E-01
        2   -1    0    0  501    0  0.00000000000E+00  0.00000000000E+00  0.10587091295E+04  0.10587091295E+04  0.25500000920E-02 0. -1.
       -2   -1    0    0    0  501  0.00000000000E+00  0.00000000000E+00 -0.11101912577E+04  0.11101912577E+04  0.25500000920E-02 0.  1.
    10030    2    1    2    0    0  0.00000000000E+00  0.00000000000E+00 -0.51482128272E+02  0.21689003872E+04  0.21682892981E+04 0.  0.
        5    1    3    3  502    0 -0.15874722287E+03 -0.51309988135E+03 -0.96774707674E+03  0.11068101299E+04  0.46999998093E+01 0.  1.
       -5    1    3    3    0  502  0.15874722287E+03  0.51309988135E+03  0.91626494847E+03  0.10620902574E+04  0.46999998093E+01 0. -1.
</event>
<event>
 5   0  0.1643565E-04  0.2031057E+04  0.7818609E-02  0.8592237E-01
       -1   -1    0    0    0  501  0.00000000000E+00  0.00000000000E+00  0.77070996311E+03  0.77070996312E+03  0.50400001928E-02 0.  1.
        1   -1    0    0  501    0  0.00000000000E+00  0.00000000000E+00 -0.13381140592E+04  0.13381140592E+04  0.50400001928E-02 0. -1.
    10030    2    1    2    0    0  0.00000000000E+00  0.00000000000E+00 -0.56740409605E+03  0.21088240223E+04  0.20310567074E+04 0.  0.
        2    1    3    3  502    0  0.81781970864E+03  0.35438288014E+03 -0.78904230383E+03  0.11903797960E+04  0.25500000920E-02 0. -1.
       -2    1    3    3    0  502 -0.81781970864E+03 -0.35438288014E+03  0.22163820778E+03  0.91844422625E+03  0.25500000920E-02 0.  1.
</event>
<event>
 5   0  0.3431030E-04  0.1948550E+04  0.7818609E-02  0.8631060E-01
       -2   -1    0    0    0  501  0.00000000000E+00  0.00000000000E+00  0.18682936790E+04  0.18682936790E+04  0.25500000920E-02 0. -1.
        2   -1    0    0  501    0  0.00000000000E+00  0.00000000000E+00 -0.50806346091E+03  0.50806346092E+03  0.25500000920E-02 0.  1.
    10030    2    1    2    0    0  0.00000000000E+00  0.00000000000E+00  0.13602302181E+04  0.23763571399E+04  0.19485499763E+04 0.  0.
        3    1    3    3  502    0 -0.61860564956E+03 -0.64242324727E+02  0.15947069896E+04  0.17116922676E+04  0.10100000352E+00 0. -1.
       -3    1    3    3    0  502  0.61860564956E+03  0.64242324727E+02 -0.23447677152E+03  0.66466487235E+03  0.10100000352E+00 0.  1.
</event>
<event>
 5   0  0.3387881E-04  0.2023811E+04  0.7818609E-02  0.8595569E-01
        2   -1    0    0  501    0  0.00000000000E+00  0.00000000000E+00  0.72407246542E+03  0.72407246543E+03  0.25500000920E-02 0. -1.
       -2   -1    0    0    0  501  0.00000000000E+00  0.00000000000E+00 -0.14141575913E+04  0.14141575913E+04  0.25500000920E-02 0.  1.
    10030    2    1    2    0    0  0.00000000000E+00  0.00000000000E+00 -0.69008512593E+03  0.21382300568E+04  0.20238108347E+04 0.  0.
        1    1    3    3  502    0  0.48506533916E+03  0.54463409867E+03 -0.10861544628E+04  0.13082989727E+04  0.50400001928E-02 0.  1.
       -1    1    3    3    0  502 -0.48506533916E+03 -0.54463409867E+03  0.39606933692E+03  0.82993108411E+03  0.50400001928E-02 0. -1.
</event>
<event>
 5   0  0.1664168E-04  0.1270018E+04  0.7818609E-02  0.9053685E-01
        1   -1    0    0  501    0  0.00000000000E+00  0.00000000000E+00  0.59170009267E+03  0.59170009269E+03  0.50400001928E-02 0. -1.
       -1   -1    0    0    0  501  0.00000000000E+00  0.00000000000E+00 -0.68148824480E+03  0.68148824482E+03  0.50400001928E-02 0.  1.
    10030    2    1    2    0    0  0.00000000000E+00  0.00000000000E+00 -0.89788152128E+02  0.12731883375E+04  0.12700183583E+04 0.  0.
        5    1    3    3  502    0 -0.60874178723E+03  0.82402768180E+02 -0.20609901280E+03  0.64796270942E+03  0.46999998093E+01 0.  1.
       -5    1    3    3    0  502  0.60874178723E+03 -0.82402768180E+02  0.11631086067E+03  0.62522562810E+03  0.46999998093E+01 0. -1.
</event>
<event>
 5   0  0.3431030E-04  0.1942788E+04  0.7818609E-02  0.8633846E-01
       -2   -1    0    0    0  501  0.00000000000E+00  0.00000000000E+00  0.18048490881E+04  0.18048490881E+04  0.25500000920E-02 0.  1.
        2   -1    0    0  501    0  0.00000000000E+00  0.00000000000E+00 -0.52281732945E+03  0.52281732946E+03  0.25500000920E-02 0. -1.
    10030    2    1    2    0    0  0.00000000000E+00  0.00000000000E+00  0.12820317586E+04  0.23276664175E+04  0.19427880793E+04 0.  0.
        3    1    3    3  502    0  0.65785236046E+03 -0.47828048851E+03  0.12773494826E+04  0.15143129349E+04  0.10100000352E+00 0.  1.
       -3    1    3    3    0  502 -0.65785236046E+03  0.47828048851E+03  0.46822760275E+01  0.81335348266E+03  0.10100000352E+00 0. -1.
</event>
<event>
 5   0  0.1696052E-04  0.1995609E+04  0.7818609E-02  0.8608676E-01
        1   -1    0    0  501    0  0.00000000000E+00  0.00000000000E+00  0.77032398775E+03  0.77032398776E+03  0.50400001928E-02 0.  1.
       -1   -1    0    0    0  501  0.00000000000E+00  0.00000000000E+00 -0.12924609141E+04  0.12924609142E+04  0.50400001928E-02 0. -1.
    10030    2    1    2    0    0  0.00000000000E+00  0.00000000000E+00 -0.52213692640E+03  0.20627849019E+04  0.19956088248E+04 0.  0.
        4    1    3    3  502    0  0.78667356299E+03  0.28277251729E+03  0.30206051045E+03  0.88885193149E+03  0.12699999809E+01 0.  1.
       -4    1    3    3    0  502 -0.78667356299E+03 -0.28277251729E+03 -0.82419743685E+03  0.11739329704E+04  0.12699999809E+01 0. -1.
</event>
<event>
 5   0  0.1650221E-04  0.1352199E+04  0.7818609E-02  0.8989165E-01
       -1   -1    0    0    0  501  0.00000000000E+00  0.00000000000E+00  0.10090012996E+04  0.10090012996E+04  0.50400001928E-02 0.  1.
        1   -1    0    0  501    0  0.00000000000E+00  0.00000000000E+00 -0.45303245148E+03  0.45303245151E+03  0.50400001928E-02 0. -1.
    10030    2    1    2    0    0  0.00000000000E+00  0.00000000000E+00  0.55596884810E+03  0.14620337511E+04  0.13521987019E+04 0.  0.
        1    1    3    3  502    0  0.57322784023E+03 -0.28077497060E+03  0.36976059654E+02  0.63936841488E+03  0.50400001928E-02 0.  1.
       -1    1    3    3    0  502 -0.57322784023E+03  0.28077497060E+03  0.51899278845E+03  0.82266533622E+03  0.50400001928E-02 0. -1.
</event>
<event>
 5   0  0.1708578E-04  0.1823945E+04  0.7818609E-02  0.8693668E-01
       -1   -1    0    0    0  501  0.00000000000E+00  0.00000000000E+00  0.43163129220E+03  0.43163129223E+03  0.50400001928E-02 0.  1.
        1   -1    0    0  501    0  0.00000000000E+00  0.00000000000E+00 -0.19268617684E+04  0.19268617684E+04  0.50400001928E-02 0. -1.
    10030    2    1    2    0    0  0.00000000000E+00  0.00000000000E+00 -0.14952304762E+04  0.23584930606E+04  0.18239449937E+04 0.  0.
        3    1    3    3  502    0 -0.26940919295E+03 -0.20888674308E+03  0.34614281362E+03  0.48582902580E+03  0.10100000352E+00 0.  1.
       -3    1    3    3    0  502  0.26940919295E+03  0.20888674308E+03 -0.18413732898E+04  0.18726640348E+04  0.10100000352E+00 0. -1.
</event>
<event>
 5   0  0.3395569E-04  0.2014823E+04  0.7818609E-02  0.8599722E-01
       -2   -1    0    0    0  501  0.00000000000E+00  0.00000000000E+00  0.12651270595E+04  0.12651270595E+04  0.25500000920E-02 0. -1.
        2   -1    0    0  501    0  0.00000000000E+00  0.00000000000E+00 -0.80219419578E+03  0.80219419578E+03  0.25500000920E-02 0.  1.
    10030    2    1    2    0    0  0.00000000000E+00  0.00000000000E+00  0.46293286373E+03  0.20673212553E+04  0.20148226563E+04 0.  0.
        4    1    3    3  502    0  0.24310608375E+03 -0.42388383174E+03 -0.67245232504E+03  0.83124714322E+03  0.12699999809E+01 0.  1.
       -4    1    3    3    0  502 -0.24310608375E+03  0.42388383174E+03  0.11353851888E+04  0.12360741121E+04  0.12699999809E+01 0. -1.
</event>
<event>
 5   0  0.3395569E-04  0.2019188E+04  0.7818609E-02  0.8597702E-01
       -2   -1    0    0    0  501  0.00000000000E+00  0.00000000000E+00  0.11888715176E+04  0.11888715176E+04  0.25500000920E-02 0. -1.
        2   -1    0    0  501    0  0.00000000000E+00  0.00000000000E+00 -0.85735113694E+03  0.85735113694E+03  0.25500000920E-02 0.  1.
    10030    2    1    2    0    0  0.00000000000E+00  0.00000000000E+00  0.33152038064E+03  0.20462226545E+04  0.20191882996E+04 0.  0.
        4    1    3    3  502    0  0.47516887853E+03  0.83052277977E+02  0.10645369237E+04  0.11687273501E+04  0.12699999809E+01 0. -1.
       -4    1    3    3    0  502 -0.47516887853E+03 -0.83052277977E+02 -0.73301654307E+03  0.87749530444E+03  0.12699999809E+01 0.  1.
</event>
<event>
 5   0  0.1643565E-04  0.2028971E+04  0.7818609E-02  0.8593194E-01
       -1   -1    0    0    0  501  0.00000000000E+00  0.00000000000E+00  0.10202050165E+04  0.10202050165E+04  0.50400001928E-02 0. -1.
        1   -1    0    0  501    0  0.00000000000E+00  0.00000000000E+00 -0.10087982191E+04  0.10087982191E+04  0.50400001928E-02 0.  1.
    10030    2    1    2    0    0  0.00000000000E+00  0.00000000000E+00  0.11406797371E+02  0.20290032356E+04  0.20289711716E+04 0.  0.
        2    1    3    3  502    0  0.76746035543E+03 -0.66276915421E+03 -0.24672315829E+02  0.10143308494E+04  0.25500000920E-02 0. -1.
       -2    1    3    3    0  502 -0.76746035543E+03  0.66276915421E+03  0.36079113200E+02  0.10146723862E+04  0.25500000920E-02 0.  1.
</event>
<event>
 5   0  0.1664168E-04  0.1965177E+04  0.7818609E-02  0.8623077E-01
       -1   -1    0    0    0  501  0.00000000000E+00  0.00000000000E+00  0.80069722890E+03  0.80069722891E+03  0.50400001928E-02 0. -1.
        1   -1    0    0  501    0  0.00000000000E+00  0.00000000000E+00 -0.12057992755E+04  0.12057992755E+04  0.50400001928E-02 0.  1.
    10030    2    1    2    0    0  0.00000000000E+00  0.00000000000E+00 -0.40510204660E+03  0.20064965044E+04  0.19651769778E+04 0.  0.
        5    1    3    3  502    0  0.51557853149E+03  0.58950359293E+03  0.40332466986E+03  0.88092484783E+03  0.46999998093E+01 0. -1.
       -5    1    3    3    0  502 -0.51557853149E+03 -0.58950359293E+03 -0.80842671646E+03  0.11255716566E+04  0.46999998093E+01 0.  1.
</event>
<event>
 5   0  0.1664168E-04  0.1991120E+04  0.7818609E-02  0.8610784E-01
       -1   -1    0    0    0  501  0.00000000000E+00  0.00000000000E+00  0.10443058341E+04  0.10443058342E+04  0.50400001928E-02 0. -1.
        1   -1    0    0  501    0  0.00000000000E+00  0.00000000000E+00 -0.94908936901E+03  0.94908936902E+03  0.50400001928E-02 0.  1.
    10030    2    1    2    0    0  0.00000000000E+00  0.00000000000E+00  0.95216465139E+02  0.19933952032E+04  0.19911198509E+04 0.  0.
        5    1    3    3  502    0 -0.52618982373E+03  0.17596832654E+03  0.87515848138E+03  0.10362263460E+04  0.46999998093E+01 0. -1.
       -5    1    3    3    0  502  0.52618982373E+03 -0.17596832654E+03 -0.77994201624E+03  0.95716885722E+03  0.46999998093E+01 0.  1.
</event>
<event>
 5   0  0.3371947E-04  0.2038159E+04  0.7818609E-02  0.8588985E-01
        2   -1    0    0  501    0  0.00000000000E+00  0.00000000000E+00  0.10233065315E+04  0.10233065315E+04  0.25500000920E-02 0.  1.
       -2   -1    0    0    0  501  0.00000000000E+00  0.00000000000E+00 -0.10148698653E+04  0.10148698653E+04  0.25500000920E-02 0. -1.
    10030    2    1    2    0    0  0.00000000000E+00  0.00000000000E+00  0.84366661250E+01  0.20381763968E+04  0.20381589357E+04 0.  0.
        2    1    3    3  502    0 -0.64659395752E+03 -0.78595828133E+03  0.56264872913E+02  0.10193036357E+04  0.25500000920E-02 0.  1.
       -2    1    3    3    0  502  0.64659395752E+03  0.78595828133E+03 -0.47828206788E+02  0.10188727611E+04  0.25500000920E-02 0. -1.
</event>
<event>
 5   0  0.3431030E-04  0.1860714E+04  0.7818609E-02  0.8674662E-01
       -2   -1    0    0    0  501  0.00000000000E+00  0.00000000000E+00  0.86783921874E+03  0.86783921874E+03  0.25500000920E-02 0. -1.
        2   -1    0    0  501    0  0.00000000000E+00  0.00000000000E+00 -0.99737849951E+03  0.99737849951E+03  0.25500000920E-02 0.  1.
    10030    2    1    2    0    0  0.00000000000E+00  0.00000000000E+00 -0.12953928077E+03  0.18652177183E+04  0.18607140326E+04 0.  0.
        3    1    3    3  502    0  0.50540401842E+03  0.35985259515E+02  0.71739839511E+03  0.87828732670E+03  0.10100000352E+00 0. -1.
       -3    1    3    3    0  502 -0.50540401842E+03 -0.35985259515E+02 -0.84693767589E+03  0.98693039155E+03  0.10100000352E+00 0.  1.
</event>
<event>
 5   0  0.3387881E-04  0.1957174E+04  0.7818609E-02  0.8626909E-01
        2   -1    0    0  501    0  0.00000000000E+00  0.00000000000E+00  0.10267737308E+04  0.10267737308E+04  0.25500000920E-02 0.  1.
       -2   -1    0    0    0  501  0.00000000000E+00  0.00000000000E+00 -0.93266189323E+03  0.93266189324E+03  0.25500000920E-02 0. -1.
    10030    2    1    2    0    0  0.00000000000E+00  0.00000000000E+00  0.94111837571E+02  0.19594356240E+04  0.19571742198E+04 0.  0.
        1    1    3    3  502    0 -0.32686307877E+03 -0.75271720046E+03  0.58078546859E+03  0.10053528817E+04  0.50400001928E-02 0.  1.
       -1    1    3    3    0  502  0.32686307877E+03  0.75271720046E+03 -0.48667363102E+03  0.95408274237E+03  0.50400001928E-02 0. -1.
</event>
<event>
 5   0  0.3371947E-04  0.1977406E+04  0.7818609E-02  0.8617258E-01
       -2   -1    0    0    0  501  0.00000000000E+00  0.00000000000E+00  0.56726781062E+03  0.56726781063E+03  0.25500000920E-02 0.  1.
        2   -1    0    0  501    0  0.00000000000E+00  0.00000000000E+00 -0.17232309417E+04  0.17232309417E+04  0.25500000920E-02 0. -1.
    10030    2    1    2    0    0  0.00000000000E+00  0.00000000000E+00 -0.11559631311E+04  0.22904987523E+04  0.19774058192E+04 0.  0.
        2    1    3    3  502    0 -0.37835817697E+03  0.71555548650E+03 -0.12356455664E+04  0.14771575847E+04  0.25500000920E-02 0. -1.
       -2    1    3    3    0  502  0.37835817697E+03 -0.71555548650E+03  0.79682435373E+02  0.81334116756E+03  0.25500000920E-02 0.  1.
</event>
<event>
 5   0  0.3431030E-04  0.1993124E+04  0.7818609E-02  0.8609842E-01
       -2   -1    0    0    0  501  0.00000000000E+00  0.00000000000E+00  0.17817261708E+04  0.17817261708E+04  0.25500000920E-02 0. -1.
        2   -1    0    0  501    0  0.00000000000E+00  0.00000000000E+00 -0.55740089943E+03  0.55740089943E+03  0.25500000920E-02 0.  1.
    10030    2    1    2    0    0  0.00000000000E+00  0.00000000000E+00  0.12243252713E+04  0.23391270702E+04  0.19931239501E+04 0.  0.
        3    1    3    3  502    0  0.99647014447E+03 -0.52152841376E+01  0.59751323635E+03  0.11618958756E+04  0.10100000352E+00 0.  1.
       -3    1    3    3    0  502 -0.99647014447E+03  0.52152841376E+01  0.62681203497E+03  0.11772311945E+04  0.10100000352E+00 0. -1.
</event>
<event>
 5   0  0.1708578E-04  0.1999096E+04  0.7818609E-02  0.8607044E-01
       -1   -1    0    0    0  501  0.00000000000E+00  0.00000000000E+00  0.47090206672E+03  0.47090206675E+03  0.50400001928E-02 0. -1.
        1   -1    0    0  501    0  0.00000000000E+00  0.00000000000E+00 -0.21216638081E+04  0.21216638081E+04  0.50400001928E-02 0.  1.
    10030    2    1    2    0    0  0.00000000000E+00  0.00000000000E+00 -0.16507617413E+04  0.25925658748E+04  0.19990956677E+04 0.  0.
        3    1    3    3  502    0  0.19235048353E+03  0.88485597026E+03 -0.27650160198E+03  0.94679561824E+03  0.10100000352E+00 0. -1.
       -3    1    3    3    0  502 -0.19235048353E+03 -0.88485597026E+03 -0.13742601394E+04  0.16457702566E+04  0.10100000352E+00 0.  1.
</event>
<event>
 5   0  0.3460648E-04  0.1965242E+04  0.7818609E-02  0.8623046E-01
        2   -1    0    0  501    0  0.00000000000E+00  0.00000000000E+00  0.10873704924E+04  0.10873704924E+04  0.25500000920E-02 0.  1.
       -2   -1    0    0    0  501  0.00000000000E+00  0.00000000000E+00 -0.88796201704E+03  0.88796201704E+03  0.25500000920E-02 0. -1.
    10030    2    1    2    0    0  0.00000000000E+00  0.00000000000E+00  0.19940847536E+03  0.19753325094E+04  0.19652416602E+04 0.  0.
        5    1    3    3  502    0  0.41994202293E+03  0.65644352399E+03  0.70131927672E+03  0.10483988843E+04  0.46999998093E+01 0.  1.
       -5    1    3    3    0  502 -0.41994202293E+03 -0.65644352399E+03 -0.50191080136E+03  0.92693362509E+03  0.46999998093E+01 0. -1.
</event>
<event>
 5   0  0.1664168E-04  0.1919849E+04  0.7818609E-02  0.8645039E-01
       -1   -1    0    0    0  501  0.00000000000E+00  0.00000000000E+00  0.52838165204E+03  0.52838165206E+03  0.50400001928E-02 0. -1.
        1   -1    0    0  501    0  0.00000000000E+00  0.00000000000E+00 -0.17439188195E+04  0.17439188195E+04  0.50400001928E-02 0.  1.
    10030    2    1    2    0    0  0.00000000000E+00  0.00000000000E+00 -0.12155371675E+04  0.22723004716E+04  0.19198486471E+04 0.  0.
        5    1    3    3  502    0  0.10901375411E+03 -0.63646123244E+03 -0.14484173803E+04  0.15858442220E+04  0.46999998093E+01 0.  1.
       -5    1    3    3    0  502 -0.10901375411E+03  0.63646123244E+03  0.23288021285E+03  0.68645624953E+03  0.46999998093E+01 0. -1.
</event>
<event>
 5   0  0.1708578E-04  0.1934775E+04  0.7818609E-02  0.8637738E-01
       -1   -1    0    0    0  501  0.00000000000E+00  0.00000000000E+00  0.74935121201E+03  0.74935121203E+03  0.50400001928E-02 0.  1.
        1   -1    0    0  501    0  0.00000000000E+00  0.00000000000E+00 -0.12488651356E+04  0.12488651356E+04  0.50400001928E-02 0. -1.
    10030    2    1    2    0    0  0.00000000000E+00  0.00000000000E+00 -0.49951392362E+03  0.19982163477E+04  0.19347750288E+04 0.  0.
        3    1    3    3  502    0  0.75204424370E+03 -0.27515897035E+03  0.31076891699E+03  0.85898797047E+03  0.10100000352E+00 0.  1.
       -3    1    3    3    0  502 -0.75204424370E+03  0.27515897035E+03 -0.81028284061E+03  0.11392283772E+04  0.10100000352E+00 0. -1.
</event>
<event>
 5   0  0.3431030E-04  0.1862892E+04  0.7818609E-02  0.8673551E-01
       -2   -1    0    0    0  501  0.00000000000E+00  0.00000000000E+00  0.51840125862E+03  0.51840125863E+03  0.25500000920E-02 0. -1.
        2   -1    0    0  501    0  0.00000000000E+00  0.00000000000E+00 -0.16735905104E+04  0.16735905104E+04  0.25500000920E-02 0.  1.
    10030    2    1    2    0    0  0.00000000000E+00  0.00000000000E+00 -0.11551892518E+04  0.21919917691E+04  0.18628917596E+04 0.  0.
        3    1    3    3  502    0  0.46214882476E+01 -0.89485925870E+03 -0.88170390038E+03  0.12562628026E+04  0.10100000352E+00 0.  1.
       -3    1    3    3    0  502 -0.46214882476E+01  0.89485925870E+03 -0.27348535142E+03  0.93572896646E+03  0.10100000352E+00 0. -1.
</event>
<event>
 5   0  0.1650221E-04  0.2131027E+04  0.7818609E-02  0.8547697E-01
       -1   -1    0    0    0  501  0.00000000000E+00  0.00000000000E+00  0.65362301998E+03  0.65362302000E+03  0.50400001928E-02 0.  1.
        1   -1    0    0  501    0  0.00000000000E+00  0.00000000000E+00 -0.17369636013E+04  0.17369636013E+04  0.50400001928E-02 0. -1.
    10030    2    1    2    0    0  0.00000000000E+00  0.00000000000E+00 -0.10833405813E+04  0.23905866213E+04  0.21310273529E+04 0.  0.
        1    1    3    3  502    0  0.20459700472E+03  0.58845843308E+03  0.42800639966E+03  0.75586555681E+03  0.50400001928E-02 0.  1.
       -1    1    3    3    0  502 -0.20459700472E+03 -0.58845843308E+03 -0.15113469810E+04  0.16347210645E+04  0.50400001928E-02 0. -1.
</event>
<event>
 5   0  0.1708578E-04  0.2011437E+04  0.7818609E-02  0.8601292E-01
       -1   -1    0    0    0  501  0.00000000000E+00  0.00000000000E+00  0.67629769987E+03  0.67629769989E+03  0.50400001928E-02 0. -1.
        1   -1    0    0  501    0  0.00000000000E+00  0.00000000000E+00 -0.14955984917E+04  0.14955984917E+04  0.50400001928E-02 0.  1.
    10030    2    1    2    0    0  0.00000000000E+00  0.00000000000E+00 -0.81930079181E+03  0.21718961916E+04  0.20114371180E+04 0.  0.
        3    1    3    3  502    0  0.13624296545E+03 -0.59901902794E+03  0.45016646213E+03  0.76160081099E+03  0.10100000352E+00 0. -1.
       -3    1    3    3    0  502 -0.13624296545E+03  0.59901902794E+03 -0.12694672539E+04  0.14102953806E+04  0.10100000352E+00 0.  1.
</event>
<event>
 5   0  0.1643565E-04  0.1958151E+04  0.7818609E-02  0.8626440E-01
        1   -1    0    0  501    0  0.00000000000E+00  0.00000000000E+00  0.12439999951E+04  0.12439999951E+04  0.50400001928E-02 0.  1.
       -1   -1    0    0    0  501  0.00000000000E+00  0.00000000000E+00 -0.77057006961E+03  0.77057006962E+03  0.50400001928E-02 0. -1.
    10030    2    1    2    0    0  0.00000000000E+00  0.00000000000E+00  0.47342992552E+03  0.20145700648E+04  0.19581513352E+04 0.  0.
        2    1    3    3  502    0 -0.43794275989E+03 -0.86318142229E+02  0.11332257992E+04  0.12179677314E+04  0.25500000920E-02 0.  1.
       -2    1    3    3    0  502  0.43794275989E+03  0.86318142229E+02 -0.65979587370E+03  0.79660233340E+03  0.25500000920E-02 0. -1.
</event>
<event>
 5   0  0.1664168E-04  0.2088736E+04  0.7818609E-02  0.8566222E-01
        1   -1    0    0  501    0  0.00000000000E+00  0.00000000000E+00  0.70683179211E+03  0.70683179213E+03  0.50400001928E-02 0.  1.
       -1   -1    0    0    0  501  0.00000000000E+00  0.00000000000E+00 -0.15430887112E+04  0.15430887112E+04  0.50400001928E-02 0. -1.
    10030    2    1    2    0    0  0.00000000000E+00  0.00000000000E+00 -0.83625691905E+03  0.22499205033E+04  0.20887356550E+04 0.  0.
        5    1    3    3  502    0  0.75172483029E+03  0.46847921752E+03  0.17784769931E+03  0.90344612007E+03  0.46999998093E+01 0.  1.
       -5    1    3    3    0  502 -0.75172483029E+03 -0.46847921752E+03 -0.10141046184E+04  0.13464743832E+04  0.46999998093E+01 0. -1.
</event>
<event>
 5   0  0.3395569E-04  0.1975710E+04  0.7818609E-02  0.8618062E-01
       -2   -1    0    0    0  501  0.00000000000E+00  0.00000000000E+00  0.93457941483E+03  0.93457941483E+03  0.25500000920E-02 0.  1.
        2   -1    0    0  501    0  0.00000000000E+00  0.00000000000E+00 -0.10441675918E+04  0.10441675918E+04  0.25500000920E-02 0. -1.
    10030    2    1    2    0    0  0.00000000000E+00  0.00000000000E+00 -0.10958817699E+03  0.19787470067E+04  0.19757100364E+04 0.  0.
        4    1    3    3  502    0 -0.60549024444E+03 -0.67549831205E+03  0.33688187818E+03  0.96768146538E+03  0.12699999809E+01 0.  1.
       -4    1    3    3    0  502  0.60549024444E+03  0.67549831205E+03 -0.44647005517E+03  0.10110655413E+04  0.12699999809E+01 0. -1.
</event>
<event>
 5   0  0.3387881E-04  0.2054862E+04  0.7818609E-02  0.8581392E-01
        2   -1    0    0  501    0  0.00000000000E+00  0.00000000000E+00  0.11928283009E+04  0.11928283009E+04  0.25500000920E-02 0. -1.
       -2   -1    0    0    0  501  0.00000000000E+00  0.00000000000E+00 -0.88496762559E+03  0.88496762559E+03  0.25500000920E-02 0.  1.
    10030    2    1    2    0    0  0.00000000000E+00  0.00000000000E+00  0.30786067527E+03  0.20777959265E+04  0.20548619702E+04 0.  0.
        1    1    3    3  502    0  0.86141637412E+03  0.48335035594E+03 -0.13197740714E+03  0.99653588606E+03  0.50400001928E-02 0.  1.
       -1    1    3    3    0  502 -0.86141637412E+03 -0.48335035594E+03  0.43983808241E+03  0.10812600404E+04  0.50400001928E-02 0. -1.
</event>
<event>
 5   0  0.1696052E-04  0.1997131E+04  0.7818609E-02  0.8607963E-01
        1   -1    0    0  501    0  0.00000000000E+00  0.00000000000E+00  0.15795534097E+04  0.15795534097E+04  0.50400001928E-02 0. -1.
       -1   -1    0    0    0  501  0.00000000000E+00  0.00000000000E+00 -0.63127528482E+03  0.63127528484E+03  0.50400001928E-02 0.  1.
    10030    2    1    2    0    0  0.00000000000E+00  0.00000000000E+00  0.94827812486E+03  0.22108286945E+04  0.19971309708E+04 0.  0.
        4    1    3    3  502    0 -0.15195918090E+02 -0.89784632721E+03  0.95765010858E+03  0.13128039787E+04  0.12699999809E+01 0. -1.
       -4    1    3    3    0  502  0.15195918090E+02  0.89784632721E+03 -0.93719837221E+01  0.89802471580E+03  0.12699999809E+01 0.  1.
</event>
<event>
 5   0  0.3371947E-04  0.2000148E+04  0.7818609E-02  0.8606552E-01
       -2   -1    0    0    0  501  0.00000000000E+00  0.00000000000E+00  0.96843039349E+03  0.96843039350E+03  0.25500000920E-02 0.  1.
        2   -1    0    0  501    0  0.00000000000E+00  0.00000000000E+00 -0.10327514105E+04  0.10327514106E+04  0.25500000920E-02 0. -1.
    10030    2    1    2    0    0  0.00000000000E+00  0.00000000000E+00 -0.64321017055E+02  0.20011818041E+04  0.20001478494E+04 0.  0.
        2    1    3    3  502    0  0.41696074572E+03 -0.48534107292E+03 -0.80115110724E+03  0.10253074257E+04  0.25500000920E-02 0. -1.
       -2    1    3    3    0  502 -0.41696074572E+03  0.48534107292E+03  0.73683009018E+03  0.97587437836E+03  0.25500000920E-02 0.  1.
</event>
<event>
 5   0  0.1664168E-04  0.2011937E+04  0.7818609E-02  0.8601060E-01
        1   -1    0    0  501    0  0.00000000000E+00  0.00000000000E+00  0.11044054834E+04  0.11044054834E+04  0.50400001928E-02 0. -1.
       -1   -1    0    0    0  501  0.00000000000E+00  0.00000000000E+00 -0.91630515660E+03  0.91630515661E+03  0.50400001928E-02 0.  1.
    10030    2    1    2    0    0  0.00000000000E+00  0.00000000000E+00  0.18810032678E+03  0.20207106400E+04  0.20119368175E+04 0.  0.
        5    1    3    3  502    0  0.66140666301E+03  0.63627584597E+03  0.50772570113E+03  0.10488628145E+04  0.46999998093E+01 0. -1.
       -5    1    3    3    0  502 -0.66140666301E+03 -0.63627584597E+03 -0.31962537435E+03  0.97184782552E+03  0.46999998093E+01 0.  1.
</event>
<event>
 5   0  0.3371947E-04  0.1946678E+04  0.7818609E-02  0.8631964E-01
       -2   -1    0    0    0  501  0.00000000000E+00  0.00000000000E+00  0.59284808969E+03  0.59284808969E+03  0.25500000920E-02 0.  1.
        2   -1    0    0  501    0  0.00000000000E+00  0.00000000000E+00 -0.15980297506E+04  0.15980297506E+04  0.25500000920E-02 0. -1.
    10030    2    1    2    0    0  0.00000000000E+00  0.00000000000E+00 -0.10051816609E+04  0.21908778403E+04  0.19466780781E+04 0.  0.
        2    1    3    3  502    0 -0.34249190486E+03 -0.58183848893E+03  0.28646698486E+03  0.73341670660E+03  0.25500000920E-02 0.  1.
       -2    1    3    3    0  502  0.34249190486E+03  0.58183848893E+03 -0.12916486457E+04  0.14574611337E+04  0.25500000920E-02 0. -1.
</event>
<event>
 5   0  0.1696052E-04  0.2022209E+04  0.7818609E-02  0.8596307E-01
       -1   -1    0    0    0  501  0.00000000000E+00  0.00000000000E+00  0.92326711877E+03  0.92326711878E+03  0.50400001928E-02 0.  1.
        1   -1    0    0  501    0  0.00000000000E+00  0.00000000000E+00 -0.11072981323E+04  0.11072981323E+04  0.50400001928E-02 0. -1.
    10030    2    1    2    0    0  0.00000000000E+00  0.00000000000E+00 -0.18403101352E+03  0.20305652511E+04  0.20222086502E+04 0.  0.
        4    1    3    3  502    0  0.10058286547E+04 -0.82147777381E+02 -0.29381437678E+02  0.10096060726E+04  0.12699999809E+01 0. -1.
       -4    1    3    3    0  502 -0.10058286547E+04  0.82147777381E+02 -0.15464957584E+03  0.10209591785E+04  0.12699999809E+01 0.  1.
</event>
<event>
 5   0  0.1696052E-04  0.1491559E+04  0.7818609E-02  0.8890086E-01
        1   -1    0    0  501    0  0.00000000000E+00  0.00000000000E+00  0.64389882478E+03  0.64389882480E+03  0.50400001928E-02 0.  1.
       -1   -1    0    0    0  501  0.00000000000E+00  0.00000000000E+00 -0.86378017681E+03  0.86378017683E+03  0.50400001928E-02 0. -1.
    10030    2    1    2    0    0  0.00000000000E+00  0.00000000000E+00 -0.21988135203E+03  0.15076790016E+04  0.14915589707E+04 0.  0.
        4    1    3    3  502    0  0.58043446042E+03 -0.37272950691E+03  0.17659067874E+03  0.71205149315E+03  0.12699999809E+01 0.  1.
       -4    1    3    3    0  502 -0.58043446042E+03  0.37272950691E+03 -0.39647203077E+03  0.79562750848E+03  0.12699999809E+01 0. -1.
</event>
<event>
 5   0  0.1643565E-04  0.1971280E+04  0.7818609E-02  0.8620167E-01
       -1   -1    0    0    0  501  0.00000000000E+00  0.00000000000E+00  0.10041449938E+04  0.10041449938E+04  0.50400001928E-02 0.  1.
        1   -1    0    0  501    0  0.00000000000E+00  0.00000000000E+00 -0.96747575518E+03  0.96747575519E+03  0.50400001928E-02 0. -1.
    10030    2    1    2    0    0  0.00000000000E+00  0.00000000000E+00  0.36669238629E+02  0.19716207490E+04  0.19712797226E+04 0.  0.
        2    1    3    3  502    0 -0.47251413029E+03 -0.35498018281E+03 -0.77060181743E+03  0.97113732013E+03  0.25500000920E-02 0. -1.
       -2    1    3    3    0  502  0.47251413029E+03  0.35498018281E+03  0.80727105606E+03  0.10004834289E+04  0.25500000920E-02 0.  1.
</event>
<event>
 5   0  0.3371947E-04  0.2012188E+04  0.7818609E-02  0.8600944E-01
       -2   -1    0    0    0  501  0.00000000000E+00  0.00000000000E+00  0.68741686183E+03  0.68741686184E+03  0.25500000920E-02 0. -1.
        2   -1    0    0  501    0  0.00000000000E+00  0.00000000000E+00 -0.14725048905E+04  0.14725048905E+04  0.25500000920E-02 0.  1.
    10030    2    1    2    0    0  0.00000000000E+00  0.00000000000E+00 -0.78508802867E+03  0.21599217523E+04  0.20121875567E+04 0.  0.
        2    1    3    3  502    0 -0.38468951142E+03 -0.46854951997E+03  0.46933915576E+03  0.76668371314E+03  0.25500000920E-02 0. -1.
       -2    1    3    3    0  502  0.38468951142E+03  0.46854951997E+03 -0.12544271844E+04  0.13932380392E+04  0.25500000920E-02 0.  1.
</event>
<event>
 5   0  0.1222488E-04  0.1435365E+04  0.7818609E-02  0.8928610E-01
        3   -1    0    0  501    0  0.00000000000E+00  0.00000000000E+00  0.15920806482E+04  0.15920806514E+04  0.10100000352E+00 0.  1.
       -3   -1    0    0    0  501  0.00000000000E+00  0.00000000000E+00 -0.32351905266E+03  0.32351906843E+03  0.10100000352E+00 0. -1.
    10030    2    1    2    0    0  0.00000000000E+00  0.00000000000E+00  0.12685615956E+04  0.19155997199E+04  0.14353653768E+04 0.  0.
        4    1    3    3  502    0 -0.25030302960E+03  0.90677920597E+02 -0.25518248485E+03  0.36877337944E+03  0.12699999809E+01 0. -1.
       -4    1    3    3    0  502  0.25030302960E+03 -0.90677920597E+02  0.15237440804E+04  0.15468263404E+04  0.12699999809E+01 0.  1.
</event>
<event>
 5   0  0.3460648E-04  0.2032923E+04  0.7818609E-02  0.8591381E-01
       -2   -1    0    0    0  501  0.00000000000E+00  0.00000000000E+00  0.89688753675E+03  0.89688753675E+03  0.25500000920E-02 0. -1.
        2   -1    0    0  501    0  0.00000000000E+00  0.00000000000E+00 -0.11519775999E+04  0.11519775999E+04  0.25500000920E-02 0.  1.
    10030    2    1    2    0    0  0.00000000000E+00  0.00000000000E+00 -0.25509006314E+03  0.20488651366E+04  0.20329233650E+04 0.  0.
        5    1    3    3  502    0 -0.14272376544E+02 -0.74608228752E+03 -0.82312366508E+03  0.11110342652E+04  0.46999998093E+01 0.  1.
       -5    1    3    3    0  502  0.14272376544E+02  0.74608228752E+03  0.56803360194E+03  0.93783087143E+03  0.46999998093E+01 0. -1.
</event>
<event>
 5   0  0.3460648E-04  0.1841869E+04  0.7818609E-02  0.8684345E-01
        2   -1    0    0  501    0  0.00000000000E+00  0.00000000000E+00  0.12505999093E+04  0.12505999093E+04  0.25500000920E-02 0.  1.
       -2   -1    0    0    0  501  0.00000000000E+00  0.00000000000E+00 -0.67817115085E+03  0.67817115085E+03  0.25500000920E-02 0. -1.
    10030    2    1    2    0    0  0.00000000000E+00  0.00000000000E+00  0.57242875849E+03  0.19287710602E+04  0.18418694631E+04 0.  0.
        5    1    3    3  502    0  0.42399048076E+03  0.16209096752E+03 -0.55287595991E+03  0.71535678271E+03  0.46999998093E+01 0. -1.
       -5    1    3    3    0  502 -0.42399048076E+03 -0.16209096752E+03  0.11253047184E+04  0.12134142775E+04  0.46999998093E+01 0.  1.
</event>
<event>
 5   0  0.3395569E-04  0.1968880E+04  0.7818609E-02  0.8621310E-01
       -2   -1    0    0    0  501  0.00000000000E+00  0.00000000000E+00  0.91612995056E+03  0.91612995056E+03  0.25500000920E-02 0. -1.
        2   -1    0    0  501    0  0.00000000000E+00  0.00000000000E+00 -0.10578437503E+04  0.10578437504E+04  0.25500000920E-02 0.  1.
    10030    2    1    2    0    0  0.00000000000E+00  0.00000000000E+00 -0.14171379979E+03  0.19739737009E+04  0.19688802327E+04 0.  0.
        4    1    3    3  502    0 -0.97185351702E+03  0.11113152948E+03  0.40205369581E+02  0.97901356479E+03  0.12699999809E+01 0. -1.
       -4    1    3    3    0  502  0.97185351702E+03 -0.11113152948E+03 -0.18191916937E+03  0.99496013613E+03  0.12699999809E+01 0.  1.
</event>
<event>
 5   0  0.1696052E-04  0.2069791E+04  0.7818609E-02  0.8574669E-01
       -1   -1    0    0    0  501  0.00000000000E+00  0.00000000000E+00  0.69062854738E+03  0.69062854740E+03  0.50400001928E-02 0. -1.
        1   -1    0    0  501    0  0.00000000000E+00  0.00000000000E+00 -0.15507733824E+04  0.15507733824E+04  0.50400001928E-02 0.  1.
    10030    2    1    2    0    0  0.00000000000E+00  0.00000000000E+00 -0.86014483505E+03  0.22414019298E+04  0.20697906836E+04 0.  0.
        4    1    3    3  502    0 -0.19946734748E+01 -0.85201508322E+03 -0.10662067724E+04  0.13648194661E+04  0.12699999809E+01 0.  1.
       -4    1    3    3    0  502  0.19946734748E+01  0.85201508322E+03  0.20606193734E+03  0.87658246371E+03  0.12699999809E+01 0. -1.
</event>
<event>
 5   0  0.1643565E-04  0.2069427E+04  0.7818609E-02  0.8574832E-01
        1   -1    0    0  501    0  0.00000000000E+00  0.00000000000E+00  0.24783529486E+04  0.24783529486E+04  0.50400001928E-02 0. -1.
       -1   -1    0    0    0  501  0.00000000000E+00  0.00000000000E+00 -0.43199331433E+03  0.43199331436E+03  0.50400001928E-02 0.  1.
    10030    2    1    2    0    0  0.00000000000E+00  0.00000000000E+00  0.20463596342E+04  0.29103462629E+04  0.20694268814E+04 0.  0.
        2    1    3    3  502    0  0.84641307257E+03 -0.49641132432E+03  0.56144877330E+03  0.11305149346E+04  0.25500000920E-02 0. -1.
       -2    1    3    3    0  502 -0.84641307257E+03  0.49641132432E+03  0.14849108609E+04  0.17798313283E+04  0.25500000920E-02 0.  1.
</event>
<event>
 5   0  0.3371947E-04  0.1167849E+04  0.7818609E-02  0.9141473E-01
        2   -1    0    0  501    0  0.00000000000E+00  0.00000000000E+00  0.73488793536E+03  0.73488793537E+03  0.25500000920E-02 0. -1.
       -2   -1    0    0    0  501  0.00000000000E+00  0.00000000000E+00 -0.46397244253E+03  0.46397244253E+03  0.25500000920E-02 0.  1.
    10030    2    1    2    0    0  0.00000000000E+00  0.00000000000E+00  0.27091549284E+03  0.11988603779E+04  0.11678488778E+04 0.  0.
        2    1    3    3  502    0 -0.30283787640E+03  0.25744089044E+03 -0.30366420349E+03  0.50019850054E+03  0.25500000920E-02 0.  1.
       -2    1    3    3    0  502  0.30283787640E+03 -0.25744089044E+03  0.57457969632E+03  0.69866187737E+03  0.25500000920E-02 0. -1.
</event>
<event>
 5   0  0.1643565E-04  0.2008023E+04  0.7818609E-02  0.8602879E-01
        1   -1    0    0  501    0  0.00000000000E+00  0.00000000000E+00  0.10018277407E+04  0.10018277407E+04  0.50400001928E-02 0. -1.
       -1   -1    0    0    0  501  0.00000000000E+00  0.00000000000E+00 -0.10062004221E+04  0.10062004221E+04  0.50400001928E-02 0.  1.
    10030    2    1    2    0    0  0.00000000000E+00  0.00000000000E+00 -0.43726813920E+01  0.20080281628E+04  0.20080234019E+04 0.  0.
        2    1    3    3  502    0  0.13423931401E+03  0.12762028863E+03 -0.98896746207E+03  0.10061628956E+04  0.25500000920E-02 0.  1.
       -2    1    3    3    0  502 -0.13423931401E+03 -0.12762028863E+03  0.98459478068E+03  0.10018652672E+04  0.25500000920E-02 0. -1.
</event>
<event>
 5   0  0.3431030E-04  0.1824706E+04  0.7818609E-02  0.8693270E-01
        2   -1    0    0  501    0  0.00000000000E+00  0.00000000000E+00  0.19637800944E+04  0.19637800944E+04  0.25500000920E-02 0.  1.
       -2   -1    0    0    0  501  0.00000000000E+00  0.00000000000E+00 -0.42387023930E+03  0.42387023931E+03  0.25500000920E-02 0. -1.
    10030    2    1    2    0    0  0.00000000000E+00  0.00000000000E+00  0.15399098551E+04  0.23876503337E+04  0.18247059364E+04 0.  0.
        3    1    3    3  502    0  0.33322165165E+03 -0.64585317072E+03  0.14916857429E+04  0.16593038760E+04  0.10100000352E+00 0.  1.
       -3    1    3    3    0  502 -0.33322165165E+03  0.64585317072E+03  0.48224112233E+02  0.72834645771E+03  0.10100000352E+00 0. -1.
</event>
<event>
 5   0  0.3460648E-04  0.1734208E+04  0.7818609E-02  0.8742091E-01
       -2   -1    0    0    0  501  0.00000000000E+00  0.00000000000E+00  0.44245250647E+03  0.44245250648E+03  0.25500000920E-02 0.  1.
        2   -1    0    0  501    0  0.00000000000E+00  0.00000000000E+00 -0.16993229703E+04  0.16993229703E+04  0.25500000920E-02 0. -1.
    10030    2    1    2    0    0  0.00000000000E+00  0.00000000000E+00 -0.12568704638E+04  0.21417754768E+04  0.17342084160E+04 0.  0.
        5    1    3    3  502    0 -0.12458438723E+03  0.82421736097E+03 -0.33359961695E+03  0.89786765288E+03  0.46999998093E+01 0.  1.
       -5    1    3    3    0  502  0.12458438723E+03 -0.82421736097E+03 -0.92327084687E+03  0.12439078239E+04  0.46999998093E+01 0. -1.
</event>
<event>
 5   0  0.1664168E-04  0.1686022E+04  0.7818609E-02  0.8769377E-01
        1   -1    0    0  501    0  0.00000000000E+00  0.00000000000E+00  0.15902087533E+04  0.15902087533E+04  0.50400001928E-02 0.  1.
       -1   -1    0    0    0  501  0.00000000000E+00  0.00000000000E+00 -0.44690185061E+03  0.44690185064E+03  0.50400001928E-02 0. -1.
    10030    2    1    2    0    0  0.00000000000E+00  0.00000000000E+00  0.11433069027E+04  0.20371106039E+04  0.16860216306E+04 0.  0.
        5    1    3    3  502    0 -0.21214089747E+03 -0.54406248075E+03 -0.16292709286E+03  0.60627969694E+03  0.46999998093E+01 0. -1.
       -5    1    3    3    0  502  0.21214089747E+03  0.54406248075E+03  0.13062339955E+04  0.14308309070E+04  0.46999998093E+01 0.  1.
</event>
<event>
 5   0  0.1708578E-04  0.1959278E+04  0.7818609E-02  0.8625900E-01
       -1   -1    0    0    0  501  0.00000000000E+00  0.00000000000E+00  0.72549537647E+03  0.72549537649E+03  0.50400001928E-02 0.  1.
        1   -1    0    0  501    0  0.00000000000E+00  0.00000000000E+00 -0.13228098356E+04  0.13228098356E+04  0.50400001928E-02 0. -1.
    10030    2    1    2    0    0  0.00000000000E+00  0.00000000000E+00 -0.59731445913E+03  0.20483052121E+04  0.19592778463E+04 0.  0.
        3    1    3    3  502    0 -0.12373358160E+03 -0.49174610363E+03 -0.11749371907E+04  0.12796881034E+04  0.10100000352E+00 0. -1.
       -3    1    3    3    0  502  0.12373358160E+03  0.49174610363E+03  0.57762273155E+03  0.76861710874E+03  0.10100000352E+00 0.  1.
</event>
<event>
 5   0  0.3431030E-04  0.2031317E+04  0.7818609E-02  0.8592117E-01
        2   -1    0    0  501    0  0.00000000000E+00  0.00000000000E+00  0.60977903984E+03  0.60977903985E+03  0.25500000920E-02 0.  1.
       -2   -1    0    0    0  501  0.00000000000E+00  0.00000000000E+00 -0.16916986724E+04  0.16916986724E+04  0.25500000920E-02 0. -1.
    10030    2    1    2    0    0  0.00000000000E+00  0.00000000000E+00 -0.10819196326E+04  0.23014777122E+04  0.20313172004E+04 0.  0.
        3    1    3    3  502    0  0.73751200791E+03 -0.69726721145E+03 -0.58420495941E+03  0.11710683032E+04  0.10100000352E+00 0. -1.
       -3    1    3    3    0  502 -0.73751200791E+03  0.69726721145E+03 -0.49771467315E+03  0.11304094090E+04  0.10100000352E+00 0.  1.
</event>
<event>
 5   0  0.3387881E-04  0.2006949E+04  0.7818609E-02  0.8603379E-01
        2   -1    0    0  501    0  0.00000000000E+00  0.00000000000E+00  0.16766043040E+04  0.16766043040E+04  0.25500000920E-02 0.  1.
       -2   -1    0    0    0  501  0.00000000000E+00  0.00000000000E+00 -0.60059574749E+03  0.60059574749E+03  0.25500000920E-02 0. -1.
    10030    2    1    2    0    0  0.00000000000E+00  0.00000000000E+00  0.10760085565E+04  0.22772000515E+04  0.20069493418E+04 0.  0.
        1    1    3    3  502    0 -0.19659391060E+03 -0.85835279382E+02 -0.57427523845E+03  0.61303255247E+03  0.50400001928E-02 0. -1.
       -1    1    3    3    0  502  0.19659391060E+03  0.85835279382E+02  0.16502837949E+04  0.16641674990E+04  0.50400001928E-02 0.  1.
</event>
<event>
 5   0  0.3387881E-04  0.2024525E+04  0.7818609E-02  0.8595240E-01
        2   -1    0    0  501    0  0.00000000000E+00  0.00000000000E+00  0.23205255348E+04  0.23205255348E+04  0.25500000920E-02 0. -1.
       -2   -1    0    0    0  501  0.00000000000E+00  0.00000000000E+00 -0.44157038094E+03  0.44157038094E+03  0.25500000920E-02 0.  1.
    10030    2    1    2    0    0  0.00000000000E+00  0.00000000000E+00  0.18789551539E+04  0.27620959158E+04  0.20245249758E+04 0.  0.
        1    1    3    3  502    0 -0.20606762338E+03  0.39569936241E+03  0.21791566449E+04  0.22243573305E+04  0.50400001928E-02 0. -1.
       -1    1    3    3    0  502  0.20606762338E+03 -0.39569936241E+03 -0.30020149102E+03  0.53773858524E+03  0.50400001928E-02 0.  1.
</event>
<event>
 5   0  0.3371947E-04  0.2016337E+04  0.7818609E-02  0.8599021E-01
       -2   -1    0    0    0  501  0.00000000000E+00  0.00000000000E+00  0.67812774040E+03  0.67812774041E+03  0.25500000920E-02 0.  1.
        2   -1    0    0  501    0  0.00000000000E+00  0.00000000000E+00 -0.14988379133E+04  0.14988379133E+04  0.25500000920E-02 0. -1.
    10030    2    1    2    0    0  0.00000000000E+00  0.00000000000E+00 -0.82071017291E+03  0.21769656537E+04  0.20163368443E+04 0.  0.
        2    1    3    3  502    0  0.83294304873E+03  0.55300434275E+03 -0.27043283202E+03  0.10357325148E+04  0.25500000920E-02 0. -1.
       -2    1    3    3    0  502 -0.83294304873E+03 -0.55300434275E+03 -0.55027734089E+03  0.11412331389E+04  0.25500000920E-02 0.  1.
</event>
<event>
 5   0  0.1650221E-04  0.1653892E+04  0.7818609E-02  0.8788107E-01
       -1   -1    0    0    0  501  0.00000000000E+00  0.00000000000E+00  0.14189436610E+04  0.14189436610E+04  0.50400001928E-02 0.  1.
        1   -1    0    0  501    0  0.00000000000E+00  0.00000000000E+00 -0.48193575631E+03  0.48193575634E+03  0.50400001928E-02 0. -1.
    10030    2    1    2    0    0  0.00000000000E+00  0.00000000000E+00  0.93700790466E+03  0.19008794173E+04  0.16538919994E+04 0.  0.
        1    1    3    3  502    0  0.33209259291E+03  0.75731847237E+03  0.46300061262E+03  0.94772692595E+03  0.50400001928E-02 0.  1.
       -1    1    3    3    0  502 -0.33209259291E+03 -0.75731847237E+03  0.47400729204E+03  0.95315249136E+03  0.50400001928E-02 0. -1.
</event>
<event>
 5   0  0.3387881E-04  0.1997655E+04  0.7818609E-02  0.8607718E-01
        2   -1    0    0  501    0  0.00000000000E+00  0.00000000000E+00  0.75344991490E+03  0.75344991491E+03  0.25500000920E-02 0. -1.
       -2   -1    0    0    0  501  0.00000000000E+00  0.00000000000E+00 -0.13241182125E+04  0.13241182125E+04  0.25500000920E-02 0.  1.
    10030    2    1    2    0    0  0.00000000000E+00  0.00000000000E+00 -0.57066829764E+03  0.20775681275E+04  0.19976553803E+04 0.  0.
        1    1    3    3  502    0  0.73494234799E+03 -0.36808316597E+03  0.30484482867E+03  0.87667316689E+03  0.50400001928E-02 0. -1.
       -1    1    3    3    0  502 -0.73494234799E+03  0.36808316597E+03 -0.87551312632E+03  0.12008949606E+04  0.50400001928E-02 0.  1.
</event>
<event>
 5   0  0.3395569E-04  0.1883094E+04  0.7818609E-02  0.8663318E-01
       -2   -1    0    0    0  501  0.00000000000E+00  0.00000000000E+00  0.38813774656E+03  0.38813774657E+03  0.25500000920E-02 0.  1.
        2   -1    0    0  501    0  0.00000000000E+00  0.00000000000E+00 -0.22840109840E+04  0.22840109840E+04  0.25500000920E-02 0. -1.
    10030    2    1    2    0    0  0.00000000000E+00  0.00000000000E+00 -0.18958732374E+04  0.26721487306E+04  0.18830941309E+04 0.  0.
        4    1    3    3  502    0 -0.76319451528E+03 -0.85558707150E+02 -0.17209095370E+04  0.18844939395E+04  0.12699999809E+01 0.  1.
       -4    1    3    3    0  502  0.76319451528E+03  0.85558707150E+02 -0.17496370041E+03  0.78765479106E+03  0.12699999809E+01 0. -1.
</event>
<event>
 5   0  0.3431030E-04  0.1992635E+04  0.7818609E-02  0.8610072E-01
        2   -1    0    0  501    0  0.00000000000E+00  0.00000000000E+00  0.89709014883E+03  0.89709014883E+03  0.25500000920E-02 0. -1.
       -2   -1    0    0    0  501  0.00000000000E+00  0.00000000000E+00 -0.11065198683E+04  0.11065198683E+04  0.25500000920E-02 0.  1.
    10030    2    1    2    0    0  0.00000000000E+00  0.00000000000E+00 -0.20942971950E+03  0.20036100172E+04  0.19926345108E+04 0.  0.
        3    1    3    3  502    0  0.80615793202E+03 -0.54636143084E+03  0.10679259968E+03  0.97969693989E+03  0.10100000352E+00 0. -1.
       -3    1    3    3    0  502 -0.80615793202E+03  0.54636143084E+03 -0.31622231918E+03  0.10239130773E+04  0.10100000352E+00 0.  1.
</event>
<event>
 5   0  0.1664168E-04  0.2011771E+04  0.7818609E-02  0.8601137E-01
        1   -1    0    0  501    0  0.00000000000E+00  0.00000000000E+00  0.20281700549E+04  0.20281700549E+04  0.50400001928E-02 0. -1.
       -1   -1    0    0    0  501  0.00000000000E+00  0.00000000000E+00 -0.49887619025E+03  0.49887619027E+03  0.50400001928E-02 0.  1.
    10030    2    1    2    0    0  0.00000000000E+00  0.00000000000E+00  0.15292938646E+04  0.25270462452E+04  0.20117711104E+04 0.  0.
        5    1    3    3  502    0 -0.13275377908E+03  0.71474017606E+03  0.16379117712E+04  0.17919972504E+04  0.46999998093E+01 0. -1.
       -5    1    3    3    0  502  0.13275377908E+03 -0.71474017606E+03 -0.10861790654E+03  0.73504899480E+03  0.46999998093E+01 0.  1.
</event>
<event>
 5   0  0.1643565E-04  0.1908269E+04  0.7818609E-02  0.8650751E-01
       -1   -1    0    0    0  501  0.00000000000E+00  0.00000000000E+00  0.85094518026E+03  0.85094518027E+03  0.50400001928E-02 0.  1.
        1   -1    0    0  501    0  0.00000000000E+00  0.00000000000E+00 -0.10698369274E+04  0.10698369274E+04  0.50400001928E-02 0. -1.
    10030    2    1    2    0    0  0.00000000000E+00  0.00000000000E+00 -0.21889174711E+03  0.19207821077E+04  0.19082689297E+04 0.  0.
        2    1    3    3  502    0  0.37151709795E+02  0.91192863196E+03 -0.38943983760E+03  0.99229908115E+03  0.25500000920E-02 0. -1.
       -2    1    3    3    0  502 -0.37151709795E+02 -0.91192863196E+03  0.17054809049E+03  0.92848302651E+03  0.25500000920E-02 0.  1.
</event>
<event>
 5   0  0.3387881E-04  0.2111044E+04  0.7818609E-02  0.8556394E-01
       -2   -1    0    0    0  501  0.00000000000E+00  0.00000000000E+00  0.10045514241E+04  0.10045514241E+04  0.25500000920E-02 0.  1.
        2   -1    0    0  501    0  0.00000000000E+00  0.00000000000E+00 -0.11090787221E+04  0.11090787221E+04  0.25500000920E-02 0. -1.
    10030    2    1    2    0    0  0.00000000000E+00  0.00000000000E+00 -0.10452729795E+03  0.21136301462E+04  0.21110439216E+04 0.  0.
        1    1    3    3  502    0  0.11729611659E+03  0.76928219638E+03 -0.76628045188E+03  0.10921260035E+04  0.50400001928E-02 0. -1.
       -1    1    3    3    0  502 -0.11729611659E+03 -0.76928219638E+03  0.66175315393E+03  0.10215041426E+04  0.50400001928E-02 0.  1.
</event>
<event>
 5   0  0.3395569E-04  0.1993678E+04  0.7818609E-02  0.8609582E-01
        2   -1    0    0  501    0  0.00000000000E+00  0.00000000000E+00  0.22191043271E+04  0.22191043271E+04  0.25500000920E-02 0.  1.
       -2   -1    0    0    0  501  0.00000000000E+00  0.00000000000E+00 -0.44778791765E+03  0.44778791765E+03  0.25500000920E-02 0. -1.
    10030    2    1    2    0    0  0.00000000000E+00  0.00000000000E+00  0.17713164095E+04  0.26668922448E+04  0.19936781141E+04 0.  0.
        4    1    3    3  502    0 -0.68700812983E+03  0.37778879689E+03  0.17091507814E+04  0.18803995724E+04  0.12699999809E+01 0. -1.
       -4    1    3    3    0  502  0.68700812983E+03 -0.37778879689E+03  0.62165628124E+02  0.78649267240E+03  0.12699999809E+01 0.  1.
</event>
<event>
 5   0  0.3431030E-04  0.1916982E+04  0.7818609E-02  0.8646449E-01
        2   -1    0    0  501    0  0.00000000000E+00  0.00000000000E+00  0.11627304644E+04  0.11627304644E+04  0.25500000920E-02 0. -1.
       -2   -1    0    0    0  501  0.00000000000E+00  0.00000000000E+00 -0.79012736286E+03  0.79012736286E+03  0.25500000920E-02 0.  1.
    10030    2    1    2    0    0  0.00000000000E+00  0.00000000000E+00  0.37260310152E+03  0.19528578272E+04  0.19169821653E+04 0.  0.
        3    1    3    3  502    0 -0.87258497360E+03 -0.32027998894E+03 -0.52002216372E+02  0.93096081989E+03  0.10100000352E+00 0.  1.
       -3    1    3    3    0  502  0.87258497360E+03  0.32027998894E+03  0.42460531790E+03  0.10218970074E+04  0.10100000352E+00 0. -1.
</event>
<event>
 5   0  0.1650221E-04  0.2023167E+04  0.7818609E-02  0.8595865E-01
        1   -1    0    0  501    0  0.00000000000E+00  0.00000000000E+00  0.17311172021E+04  0.17311172021E+04  0.50400001928E-02 0. -1.
       -1   -1    0    0    0  501  0.00000000000E+00  0.00000000000E+00 -0.59112202137E+03  0.59112202139E+03  0.50400001928E-02 0.  1.
    10030    2    1    2    0    0  0.00000000000E+00  0.00000000000E+00  0.11399951807E+04  0.23222392235E+04  0.20231673186E+04 0.  0.
        1    1    3    3  502    0  0.53876773523E+02  0.82391368292E+02  0.17256060063E+04  0.17284117372E+04  0.50400001928E-02 0. -1.
       -1    1    3    3    0  502 -0.53876773523E+02 -0.82391368292E+02 -0.58561082563E+03  0.59382748624E+03  0.50400001928E-02 0.  1.
</event>
<event>
 5   0  0.3371947E-04  0.2003867E+04  0.7818609E-02  0.8604815E-01
        2   -1    0    0  501    0  0.00000000000E+00  0.00000000000E+00  0.15557171227E+04  0.15557171227E+04  0.25500000920E-02 0. -1.
       -2   -1    0    0    0  501  0.00000000000E+00  0.00000000000E+00 -0.64527842351E+03  0.64527842351E+03  0.25500000920E-02 0.  1.
    10030    2    1    2    0    0  0.00000000000E+00  0.00000000000E+00  0.91043869917E+03  0.22009955462E+04  0.20038669540E+04 0.  0.
        2    1    3    3  502    0  0.57076920925E+02  0.90954719837E+03 -0.20748387238E+01  0.91133867795E+03  0.25500000920E-02 0.  1.
       -2    1    3    3    0  502 -0.57076920925E+02 -0.90954719837E+03  0.91251353790E+03  0.12896568682E+04  0.25500000920E-02 0. -1.
</event>
<event>
 5   0  0.1650221E-04  0.1766380E+04  0.7818609E-02  0.8724385E-01
       -1   -1    0    0    0  501  0.00000000000E+00  0.00000000000E+00  0.82024505714E+03  0.82024505716E+03  0.50400001928E-02 0. -1.
        1   -1    0    0  501    0  0.00000000000E+00  0.00000000000E+00 -0.95096525137E+03  0.95096525139E+03  0.50400001928E-02 0.  1.
    10030    2    1    2    0    0  0.00000000000E+00  0.00000000000E+00 -0.13072019423E+03  0.17712103085E+04  0.17663799670E+04 0.  0.
        1    1    3    3  502    0 -0.87433715857E+03  0.11143541006E+03 -0.91601595940E+01  0.88145744425E+03  0.50400001928E-02 0. -1.
       -1    1    3    3    0  502  0.87433715857E+03 -0.11143541006E+03 -0.12156003464E+03  0.88975286429E+03  0.50400001928E-02 0.  1.
</event>
<event>
 5   0  0.1643565E-04  0.2025785E+04  0.7818609E-02  0.8594660E-01
        1   -1    0    0  501    0  0.00000000000E+00  0.00000000000E+00  0.13165040656E+04  0.13165040656E+04  0.50400001928E-02 0. -1.
       -1   -1    0    0    0  501  0.00000000000E+00  0.00000000000E+00 -0.77929931593E+03  0.77929931594E+03  0.50400001928E-02 0.  1.
    10030    2    1    2    0    0  0.00000000000E+00  0.00000000000E+00  0.53720474969E+03  0.20958033816E+04  0.20257845076E+04 0.  0.
        2    1    3    3  502    0 -0.87222331294E+03  0.24362979841E+02 -0.26355342199E+03  0.91149737722E+03  0.25500000920E-02 0.  1.
       -2    1    3    3    0  502  0.87222331294E+03 -0.24362979841E+02  0.80075817168E+03  0.11843060044E+04  0.25500000920E-02 0. -1.
</event>
<event>
 5   0  0.3460648E-04  0.2042711E+04  0.7818609E-02  0.8586908E-01
       -2   -1    0    0    0  501  0.00000000000E+00  0.00000000000E+00  0.11942773880E+04  0.11942773880E+04  0.25500000920E-02 0. -1.
        2   -1    0    0  501    0  0.00000000000E+00  0.00000000000E+00 -0.87347113445E+03  0.87347113445E+03  0.25500000920E-02 0.  1.
    10030    2    1    2    0    0  0.00000000000E+00  0.00000000000E+00  0.32080625359E+03  0.20677485225E+04  0.20427107725E+04 0.  0.
        5    1    3    3  502    0 -0.94013327666E+03 -0.59001624081E+01  0.56436772115E+03  0.10965484050E+04  0.46999998093E+01 0. -1.
       -5    1    3    3    0  502  0.94013327666E+03  0.59001624081E+01 -0.24356146756E+03  0.97120011752E+03  0.46999998093E+01 0.  1.
</event>
<event>
 5   0  0.1650221E-04  0.1926207E+04  0.7818609E-02  0.8641921E-01
        1   -1    0    0  501    0  0.00000000000E+00  0.00000000000E+00  0.13144259691E+04  0.13144259691E+04  0.50400001928E-02 0.  1.
       -1   -1    0    0    0  501  0.00000000000E+00  0.00000000000E+00 -0.70568297048E+03  0.70568297050E+03  0.50400001928E-02 0. -1.
    10030    2    1    2    0    0  0.00000000000E+00  0.00000000000E+00  0.60874299858E+03  0.20201089396E+04  0.19262066580E+04 0.  0.
        1    1    3    3  502    0  0.38793163612E+03 -0.23710091485E+03 -0.58605369994E+03  0.74173225449E+03  0.50400001928E-02 0. -1.
       -1    1    3    3    0  502 -0.38793163612E+03  0.23710091485E+03  0.11947966985E+04  0.12783766851E+04  0.50400001928E-02 0.  1.
</event>
<event>
 5   0  0.3395569E-04  0.2095973E+04  0.7818609E-02  0.8563019E-01
        2   -1    0    0  501    0  0.00000000000E+00  0.00000000000E+00  0.16378690579E+04  0.16378690579E+04  0.25500000920E-02 0.  1.
       -2   -1    0    0    0  501  0.00000000000E+00  0.00000000000E+00 -0.67055148490E+03  0.67055148490E+03  0.25500000920E-02 0. -1.
    10030    2    1    2    0    0  0.00000000000E+00  0.00000000000E+00  0.96731757301E+03  0.23084205428E+04  0.20959728327E+04 0.  0.
        4    1    3    3  502    0 -0.37025367503E+03 -0.74039474017E+03  0.11914501074E+04  0.14508022355E+04  0.12699999809E+01 0.  1.
       -4    1    3    3    0  502  0.37025367503E+03  0.74039474017E+03 -0.22413253442E+03  0.85761830731E+03  0.12699999809E+01 0. -1.
</event>
<event>
 5   0  0.1222488E-04  0.1986001E+04  0.7818609E-02  0.8613194E-01
        3   -1    0    0  501    0  0.00000000000E+00  0.00000000000E+00  0.43432325573E+03  0.43432326747E+03  0.10100000352E+00 0.  1.
       -3   -1    0    0    0  501  0.00000000000E+00  0.00000000000E+00 -0.22703132487E+04  0.22703132510E+04  0.10100000352E+00 0. -1.
    10030    2    1    2    0    0  0.00000000000E+00  0.00000000000E+00 -0.18359899930E+04  0.27046365185E+04  0.19860008667E+04 0.  0.
        1    1    3    3  502    0  0.68637413800E+03  0.27692577836E+03 -0.18195488692E+04  0.19643206030E+04  0.50400001928E-02 0. -1.
       -1    1    3    3    0  502 -0.68637413800E+03 -0.27692577836E+03 -0.16441123783E+02  0.74031591541E+03  0.50400001928E-02 0.  1.
</event>
<event>
 5   0  0.3431030E-04  0.1600864E+04  0.7818609E-02  0.8820017E-01
       -2   -1    0    0    0  501  0.00000000000E+00  0.00000000000E+00  0.20838385910E+04  0.20838385910E+04  0.25500000920E-02 0.  1.
        2   -1    0    0  501    0  0.00000000000E+00  0.00000000000E+00 -0.30745739042E+03  0.30745739043E+03  0.25500000920E-02 0. -1.
    10030    2    1    2    0    0  0.00000000000E+00  0.00000000000E+00  0.17763812006E+04  0.23912959814E+04  0.16008642356E+04 0.  0.
        3    1    3    3  502    0 -0.55281576174E+03 -0.53097246643E+02  0.17492288103E+04  0.18352727386E+04  0.10100000352E+00 0.  1.
       -3    1    3    3    0  502  0.55281576174E+03  0.53097246643E+02  0.27152390245E+02  0.55602324280E+03  0.10100000352E+00 0. -1.
</event>
<event>
 5   0  0.3431030E-04  0.2089659E+04  0.7818609E-02  0.8565812E-01
        2   -1    0    0  501    0  0.00000000000E+00  0.00000000000E+00  0.91832881785E+03  0.91832881786E+03  0.25500000920E-02 0. -1.
       -2   -1    0    0    0  501  0.00000000000E+00  0.00000000000E+00 -0.11887559511E+04  0.11887559511E+04  0.25500000920E-02 0.  1.
    10030    2    1    2    0    0  0.00000000000E+00  0.00000000000E+00 -0.27042713328E+03  0.21070847690E+04  0.20896591563E+04 0.  0.
        3    1    3    3  502    0  0.64216970684E+03  0.19112500414E+03 -0.94362108787E+03  0.11572948921E+04  0.10100000352E+00 0.  1.
       -3    1    3    3    0  502 -0.64216970684E+03 -0.19112500414E+03  0.67319395458E+03  0.94978987691E+03  0.10100000352E+00 0. -1.
</event>
<event>
 5   0  0.1708578E-04  0.1747177E+04  0.7818609E-02  0.8734906E-01
       -1   -1    0    0    0  501  0.00000000000E+00  0.00000000000E+00  0.59482611048E+03  0.59482611050E+03  0.50400001928E-02 0. -1.
        1   -1    0    0  501    0  0.00000000000E+00  0.00000000000E+00 -0.12829909493E+04  0.12829909493E+04  0.50400001928E-02 0.  1.
    10030    2    1    2    0    0  0.00000000000E+00  0.00000000000E+00 -0.68816483883E+03  0.18778170598E+04  0.17471765980E+04 0.  0.
        3    1    3    3  502    0 -0.34495953718E+03 -0.65598993571E+03 -0.84108371958E+03  0.11210449195E+04  0.10100000352E+00 0.  1.
       -3    1    3    3    0  502  0.34495953718E+03  0.65598993571E+03  0.15291888075E+03  0.75677214030E+03  0.10100000352E+00 0. -1.
</event>
<event>
 5   0  0.3371947E-04  0.1979181E+04  0.7818609E-02  0.8616416E-01
       -2   -1    0    0    0  501  0.00000000000E+00  0.00000000000E+00  0.84253386849E+03  0.84253386849E+03  0.25500000920E-02 0.  1.
        2   -1    0    0  501    0  0.00000000000E+00  0.00000000000E+00 -0.11623151156E+04  0.11623151156E+04  0.25500000920E-02 0. -1.
    10030    2    1    2    0    0  0.00000000000E+00  0.00000000000E+00 -0.31978124711E+03  0.20048489841E+04  0.19791814982E+04 0.  0.
        2    1    3    3  502    0  0.94144249907E+03  0.30032039592E+03 -0.21333402733E+03  0.10109489238E+04  0.25500000920E-02 0. -1.
       -2    1    3    3    0  502 -0.94144249907E+03 -0.30032039592E+03 -0.10644721978E+03  0.99390006031E+03  0.25500000920E-02 0.  1.
</event>
<event>
 5   0  0.3395569E-04  0.1991909E+04  0.7818609E-02  0.8610413E-01
       -2   -1    0    0    0  501  0.00000000000E+00  0.00000000000E+00  0.10490348049E+04  0.10490348049E+04  0.25500000920E-02 0.  1.
        2   -1    0    0  501    0  0.00000000000E+00  0.00000000000E+00 -0.94555968312E+03  0.94555968312E+03  0.25500000920E-02 0. -1.
    10030    2    1    2    0    0  0.00000000000E+00  0.00000000000E+00  0.10347512181E+03  0.19945944881E+04  0.19919086503E+04 0.  0.
        4    1    3    3  502    0  0.30915592354E+03 -0.68459393242E+03 -0.60311454650E+03  0.96332497448E+03  0.12699999809E+01 0. -1.
       -4    1    3    3    0  502 -0.30915592354E+03  0.68459393242E+03  0.70658966831E+03  0.10312695136E+04  0.12699999809E+01 0.  1.
</event>
<event>
 5   0  0.3395569E-04  0.1760350E+04  0.7818609E-02  0.8727674E-01
       -2   -1    0    0    0  501  0.00000000000E+00  0.00000000000E+00  0.76712350676E+03  0.76712350676E+03  0.25500000920E-02 0. -1.
        2   -1    0    0  501    0  0.00000000000E+00  0.00000000000E+00 -0.10098871951E+04  0.10098871951E+04  0.25500000920E-02 0.  1.
    10030    2    1    2    0    0  0.00000000000E+00  0.00000000000E+00 -0.24276368836E+03  0.17770107019E+04  0.17603501999E+04 0.  0.
        4    1    3    3  502    0  0.12973750995E+03  0.71887307582E+03  0.37428083252E+03  0.82079112758E+03  0.12699999809E+01 0. -1.
       -4    1    3    3    0  502 -0.12973750995E+03 -0.71887307582E+03 -0.61704452088E+03  0.95621957430E+03  0.12699999809E+01 0.  1.
</event>
<event>
 5   0  0.1696052E-04  0.2006854E+04  0.7818609E-02  0.8603423E-01
       -1   -1    0    0    0  501  0.00000000000E+00  0.00000000000E+00  0.81245274586E+03  0.81245274588E+03  0.50400001928E-02 0. -1.
        1   -1    0    0  501    0  0.00000000000E+00  0.00000000000E+00 -0.12392915371E+04  0.12392915371E+04  0.50400001928E-02 0.  1.
    10030    2    1    2    0    0  0.00000000000E+00  0.00000000000E+00 -0.42683879124E+03  0.20517442830E+04  0.20068540677E+04 0.  0.
        4    1    3    3  502    0 -0.38953354889E+03 -0.34902073611E+03 -0.10889108985E+04  0.12080067954E+04  0.12699999809E+01 0.  1.
       -4    1    3    3    0  502  0.38953354889E+03  0.34902073611E+03  0.66207210723E+03  0.84373748762E+03  0.12699999809E+01 0. -1.
</event>
<event>
 5   0  0.1664168E-04  0.2004143E+04  0.7818609E-02  0.8604686E-01
       -1   -1    0    0    0  501  0.00000000000E+00  0.00000000000E+00  0.53480363403E+03  0.53480363405E+03  0.50400001928E-02 0. -1.
        1   -1    0    0  501    0  0.00000000000E+00  0.00000000000E+00 -0.18776003013E+04  0.18776003013E+04  0.50400001928E-02 0.  1.
    10030    2    1    2    0    0  0.00000000000E+00  0.00000000000E+00 -0.13427966673E+04  0.24124039354E+04  0.20041431730E+04 0.  0.
        5    1    3    3  502    0  0.61987773966E+03 -0.76393944007E+03 -0.44214483023E+03  0.10785944655E+04  0.46999998093E+01 0. -1.
       -5    1    3    3    0  502 -0.61987773966E+03  0.76393944007E+03 -0.90065183708E+03  0.13338094698E+04  0.46999998093E+01 0.  1.
</event>
<event>
 5   0  0.1650221E-04  0.2050932E+04  0.7818609E-02  0.8583171E-01
       -1   -1    0    0    0  501  0.00000000000E+00  0.00000000000E+00  0.73443878637E+03  0.73443878639E+03  0.50400001928E-02 0. -1.
        1   -1    0    0  501    0  0.00000000000E+00  0.00000000000E+00 -0.14318156036E+04  0.14318156036E+04  0.50400001928E-02 0.  1.
    10030    2    1    2    0    0  0.00000000000E+00  0.00000000000E+00 -0.69737681722E+03  0.21662543900E+04  0.20509323872E+04 0.  0.
        1    1    3    3  502    0 -0.59450777026E+03  0.31331667940E+03  0.46944543445E+03  0.81974742844E+03  0.50400001928E-02 0. -1.
       -1    1    3    3    0  502  0.59450777026E+03 -0.31331667940E+03 -0.11668222517E+04  0.13465069616E+04  0.50400001928E-02 0.  1.
</event>
<event>
 5   0  0.1696052E-04  0.2003197E+04  0.7818609E-02  0.8605127E-01
        1   -1    0    0  501    0  0.00000000000E+00  0.00000000000E+00  0.13255533157E+04  0.13255533157E+04  0.50400001928E-02 0.  1.
       -1   -1    0    0    0  501  0.00000000000E+00  0.00000000000E+00 -0.75681575135E+03  0.75681575136E+03  0.50400001928E-02 0. -1.
    10030    2    1    2    0    0  0.00000000000E+00  0.00000000000E+00  0.56873756431E+03  0.20823690670E+04  0.20031970732E+04 0.  0.
        4    1    3    3  502    0 -0.55846605543E+03 -0.82667606699E+03  0.37688258035E+03  0.10664519432E+04  0.12699999809E+01 0. -1.
       -4    1    3    3    0  502  0.55846605543E+03  0.82667606699E+03  0.19185498397E+03  0.10159171239E+04  0.12699999809E+01 0.  1.
</event>
<event>
 5   0  0.1650221E-04  0.1099579E+04  0.7818609E-02  0.9205602E-01
        1   -1    0    0  501    0  0.00000000000E+00  0.00000000000E+00  0.10785770267E+04  0.10785770267E+04  0.50400001928E-02 0.  1.
       -1   -1    0    0    0  501  0.00000000000E+00  0.00000000000E+00 -0.28024753822E+03  0.28024753826E+03  0.50400001928E-02 0. -1.
    10030    2    1    2    0    0  0.00000000000E+00  0.00000000000E+00  0.79832948847E+03  0.13588245650E+04  0.10995791132E+04 0.  0.
        1    1    3    3  502    0 -0.24841078204E+03  0.26677570534E+03 -0.10944249684E+03  0.38059802119E+03  0.50400001928E-02 0. -1.
       -1    1    3    3    0  502  0.24841078204E+03 -0.26677570534E+03  0.90777198531E+03  0.97822654377E+03  0.50400001928E-02 0.  1.
</event>
<event>
 5   0  0.3371947E-04  0.2096644E+04  0.7818609E-02  0.8562723E-01
        2   -1    0    0  501    0  0.00000000000E+00  0.00000000000E+00  0.21766571307E+04  0.21766571307E+04  0.25500000920E-02 0. -1.
       -2   -1    0    0    0  501  0.00000000000E+00  0.00000000000E+00 -0.50489301720E+03  0.50489301720E+03  0.25500000920E-02 0.  1.
    10030    2    1    2    0    0  0.00000000000E+00  0.00000000000E+00  0.16717641135E+04  0.26815501479E+04  0.20966439718E+04 0.  0.
        2    1    3    3  502    0  0.97664889468E+02  0.31776333879E+03  0.21074580627E+04  0.21335162188E+04  0.25500000920E-02 0. -1.
       -2    1    3    3    0  502 -0.97664889468E+02 -0.31776333879E+03 -0.43569394914E+03  0.54803392909E+03  0.25500000920E-02 0.  1.
</event>
<event>
 5   0  0.1696052E-04  0.1994432E+04  0.7818609E-02  0.8609228E-01
       -1   -1    0    0    0  501  0.00000000000E+00  0.00000000000E+00  0.93961698442E+03  0.93961698444E+03  0.50400001928E-02 0.  1.
        1   -1    0    0  501    0  0.00000000000E+00  0.00000000000E+00 -0.10583460235E+04  0.10583460235E+04  0.50400001928E-02 0. -1.
    10030    2    1    2    0    0  0.00000000000E+00  0.00000000000E+00 -0.11872903908E+03  0.19979630079E+04  0.19944321489E+04 0.  0.
        4    1    3    3  502    0 -0.16194480910E+03 -0.44477308203E+03  0.81990746005E+03  0.94673072816E+03  0.12699999809E+01 0.  1.
       -4    1    3    3    0  502  0.16194480910E+03  0.44477308203E+03 -0.93863649912E+03  0.10512322798E+04  0.12699999809E+01 0. -1.
</event>
<event>
 5   0  0.3371947E-04  0.2021009E+04  0.7818609E-02  0.8596861E-01
        2   -1    0    0  501    0  0.00000000000E+00  0.00000000000E+00  0.10210063125E+04  0.10210063125E+04  0.25500000920E-02 0. -1.
       -2   -1    0    0    0  501  0.00000000000E+00  0.00000000000E+00 -0.10001109311E+04  0.10001109311E+04  0.25500000920E-02 0.  1.
    10030    2    1    2    0    0  0.00000000000E+00  0.00000000000E+00  0.20895381427E+02  0.20211172437E+04  0.20210092270E+04 0.  0.
        2    1    3    3  502    0 -0.56405951842E+03 -0.11975291080E+03  0.84032074404E+03  0.10191382894E+04  0.25500000920E-02 0. -1.
       -2    1    3    3    0  502  0.56405951842E+03  0.11975291080E+03 -0.81942536261E+03  0.10019789543E+04  0.25500000920E-02 0.  1.
</event>
<event>
 5   0  0.1650221E-04  0.1995657E+04  0.7818609E-02  0.8608654E-01
       -1   -1    0    0    0  501  0.00000000000E+00  0.00000000000E+00  0.63035945382E+03  0.63035945384E+03  0.50400001928E-02 0.  1.
        1   -1    0    0  501    0  0.00000000000E+00  0.00000000000E+00 -0.15795137431E+04  0.15795137431E+04  0.50400001928E-02 0. -1.
    10030    2    1    2    0    0  0.00000000000E+00  0.00000000000E+00 -0.94915428927E+03  0.22098731969E+04  0.19956567044E+04 0.  0.
        1    1    3    3  502    0  0.17172644551E+03  0.65456856213E+03 -0.12865773883E+04  0.14536957559E+04  0.50400001928E-02 0. -1.
       -1    1    3    3    0  502 -0.17172644551E+03 -0.65456856213E+03  0.33742309899E+03  0.75617744107E+03  0.50400001928E-02 0.  1.
</event>
<event>
 5   0  0.1708578E-04  0.2048000E+04  0.7818609E-02  0.8584502E-01
        1   -1    0    0  501    0  0.00000000000E+00  0.00000000000E+00  0.20567573956E+04  0.20567573956E+04  0.50400001928E-02 0. -1.
       -1   -1    0    0    0  501  0.00000000000E+00  0.00000000000E+00 -0.50981989852E+03  0.50981989855E+03  0.50400001928E-02 0.  1.
    10030    2    1    2    0    0  0.00000000000E+00  0.00000000000E+00  0.15469374971E+04  0.25665772942E+04  0.20479998503E+04 0.  0.
        3    1    3    3  502    0  0.18448995216E+03 -0.54272824927E+03 -0.28990578318E+03  0.64236739358E+03  0.10100000352E+00 0.  1.
       -3    1    3    3    0  502 -0.18448995216E+03  0.54272824927E+03  0.18368432803E+04  0.19242099006E+04  0.10100000352E+00 0. -1.
</event>
<event>
 5   0  0.3371947E-04  0.2096186E+04  0.7818609E-02  0.8562925E-01
       -2   -1    0    0    0  501  0.00000000000E+00  0.00000000000E+00  0.11810807412E+04  0.11810807412E+04  0.25500000920E-02 0. -1.
        2   -1    0    0  501    0  0.00000000000E+00  0.00000000000E+00 -0.93007938536E+03  0.93007938537E+03  0.25500000920E-02 0.  1.
    10030    2    1    2    0    0  0.00000000000E+00  0.00000000000E+00  0.25100135582E+03  0.21111601266E+04  0.20961859172E+04 0.  0.
        2    1    3    3  502    0  0.14368933019E+03 -0.21155308341E+03  0.11491755318E+04  0.11772874473E+04  0.25500000920E-02 0. -1.
       -2    1    3    3    0  502 -0.14368933019E+03  0.21155308341E+03 -0.89817417596E+03  0.93387267926E+03  0.25500000920E-02 0.  1.
</event>
<event>
 5   0  0.3387881E-04  0.1990020E+04  0.7818609E-02  0.8611301E-01
       -2   -1    0    0    0  501  0.00000000000E+00  0.00000000000E+00  0.88197032850E+03  0.88197032851E+03  0.25500000920E-02 0.  1.
        2   -1    0    0  501    0  0.00000000000E+00  0.00000000000E+00 -0.11225372294E+04  0.11225372295E+04  0.25500000920E-02 0. -1.
    10030    2    1    2    0    0  0.00000000000E+00  0.00000000000E+00 -0.24056690094E+03  0.20045075580E+04  0.19900196271E+04 0.  0.
        1    1    3    3  502    0 -0.81596858520E+03  0.28765502598E+03 -0.61528191894E+03  0.10616600142E+04  0.50400001928E-02 0. -1.
       -1    1    3    3    0  502  0.81596858520E+03 -0.28765502598E+03  0.37471501799E+03  0.94284754374E+03  0.50400001928E-02 0.  1.
</event>
<event>
 5   0  0.3460648E-04  0.1847850E+04  0.7818609E-02  0.8681259E-01
       -2   -1    0    0    0  501  0.00000000000E+00  0.00000000000E+00  0.11148195220E+04  0.11148195220E+04  0.25500000920E-02 0. -1.
        2   -1    0    0  501    0  0.00000000000E+00  0.00000000000E+00 -0.76571837809E+03  0.76571837810E+03  0.25500000920E-02 0.  1.
    10030    2    1    2    0    0  0.00000000000E+00  0.00000000000E+00  0.34910114392E+03  0.18805379001E+04  0.18478504228E+04 0.  0.
        5    1    3    3  502    0  0.77914563072E+03  0.44166999407E+03  0.40544591775E+03  0.98313212731E+03  0.46999998093E+01 0.  1.
       -5    1    3    3    0  502 -0.77914563072E+03 -0.44166999407E+03 -0.56344773827E+02  0.89740577281E+03  0.46999998093E+01 0. -1.
</event>
<event>
 5   0  0.1696052E-04  0.2030669E+04  0.7818609E-02  0.8592414E-01
       -1   -1    0    0    0  501  0.00000000000E+00  0.00000000000E+00  0.56672901797E+03  0.56672901799E+03  0.50400001928E-02 0.  1.
        1   -1    0    0  501    0  0.00000000000E+00  0.00000000000E+00 -0.18190431514E+04  0.18190431514E+04  0.50400001928E-02 0. -1.
    10030    2    1    2    0    0  0.00000000000E+00  0.00000000000E+00 -0.12523141334E+04  0.23857721694E+04  0.20306693860E+04 0.  0.
        4    1    3    3  502    0 -0.20787259764E+03  0.76117353514E+03  0.12457165381E+03  0.79882155534E+03  0.12699999809E+01 0.  1.
       -4    1    3    3    0  502  0.20787259764E+03 -0.76117353514E+03 -0.13768857872E+04  0.15869506140E+04  0.12699999809E+01 0. -1.
</event>
<event>
 5   0  0.1650221E-04  0.2045015E+04  0.7818609E-02  0.8585859E-01
       -1   -1    0    0    0  501  0.00000000000E+00  0.00000000000E+00  0.15523767336E+04  0.15523767336E+04  0.50400001928E-02 0. -1.
        1   -1    0    0  501    0  0.00000000000E+00  0.00000000000E+00 -0.67349705890E+03  0.67349705892E+03  0.50400001928E-02 0.  1.
    10030    2    1    2    0    0  0.00000000000E+00  0.00000000000E+00  0.87887967472E+03  0.22258737926E+04  0.20450145862E+04 0.  0.
        1    1    3    3  502    0 -0.90884836546E+03 -0.39813834704E+03  0.70826813820E+03  0.12190829547E+04  0.50400001928E-02 0. -1.
       -1    1    3    3    0  502  0.90884836546E+03  0.39813834704E+03  0.17061153652E+03  0.10067908379E+04  0.50400001928E-02 0.  1.
</event>
<event>
 5   0  0.1664168E-04  0.2007110E+04  0.7818609E-02  0.8603304E-01
       -1   -1    0    0    0  501  0.00000000000E+00  0.00000000000E+00  0.86141263917E+03  0.86141263918E+03  0.50400001928E-02 0. -1.
        1   -1    0    0  501    0  0.00000000000E+00  0.00000000000E+00 -0.11691522794E+04  0.11691522794E+04  0.50400001928E-02 0.  1.
    10030    2    1    2    0    0  0.00000000000E+00  0.00000000000E+00 -0.30773964024E+03  0.20305649186E+04  0.20071099129E+04 0.  0.
        5    1    3    3  502    0 -0.73763945667E+03  0.10541897143E+03  0.52620240827E+03  0.91221499222E+03  0.46999998093E+01 0. -1.
       -5    1    3    3    0  502  0.73763945667E+03 -0.10541897143E+03 -0.83394204851E+03  0.11183499264E+04  0.46999998093E+01 0.  1.
</event>
<event>
 5   0  0.3431030E-04  0.1817634E+04  0.7818609E-02  0.8696978E-01
        2   -1    0    0  501    0  0.00000000000E+00  0.00000000000E+00  0.83572919927E+03  0.83572919927E+03  0.25500000920E-02 0. -1.
       -2   -1    0    0    0  501  0.00000000000E+00  0.00000000000E+00 -0.98829656167E+03  0.98829656167E+03  0.25500000920E-02 0.  1.
    10030    2    1    2    0    0  0.00000000000E+00  0.00000000000E+00 -0.15256736240E+03  0.18240257609E+04  0.18176339501E+04 0.  0.
        3    1    3    3  502    0 -0.62948415826E+03 -0.17025023946E+03  0.55896119096E+03  0.85887896279E+03  0.10100000352E+00 0. -1.
       -3    1    3    3    0  502  0.62948415826E+03  0.17025023946E+03 -0.71152855336E+03  0.96514679815E+03  0.10100000352E+00 0.  1.
</event>
<event>
 5   0  0.3371947E-04  0.1864545E+04  0.7818609E-02  0.8672709E-01
       -2   -1    0    0    0  501  0.00000000000E+00  0.00000000000E+00  0.48806756209E+03  0.48806756209E+03  0.25500000920E-02 0.  1.
        2   -1    0    0  501    0  0.00000000000E+00  0.00000000000E+00 -0.17807618671E+04  0.17807618671E+04  0.25500000920E-02 0. -1.
    10030    2    1    2    0    0  0.00000000000E+00  0.00000000000E+00 -0.12926943050E+04  0.22688294292E+04  0.18645450953E+04 0.  0.
        2    1    3    3  502    0 -0.82343200168E+02 -0.10834451631E+03 -0.17686110847E+04  0.17738388049E+04  0.25500000920E-02 0. -1.
       -2    1    3    3    0  502  0.82343200168E+02  0.10834451631E+03  0.47591677975E+03  0.49499062423E+03  0.25500000920E-02 0.  1.
</event>
<event>
 5   0  0.1643565E-04  0.1374581E+04  0.7818609E-02  0.8972427E-01
       -1   -1    0    0    0  501  0.00000000000E+00  0.00000000000E+00  0.47649644004E+03  0.47649644007E+03  0.50400001928E-02 0. -1.
        1   -1    0    0  501    0  0.00000000000E+00  0.00000000000E+00 -0.99133591471E+03  0.99133591473E+03  0.50400001928E-02 0.  1.
    10030    2    1    2    0    0  0.00000000000E+00  0.00000000000E+00 -0.51483947467E+03  0.14678323548E+04  0.13745807132E+04 0.  0.
        2    1    3    3  502    0  0.16386361210E+03  0.28765618669E+03 -0.90058457546E+03  0.95950505089E+03  0.25500000920E-02 0.  1.
       -2    1    3    3    0  502 -0.16386361210E+03 -0.28765618669E+03  0.38574510079E+03  0.50832730391E+03  0.25500000920E-02 0. -1.
</event>
<event>
 5   0  0.1643565E-04  0.2022013E+04  0.7818609E-02  0.8596397E-01
       -1   -1    0    0    0  501  0.00000000000E+00  0.00000000000E+00  0.81040230135E+03  0.81040230136E+03  0.50400001928E-02 0.  1.
        1   -1    0    0  501    0  0.00000000000E+00  0.00000000000E+00 -0.12612679655E+04  0.12612679655E+04  0.50400001928E-02 0. -1.
    10030    2    1    2    0    0  0.00000000000E+00  0.00000000000E+00 -0.45086566414E+03  0.20716702669E+04  0.20220133154E+04 0.  0.
        2    1    3    3  502    0  0.67118776555E+03 -0.72627896177E+02  0.54562233499E+03  0.86802739610E+03  0.25500000920E-02 0.  1.
       -2    1    3    3    0  502 -0.67118776555E+03  0.72627896177E+02 -0.99648799914E+03  0.12036428708E+04  0.25500000920E-02 0. -1.
</event>
<event>
 5   0  0.3387881E-04  0.1937701E+04  0.7818609E-02  0.8636314E-01
       -2   -1    0    0    0  501  0.00000000000E+00  0.00000000000E+00  0.52679633543E+03  0.52679633544E+03  0.25500000920E-02 0. -1.
        2   -1    0    0  501    0  0.00000000000E+00  0.00000000000E+00 -0.17818484214E+04  0.17818484214E+04  0.25500000920E-02 0.  1.
    10030    2    1    2    0    0  0.00000000000E+00  0.00000000000E+00 -0.12550520860E+04  0.23086447569E+04  0.19377009250E+04 0.  0.
        1    1    3    3  502    0 -0.78057284015E+02  0.86436870244E+03 -0.11405976221E+04  0.14332442670E+04  0.50400001928E-02 0. -1.
       -1    1    3    3    0  502  0.78057284015E+02 -0.86436870244E+03 -0.11445446393E+03  0.87540048988E+03  0.50400001928E-02 0.  1.
</event>
<event>
 5   0  0.1708578E-04  0.2008767E+04  0.7818609E-02  0.8602533E-01
        1   -1    0    0  501    0  0.00000000000E+00  0.00000000000E+00  0.10495746146E+04  0.10495746147E+04  0.50400001928E-02 0. -1.
       -1   -1    0    0    0  501  0.00000000000E+00  0.00000000000E+00 -0.96113835357E+03  0.96113835358E+03  0.50400001928E-02 0.  1.
    10030    2    1    2    0    0  0.00000000000E+00  0.00000000000E+00  0.88436261070E+02  0.20107129682E+04  0.20087672011E+04 0.  0.
        3    1    3    3  502    0  0.58301635642E+03  0.50677657012E+03  0.68675567423E+03  0.10336169165E+04  0.10100000352E+00 0. -1.
       -3    1    3    3    0  502 -0.58301635642E+03 -0.50677657012E+03 -0.59831941316E+03  0.97709605169E+03  0.10100000352E+00 0.  1.
</event>
<event>
 5   0  0.3387881E-04  0.2133166E+04  0.7818609E-02  0.8546772E-01
       -2   -1    0    0    0  501  0.00000000000E+00  0.00000000000E+00  0.91087469792E+03  0.91087469792E+03  0.25500000920E-02 0. -1.
        2   -1    0    0  501    0  0.00000000000E+00  0.00000000000E+00 -0.12489090225E+04  0.12489090225E+04  0.25500000920E-02 0.  1.
    10030    2    1    2    0    0  0.00000000000E+00  0.00000000000E+00 -0.33803432463E+03  0.21597837205E+04  0.21331663120E+04 0.  0.
        1    1    3    3  502    0  0.91479812330E+03 -0.38245008033E+03 -0.56695569649E+03  0.11421744316E+04  0.50400001928E-02 0.  1.
       -1    1    3    3    0  502 -0.91479812330E+03  0.38245008033E+03  0.22892137186E+03  0.10176092889E+04  0.50400001928E-02 0. -1.
</event>
<event>
 5   0  0.1643565E-04  0.1719660E+04  0.7818609E-02  0.8750231E-01
        1   -1    0    0  501    0  0.00000000000E+00  0.00000000000E+00  0.14756915913E+04  0.14756915913E+04  0.50400001928E-02 0. -1.
       -1   -1    0    0    0  501  0.00000000000E+00  0.00000000000E+00 -0.50099032133E+03  0.50099032136E+03  0.50400001928E-02 0.  1.
    10030    2    1    2    0    0  0.00000000000E+00  0.00000000000E+00  0.97470126993E+03  0.19766819126E+04  0.17196595064E+04 0.  0.
        2    1    3    3  502    0  0.21236700809E+03 -0.39592331171E+03 -0.35533238261E+03  0.57281420811E+03  0.25500000920E-02 0.  1.
       -2    1    3    3    0  502 -0.21236700809E+03  0.39592331171E+03  0.13300336525E+04  0.14038677045E+04  0.25500000920E-02 0. -1.
</event>
<event>
 5   0  0.1696052E-04  0.1960797E+04  0.7818609E-02  0.8625172E-01
       -1   -1    0    0    0  501  0.00000000000E+00  0.00000000000E+00  0.15226723204E+04  0.15226723204E+04  0.50400001928E-02 0. -1.
        1   -1    0    0  501    0  0.00000000000E+00  0.00000000000E+00 -0.63124642622E+03  0.63124642624E+03  0.50400001928E-02 0.  1.
    10030    2    1    2    0    0  0.00000000000E+00  0.00000000000E+00  0.89142589420E+03  0.21539187467E+04  0.19607972466E+04 0.  0.
        4    1    3    3  502    0 -0.22830299607E+03 -0.92987071892E+03  0.67717431012E+03  0.11727525191E+04  0.12699999809E+01 0.  1.
       -4    1    3    3    0  502  0.22830299607E+03  0.92987071892E+03  0.21425158408E+03  0.98116622755E+03  0.12699999809E+01 0. -1.
</event>
<event>
 5   0  0.3395569E-04  0.1990385E+04  0.7818609E-02  0.8611129E-01
        2   -1    0    0  501    0  0.00000000000E+00  0.00000000000E+00  0.58347538774E+03  0.58347538774E+03  0.25500000920E-02 0.  1.
       -2   -1    0    0    0  501  0.00000000000E+00  0.00000000000E+00 -0.16974299032E+04  0.16974299032E+04  0.25500000920E-02 0. -1.
    10030    2    1    2    0    0  0.00000000000E+00  0.00000000000E+00 -0.11139545154E+04  0.22809052909E+04  0.19903854611E+04 0.  0.
        4    1    3    3  502    0 -0.42074250705E+03  0.87614413202E+03 -0.80210098885E+03  0.12601668169E+04  0.12699999809E+01 0.  1.
       -4    1    3    3    0  502  0.42074250705E+03 -0.87614413202E+03 -0.31185352657E+03  0.10207384740E+04  0.12699999809E+01 0. -1.
</event>
<event>
 5   0  0.3371947E-04  0.1967855E+04  0.7818609E-02  0.8621799E-01
        2   -1    0    0  501    0  0.00000000000E+00  0.00000000000E+00  0.13387797375E+04  0.13387797375E+04  0.25500000920E-02 0. -1.
       -2   -1    0    0    0  501  0.00000000000E+00  0.00000000000E+00 -0.72313100146E+03  0.72313100146E+03  0.25500000920E-02 0.  1.
    10030    2    1    2    0    0  0.00000000000E+00  0.00000000000E+00  0.61564873603E+03  0.20619107390E+04  0.19678548039E+04 0.  0.
        2    1    3    3  502    0 -0.45211687179E+03  0.18364336190E+03 -0.58739994441E+03  0.76365780611E+03  0.25500000920E-02 0.  1.
       -2    1    3    3    0  502  0.45211687179E+03 -0.18364336190E+03  0.12030486804E+04  0.12982529328E+04  0.25500000920E-02 0. -1.
</event>
<event>
 5   0  0.1664168E-04  0.1819635E+04  0.7818609E-02  0.8695927E-01
        1   -1    0    0  501    0  0.00000000000E+00  0.00000000000E+00  0.75499556095E+03  0.75499556097E+03  0.50400001928E-02 0.  1.
       -1   -1    0    0    0  501  0.00000000000E+00  0.00000000000E+00 -0.10963877774E+04  0.10963877774E+04  0.50400001928E-02 0. -1.
    10030    2    1    2    0    0  0.00000000000E+00  0.00000000000E+00 -0.34139221649E+03  0.18513833384E+04  0.18196350239E+04 0.  0.
        5    1    3    3  502    0  0.30257585651E+03 -0.92456882773E+02 -0.10386006378E+04  0.10857319185E+04  0.46999998093E+01 0. -1.
       -5    1    3    3    0  502 -0.30257585651E+03  0.92456882773E+02  0.69720842127E+03  0.76565141991E+03  0.46999998093E+01 0.  1.
</event>
<event>
 5   0  0.3460648E-04  0.1994822E+04  0.7818609E-02  0.8609045E-01
        2   -1    0    0  501    0  0.00000000000E+00  0.00000000000E+00  0.70661487091E+03  0.70661487092E+03  0.25500000920E-02 0.  1.
       -2   -1    0    0    0  501  0.00000000000E+00  0.00000000000E+00 -0.14078802751E+04  0.14078802751E+04  0.25500000920E-02 0. -1.
    10030    2    1    2    0    0  0.00000000000E+00  0.00000000000E+00 -0.70126540418E+03  0.21144951460E+04  0.19948224371E+04 0.  0.
        5    1    3    3  502    0 -0.25636729726E+03 -0.25925865719E+02  0.67071241844E+03  0.71852180194E+03  0.46999998093E+01 0.  1.
       -5    1    3    3    0  502  0.25636729726E+03  0.25925865719E+02 -0.13719778226E+04  0.13959733441E+04  0.46999998093E+01 0. -1.
</event>
<event>
 5   0  0.3371947E-04  0.2006430E+04  0.7818609E-02  0.8603620E-01
        2   -1    0    0  501    0  0.00000000000E+00  0.00000000000E+00  0.67692059737E+03  0.67692059737E+03  0.25500000920E-02 0.  1.
       -2   -1    0    0    0  501  0.00000000000E+00  0.00000000000E+00 -0.14867928843E+04  0.14867928843E+04  0.25500000920E-02 0. -1.
    10030    2    1    2    0    0  0.00000000000E+00  0.00000000000E+00 -0.80987228692E+03  0.21637134817E+04  0.20064303899E+04 0.  0.
        2    1    3    3  502    0  0.28312318996E+02 -0.24045131262E+02  0.67617877027E+03  0.67719826131E+03  0.25500000920E-02 0.  1.
       -2    1    3    3    0  502 -0.28312318996E+02  0.24045131262E+02 -0.14860510572E+04  0.14865152204E+04  0.25500000920E-02 0. -1.
</event>
<event>
 5   0  0.1222488E-04  0.1900131E+04  0.7818609E-02  0.8654791E-01
        4   -1    0    0  501    0  0.00000000000E+00  0.00000000000E+00  0.12248491686E+04  0.12248498270E+04  0.12699999809E+01 0. -1.
       -4   -1    0    0    0  501  0.00000000000E+00  0.00000000000E+00 -0.73692575668E+03  0.73692685103E+03  0.12699999809E+01 0.  1.
    10030    2    1    2    0    0  0.00000000000E+00  0.00000000000E+00  0.48792341194E+03  0.19617766781E+04  0.19001311741E+04 0.  0.
        4    1    3    3  502    0 -0.75495292023E+03 -0.46462931633E+03  0.59679242030E+03  0.10686426527E+04  0.12699999809E+01 0. -1.
       -4    1    3    3    0  502  0.75495292023E+03  0.46462931633E+03 -0.10886900837E+03  0.89313402535E+03  0.12699999809E+01 0.  1.
</event>
<event>
 5   0  0.1708578E-04  0.1966847E+04  0.7818609E-02  0.8622280E-01
        1   -1    0    0  501    0  0.00000000000E+00  0.00000000000E+00  0.93515487176E+03  0.93515487177E+03  0.50400001928E-02 0.  1.
       -1   -1    0    0    0  501  0.00000000000E+00  0.00000000000E+00 -0.10341835881E+04  0.10341835881E+04  0.50400001928E-02 0. -1.
    10030    2    1    2    0    0  0.00000000000E+00  0.00000000000E+00 -0.99028716347E+02  0.19693384599E+04  0.19668470411E+04 0.  0.
        3    1    3    3  502    0 -0.47675156331E+03  0.59287328445E+03  0.57443712417E+03  0.95329366113E+03  0.10100000352E+00 0.  1.
       -3    1    3    3    0  502  0.47675156331E+03 -0.59287328445E+03 -0.67346584052E+03  0.10160447988E+04  0.10100000352E+00 0. -1.
</event>
<event>
 5   0  0.3387881E-04  0.2020684E+04  0.7818609E-02  0.8597011E-01
       -2   -1    0    0    0  501  0.00000000000E+00  0.00000000000E+00  0.12619844803E+04  0.12619844803E+04  0.25500000920E-02 0. -1.
        2   -1    0    0  501    0  0.00000000000E+00  0.00000000000E+00 -0.80887737243E+03  0.80887737244E+03  0.25500000920E-02 0.  1.
    10030    2    1    2    0    0  0.00000000000E+00  0.00000000000E+00  0.45310710787E+03  0.20708618527E+04  0.20206837362E+04 0.  0.
        1    1    3    3  502    0 -0.49240667846E+03 -0.64886950638E+03  0.83913816072E+03  0.11694651881E+04  0.50400001928E-02 0. -1.
       -1    1    3    3    0  502  0.49240667846E+03  0.64886950638E+03 -0.38603105285E+03  0.90139666468E+03  0.50400001928E-02 0.  1.
</event>
<event>
 5   0  0.1708578E-04  0.1985723E+04  0.7818609E-02  0.8613325E-01
       -1   -1    0    0    0  501  0.00000000000E+00  0.00000000000E+00  0.12038392615E+04  0.12038392615E+04  0.50400001928E-02 0. -1.
        1   -1    0    0  501    0  0.00000000000E+00  0.00000000000E+00 -0.81885854010E+03  0.81885854011E+03  0.50400001928E-02 0.  1.
    10030    2    1    2    0    0  0.00000000000E+00  0.00000000000E+00  0.38498072141E+03  0.20226978016E+04  0.19857231028E+04 0.  0.
        3    1    3    3  502    0 -0.43098918382E+03  0.89437471676E+03  0.20347255417E+03  0.10134391452E+04  0.10100000352E+00 0. -1.
       -3    1    3    3    0  502  0.43098918382E+03 -0.89437471676E+03  0.18150816724E+03  0.10092586564E+04  0.10100000352E+00 0.  1.
</event>
<event>
 5   0  0.3371947E-04  0.1729062E+04  0.7818609E-02  0.8744961E-01
        2   -1    0    0  501    0  0.00000000000E+00  0.00000000000E+00  0.10553868353E+04  0.10553868353E+04  0.25500000920E-02 0. -1.
       -2   -1    0    0    0  501  0.00000000000E+00  0.00000000000E+00 -0.70818935276E+03  0.70818935276E+03  0.25500000920E-02 0.  1.
    10030    2    1    2    0    0  0.00000000000E+00  0.00000000000E+00  0.34719748256E+03  0.17635761881E+04  0.17290618495E+04 0.  0.
        2    1    3    3  502    0  0.39294444035E+03  0.76948081101E+03  0.20432765692E+03  0.88783773466E+03  0.25500000920E-02 0. -1.
       -2    1    3    3    0  502 -0.39294444035E+03 -0.76948081101E+03  0.14286982564E+03  0.87573845342E+03  0.25500000920E-02 0.  1.
</event>
<event>
 5   0  0.3431030E-04  0.1561985E+04  0.7818609E-02  0.8844249E-01
       -2   -1    0    0    0  501  0.00000000000E+00  0.00000000000E+00  0.38127349209E+03  0.38127349210E+03  0.25500000920E-02 0.  1.
        2   -1    0    0  501    0  0.00000000000E+00  0.00000000000E+00 -0.15997679298E+04  0.15997679298E+04  0.25500000920E-02 0. -1.
    10030    2    1    2    0    0  0.00000000000E+00  0.00000000000E+00 -0.12184944377E+04  0.19810414219E+04  0.15619847696E+04 0.  0.
        3    1    3    3  502    0  0.73581419637E+03  0.25913239731E+03 -0.65631005062E+03  0.10194680101E+04  0.10100000352E+00 0.  1.
       -3    1    3    3    0  502 -0.73581419637E+03 -0.25913239731E+03 -0.56218438706E+03  0.96157341174E+03  0.10100000352E+00 0. -1.
</event>
<event>
 5   0  0.3387881E-04  0.2144335E+04  0.7818609E-02  0.8541961E-01
        2   -1    0    0  501    0  0.00000000000E+00  0.00000000000E+00  0.22288668347E+04  0.22288668347E+04  0.25500000920E-02 0. -1.
       -2   -1    0    0    0  501  0.00000000000E+00  0.00000000000E+00 -0.51575225722E+03  0.51575225722E+03  0.25500000920E-02 0.  1.
    10030    2    1    2    0    0  0.00000000000E+00  0.00000000000E+00  0.17131145774E+04  0.27446190919E+04  0.21443349561E+04 0.  0.
        1    1    3    3  502    0 -0.33884399203E+03  0.88599160697E+03  0.14962027953E+04  0.17715584053E+04  0.50400001928E-02 0.  1.
       -1    1    3    3    0  502  0.33884399203E+03 -0.88599160697E+03  0.21691178210E+03  0.97306068659E+03  0.50400001928E-02 0. -1.
</event>
<event>
 5   0  0.3460648E-04  0.2005207E+04  0.7818609E-02  0.8604190E-01
        2   -1    0    0  501    0  0.00000000000E+00  0.00000000000E+00  0.11760755453E+04  0.11760755453E+04  0.25500000920E-02 0. -1.
       -2   -1    0    0    0  501  0.00000000000E+00  0.00000000000E+00 -0.85471844540E+03  0.85471844540E+03  0.25500000920E-02 0.  1.
    10030    2    1    2    0    0  0.00000000000E+00  0.00000000000E+00  0.32135709992E+03  0.20307939907E+04  0.20052066844E+04 0.  0.
        5    1    3    3  502    0 -0.18583944701E+03 -0.34839888207E+02  0.11578445782E+04  0.11731906388E+04  0.46999998093E+01 0. -1.
       -5    1    3    3    0  502  0.18583944701E+03  0.34839888207E+02 -0.83648747825E+03  0.85760335188E+03  0.46999998093E+01 0.  1.
</event>
<event>
 5   0  0.1696052E-04  0.1884226E+04  0.7818609E-02  0.8662748E-01
       -1   -1    0    0    0  501  0.00000000000E+00  0.00000000000E+00  0.51673707357E+03  0.51673707360E+03  0.50400001928E-02 0. -1.
        1   -1    0    0  501    0  0.00000000000E+00  0.00000000000E+00 -0.17176560183E+04  0.17176560183E+04  0.50400001928E-02 0.  1.
    10030    2    1    2    0    0  0.00000000000E+00  0.00000000000E+00 -0.12009189447E+04  0.22343930919E+04  0.18842256174E+04 0.  0.
        4    1    3    3  502    0  0.55157402608E+03  0.76330873577E+03 -0.56906715069E+03  0.11003241192E+04  0.12699999809E+01 0.  1.
       -4    1    3    3    0  502 -0.55157402608E+03 -0.76330873577E+03 -0.63185179401E+03  0.11340689727E+04  0.12699999809E+01 0. -1.
</event>
<event>
 5   0  0.1664168E-04  0.1279920E+04  0.7818609E-02  0.9045642E-01
       -1   -1    0    0    0  501  0.00000000000E+00  0.00000000000E+00  0.37350775068E+03  0.37350775071E+03  0.50400001928E-02 0.  1.
        1   -1    0    0  501    0  0.00000000000E+00  0.00000000000E+00 -0.10964929835E+04  0.10964929835E+04  0.50400001928E-02 0. -1.
    10030    2    1    2    0    0  0.00000000000E+00  0.00000000000E+00 -0.72298523279E+03  0.14700007342E+04  0.12799197286E+04 0.  0.
        5    1    3    3  502    0  0.10530850057E+03  0.59177374904E+03 -0.10923710557E+03  0.61093443640E+03  0.46999998093E+01 0.  1.
       -5    1    3    3    0  502 -0.10530850057E+03 -0.59177374904E+03 -0.61374812721E+03  0.85906629779E+03  0.46999998093E+01 0. -1.
</event>
<event>
 5   0  0.3395569E-04  0.2000553E+04  0.7818609E-02  0.8606362E-01
        2   -1    0    0  501    0  0.00000000000E+00  0.00000000000E+00  0.19186779959E+04  0.19186779959E+04  0.25500000920E-02 0. -1.
       -2   -1    0    0    0  501  0.00000000000E+00  0.00000000000E+00 -0.52148034540E+03  0.52148034541E+03  0.25500000920E-02 0.  1.
    10030    2    1    2    0    0  0.00000000000E+00  0.00000000000E+00  0.13971976505E+04  0.24401583413E+04  0.20005527876E+04 0.  0.
        4    1    3    3  502    0  0.67084282442E+03 -0.32897304236E+03 -0.11259648013E+03  0.75560104414E+03  0.12699999809E+01 0.  1.
       -4    1    3    3    0  502 -0.67084282442E+03  0.32897304236E+03  0.15097941306E+04  0.16845572972E+04  0.12699999809E+01 0. -1.
</event>
<event>
 5   0  0.1696052E-04  0.1911765E+04  0.7818609E-02  0.8649022E-01
        1   -1    0    0  501    0  0.00000000000E+00  0.00000000000E+00  0.70228383221E+03  0.70228383223E+03  0.50400001928E-02 0. -1.
       -1   -1    0    0    0  501  0.00000000000E+00  0.00000000000E+00 -0.13010570379E+04  0.13010570379E+04  0.50400001928E-02 0.  1.
    10030    2    1    2    0    0  0.00000000000E+00  0.00000000000E+00 -0.59877320569E+03  0.20033408701E+04  0.19117649673E+04 0.  0.
        4    1    3    3  502    0  0.69137215785E+03 -0.65764606902E+03 -0.35881190649E+03  0.10194319055E+04  0.12699999809E+01 0.  1.
       -4    1    3    3    0  502 -0.69137215785E+03  0.65764606902E+03 -0.23996129921E+03  0.98390896467E+03  0.12699999809E+01 0. -1.
</event>
<event>
 5   0  0.1650221E-04  0.1994958E+04  0.7818609E-02  0.8608982E-01
       -1   -1    0    0    0  501  0.00000000000E+00  0.00000000000E+00  0.10282172718E+04  0.10282172719E+04  0.50400001928E-02 0. -1.
        1   -1    0    0  501    0  0.00000000000E+00  0.00000000000E+00 -0.96765940586E+03  0.96765940587E+03  0.50400001928E-02 0.  1.
    10030    2    1    2    0    0  0.00000000000E+00  0.00000000000E+00  0.60557865990E+02  0.19958766777E+04  0.19949577583E+04 0.  0.
        1    1    3    3  502    0 -0.45542346921E+01 -0.93862404924E+03 -0.30740915856E+03  0.98769238007E+03  0.50400001928E-02 0. -1.
       -1    1    3    3    0  502  0.45542346921E+01  0.93862404924E+03  0.36796702455E+03  0.10081842977E+04  0.50400001928E-02 0.  1.
</event>
<event>
 5   0  0.3387881E-04  0.1403926E+04  0.7818609E-02  0.8950982E-01
        2   -1    0    0  501    0  0.00000000000E+00  0.00000000000E+00  0.62985654184E+03  0.62985654184E+03  0.25500000920E-02 0. -1.
       -2   -1    0    0    0  501  0.00000000000E+00  0.00000000000E+00 -0.78232375271E+03  0.78232375272E+03  0.25500000920E-02 0.  1.
    10030    2    1    2    0    0  0.00000000000E+00  0.00000000000E+00 -0.15246721087E+03  0.14121802946E+04  0.14039255443E+04 0.  0.
        1    1    3    3  502    0  0.39001899843E+03 -0.27294408912E+03  0.44268575397E+03  0.65006459042E+03  0.50400001928E-02 0. -1.
       -1    1    3    3    0  502 -0.39001899843E+03  0.27294408912E+03 -0.59515296484E+03  0.76211570415E+03  0.50400001928E-02 0.  1.
</event>
<event>
 5   0  0.1664168E-04  0.2001291E+04  0.7818609E-02  0.8606017E-01
       -1   -1    0    0    0  501  0.00000000000E+00  0.00000000000E+00  0.74621063604E+03  0.74621063606E+03  0.50400001928E-02 0. -1.
        1   -1    0    0  501    0  0.00000000000E+00  0.00000000000E+00 -0.13418354106E+04  0.13418354106E+04  0.50400001928E-02 0.  1.
    10030    2    1    2    0    0  0.00000000000E+00  0.00000000000E+00 -0.59562477458E+03  0.20880460467E+04  0.20012914383E+04 0.  0.
        5    1    3    3  502    0 -0.59084887870E+03 -0.30981051545E+03 -0.10759193420E+04  0.12659816244E+04  0.46999998093E+01 0.  1.
       -5    1    3    3    0  502  0.59084887870E+03  0.30981051545E+03  0.48029456737E+03  0.82206442229E+03  0.46999998093E+01 0. -1.
</event>
<event>
 5   0  0.3395569E-04  0.2103837E+04  0.7818609E-02  0.8559555E-01
       -2   -1    0    0    0  501  0.00000000000E+00  0.00000000000E+00  0.93478051917E+03  0.93478051917E+03  0.25500000920E-02 0.  1.
        2   -1    0    0  501    0  0.00000000000E+00  0.00000000000E+00 -0.11837349813E+04  0.11837349813E+04  0.25500000920E-02 0. -1.
    10030    2    1    2    0    0  0.00000000000E+00  0.00000000000E+00 -0.24895446212E+03  0.21185155005E+04  0.21038368762E+04 0.  0.
        4    1    3    3  502    0 -0.27360604562E+03  0.22856179269E+03 -0.11210437440E+04  0.11763679060E+04  0.12699999809E+01 0. -1.
       -4    1    3    3    0  502  0.27360604562E+03 -0.22856179269E+03  0.87208928191E+03  0.94214759449E+03  0.12699999809E+01 0.  1.
</event>
<event>
 5   0  0.3387881E-04  0.2017421E+04  0.7818609E-02  0.8598519E-01
        2   -1    0    0  501    0  0.00000000000E+00  0.00000000000E+00  0.64433912376E+03  0.64433912376E+03  0.25500000920E-02 0. -1.
       -2   -1    0    0    0  501  0.00000000000E+00  0.00000000000E+00 -0.15791318514E+04  0.15791318514E+04  0.25500000920E-02 0.  1.
    10030    2    1    2    0    0  0.00000000000E+00  0.00000000000E+00 -0.93479272760E+03  0.22234709751E+04  0.20174205644E+04 0.  0.
        1    1    3    3  502    0  0.40805226937E+03  0.41634664368E+03 -0.13746656746E+04  0.14931700838E+04  0.50400001928E-02 0.  1.
       -1    1    3    3    0  502 -0.40805226937E+03 -0.41634664368E+03  0.43987294704E+03  0.73030089127E+03  0.50400001928E-02 0. -1.
</event>
<event>
 5   0  0.3431030E-04  0.1025047E+04  0.7818609E-02  0.9281493E-01
        2   -1    0    0  501    0  0.00000000000E+00  0.00000000000E+00  0.43871938765E+03  0.43871938766E+03  0.25500000920E-02 0.  1.
       -2   -1    0    0    0  501  0.00000000000E+00  0.00000000000E+00 -0.59874283054E+03  0.59874283054E+03  0.25500000920E-02 0. -1.
    10030    2    1    2    0    0  0.00000000000E+00  0.00000000000E+00 -0.16002344288E+03  0.10374622182E+04  0.10250465121E+04 0.  0.
        3    1    3    3  502    0 -0.38584855745E+03 -0.12521176565E+03 -0.39705174174E+03  0.56763297241E+03  0.10100000352E+00 0. -1.
       -3    1    3    3    0  502  0.38584855745E+03  0.12521176565E+03  0.23702829886E+03  0.46982924579E+03  0.10100000352E+00 0.  1.
</event>
<event>
 5   0  0.3371947E-04  0.1986188E+04  0.7818609E-02  0.8613106E-01
        2   -1    0    0  501    0  0.00000000000E+00  0.00000000000E+00  0.14296702824E+04  0.14296702824E+04  0.25500000920E-02 0. -1.
       -2   -1    0    0    0  501  0.00000000000E+00  0.00000000000E+00 -0.68983428215E+03  0.68983428216E+03  0.25500000920E-02 0.  1.
    10030    2    1    2    0    0  0.00000000000E+00  0.00000000000E+00  0.73983600024E+03  0.21195045645E+04  0.19861878793E+04 0.  0.
        2    1    3    3  502    0 -0.25396358052E+03  0.16134654033E+03  0.13798604273E+04  0.14122836136E+04  0.25500000920E-02 0. -1.
       -2    1    3    3    0  502  0.25396358052E+03 -0.16134654033E+03 -0.64002442705E+03  0.70722095100E+03  0.25500000920E-02 0.  1.
</event>
<event>
 5   0  0.3387881E-04  0.1097824E+04  0.7818609E-02  0.9207316E-01
        2   -1    0    0  501    0  0.00000000000E+00  0.00000000000E+00  0.93499283483E+03  0.93499283483E+03  0.25500000920E-02 0. -1.
       -2   -1    0    0    0  501  0.00000000000E+00  0.00000000000E+00 -0.32225290308E+03  0.32225290309E+03  0.25500000920E-02 0.  1.
    10030    2    1    2    0    0  0.00000000000E+00  0.00000000000E+00  0.61273993175E+03  0.12572457379E+04  0.10978235840E+04 0.  0.
        1    1    3    3  502    0 -0.44101792427E+02  0.52703811615E+03  0.13809711541E+03  0.54661225496E+03  0.50400001928E-02 0. -1.
       -1    1    3    3    0  502  0.44101792427E+02 -0.52703811615E+03  0.47464281634E+03  0.71063348296E+03  0.50400001928E-02 0.  1.
</event>
<event>
 5   0  0.3460648E-04  0.2006171E+04  0.7818609E-02  0.8603741E-01
       -2   -1    0    0    0  501  0.00000000000E+00  0.00000000000E+00  0.52092713318E+03  0.52092713318E+03  0.25500000920E-02 0. -1.
        2   -1    0    0  501    0  0.00000000000E+00  0.00000000000E+00 -0.19315190814E+04  0.19315190814E+04  0.25500000920E-02 0.  1.
    10030    2    1    2    0    0  0.00000000000E+00  0.00000000000E+00 -0.14105919482E+04  0.24524462146E+04  0.20061711769E+04 0.  0.
        5    1    3    3  502    0  0.25141108627E+03 -0.19502383572E+03 -0.18681784474E+04  0.18950869722E+04  0.46999998093E+01 0.  1.
       -5    1    3    3    0  502 -0.25141108627E+03  0.19502383572E+03  0.45758649921E+03  0.55735924237E+03  0.46999998093E+01 0. -1.
</event>
<event>
 5   0  0.3371947E-04  0.1376694E+04  0.7818609E-02  0.8970863E-01
       -2   -1    0    0    0  501  0.00000000000E+00  0.00000000000E+00  0.48130381900E+03  0.48130381900E+03  0.25500000920E-02 0.  1.
        2   -1    0    0  501    0  0.00000000000E+00  0.00000000000E+00 -0.98445451035E+03  0.98445451035E+03  0.25500000920E-02 0. -1.
    10030    2    1    2    0    0  0.00000000000E+00  0.00000000000E+00 -0.50315069135E+03  0.14657583294E+04  0.13766941788E+04 0.  0.
        2    1    3    3  502    0 -0.50816181987E+03 -0.91868932065E+02  0.23301070266E+03  0.56653536819E+03  0.25500000920E-02 0.  1.
       -2    1    3    3    0  502  0.50816181987E+03  0.91868932065E+02 -0.73616139401E+03  0.89922296117E+03  0.25500000920E-02 0. -1.
</event>
<event>
 5   0  0.1708578E-04  0.2140567E+04  0.7818609E-02  0.8543581E-01
        1   -1    0    0  501    0  0.00000000000E+00  0.00000000000E+00  0.15164572608E+04  0.15164572608E+04  0.50400001928E-02 0. -1.
       -1   -1    0    0    0  501  0.00000000000E+00  0.00000000000E+00 -0.75538380315E+03  0.75538380316E+03  0.50400001928E-02 0.  1.
    10030    2    1    2    0    0  0.00000000000E+00  0.00000000000E+00  0.76107345761E+03  0.22718410639E+04  0.21405674509E+04 0.  0.
        3    1    3    3  502    0  0.91085412724E+03 -0.25479156644E+03 -0.15111611556E+03  0.95781526090E+03  0.10100000352E+00 0.  1.
       -3    1    3    3    0  502 -0.91085412724E+03  0.25479156644E+03  0.91218957317E+03  0.13140258030E+04  0.10100000352E+00 0. -1.
</event>
<event>
 5   0  0.1650221E-04  0.2000480E+04  0.7818609E-02  0.8606396E-01
        1   -1    0    0  501    0  0.00000000000E+00  0.00000000000E+00  0.87515768626E+03  0.87515768627E+03  0.50400001928E-02 0. -1.
       -1   -1    0    0    0  501  0.00000000000E+00  0.00000000000E+00 -0.11432002606E+04  0.11432002606E+04  0.50400001928E-02 0.  1.
    10030    2    1    2    0    0  0.00000000000E+00  0.00000000000E+00 -0.26804257435E+03  0.20183579469E+04  0.20004804373E+04 0.  0.
        1    1    3    3  502    0 -0.31126612244E+03 -0.27556648457E+03 -0.10519079906E+04  0.11310764373E+04  0.50400001928E-02 0.  1.
       -1    1    3    3    0  502  0.31126612244E+03  0.27556648457E+03  0.78386541624E+03  0.88728150956E+03  0.50400001928E-02 0. -1.
</event>
<event>
 5   0  0.3371947E-04  0.1872921E+04  0.7818609E-02  0.8668454E-01
        2   -1    0    0  501    0  0.00000000000E+00  0.00000000000E+00  0.24071257954E+04  0.24071257954E+04  0.25500000920E-02 0. -1.
       -2   -1    0    0    0  501  0.00000000000E+00  0.00000000000E+00 -0.36431754764E+03  0.36431754765E+03  0.25500000920E-02 0.  1.
    10030    2    1    2    0    0  0.00000000000E+00  0.00000000000E+00  0.20428082478E+04  0.27714433431E+04  0.18729208917E+04 0.  0.
        2    1    3    3  502    0  0.61541519586E+03  0.63540653941E+03  0.14762438900E+04  0.17209803475E+04  0.25500000920E-02 0. -1.
       -2    1    3    3    0  502 -0.61541519586E+03 -0.63540653941E+03  0.56656435777E+03  0.10504629956E+04  0.25500000920E-02 0.  1.
</event>
<event>
 5   0  0.3460648E-04  0.1991960E+04  0.7818609E-02  0.8610389E-01
        2   -1    0    0  501    0  0.00000000000E+00  0.00000000000E+00  0.88847271652E+03  0.88847271652E+03  0.25500000920E-02 0.  1.
       -2   -1    0    0    0  501  0.00000000000E+00  0.00000000000E+00 -0.11164964564E+04  0.11164964564E+04  0.25500000920E-02 0. -1.
    10030    2    1    2    0    0  0.00000000000E+00  0.00000000000E+00 -0.22802373993E+03  0.20049691730E+04  0.19919604812E+04 0.  0.
        5    1    3    3  502    0  0.20055102362E+03  0.96335847246E+03  0.40857475961E+02  0.98487140423E+03  0.46999998093E+01 0.  1.
       -5    1    3    3    0  502 -0.20055102362E+03 -0.96335847246E+03 -0.26888121589E+03  0.10200977687E+04  0.46999998093E+01 0. -1.
</event>
<event>
 5   0  0.3460648E-04  0.1964797E+04  0.7818609E-02  0.8623259E-01
       -2   -1    0    0    0  501  0.00000000000E+00  0.00000000000E+00  0.59514501331E+03  0.59514501332E+03  0.25500000920E-02 0.  1.
        2   -1    0    0  501    0  0.00000000000E+00  0.00000000000E+00 -0.16216324496E+04  0.16216324496E+04  0.25500000920E-02 0. -1.
    10030    2    1    2    0    0  0.00000000000E+00  0.00000000000E+00 -0.10264874362E+04  0.22167774629E+04  0.19647966468E+04 0.  0.
        5    1    3    3  502    0  0.71510185247E+03  0.27714730882E+03 -0.12059024855E+04  0.14291270708E+04  0.46999998093E+01 0. -1.
       -5    1    3    3    0  502 -0.71510185247E+03 -0.27714730882E+03  0.17941504921E+03  0.78765039203E+03  0.46999998093E+01 0.  1.
</event>
<event>
 5   0  0.1696052E-04  0.1970714E+04  0.7818609E-02  0.8620436E-01
        1   -1    0    0  501    0  0.00000000000E+00  0.00000000000E+00  0.96444191736E+03  0.96444191737E+03  0.50400001928E-02 0. -1.
       -1   -1    0    0    0  501  0.00000000000E+00  0.00000000000E+00 -0.10067261206E+04  0.10067261206E+04  0.50400001928E-02 0.  1.
    10030    2    1    2    0    0  0.00000000000E+00  0.00000000000E+00 -0.42284203218E+02  0.19711680380E+04  0.19707144593E+04 0.  0.
        4    1    3    3  502    0 -0.46093443381E+03  0.86720697991E+03  0.58993494999E+02  0.98386500275E+03  0.12699999809E+01 0.  1.
       -4    1    3    3    0  502  0.46093443381E+03 -0.86720697991E+03 -0.10127769822E+03  0.98730303521E+03  0.12699999809E+01 0. -1.
</event>
<event>
 5   0  0.1664168E-04  0.1970855E+04  0.7818609E-02  0.8620370E-01
        1   -1    0    0  501    0  0.00000000000E+00  0.00000000000E+00  0.17047721701E+04  0.17047721701E+04  0.50400001928E-02 0.  1.
       -1   -1    0    0    0  501  0.00000000000E+00  0.00000000000E+00 -0.56961688782E+03  0.56961688784E+03  0.50400001928E-02 0. -1.
    10030    2    1    2    0    0  0.00000000000E+00  0.00000000000E+00  0.11351552823E+04  0.22743890579E+04  0.19708546552E+04 0.  0.
        5    1    3    3  502    0  0.88455557744E+03 -0.36111959371E+03  0.84597679538E+03  0.12761444898E+04  0.46999998093E+01 0.  1.
       -5    1    3    3    0  502 -0.88455557744E+03  0.36111959371E+03  0.28917848689E+03  0.99824456814E+03  0.46999998093E+01 0. -1.
</event>
<event>
 5   0  0.3387881E-04  0.2001634E+04  0.7818609E-02  0.8605857E-01
        2   -1    0    0  501    0  0.00000000000E+00  0.00000000000E+00  0.76059166482E+03  0.76059166483E+03  0.25500000920E-02 0. -1.
       -2   -1    0    0    0  501  0.00000000000E+00  0.00000000000E+00 -0.13169151398E+04  0.13169151398E+04  0.25500000920E-02 0.  1.
    10030    2    1    2    0    0  0.00000000000E+00  0.00000000000E+00 -0.55632347501E+03  0.20775068047E+04  0.20016340111E+04 0.  0.
        1    1    3    3  502    0  0.40270094550E+03  0.80172749634E+03 -0.73848145213E+03  0.11620197438E+04  0.50400001928E-02 0.  1.
       -1    1    3    3    0  502 -0.40270094550E+03 -0.80172749634E+03  0.18215797712E+03  0.91548706083E+03  0.50400001928E-02 0. -1.
</event>
<event>
 5   0  0.3395569E-04  0.1952521E+04  0.7818609E-02  0.8629146E-01
        2   -1    0    0  501    0  0.00000000000E+00  0.00000000000E+00  0.24820690148E+04  0.24820690148E+04  0.25500000920E-02 0. -1.
       -2   -1    0    0    0  501  0.00000000000E+00  0.00000000000E+00 -0.38398774396E+03  0.38398774396E+03  0.25500000920E-02 0.  1.
    10030    2    1    2    0    0  0.00000000000E+00  0.00000000000E+00  0.20980812708E+04  0.28660567588E+04  0.19525205058E+04 0.  0.
        4    1    3    3  502    0  0.49849907419E+03  0.59676808444E+03  0.19155211311E+04  0.20673307162E+04  0.12699999809E+01 0. -1.
       -4    1    3    3    0  502 -0.49849907419E+03 -0.59676808444E+03  0.18256013978E+03  0.79872604259E+03  0.12699999809E+01 0.  1.
</event>
<event>
 5   0  0.3371947E-04  0.1988862E+04  0.7818609E-02  0.8611846E-01
       -2   -1    0    0    0  501  0.00000000000E+00  0.00000000000E+00  0.55881481283E+03  0.55881481283E+03  0.25500000920E-02 0.  1.
        2   -1    0    0  501    0  0.00000000000E+00  0.00000000000E+00 -0.17696252743E+04  0.17696252743E+04  0.25500000920E-02 0. -1.
    10030    2    1    2    0    0  0.00000000000E+00  0.00000000000E+00 -0.12108104615E+04  0.23284400871E+04  0.19888618016E+04 0.  0.
        2    1    3    3  502    0  0.86926801059E+03 -0.11054408787E+03 -0.54975683530E+02  0.87799156908E+03  0.25500000920E-02 0.  1.
       -2    1    3    3    0  502 -0.86926801059E+03  0.11054408787E+03 -0.11558347779E+04  0.14504485180E+04  0.25500000920E-02 0. -1.
</event>
<event>
 5   0  0.3371947E-04  0.1875065E+04  0.7818609E-02  0.8667369E-01
        2   -1    0    0  501    0  0.00000000000E+00  0.00000000000E+00  0.87472419623E+03  0.87472419624E+03  0.25500000920E-02 0. -1.
       -2   -1    0    0    0  501  0.00000000000E+00  0.00000000000E+00 -0.10048502165E+04  0.10048502165E+04  0.25500000920E-02 0.  1.
    10030    2    1    2    0    0  0.00000000000E+00  0.00000000000E+00 -0.13012602026E+03  0.18795744127E+04  0.18750645834E+04 0.  0.
        2    1    3    3  502    0  0.49446751380E+03  0.70844709260E+03  0.29991626371E+03  0.91451909245E+03  0.25500000920E-02 0. -1.
       -2    1    3    3    0  502 -0.49446751380E+03 -0.70844709260E+03 -0.43004228397E+03  0.96505532029E+03  0.25500000920E-02 0.  1.
</event>
<event>
 5   0  0.1643565E-04  0.1919968E+04  0.7818609E-02  0.8644981E-01
        1   -1    0    0  501    0  0.00000000000E+00  0.00000000000E+00  0.18932856546E+04  0.18932856546E+04  0.50400001928E-02 0.  1.
       -1   -1    0    0    0  501  0.00000000000E+00  0.00000000000E+00 -0.48675641821E+03  0.48675641824E+03  0.50400001928E-02 0. -1.
    10030    2    1    2    0    0  0.00000000000E+00  0.00000000000E+00  0.14065292364E+04  0.23800420728E+04  0.19199676496E+04 0.  0.
        2    1    3    3  502    0  0.52508779862E+01  0.18481076477E+03  0.18710071433E+04  0.18801197623E+04  0.25500000920E-02 0.  1.
       -2    1    3    3    0  502 -0.52508779862E+01 -0.18481076477E+03 -0.46447790692E+03  0.49992231049E+03  0.25500000920E-02 0. -1.
</event>
<event>
 5   0  0.1708578E-04  0.1586993E+04  0.7818609E-02  0.8828579E-01
       -1   -1    0    0    0  501  0.00000000000E+00  0.00000000000E+00  0.12886494856E+04  0.12886494856E+04  0.50400001928E-02 0.  1.
        1   -1    0    0  501    0  0.00000000000E+00  0.00000000000E+00 -0.48860221689E+03  0.48860221691E+03  0.50400001928E-02 0. -1.
    10030    2    1    2    0    0  0.00000000000E+00  0.00000000000E+00  0.80004726875E+03  0.17772517026E+04  0.15869933781E+04 0.  0.
        3    1    3    3  502    0  0.96977133799E+02 -0.78748411873E+03  0.41128857298E+03  0.89369687377E+03  0.10100000352E+00 0. -1.
       -3    1    3    3    0  502 -0.96977133799E+02  0.78748411873E+03  0.38875869577E+03  0.88355482878E+03  0.10100000352E+00 0.  1.
</event>
<event>
 5   0  0.3460648E-04  0.1988513E+04  0.7818609E-02  0.8612010E-01
        2   -1    0    0  501    0  0.00000000000E+00  0.00000000000E+00  0.11074187981E+04  0.11074187981E+04  0.25500000920E-02 0.  1.
       -2   -1    0    0    0  501  0.00000000000E+00  0.00000000000E+00 -0.89265793061E+03  0.89265793061E+03  0.25500000920E-02 0. -1.
    10030    2    1    2    0    0  0.00000000000E+00  0.00000000000E+00  0.21476086748E+03  0.20000767287E+04  0.19885131859E+04 0.  0.
        5    1    3    3  502    0  0.16619961843E+03  0.97250530998E+03 -0.16360144767E+02  0.98675155710E+03  0.46999998093E+01 0. -1.
       -5    1    3    3    0  502 -0.16619961843E+03 -0.97250530998E+03  0.23112101225E+03  0.10133251716E+04  0.46999998093E+01 0.  1.
</event>
<event>
 5   0  0.3387881E-04  0.2046084E+04  0.7818609E-02  0.8585373E-01
        2   -1    0    0  501    0  0.00000000000E+00  0.00000000000E+00  0.12764642190E+04  0.12764642190E+04  0.25500000920E-02 0. -1.
       -2   -1    0    0    0  501  0.00000000000E+00  0.00000000000E+00 -0.81993288456E+03  0.81993288456E+03  0.25500000920E-02 0.  1.
    10030    2    1    2    0    0  0.00000000000E+00  0.00000000000E+00  0.45653133444E+03  0.20963971036E+04  0.20460840541E+04 0.  0.
        1    1    3    3  502    0  0.63956870639E+02 -0.74462995332E+03 -0.48751929182E+03  0.89232242413E+03  0.50400001928E-02 0.  1.
       -1    1    3    3    0  502 -0.63956870639E+02  0.74462995332E+03  0.94405062626E+03  0.12040746794E+04  0.50400001928E-02 0. -1.
</event>
<event>
 5   0  0.1696052E-04  0.1788552E+04  0.7818609E-02  0.8712411E-01
       -1   -1    0    0    0  501  0.00000000000E+00  0.00000000000E+00  0.47504849870E+03  0.47504849873E+03  0.50400001928E-02 0. -1.
        1   -1    0    0  501    0  0.00000000000E+00  0.00000000000E+00 -0.16834692714E+04  0.16834692714E+04  0.50400001928E-02 0.  1.
    10030    2    1    2    0    0  0.00000000000E+00  0.00000000000E+00 -0.12084207727E+04  0.21585177702E+04  0.17885519842E+04 0.  0.
        4    1    3    3  502    0 -0.46265030096E+03  0.75458092403E+03 -0.45017583829E+03  0.99302445598E+03  0.12699999809E+01 0. -1.
       -4    1    3    3    0  502  0.46265030096E+03 -0.75458092403E+03 -0.75824493443E+03  0.11654933142E+04  0.12699999809E+01 0.  1.
</event>
<event>
 5   0  0.1708578E-04  0.2006879E+04  0.7818609E-02  0.8603411E-01
       -1   -1    0    0    0  501  0.00000000000E+00  0.00000000000E+00  0.96791607468E+03  0.96791607469E+03  0.50400001928E-02 0. -1.
        1   -1    0    0  501    0  0.00000000000E+00  0.00000000000E+00 -0.10402664262E+04  0.10402664262E+04  0.50400001928E-02 0.  1.
    10030    2    1    2    0    0  0.00000000000E+00  0.00000000000E+00 -0.72350351515E+02  0.20081825009E+04  0.20068787665E+04 0.  0.
        3    1    3    3  502    0  0.59006784324E+03  0.75435495798E+03  0.26345067809E+03  0.99329639697E+03  0.10100000352E+00 0. -1.
       -3    1    3    3    0  502 -0.59006784324E+03 -0.75435495798E+03 -0.33580102960E+03  0.10148861039E+04  0.10100000352E+00 0.  1.
</event>
<event>
 5   0  0.3460648E-04  0.1996392E+04  0.7818609E-02  0.8608310E-01
        2   -1    0    0  501    0  0.00000000000E+00  0.00000000000E+00  0.12092253940E+04  0.12092253940E+04  0.25500000920E-02 0.  1.
       -2   -1    0    0    0  501  0.00000000000E+00  0.00000000000E+00 -0.82399424352E+03  0.82399424353E+03  0.25500000920E-02 0. -1.
    10030    2    1    2    0    0  0.00000000000E+00  0.00000000000E+00  0.38523115044E+03  0.20332196375E+04  0.19963915085E+04 0.  0.
        5    1    3    3  502    0 -0.60475151640E+03  0.71767407735E+03  0.53887598500E+03  0.10822152721E+04  0.46999998093E+01 0.  1.
       -5    1    3    3    0  502  0.60475151640E+03 -0.71767407735E+03 -0.15364483455E+03  0.95100436543E+03  0.46999998093E+01 0. -1.
</event>
<event>
 5   0  0.3460648E-04  0.2022478E+04  0.7818609E-02  0.8596183E-01
        2   -1    0    0  501    0  0.00000000000E+00  0.00000000000E+00  0.10454277463E+04  0.10454277463E+04  0.25500000920E-02 0.  1.
       -2   -1    0    0    0  501  0.00000000000E+00  0.00000000000E+00 -0.97816847233E+03  0.97816847234E+03  0.25500000920E-02 0. -1.
    10030    2    1    2    0    0  0.00000000000E+00  0.00000000000E+00  0.67259273974E+02  0.20235962186E+04  0.20224781448E+04 0.  0.
        5    1    3    3  502    0  0.60369381911E+03  0.80932088994E+03 -0.22399904415E+02  0.10099358276E+04  0.46999998093E+01 0. -1.
       -5    1    3    3    0  502 -0.60369381911E+03 -0.80932088994E+03  0.89659178389E+02  0.10136603911E+04  0.46999998093E+01 0.  1.
</event>
<event>
 5   0  0.3371947E-04  0.2000641E+04  0.7818609E-02  0.8606321E-01
       -2   -1    0    0    0  501  0.00000000000E+00  0.00000000000E+00  0.99089348533E+03  0.99089348533E+03  0.25500000920E-02 0. -1.
        2   -1    0    0  501    0  0.00000000000E+00  0.00000000000E+00 -0.10098375048E+04  0.10098375048E+04  0.25500000920E-02 0.  1.
    10030    2    1    2    0    0  0.00000000000E+00  0.00000000000E+00 -0.18944019465E+02  0.20007309901E+04  0.20006413019E+04 0.  0.
        2    1    3    3  502    0  0.69456635265E+03 -0.67982022688E+02 -0.72616125968E+03  0.10071515024E+04  0.25500000920E-02 0.  1.
       -2    1    3    3    0  502 -0.69456635265E+03  0.67982022688E+02  0.70721724022E+03  0.99357948777E+03  0.25500000920E-02 0. -1.
</event>
<event>
 5   0  0.3395569E-04  0.1636507E+04  0.7818609E-02  0.8798429E-01
       -2   -1    0    0    0  501  0.00000000000E+00  0.00000000000E+00  0.11019102794E+04  0.11019102795E+04  0.25500000920E-02 0.  1.
        2   -1    0    0  501    0  0.00000000000E+00  0.00000000000E+00 -0.60761610619E+03  0.60761610619E+03  0.25500000920E-02 0. -1.
    10030    2    1    2    0    0  0.00000000000E+00  0.00000000000E+00  0.49429417326E+03  0.17095263856E+04  0.16365065638E+04 0.  0.
        4    1    3    3  502    0  0.70956135658E+03 -0.55687616320E+02  0.66884011475E+03  0.97669193780E+03  0.12699999809E+01 0.  1.
       -4    1    3    3    0  502 -0.70956135658E+03  0.55687616320E+02 -0.17454594149E+03  0.73283444785E+03  0.12699999809E+01 0. -1.
</event>
<event>
 5   0  0.1650221E-04  0.1991755E+04  0.7818609E-02  0.8610485E-01
        1   -1    0    0  501    0  0.00000000000E+00  0.00000000000E+00  0.12579727944E+04  0.12579727944E+04  0.50400001928E-02 0.  1.
       -1   -1    0    0    0  501  0.00000000000E+00  0.00000000000E+00 -0.78838876646E+03  0.78838876647E+03  0.50400001928E-02 0. -1.
    10030    2    1    2    0    0  0.00000000000E+00  0.00000000000E+00  0.46958402792E+03  0.20463615609E+04  0.19917546231E+04 0.  0.
        1    1    3    3  502    0  0.23410557298E+03  0.68492901572E+03  0.93753171348E+03  0.11844403276E+04  0.50400001928E-02 0.  1.
       -1    1    3    3    0  502 -0.23410557298E+03 -0.68492901572E+03 -0.46794768556E+03  0.86192123325E+03  0.50400001928E-02 0. -1.
</event>
<event>
 5   0  0.1650221E-04  0.1980058E+04  0.7818609E-02  0.8616001E-01
       -1   -1    0    0    0  501  0.00000000000E+00  0.00000000000E+00  0.48549835028E+03  0.48549835031E+03  0.50400001928E-02 0.  1.
        1   -1    0    0  501    0  0.00000000000E+00  0.00000000000E+00 -0.20188682982E+04  0.20188682983E+04  0.50400001928E-02 0. -1.
    10030    2    1    2    0    0  0.00000000000E+00  0.00000000000E+00 -0.15333699480E+04  0.25043666486E+04  0.19800578055E+04 0.  0.
        1    1    3    3  502    0  0.36117913632E+03 -0.57914854784E+03 -0.16737234185E+04  0.18075434962E+04  0.50400001928E-02 0. -1.
       -1    1    3    3    0  502 -0.36117913632E+03  0.57914854784E+03  0.14035347052E+03  0.69682315238E+03  0.50400001928E-02 0.  1.
</event>
<event>
 5   0  0.1664168E-04  0.2002640E+04  0.7818609E-02  0.8605387E-01
        1   -1    0    0  501    0  0.00000000000E+00  0.00000000000E+00  0.12008974527E+04  0.12008974528E+04  0.50400001928E-02 0.  1.
       -1   -1    0    0    0  501  0.00000000000E+00  0.00000000000E+00 -0.83491065315E+03  0.83491065317E+03  0.50400001928E-02 0. -1.
    10030    2    1    2    0    0  0.00000000000E+00  0.00000000000E+00  0.36598679959E+03  0.20358081059E+04  0.20026403338E+04 0.  0.
        5    1    3    3  502    0 -0.98982069685E+03 -0.10804329958E+03  0.29058399287E+03  0.10372461200E+04  0.46999998093E+01 0.  1.
       -5    1    3    3    0  502  0.98982069685E+03  0.10804329958E+03  0.75402806719E+02  0.99856198594E+03  0.46999998093E+01 0. -1.
</event>
<event>
 5   0  0.3387881E-04  0.1980569E+04  0.7818609E-02  0.8615760E-01
        2   -1    0    0  501    0  0.00000000000E+00  0.00000000000E+00  0.19671531124E+04  0.19671531124E+04  0.25500000920E-02 0.  1.
       -2   -1    0    0    0  501  0.00000000000E+00  0.00000000000E+00 -0.49851908238E+03  0.49851908238E+03  0.25500000920E-02 0. -1.
    10030    2    1    2    0    0  0.00000000000E+00  0.00000000000E+00  0.14686340301E+04  0.24656721948E+04  0.19805689733E+04 0.  0.
        1    1    3    3  502    0 -0.64516308035E+03  0.17301091794E+03  0.16444760102E+04  0.17749562040E+04  0.50400001928E-02 0.  1.
       -1    1    3    3    0  502  0.64516308035E+03 -0.17301091794E+03 -0.17584198014E+03  0.69071599082E+03  0.50400001928E-02 0. -1.
</event>
<event>
 5   0  0.3395569E-04  0.1985489E+04  0.7818609E-02  0.8613435E-01
       -2   -1    0    0    0  501  0.00000000000E+00  0.00000000000E+00  0.95185348366E+03  0.95185348367E+03  0.25500000920E-02 0. -1.
        2   -1    0    0  501    0  0.00000000000E+00  0.00000000000E+00 -0.10353919401E+04  0.10353919401E+04  0.25500000920E-02 0.  1.
    10030    2    1    2    0    0  0.00000000000E+00  0.00000000000E+00 -0.83538456452E+02  0.19872454238E+04  0.19854887813E+04 0.  0.
        4    1    3    3  502    0  0.21553287409E+02 -0.66711827076E+03 -0.77728569563E+03  0.10245418473E+04  0.12699999809E+01 0.  1.
       -4    1    3    3    0  502 -0.21553287409E+02  0.66711827076E+03  0.69374723918E+03  0.96270357647E+03  0.12699999809E+01 0. -1.
</event>
<event>
 5   0  0.1696052E-04  0.1990092E+04  0.7818609E-02  0.8611267E-01
        1   -1    0    0  501    0  0.00000000000E+00  0.00000000000E+00  0.52727554290E+03  0.52727554292E+03  0.50400001928E-02 0.  1.
       -1   -1    0    0    0  501  0.00000000000E+00  0.00000000000E+00 -0.18777972029E+04  0.18777972029E+04  0.50400001928E-02 0. -1.
    10030    2    1    2    0    0  0.00000000000E+00  0.00000000000E+00 -0.13505216600E+04  0.24050727458E+04  0.19900919975E+04 0.  0.
        4    1    3    3  502    0 -0.69608582318E+03  0.21109744643E+03 -0.14958271458E+04  0.16633093724E+04  0.12699999809E+01 0. -1.
       -4    1    3    3    0  502  0.69608582318E+03 -0.21109744643E+03  0.14530548581E+03  0.74176337347E+03  0.12699999809E+01 0.  1.
</event>
<event>
 5   0  0.1664168E-04  0.1919403E+04  0.7818609E-02  0.8645258E-01
        1   -1    0    0  501    0  0.00000000000E+00  0.00000000000E+00  0.15880794114E+04  0.15880794114E+04  0.50400001928E-02 0.  1.
       -1   -1    0    0    0  501  0.00000000000E+00  0.00000000000E+00 -0.57996301314E+03  0.57996301316E+03  0.50400001928E-02 0. -1.
    10030    2    1    2    0    0  0.00000000000E+00  0.00000000000E+00  0.10081163983E+04  0.21680424246E+04  0.19194033662E+04 0.  0.
        5    1    3    3  502    0 -0.55733365051E+03 -0.77820968515E+03  0.42601265330E+03  0.10477308733E+04  0.46999998093E+01 0.  1.
       -5    1    3    3    0  502  0.55733365051E+03  0.77820968515E+03  0.58210374496E+03  0.11203115513E+04  0.46999998093E+01 0. -1.
</event>
<event>
 5   0  0.3387881E-04  0.2028047E+04  0.7818609E-02  0.8593619E-01
       -2   -1    0    0    0  501  0.00000000000E+00  0.00000000000E+00  0.84536227459E+03  0.84536227459E+03  0.25500000920E-02 0. -1.
        2   -1    0    0  501    0  0.00000000000E+00  0.00000000000E+00 -0.12163348215E+04  0.12163348215E+04  0.25500000920E-02 0.  1.
    10030    2    1    2    0    0  0.00000000000E+00  0.00000000000E+00 -0.37097254692E+03  0.20616970961E+04  0.20280469140E+04 0.  0.
        1    1    3    3  502    0  0.79885690114E+03  0.62277143505E+03 -0.13751256201E+03  0.10222163732E+04  0.50400001928E-02 0. -1.
       -1    1    3    3    0  502 -0.79885690114E+03 -0.62277143505E+03 -0.23345998491E+03  0.10394807230E+04  0.50400001928E-02 0.  1.
</event>
<event>
 5   0  0.1708578E-04  0.1990306E+04  0.7818609E-02  0.8611167E-01
        1   -1    0    0  501    0  0.00000000000E+00  0.00000000000E+00  0.16908574091E+04  0.16908574091E+04  0.50400001928E-02 0.  1.
       -1   -1    0    0    0  501  0.00000000000E+00  0.00000000000E+00 -0.58569641717E+03  0.58569641719E+03  0.50400001928E-02 0. -1.
    10030    2    1    2    0    0  0.00000000000E+00  0.00000000000E+00  0.11051609919E+04  0.22765538263E+04  0.19903056313E+04 0.  0.
        3    1    3    3  502    0  0.34675080666E+03 -0.85591954551E+03  0.97671262366E+03  0.13441733332E+04  0.10100000352E+00 0. -1.
       -3    1    3    3    0  502 -0.34675080666E+03  0.85591954551E+03  0.12844836824E+03  0.93238049305E+03  0.10100000352E+00 0.  1.
</event>
<event>
 5   0  0.3371947E-04  0.1946137E+04  0.7818609E-02  0.8632226E-01
        2   -1    0    0  501    0  0.00000000000E+00  0.00000000000E+00  0.10676572518E+04  0.10676572518E+04  0.25500000920E-02 0.  1.
       -2   -1    0    0    0  501  0.00000000000E+00  0.00000000000E+00 -0.88685987532E+03  0.88685987532E+03  0.25500000920E-02 0. -1.
    10030    2    1    2    0    0  0.00000000000E+00  0.00000000000E+00  0.18079737647E+03  0.19545171271E+04  0.19461370735E+04 0.  0.
        2    1    3    3  502    0  0.69853920668E+03 -0.29343124413E+03  0.70360415936E+03  0.10339814947E+04  0.25500000920E-02 0.  1.
       -2    1    3    3    0  502 -0.69853920668E+03  0.29343124413E+03 -0.52280678289E+03  0.92053563242E+03  0.25500000920E-02 0. -1.
</event>
<event>
 5   0  0.3371947E-04  0.2004333E+04  0.7818609E-02  0.8604598E-01
        2   -1    0    0  501    0  0.00000000000E+00  0.00000000000E+00  0.44108410134E+03  0.44108410135E+03  0.25500000920E-02 0.  1.
       -2   -1    0    0    0  501  0.00000000000E+00  0.00000000000E+00 -0.22769749455E+04  0.22769749455E+04  0.25500000920E-02 0. -1.
    10030    2    1    2    0    0  0.00000000000E+00  0.00000000000E+00 -0.18358908441E+04  0.27180590468E+04  0.20043327544E+04 0.  0.
        2    1    3    3  502    0 -0.91816268551E+03  0.39208321621E+03 -0.10360537872E+04  0.14388048566E+04  0.25500000920E-02 0. -1.
       -2    1    3    3    0  502  0.91816268551E+03 -0.39208321621E+03 -0.79983705693E+03  0.12792541902E+04  0.25500000920E-02 0.  1.
</event>
<event>
 5   0  0.3395569E-04  0.1965387E+04  0.7818609E-02  0.8622976E-01
        2   -1    0    0  501    0  0.00000000000E+00  0.00000000000E+00  0.42183472261E+03  0.42183472262E+03  0.25500000920E-02 0.  1.
       -2   -1    0    0    0  501  0.00000000000E+00  0.00000000000E+00 -0.22892540337E+04  0.22892540337E+04  0.25500000920E-02 0. -1.
    10030    2    1    2    0    0  0.00000000000E+00  0.00000000000E+00 -0.18674193111E+04  0.27110887563E+04  0.19653873311E+04 0.  0.
        4    1    3    3  502    0  0.21199187741E+03  0.83899425933E+03 -0.15760402046E+04  0.17979867248E+04  0.12699999809E+01 0. -1.
       -4    1    3    3    0  502 -0.21199187741E+03 -0.83899425933E+03 -0.29137910648E+03  0.91310203147E+03  0.12699999809E+01 0.  1.
</event>
<event>
 5   0  0.3431030E-04  0.1994017E+04  0.7818609E-02  0.8609423E-01
       -2   -1    0    0    0  501  0.00000000000E+00  0.00000000000E+00  0.97358383697E+03  0.97358383698E+03  0.25500000920E-02 0. -1.
        2   -1    0    0  501    0  0.00000000000E+00  0.00000000000E+00 -0.10209967540E+04  0.10209967540E+04  0.25500000920E-02 0.  1.
    10030    2    1    2    0    0  0.00000000000E+00  0.00000000000E+00 -0.47412917029E+02  0.19945805910E+04  0.19940169882E+04 0.  0.
        3    1    3    3  502    0  0.67721001752E+03 -0.61615576452E+02 -0.75303258705E+03  0.10146270125E+04  0.10100000352E+00 0.  1.
       -3    1    3    3    0  502 -0.67721001752E+03  0.61615576452E+02  0.70561967002E+03  0.97995357850E+03  0.10100000352E+00 0. -1.
</event>
<event>
 5   0  0.3387881E-04  0.1981773E+04  0.7818609E-02  0.8615190E-01
        2   -1    0    0  501    0  0.00000000000E+00  0.00000000000E+00  0.83106910873E+03  0.83106910873E+03  0.25500000920E-02 0. -1.
       -2   -1    0    0    0  501  0.00000000000E+00  0.00000000000E+00 -0.11814378878E+04  0.11814378878E+04  0.25500000920E-02 0.  1.
    10030    2    1    2    0    0  0.00000000000E+00  0.00000000000E+00 -0.35036877908E+03  0.20125069965E+04  0.19817734809E+04 0.  0.
        1    1    3    3  502    0 -0.11085254657E+03  0.40558052876E+03  0.73598879652E+03  0.84762218058E+03  0.50400001928E-02 0. -1.
       -1    1    3    3    0  502  0.11085254657E+03 -0.40558052876E+03 -0.10863575756E+04  0.11648848160E+04  0.50400001928E-02 0.  1.
</event>
<event>
 5   0  0.3460648E-04  0.1948222E+04  0.7818609E-02  0.8631219E-01
        2   -1    0    0  501    0  0.00000000000E+00  0.00000000000E+00  0.83996292329E+03  0.83996292329E+03  0.25500000920E-02 0.  1.
       -2   -1    0    0    0  501  0.00000000000E+00  0.00000000000E+00 -0.11296837236E+04  0.11296837236E+04  0.25500000920E-02 0. -1.
    10030    2    1    2    0    0  0.00000000000E+00  0.00000000000E+00 -0.28972080030E+03  0.19696466469E+04  0.19482222079E+04 0.  0.
        5    1    3    3  502    0  0.95221909936E+03  0.17587995584E+03 -0.37793101951E+02  0.96907449693E+03  0.46999998093E+01 0.  1.
       -5    1    3    3    0  502 -0.95221909936E+03 -0.17587995584E+03 -0.25192769834E+03  0.10005721499E+04  0.46999998093E+01 0. -1.
</event>
<event>
 5   0  0.1696052E-04  0.1041935E+04  0.7818609E-02  0.9263710E-01
       -1   -1    0    0    0  501  0.00000000000E+00  0.00000000000E+00  0.41786306506E+03  0.41786306509E+03  0.50400001928E-02 0. -1.
        1   -1    0    0  501    0  0.00000000000E+00  0.00000000000E+00 -0.64951264556E+03  0.64951264558E+03  0.50400001928E-02 0.  1.
    10030    2    1    2    0    0  0.00000000000E+00  0.00000000000E+00 -0.23164958050E+03  0.10673757107E+04  0.10419354009E+04 0.  0.
        4    1    3    3  502    0  0.85939722786E+02  0.27153046136E+03  0.33105014231E+03  0.43670383216E+03  0.12699999809E+01 0. -1.
       -4    1    3    3    0  502 -0.85939722786E+02 -0.27153046136E+03 -0.56269972280E+03  0.63067187851E+03  0.12699999809E+01 0.  1.
</event>
<event>
 5   0  0.1664168E-04  0.1956457E+04  0.7818609E-02  0.8627253E-01
        1   -1    0    0  501    0  0.00000000000E+00  0.00000000000E+00  0.19965707420E+04  0.19965707420E+04  0.50400001928E-02 0. -1.
       -1   -1    0    0    0  501  0.00000000000E+00  0.00000000000E+00 -0.47928741600E+03  0.47928741603E+03  0.50400001928E-02 0.  1.
    10030    2    1    2    0    0  0.00000000000E+00  0.00000000000E+00  0.15172833260E+04  0.24758581580E+04  0.19564572388E+04 0.  0.
        5    1    3    3  502    0 -0.53681956594E+02  0.23938658798E+03  0.19569930407E+04  0.19723162887E+04  0.46999998093E+01 0. -1.
       -5    1    3    3    0  502  0.53681956594E+02 -0.23938658798E+03 -0.43970971475E+03  0.50354186938E+03  0.46999998093E+01 0.  1.
</event>
<event>
 5   0  0.3395569E-04  0.2017319E+04  0.7818609E-02  0.8598566E-01
        2   -1    0    0  501    0  0.00000000000E+00  0.00000000000E+00  0.13024887301E+04  0.13024887301E+04  0.25500000920E-02 0.  1.
       -2   -1    0    0    0  501  0.00000000000E+00  0.00000000000E+00 -0.78111545594E+03  0.78111545594E+03  0.25500000920E-02 0. -1.
    10030    2    1    2    0    0  0.00000000000E+00  0.00000000000E+00  0.52137327416E+03  0.20836041860E+04  0.20173190906E+04 0.  0.
        4    1    3    3  502    0  0.11035152269E+03 -0.86235007573E+03  0.78892798465E+03  0.11739821504E+04  0.12699999809E+01 0.  1.
       -4    1    3    3    0  502 -0.11035152269E+03  0.86235007573E+03 -0.26755471049E+03  0.90962203561E+03  0.12699999809E+01 0. -1.
</event>
<event>
 5   0  0.3371947E-04  0.1991534E+04  0.7818609E-02  0.8610589E-01
        2   -1    0    0  501    0  0.00000000000E+00  0.00000000000E+00  0.18224809591E+04  0.18224809591E+04  0.25500000920E-02 0.  1.
       -2   -1    0    0    0  501  0.00000000000E+00  0.00000000000E+00 -0.54406728761E+03  0.54406728762E+03  0.25500000920E-02 0. -1.
    10030    2    1    2    0    0  0.00000000000E+00  0.00000000000E+00  0.12784136715E+04  0.23665482467E+04  0.19915343554E+04 0.  0.
        2    1    3    3  502    0 -0.11913226846E+03  0.89957698506E+03  0.15197173035E+03  0.92006883235E+03  0.25500000920E-02 0. -1.
       -2    1    3    3    0  502  0.11913226846E+03 -0.89957698506E+03  0.11264419411E+04  0.14464794144E+04  0.25500000920E-02 0.  1.
</event>
<event>
 5   0  0.1664168E-04  0.2027576E+04  0.7818609E-02  0.8593836E-01
       -1   -1    0    0    0  501  0.00000000000E+00  0.00000000000E+00  0.14155577765E+04  0.14155577765E+04  0.50400001928E-02 0.  1.
        1   -1    0    0  501    0  0.00000000000E+00  0.00000000000E+00 -0.72605006890E+03  0.72605006892E+03  0.50400001928E-02 0. -1.
    10030    2    1    2    0    0  0.00000000000E+00  0.00000000000E+00  0.68950770757E+03  0.21416078454E+04  0.20275757161E+04 0.  0.
        5    1    3    3  502    0  0.27477610596E+03 -0.27433149548E+02  0.13750564872E+04  0.14025180637E+04  0.46999998093E+01 0.  1.
       -5    1    3    3    0  502 -0.27477610596E+03  0.27433149548E+02 -0.68554877964E+03  0.73908978166E+03  0.46999998093E+01 0. -1.
</event>
<event>
 5   0  0.1643565E-04  0.1930321E+04  0.7818609E-02  0.8639909E-01
        1   -1    0    0  501    0  0.00000000000E+00  0.00000000000E+00  0.13370259488E+04  0.13370259488E+04  0.50400001928E-02 0.  1.
       -1   -1    0    0    0  501  0.00000000000E+00  0.00000000000E+00 -0.69672187101E+03  0.69672187102E+03  0.50400001928E-02 0. -1.
    10030    2    1    2    0    0  0.00000000000E+00  0.00000000000E+00  0.64030407782E+03  0.20337478199E+04  0.19303214454E+04 0.  0.
        2    1    3    3  502    0 -0.28236688989E+02  0.47321215923E+03  0.12059164826E+04  0.12957475145E+04  0.25500000920E-02 0.  1.
       -2    1    3    3    0  502  0.28236688989E+02 -0.47321215923E+03 -0.56561240480E+03  0.73800030537E+03  0.25500000920E-02 0. -1.
</event>
<event>
 5   0  0.3460648E-04  0.1928291E+04  0.7818609E-02  0.8640901E-01
       -2   -1    0    0    0  501  0.00000000000E+00  0.00000000000E+00  0.80726895345E+03  0.80726895345E+03  0.25500000920E-02 0. -1.
        2   -1    0    0  501    0  0.00000000000E+00  0.00000000000E+00 -0.11515074184E+04  0.11515074184E+04  0.25500000920E-02 0.  1.
    10030    2    1    2    0    0  0.00000000000E+00  0.00000000000E+00 -0.34423846493E+03  0.19587763718E+04  0.19282906301E+04 0.  0.
        5    1    3    3  502    0 -0.52272789085E+03 -0.73341662732E+03 -0.52166657820E+03  0.10408181906E+04  0.46999998093E+01 0.  1.
       -5    1    3    3    0  502  0.52272789085E+03  0.73341662732E+03  0.17742811326E+03  0.91795818122E+03  0.46999998093E+01 0. -1.
</event>
<event>
 5   0  0.1643565E-04  0.1934989E+04  0.7818609E-02  0.8637633E-01
        1   -1    0    0  501    0  0.00000000000E+00  0.00000000000E+00  0.73159000612E+03  0.73159000614E+03  0.50400001928E-02 0. -1.
       -1   -1    0    0    0  501  0.00000000000E+00  0.00000000000E+00 -0.12794676684E+04  0.12794676684E+04  0.50400001928E-02 0.  1.
    10030    2    1    2    0    0  0.00000000000E+00  0.00000000000E+00 -0.54787766226E+03  0.20110576745E+04  0.19349891569E+04 0.  0.
        2    1    3    3  502    0  0.50945157252E+03 -0.56216996098E+03 -0.89793284957E+03  0.11755251474E+04  0.25500000920E-02 0.  1.
       -2    1    3    3    0  502 -0.50945157252E+03  0.56216996098E+03  0.35005518731E+03  0.83553252716E+03  0.25500000920E-02 0. -1.
</event>
<event>
 5   0  0.1708578E-04  0.1608421E+04  0.7818609E-02  0.8815391E-01
        1   -1    0    0  501    0  0.00000000000E+00  0.00000000000E+00  0.10314244419E+04  0.10314244419E+04  0.50400001928E-02 0. -1.
       -1   -1    0    0    0  501  0.00000000000E+00  0.00000000000E+00 -0.62704999442E+03  0.62704999444E+03  0.50400001928E-02 0.  1.
    10030    2    1    2    0    0  0.00000000000E+00  0.00000000000E+00  0.40437444745E+03  0.16584744363E+04  0.16084212017E+04 0.  0.
        3    1    3    3  502    0 -0.75581855732E+03 -0.27459826630E+03  0.21190280424E+03  0.83160610153E+03  0.10100000352E+00 0. -1.
       -3    1    3    3    0  502  0.75581855732E+03  0.27459826630E+03  0.19247164321E+03  0.82686833480E+03  0.10100000352E+00 0.  1.
</event>
<event>
 5   0  0.1650221E-04  0.1980747E+04  0.7818609E-02  0.8615676E-01
        1   -1    0    0  501    0  0.00000000000E+00  0.00000000000E+00  0.16466996100E+04  0.16466996100E+04  0.50400001928E-02 0. -1.
       -1   -1    0    0    0  501  0.00000000000E+00  0.00000000000E+00 -0.59563941844E+03  0.59563941846E+03  0.50400001928E-02 0.  1.
    10030    2    1    2    0    0  0.00000000000E+00  0.00000000000E+00  0.10510601916E+04  0.22423390285E+04  0.19807465240E+04 0.  0.
        1    1    3    3  502    0  0.77949582787E+03  0.41795381491E+03  0.10299549173E+04  0.13576104997E+04  0.50400001928E-02 0. -1.
       -1    1    3    3    0  502 -0.77949582787E+03 -0.41795381491E+03  0.21105274248E+02  0.88472852881E+03  0.50400001928E-02 0.  1.
</event>
<event>
 5   0  0.3387881E-04  0.1429448E+04  0.7818609E-02  0.8932774E-01
       -2   -1    0    0    0  501  0.00000000000E+00  0.00000000000E+00  0.47305152148E+03  0.47305152149E+03  0.25500000920E-02 0.  1.
        2   -1    0    0  501    0  0.00000000000E+00  0.00000000000E+00 -0.10798622122E+04  0.10798622122E+04  0.25500000920E-02 0. -1.
    10030    2    1    2    0    0  0.00000000000E+00  0.00000000000E+00 -0.60681069068E+03  0.15529137337E+04  0.14294480927E+04 0.  0.
        1    1    3    3  502    0 -0.34578127901E+03 -0.32408382694E+03 -0.88462547303E+03  0.10035722432E+04  0.50400001928E-02 0. -1.
       -1    1    3    3    0  502  0.34578127901E+03  0.32408382694E+03  0.27781478235E+03  0.54934149044E+03  0.50400001928E-02 0.  1.
</event>
<event>
 5   0  0.3431030E-04  0.1969294E+04  0.7818609E-02  0.8621113E-01
        2   -1    0    0  501    0  0.00000000000E+00  0.00000000000E+00  0.10139544114E+04  0.10139544114E+04  0.25500000920E-02 0.  1.
       -2   -1    0    0    0  501  0.00000000000E+00  0.00000000000E+00 -0.95618674906E+03  0.95618674907E+03  0.25500000920E-02 0. -1.
    10030    2    1    2    0    0  0.00000000000E+00  0.00000000000E+00  0.57767662384E+02  0.19701411605E+04  0.19692940587E+04 0.  0.
        3    1    3    3  502    0 -0.58372226422E+02  0.36331424273E+03  0.94258124671E+03  0.10118616371E+04  0.10100000352E+00 0.  1.
       -3    1    3    3    0  502  0.58372226422E+02 -0.36331424273E+03 -0.88481358432E+03  0.95827952341E+03  0.10100000352E+00 0. -1.
</event>
<event>
 5   0  0.3460648E-04  0.2023877E+04  0.7818609E-02  0.8595538E-01
       -2   -1    0    0    0  501  0.00000000000E+00  0.00000000000E+00  0.45808790752E+03  0.45808790753E+03  0.25500000920E-02 0.  1.
        2   -1    0    0  501    0  0.00000000000E+00  0.00000000000E+00 -0.22354208808E+04  0.22354208808E+04  0.25500000920E-02 0. -1.
    10030    2    1    2    0    0  0.00000000000E+00  0.00000000000E+00 -0.17773329733E+04  0.26935087884E+04  0.20238767490E+04 0.  0.
        5    1    3    3  502    0  0.32067754645E+03  0.51079300318E+02  0.38685177901E+03  0.50509362760E+03  0.46999998093E+01 0.  1.
       -5    1    3    3    0  502 -0.32067754645E+03 -0.51079300318E+02 -0.21641847523E+04  0.21884151608E+04  0.46999998093E+01 0. -1.
</event>
<event>
 5   0  0.3395569E-04  0.2130222E+04  0.7818609E-02  0.8548046E-01
        2   -1    0    0  501    0  0.00000000000E+00  0.00000000000E+00  0.80358705579E+03  0.80358705579E+03  0.25500000920E-02 0.  1.
       -2   -1    0    0    0  501  0.00000000000E+00  0.00000000000E+00 -0.14117465067E+04  0.14117465067E+04  0.25500000920E-02 0. -1.
    10030    2    1    2    0    0  0.00000000000E+00  0.00000000000E+00 -0.60815945095E+03  0.22153335625E+04  0.21302217902E+04 0.  0.
        4    1    3    3  502    0  0.98425725930E+03 -0.35057193645E+03 -0.88940901469E+02  0.10486062807E+04  0.12699999809E+01 0.  1.
       -4    1    3    3    0  502 -0.98425725930E+03  0.35057193645E+03 -0.51921854948E+03  0.11667272818E+04  0.12699999809E+01 0. -1.
</event>
<event>
 5   0  0.3387881E-04  0.1923436E+04  0.7818609E-02  0.8643278E-01
       -2   -1    0    0    0  501  0.00000000000E+00  0.00000000000E+00  0.97709368514E+03  0.97709368514E+03  0.25500000920E-02 0.  1.
        2   -1    0    0  501    0  0.00000000000E+00  0.00000000000E+00 -0.94658415803E+03  0.94658415803E+03  0.25500000920E-02 0. -1.
    10030    2    1    2    0    0  0.00000000000E+00  0.00000000000E+00  0.30509527108E+02  0.19236778432E+04  0.19234358874E+04 0.  0.
        1    1    3    3  502    0 -0.41667637980E+02  0.92088934125E+03  0.28938417603E+03  0.96618661357E+03  0.50400001928E-02 0.  1.
       -1    1    3    3    0  502  0.41667637980E+02 -0.92088934125E+03 -0.25887464893E+03  0.95749122960E+03  0.50400001928E-02 0. -1.
</event>
<event>
 5   0  0.1643565E-04  0.1965765E+04  0.7818609E-02  0.8622796E-01
       -1   -1    0    0    0  501  0.00000000000E+00  0.00000000000E+00  0.52916351835E+03  0.52916351837E+03  0.50400001928E-02 0.  1.
        1   -1    0    0  501    0  0.00000000000E+00  0.00000000000E+00 -0.18256314001E+04  0.18256314001E+04  0.50400001928E-02 0. -1.
    10030    2    1    2    0    0  0.00000000000E+00  0.00000000000E+00 -0.12964678817E+04  0.23547949184E+04  0.19657645178E+04 0.  0.
        2    1    3    3  502    0  0.33147604285E+02  0.40251815018E+02 -0.18239733380E+04  0.18247185290E+04  0.25500000920E-02 0. -1.
       -2    1    3    3    0  502 -0.33147604285E+02 -0.40251815018E+02  0.52750545626E+03  0.53007638947E+03  0.25500000920E-02 0.  1.
</event>
<event>
 5   0  0.1708578E-04  0.1943836E+04  0.7818609E-02  0.8633339E-01
        1   -1    0    0  501    0  0.00000000000E+00  0.00000000000E+00  0.14478967366E+04  0.14478967367E+04  0.50400001928E-02 0. -1.
       -1   -1    0    0    0  501  0.00000000000E+00  0.00000000000E+00 -0.65241128430E+03  0.65241128432E+03  0.50400001928E-02 0.  1.
    10030    2    1    2    0    0  0.00000000000E+00  0.00000000000E+00  0.79548545235E+03  0.21003080210E+04  0.19438355584E+04 0.  0.
        3    1    3    3  502    0 -0.23425696439E+03 -0.60875841826E+02  0.14148121880E+04  0.14353660617E+04  0.10100000352E+00 0. -1.
       -3    1    3    3    0  502  0.23425696439E+03  0.60875841826E+02 -0.61932673568E+03  0.66494195928E+03  0.10100000352E+00 0.  1.
</event>
<event>
 5   0  0.3431030E-04  0.1990370E+04  0.7818609E-02  0.8611136E-01
        2   -1    0    0  501    0  0.00000000000E+00  0.00000000000E+00  0.12042480913E+04  0.12042480913E+04  0.25500000920E-02 0.  1.
       -2   -1    0    0    0  501  0.00000000000E+00  0.00000000000E+00 -0.82241612757E+03  0.82241612757E+03  0.25500000920E-02 0. -1.
    10030    2    1    2    0    0  0.00000000000E+00  0.00000000000E+00  0.38183196374E+03  0.20266642189E+04  0.19903698670E+04 0.  0.
        3    1    3    3  502    0 -0.36935135530E+03  0.59250584291E+03  0.91300860382E+03  0.11493773612E+04  0.10100000352E+00 0.  1.
       -3    1    3    3    0  502  0.36935135530E+03 -0.59250584291E+03 -0.53117664008E+03  0.87728685771E+03  0.10100000352E+00 0. -1.
</event>
<event>
 5   0  0.3431030E-04  0.1547056E+04  0.7818609E-02  0.8853750E-01
        2   -1    0    0  501    0  0.00000000000E+00  0.00000000000E+00  0.72725063572E+03  0.72725063573E+03  0.25500000920E-02 0.  1.
       -2   -1    0    0    0  501  0.00000000000E+00  0.00000000000E+00 -0.82275036427E+03  0.82275036427E+03  0.25500000920E-02 0. -1.
    10030    2    1    2    0    0  0.00000000000E+00  0.00000000000E+00 -0.95499728544E+02  0.15500010000E+04  0.15470562051E+04 0.  0.
        3    1    3    3  502    0 -0.33119321879E+03 -0.41872036820E+03  0.51307452199E+03  0.74044660188E+03  0.10100000352E+00 0.  1.
       -3    1    3    3    0  502  0.33119321879E+03  0.41872036820E+03 -0.60857425053E+03  0.80955439813E+03  0.10100000352E+00 0. -1.
</event>
<event>
 5   0  0.1643565E-04  0.1932428E+04  0.7818609E-02  0.8638881E-01
       -1   -1    0    0    0  501  0.00000000000E+00  0.00000000000E+00  0.78630846571E+03  0.78630846572E+03  0.50400001928E-02 0.  1.
        1   -1    0    0  501    0  0.00000000000E+00  0.00000000000E+00 -0.11872811305E+04  0.11872811305E+04  0.50400001928E-02 0. -1.
    10030    2    1    2    0    0  0.00000000000E+00  0.00000000000E+00 -0.40097266480E+03  0.19735895962E+04  0.19324277002E+04 0.  0.
        2    1    3    3  502    0  0.89322142818E+03  0.35137974795E+03 -0.87416974575E+02  0.96382258454E+03  0.25500000920E-02 0.  1.
       -2    1    3    3    0  502 -0.89322142818E+03 -0.35137974795E+03 -0.31355569022E+03  0.10097670117E+04  0.25500000920E-02 0. -1.
</event>
<event>
 5   0  0.1650221E-04  0.2023103E+04  0.7818609E-02  0.8595895E-01
        1   -1    0    0  501    0  0.00000000000E+00  0.00000000000E+00  0.19737531489E+04  0.19737531489E+04  0.50400001928E-02 0. -1.
       -1   -1    0    0    0  501  0.00000000000E+00  0.00000000000E+00 -0.51842164166E+03  0.51842164169E+03  0.50400001928E-02 0.  1.
    10030    2    1    2    0    0  0.00000000000E+00  0.00000000000E+00  0.14553315072E+04  0.24921747905E+04  0.20231029116E+04 0.  0.
        1    1    3    3  502    0 -0.53159963307E+03  0.20904464175E+03  0.17560555442E+04  0.18466263581E+04  0.50400001928E-02 0. -1.
       -1    1    3    3    0  502  0.53159963307E+03 -0.20904464175E+03 -0.30072403703E+03  0.64554843242E+03  0.50400001928E-02 0.  1.
</event>
<event>
 5   0  0.3460648E-04  0.2038769E+04  0.7818609E-02  0.8588706E-01
       -2   -1    0    0    0  501  0.00000000000E+00  0.00000000000E+00  0.66600681073E+03  0.66600681074E+03  0.25500000920E-02 0.  1.
        2   -1    0    0  501    0  0.00000000000E+00  0.00000000000E+00 -0.15602613490E+04  0.15602613490E+04  0.25500000920E-02 0. -1.
    10030    2    1    2    0    0  0.00000000000E+00  0.00000000000E+00 -0.89425453825E+03  0.22262681597E+04  0.20387689275E+04 0.  0.
        5    1    3    3  502    0 -0.32303818588E+03  0.66189723121E+03  0.32242742203E+03  0.80401688210E+03  0.46999998093E+01 0.  1.
       -5    1    3    3    0  502  0.32303818588E+03 -0.66189723121E+03 -0.12166819603E+04  0.14222512776E+04  0.46999998093E+01 0. -1.
</event>
<event>
 5   0  0.1696052E-04  0.2033555E+04  0.7818609E-02  0.8591092E-01
       -1   -1    0    0    0  501  0.00000000000E+00  0.00000000000E+00  0.17611756336E+04  0.17611756336E+04  0.50400001928E-02 0.  1.
        1   -1    0    0  501    0  0.00000000000E+00  0.00000000000E+00 -0.58701476916E+03  0.58701476918E+03  0.50400001928E-02 0. -1.
    10030    2    1    2    0    0  0.00000000000E+00  0.00000000000E+00  0.11741608644E+04  0.23481904028E+04  0.20335546297E+04 0.  0.
        4    1    3    3  502    0  0.60562834941E+03  0.57201915634E+03 -0.86076858910E+02  0.83749773216E+03  0.12699999809E+01 0. -1.
       -4    1    3    3    0  502 -0.60562834941E+03 -0.57201915634E+03  0.12602377233E+04  0.15106926706E+04  0.12699999809E+01 0.  1.
</event>
<event>
 5   0  0.1650221E-04  0.1988887E+04  0.7818609E-02  0.8611834E-01
        1   -1    0    0  501    0  0.00000000000E+00  0.00000000000E+00  0.18473639500E+04  0.18473639500E+04  0.50400001928E-02 0. -1.
       -1   -1    0    0    0  501  0.00000000000E+00  0.00000000000E+00 -0.53531309162E+03  0.53531309164E+03  0.50400001928E-02 0.  1.
    10030    2    1    2    0    0  0.00000000000E+00  0.00000000000E+00  0.13120508584E+04  0.23826770416E+04  0.19888872341E+04 0.  0.
        1    1    3    3  502    0 -0.76935327934E+02  0.97414581553E+03  0.43499942588E+03  0.10696277928E+04  0.50400001928E-02 0.  1.
       -1    1    3    3    0  502  0.76935327934E+02 -0.97414581553E+03  0.87705143250E+03  0.13130492488E+04  0.50400001928E-02 0. -1.
</event>
<event>
 5   0  0.3395569E-04  0.1923882E+04  0.7818609E-02  0.8643059E-01
       -2   -1    0    0    0  501  0.00000000000E+00  0.00000000000E+00  0.63066461189E+03  0.63066461189E+03  0.25500000920E-02 0.  1.
        2   -1    0    0  501    0  0.00000000000E+00  0.00000000000E+00 -0.14672311123E+04  0.14672311123E+04  0.25500000920E-02 0. -1.
    10030    2    1    2    0    0  0.00000000000E+00  0.00000000000E+00 -0.83656650043E+03  0.20978957242E+04  0.19238822625E+04 0.  0.
        4    1    3    3  502    0 -0.32901447692E+03 -0.69654178980E+03  0.20994050784E+03  0.79843448115E+03  0.12699999809E+01 0.  1.
       -4    1    3    3    0  502  0.32901447692E+03  0.69654178980E+03 -0.10465070083E+04  0.12994612431E+04  0.12699999809E+01 0. -1.
</event>
<event>
 5   0  0.1708578E-04  0.2014038E+04  0.7818609E-02  0.8600085E-01
       -1   -1    0    0    0  501  0.00000000000E+00  0.00000000000E+00  0.10444943480E+04  0.10444943480E+04  0.50400001928E-02 0.  1.
        1   -1    0    0  501    0  0.00000000000E+00  0.00000000000E+00 -0.97088868833E+03  0.97088868834E+03  0.50400001928E-02 0. -1.
    10030    2    1    2    0    0  0.00000000000E+00  0.00000000000E+00  0.73605659668E+02  0.20153830364E+04  0.20140384778E+04 0.  0.
        3    1    3    3  502    0  0.91686932206E+03  0.38660304321E+03  0.19174957654E+03  0.10133504710E+04  0.10100000352E+00 0.  1.
       -3    1    3    3    0  502 -0.91686932206E+03 -0.38660304321E+03 -0.11814391687E+03  0.10020325654E+04  0.10100000352E+00 0. -1.
</event>
<event>
 5   0  0.1650221E-04  0.2039975E+04  0.7818609E-02  0.8588156E-01
        1   -1    0    0  501    0  0.00000000000E+00  0.00000000000E+00  0.11961525576E+04  0.11961525576E+04  0.50400001928E-02 0.  1.
       -1   -1    0    0    0  501  0.00000000000E+00  0.00000000000E+00 -0.86976746534E+03  0.86976746535E+03  0.50400001928E-02 0. -1.
    10030    2    1    2    0    0  0.00000000000E+00  0.00000000000E+00  0.32638509224E+03  0.20659200229E+04  0.20399750765E+04 0.  0.
        1    1    3    3  502    0  0.12500057282E+02  0.49544774947E+02  0.11948555791E+04  0.11959476540E+04  0.50400001928E-02 0.  1.
       -1    1    3    3    0  502 -0.12500057282E+02 -0.49544774947E+02 -0.86847048686E+03  0.86997236895E+03  0.50400001928E-02 0. -1.
</event>
<event>
 5   0  0.1650221E-04  0.2028215E+04  0.7818609E-02  0.8593542E-01
       -1   -1    0    0    0  501  0.00000000000E+00  0.00000000000E+00  0.75675657202E+03  0.75675657204E+03  0.50400001928E-02 0.  1.
        1   -1    0    0  501    0  0.00000000000E+00  0.00000000000E+00 -0.13589764155E+04  0.13589764155E+04  0.50400001928E-02 0. -1.
    10030    2    1    2    0    0  0.00000000000E+00  0.00000000000E+00 -0.60221984348E+03  0.21157329875E+04  0.20282153078E+04 0.  0.
        1    1    3    3  502    0  0.49571062627E+03  0.84188930803E+03 -0.17519440356E+02  0.97714562006E+03  0.50400001928E-02 0.  1.
       -1    1    3    3    0  502 -0.49571062627E+03 -0.84188930803E+03 -0.58470040312E+03  0.11385873675E+04  0.50400001928E-02 0. -1.
</event>
<event>
 5   0  0.1664168E-04  0.1987562E+04  0.7818609E-02  0.8612458E-01
        1   -1    0    0  501    0  0.00000000000E+00  0.00000000000E+00  0.17998464710E+04  0.17998464710E+04  0.50400001928E-02 0. -1.
       -1   -1    0    0    0  501  0.00000000000E+00  0.00000000000E+00 -0.54871358129E+03  0.54871358132E+03  0.50400001928E-02 0.  1.
    10030    2    1    2    0    0  0.00000000000E+00  0.00000000000E+00  0.12511328897E+04  0.23485600524E+04  0.19875615240E+04 0.  0.
        5    1    3    3  502    0 -0.59712281381E+03  0.72768199356E+03  0.10020248951E+04  0.13748282507E+04  0.46999998093E+01 0. -1.
       -5    1    3    3    0  502  0.59712281381E+03 -0.72768199356E+03  0.24910799459E+03  0.97373180162E+03  0.46999998093E+01 0.  1.
</event>
<event>
 5   0  0.1664168E-04  0.1990009E+04  0.7818609E-02  0.8611306E-01
        1   -1    0    0  501    0  0.00000000000E+00  0.00000000000E+00  0.20908403310E+04  0.20908403310E+04  0.50400001928E-02 0.  1.
       -1   -1    0    0    0  501  0.00000000000E+00  0.00000000000E+00 -0.47350989062E+03  0.47350989065E+03  0.50400001928E-02 0. -1.
    10030    2    1    2    0    0  0.00000000000E+00  0.00000000000E+00  0.16173304403E+04  0.25643502216E+04  0.19900086195E+04 0.  0.
        5    1    3    3  502    0 -0.57998349684E+03  0.45109621294E+03  0.16732300249E+04  0.18274543650E+04  0.46999998093E+01 0.  1.
       -5    1    3    3    0  502  0.57998349684E+03 -0.45109621294E+03 -0.55899584567E+02  0.73689585661E+03  0.46999998093E+01 0. -1.
</event>
<event>
 5   0  0.1643565E-04  0.1021684E+04  0.7818609E-02  0.9285076E-01
        1   -1    0    0  501    0  0.00000000000E+00  0.00000000000E+00  0.87272554456E+03  0.87272554457E+03  0.50400001928E-02 0. -1.
       -1   -1    0    0    0  501  0.00000000000E+00  0.00000000000E+00 -0.29901693684E+03  0.29901693689E+03  0.50400001928E-02 0.  1.
    10030    2    1    2    0    0  0.00000000000E+00  0.00000000000E+00  0.57370860772E+03  0.11717424815E+04  0.10216843330E+04 0.  0.
        2    1    3    3  502    0 -0.25843881959E+03  0.40928933867E+03  0.47408407584E+03  0.67754269031E+03  0.25500000920E-02 0.  1.
       -2    1    3    3    0  502  0.25843881959E+03 -0.40928933867E+03  0.99624531879E+02  0.49419979116E+03  0.25500000920E-02 0. -1.
</event>
<event>
 5   0  0.1643565E-04  0.1981928E+04  0.7818609E-02  0.8615117E-01
        1   -1    0    0  501    0  0.00000000000E+00  0.00000000000E+00  0.11425198079E+04  0.11425198079E+04  0.50400001928E-02 0.  1.
       -1   -1    0    0    0  501  0.00000000000E+00  0.00000000000E+00 -0.85951225299E+03  0.85951225300E+03  0.50400001928E-02 0. -1.
    10030    2    1    2    0    0  0.00000000000E+00  0.00000000000E+00  0.28300755487E+03  0.20020320609E+04  0.19819281260E+04 0.  0.
        2    1    3    3  502    0  0.37335460104E+03 -0.31280437054E+03  0.10132580426E+04  0.11242473452E+04  0.25500000920E-02 0.  1.
       -2    1    3    3    0  502 -0.37335460104E+03  0.31280437054E+03 -0.73025048768E+03  0.87778471570E+03  0.25500000920E-02 0. -1.
</event>
<event>
 5   0  0.1643565E-04  0.2100311E+04  0.7818609E-02  0.8561106E-01
       -1   -1    0    0    0  501  0.00000000000E+00  0.00000000000E+00  0.97740670632E+03  0.97740670633E+03  0.50400001928E-02 0.  1.
        1   -1    0    0  501    0  0.00000000000E+00  0.00000000000E+00 -0.11283190276E+04  0.11283190276E+04  0.50400001928E-02 0. -1.
    10030    2    1    2    0    0  0.00000000000E+00  0.00000000000E+00 -0.15091232126E+03  0.21057257339E+04  0.21003110098E+04 0.  0.
        2    1    3    3  502    0 -0.29577749763E+03  0.24714836015E+03 -0.10548368641E+04  0.11230527369E+04  0.25500000920E-02 0. -1.
       -2    1    3    3    0  502  0.29577749763E+03 -0.24714836015E+03  0.90392454280E+03  0.98267299704E+03  0.25500000920E-02 0.  1.
</event>
<event>
 5   0  0.3460648E-04  0.2047071E+04  0.7818609E-02  0.8584924E-01
       -2   -1    0    0    0  501  0.00000000000E+00  0.00000000000E+00  0.77602015028E+03  0.77602015028E+03  0.25500000920E-02 0. -1.
        2   -1    0    0  501    0  0.00000000000E+00  0.00000000000E+00 -0.13499971509E+04  0.13499971510E+04  0.25500000920E-02 0.  1.
    10030    2    1    2    0    0  0.00000000000E+00  0.00000000000E+00 -0.57397700067E+03  0.21260173012E+04  0.20470710705E+04 0.  0.
        5    1    3    3  502    0  0.26735599864E+03 -0.59020397954E+03  0.53589551560E+03  0.84084841744E+03  0.46999998093E+01 0. -1.
       -5    1    3    3    0  502 -0.26735599864E+03  0.59020397954E+03 -0.11098725163E+04  0.12851688838E+04  0.46999998093E+01 0.  1.
</event>
<event>
 5   0  0.1650221E-04  0.1981431E+04  0.7818609E-02  0.8615352E-01
        1   -1    0    0  501    0  0.00000000000E+00  0.00000000000E+00  0.17348609020E+04  0.17348609020E+04  0.50400001928E-02 0. -1.
       -1   -1    0    0    0  501  0.00000000000E+00  0.00000000000E+00 -0.56576142579E+03  0.56576142581E+03  0.50400001928E-02 0.  1.
    10030    2    1    2    0    0  0.00000000000E+00  0.00000000000E+00  0.11690994762E+04  0.23006223278E+04  0.19814311772E+04 0.  0.
        1    1    3    3  502    0  0.32446035896E+03 -0.35462968134E+03 -0.42130689777E+03  0.63916839531E+03  0.50400001928E-02 0.  1.
       -1    1    3    3    0  502 -0.32446035896E+03  0.35462968134E+03  0.15904063740E+04  0.16614539325E+04  0.50400001928E-02 0. -1.
</event>
<event>
 5   0  0.1222488E-04  0.2054445E+04  0.7818609E-02  0.8581580E-01
        3   -1    0    0  501    0  0.00000000000E+00  0.00000000000E+00  0.17300732976E+04  0.17300733006E+04  0.10100000352E+00 0.  1.
       -3   -1    0    0    0  501  0.00000000000E+00  0.00000000000E+00 -0.60990851785E+03  0.60990852622E+03  0.10100000352E+00 0. -1.
    10030    2    1    2    0    0  0.00000000000E+00  0.00000000000E+00  0.11201647798E+04  0.23399818268E+04  0.20544453791E+04 0.  0.
        3    1    3    3  502    0  0.21658839671E+03  0.64727339925E+03 -0.31427888960E+03  0.75142838489E+03  0.10100000352E+00 0. -1.
       -3    1    3    3    0  502 -0.21658839671E+03 -0.64727339925E+03  0.14344436694E+04  0.15885534419E+04  0.10100000352E+00 0.  1.
</event>
<event>
 5   0  0.3431030E-04  0.1992324E+04  0.7818609E-02  0.8610218E-01
        2   -1    0    0  501    0  0.00000000000E+00  0.00000000000E+00  0.10225888741E+04  0.10225888741E+04  0.25500000920E-02 0. -1.
       -2   -1    0    0    0  501  0.00000000000E+00  0.00000000000E+00 -0.97041811519E+03  0.97041811520E+03  0.25500000920E-02 0.  1.
    10030    2    1    2    0    0  0.00000000000E+00  0.00000000000E+00  0.52170758926E+02  0.19930069893E+04  0.19923240377E+04 0.  0.
        3    1    3    3  502    0 -0.51812335821E+03  0.82372917577E+03  0.23913065577E+03  0.10020803611E+04  0.10100000352E+00 0.  1.
       -3    1    3    3    0  502  0.51812335821E+03 -0.82372917577E+03 -0.18695989684E+03  0.99092662824E+03  0.10100000352E+00 0. -1.
</event>
<event>
 5   0  0.1696052E-04  0.1969045E+04  0.7818609E-02  0.8621231E-01
        1   -1    0    0  501    0  0.00000000000E+00  0.00000000000E+00  0.11708790599E+04  0.11708790600E+04  0.50400001928E-02 0. -1.
       -1   -1    0    0    0  501  0.00000000000E+00  0.00000000000E+00 -0.82782649585E+03  0.82782649586E+03  0.50400001928E-02 0.  1.
    10030    2    1    2    0    0  0.00000000000E+00  0.00000000000E+00  0.34305256410E+03  0.19987055558E+04  0.19690451587E+04 0.  0.
        4    1    3    3  502    0 -0.22343648172E+03 -0.78539366594E+03  0.72982590615E+03  0.10951778568E+04  0.12699999809E+01 0. -1.
       -4    1    3    3    0  502  0.22343648172E+03  0.78539366594E+03 -0.38677334205E+03  0.90352769901E+03  0.12699999809E+01 0.  1.
</event>
<event>
 5   0  0.3395569E-04  0.2006773E+04  0.7818609E-02  0.8603461E-01
       -2   -1    0    0    0  501  0.00000000000E+00  0.00000000000E+00  0.72786780021E+03  0.72786780021E+03  0.25500000920E-02 0.  1.
        2   -1    0    0  501    0  0.00000000000E+00  0.00000000000E+00 -0.13831963678E+04  0.13831963679E+04  0.25500000920E-02 0. -1.
    10030    2    1    2    0    0  0.00000000000E+00  0.00000000000E+00 -0.65532856764E+03  0.21110641681E+04  0.20067726304E+04 0.  0.
        4    1    3    3  502    0 -0.60558676729E+03  0.39636285374E+03  0.40339313838E+03  0.82859307355E+03  0.12699999809E+01 0.  1.
       -4    1    3    3    0  502  0.60558676729E+03 -0.39636285374E+03 -0.10587217060E+04  0.12824710945E+04  0.12699999809E+01 0. -1.
</event>
<event>
 5   0  0.3387881E-04  0.2009203E+04  0.7818609E-02  0.8602330E-01
        2   -1    0    0  501    0  0.00000000000E+00  0.00000000000E+00  0.18582533992E+04  0.18582533992E+04  0.25500000920E-02 0.  1.
       -2   -1    0    0    0  501  0.00000000000E+00  0.00000000000E+00 -0.54310374112E+03  0.54310374113E+03  0.25500000920E-02 0. -1.
    10030    2    1    2    0    0  0.00000000000E+00  0.00000000000E+00  0.13151496580E+04  0.24013571403E+04  0.20092031983E+04 0.  0.
        1    1    3    3  502    0  0.16872337037E+03  0.54253173419E+03 -0.33263362436E+03  0.65837176913E+03  0.50400001928E-02 0. -1.
       -1    1    3    3    0  502 -0.16872337037E+03 -0.54253173419E+03  0.16477832824E+04  0.17429853712E+04  0.50400001928E-02 0.  1.
</event>
<event>
 5   0  0.1708578E-04  0.2005298E+04  0.7818609E-02  0.8604148E-01
        1   -1    0    0  501    0  0.00000000000E+00  0.00000000000E+00  0.10073861704E+04  0.10073861704E+04  0.50400001928E-02 0.  1.
       -1   -1    0    0    0  501  0.00000000000E+00  0.00000000000E+00 -0.99793391544E+03  0.99793391545E+03  0.50400001928E-02 0. -1.
    10030    2    1    2    0    0  0.00000000000E+00  0.00000000000E+00  0.94522549435E+01  0.20053200858E+04  0.20052978087E+04 0.  0.
        3    1    3    3  502    0  0.22637516439E+03  0.68252402952E+02 -0.96965665348E+03  0.99806720284E+03  0.10100000352E+00 0. -1.
       -3    1    3    3    0  502 -0.22637516439E+03 -0.68252402952E+02  0.97910890842E+03  0.10072528830E+04  0.10100000352E+00 0.  1.
</event>
<event>
 5   0  0.3431030E-04  0.2040809E+04  0.7818609E-02  0.8587775E-01
        2   -1    0    0  501    0  0.00000000000E+00  0.00000000000E+00  0.82950895197E+03  0.82950895197E+03  0.25500000920E-02 0. -1.
       -2   -1    0    0    0  501  0.00000000000E+00  0.00000000000E+00 -0.12552312825E+04  0.12552312825E+04  0.25500000920E-02 0.  1.
    10030    2    1    2    0    0  0.00000000000E+00  0.00000000000E+00 -0.42572233054E+03  0.20847402345E+04  0.20408092372E+04 0.  0.
        3    1    3    3  502    0  0.33495017247E+03 -0.95172344127E+03 -0.36864458609E+03  0.10741824648E+04  0.10100000352E+00 0.  1.
       -3    1    3    3    0  502 -0.33495017247E+03  0.95172344127E+03 -0.57077744450E+02  0.10105577697E+04  0.10100000352E+00 0. -1.
</event>
<event>
 5   0  0.1696052E-04  0.2441955E+04  0.7818609E-02  0.8423961E-01
        1   -1    0    0  501    0  0.00000000000E+00  0.00000000000E+00  0.13845819246E+04  0.13845819246E+04  0.50400001928E-02 0.  1.
       -1   -1    0    0    0  501  0.00000000000E+00  0.00000000000E+00 -0.10767048736E+04  0.10767048736E+04  0.50400001928E-02 0. -1.
    10030    2    1    2    0    0  0.00000000000E+00  0.00000000000E+00  0.30787705098E+03  0.24612867982E+04  0.24419550414E+04 0.  0.
        4    1    3    3  502    0  0.82470622842E+03 -0.87046687890E+03 -0.77951375043E+02  0.12016367921E+04  0.12699999809E+01 0.  1.
       -4    1    3    3    0  502 -0.82470622842E+03  0.87046687890E+03  0.38582842602E+03  0.12596500060E+04  0.12699999809E+01 0. -1.
</event>
<event>
 5   0  0.3371947E-04  0.1933903E+04  0.7818609E-02  0.8638162E-01
       -2   -1    0    0    0  501  0.00000000000E+00  0.00000000000E+00  0.10061375287E+04  0.10061375287E+04  0.25500000920E-02 0.  1.
        2   -1    0    0  501    0  0.00000000000E+00  0.00000000000E+00 -0.92929205674E+03  0.92929205675E+03  0.25500000920E-02 0. -1.
    10030    2    1    2    0    0  0.00000000000E+00  0.00000000000E+00  0.76845472003E+02  0.19354295855E+04  0.19339034241E+04 0.  0.
        2    1    3    3  502    0 -0.24615196304E+03 -0.11113169291E+03  0.96762438695E+03  0.10046083796E+04  0.25500000920E-02 0.  1.
       -2    1    3    3    0  502  0.24615196304E+03  0.11113169291E+03 -0.89077891495E+03  0.93082120592E+03  0.25500000920E-02 0. -1.
</event>
<event>
 5   0  0.1696052E-04  0.2030599E+04  0.7818609E-02  0.8592447E-01
       -1   -1    0    0    0  501  0.00000000000E+00  0.00000000000E+00  0.77740920910E+03  0.77740920911E+03  0.50400001928E-02 0. -1.
        1   -1    0    0  501    0  0.00000000000E+00  0.00000000000E+00 -0.13259850911E+04  0.13259850911E+04  0.50400001928E-02 0.  1.
    10030    2    1    2    0    0  0.00000000000E+00  0.00000000000E+00 -0.54857588204E+03  0.21033943003E+04  0.20305989471E+04 0.  0.
        4    1    3    3  502    0 -0.36866763745E+03 -0.29674092425E+03  0.65616783892E+03  0.80902957224E+03  0.12699999809E+01 0. -1.
       -4    1    3    3    0  502  0.36866763745E+03  0.29674092425E+03 -0.12047437210E+04  0.12943647280E+04  0.12699999809E+01 0.  1.
</event>
<event>
 5   0  0.1696052E-04  0.1980702E+04  0.7818609E-02  0.8615696E-01
        1   -1    0    0  501    0  0.00000000000E+00  0.00000000000E+00  0.68719674383E+03  0.68719674384E+03  0.50400001928E-02 0.  1.
       -1   -1    0    0    0  501  0.00000000000E+00  0.00000000000E+00 -0.14272413344E+04  0.14272413344E+04  0.50400001928E-02 0. -1.
    10030    2    1    2    0    0  0.00000000000E+00  0.00000000000E+00 -0.74004459054E+03  0.21144380782E+04  0.19807024993E+04 0.  0.
        4    1    3    3  502    0  0.85184928107E+03  0.23320836150E+02  0.16862863800E+03  0.86869343816E+03  0.12699999809E+01 0.  1.
       -4    1    3    3    0  502 -0.85184928107E+03 -0.23320836150E+02 -0.90867322855E+03  0.12457446401E+04  0.12699999809E+01 0. -1.
</event>
<event>
 5   0  0.1643565E-04  0.1590801E+04  0.7818609E-02  0.8826219E-01
       -1   -1    0    0    0  501  0.00000000000E+00  0.00000000000E+00  0.32474517019E+03  0.32474517023E+03  0.50400001928E-02 0.  1.
        1   -1    0    0  501    0  0.00000000000E+00  0.00000000000E+00 -0.19481800316E+04  0.19481800316E+04  0.50400001928E-02 0. -1.
    10030    2    1    2    0    0  0.00000000000E+00  0.00000000000E+00 -0.16234348614E+04  0.22729252018E+04  0.15908011265E+04 0.  0.
        2    1    3    3  502    0  0.35818054404E+03  0.52417777094E+03 -0.12707901180E+03  0.64746020181E+03  0.25500000920E-02 0.  1.
       -2    1    3    3    0  502 -0.35818054404E+03 -0.52417777094E+03 -0.14963558496E+04  0.16254650000E+04  0.25500000920E-02 0. -1.
</event>
<event>
 5   0  0.3371947E-04  0.1761486E+04  0.7818609E-02  0.8727053E-01
       -2   -1    0    0    0  501  0.00000000000E+00  0.00000000000E+00  0.11762864562E+04  0.11762864562E+04  0.25500000920E-02 0. -1.
        2   -1    0    0  501    0  0.00000000000E+00  0.00000000000E+00 -0.65945502647E+03  0.65945502647E+03  0.25500000920E-02 0.  1.
    10030    2    1    2    0    0  0.00000000000E+00  0.00000000000E+00  0.51683142976E+03  0.18357414827E+04  0.17614857549E+04 0.  0.
        2    1    3    3  502    0 -0.53407296336E+02  0.25896463887E+02  0.11741997772E+04  0.11756989763E+04  0.25500000920E-02 0. -1.
       -2    1    3    3    0  502  0.53407296336E+02 -0.25896463887E+02 -0.65736834739E+03  0.66004250643E+03  0.25500000920E-02 0.  1.
</event>
<event>
 5   0  0.3387881E-04  0.1993589E+04  0.7818609E-02  0.8609624E-01
       -2   -1    0    0    0  501  0.00000000000E+00  0.00000000000E+00  0.47190810000E+03  0.47190810001E+03  0.25500000920E-02 0.  1.
        2   -1    0    0  501    0  0.00000000000E+00  0.00000000000E+00 -0.21054941563E+04  0.21054941563E+04  0.25500000920E-02 0. -1.
    10030    2    1    2    0    0  0.00000000000E+00  0.00000000000E+00 -0.16335860563E+04  0.25774022563E+04  0.19935894731E+04 0.  0.
        1    1    3    3  502    0 -0.85877702244E+03 -0.33498827378E+03 -0.13071966548E+04  0.15995243706E+04  0.50400001928E-02 0. -1.
       -1    1    3    3    0  502  0.85877702244E+03  0.33498827378E+03 -0.32638940147E+03  0.97787788566E+03  0.50400001928E-02 0.  1.
</event>
<event>
 5   0  0.1222488E-04  0.1850365E+04  0.7818609E-02  0.8679965E-01
        4   -1    0    0  501    0  0.00000000000E+00  0.00000000000E+00  0.56043512477E+03  0.56043656374E+03  0.12699999809E+01 0.  1.
       -4   -1    0    0    0  501  0.00000000000E+00  0.00000000000E+00 -0.15273145664E+04  0.15273150944E+04  0.12699999809E+01 0. -1.
    10030    2    1    2    0    0  0.00000000000E+00  0.00000000000E+00 -0.96687944162E+03  0.20877516581E+04  0.18503651346E+04 0.  0.
        4    1    3    3  502    0  0.48013042472E+03 -0.16072132688E+03  0.39024326582E+03  0.63925580879E+03  0.12699999809E+01 0.  1.
       -4    1    3    3    0  502 -0.48013042472E+03  0.16072132688E+03 -0.13571227074E+04  0.14484958494E+04  0.12699999809E+01 0. -1.
</event>
<event>
 5   0  0.3387881E-04  0.1997427E+04  0.7818609E-02  0.8607824E-01
        2   -1    0    0  501    0  0.00000000000E+00  0.00000000000E+00  0.15444240974E+04  0.15444240974E+04  0.25500000920E-02 0. -1.
       -2   -1    0    0    0  501  0.00000000000E+00  0.00000000000E+00 -0.64582572982E+03  0.64582572983E+03  0.25500000920E-02 0.  1.
    10030    2    1    2    0    0  0.00000000000E+00  0.00000000000E+00  0.89859836759E+03  0.21902498272E+04  0.19974271650E+04 0.  0.
        1    1    3    3  502    0  0.83854811728E+03  0.54241932359E+03  0.44176954864E+03  0.10920357145E+04  0.50400001928E-02 0.  1.
       -1    1    3    3    0  502 -0.83854811728E+03 -0.54241932359E+03  0.45682881895E+03  0.10982141128E+04  0.50400001928E-02 0. -1.
</event>
<event>
 5   0  0.1650221E-04  0.1976585E+04  0.7818609E-02  0.8617647E-01
        1   -1    0    0  501    0  0.00000000000E+00  0.00000000000E+00  0.64770536207E+03  0.64770536209E+03  0.50400001928E-02 0.  1.
       -1   -1    0    0    0  501  0.00000000000E+00  0.00000000000E+00 -0.15079724297E+04  0.15079724297E+04  0.50400001928E-02 0. -1.
    10030    2    1    2    0    0  0.00000000000E+00  0.00000000000E+00 -0.86026706767E+03  0.21556777918E+04  0.19765847603E+04 0.  0.
        1    1    3    3  502    0 -0.80093367335E+03 -0.43992316483E+03 -0.19603258563E+02  0.91400843970E+03  0.50400001928E-02 0.  1.
       -1    1    3    3    0  502  0.80093367335E+03  0.43992316483E+03 -0.84066380910E+03  0.12416693521E+04  0.50400001928E-02 0. -1.
</event>
<event>
 5   0  0.3460648E-04  0.2142198E+04  0.7818609E-02  0.8542879E-01
        2   -1    0    0  501    0  0.00000000000E+00  0.00000000000E+00  0.63023553492E+03  0.63023553493E+03  0.25500000920E-02 0.  1.
       -2   -1    0    0    0  501  0.00000000000E+00  0.00000000000E+00 -0.18203555535E+04  0.18203555535E+04  0.25500000920E-02 0. -1.
    10030    2    1    2    0    0  0.00000000000E+00  0.00000000000E+00 -0.11901200185E+04  0.24505910884E+04  0.21421977089E+04 0.  0.
        5    1    3    3  502    0 -0.26738635911E+03 -0.42078924279E+03 -0.16795156983E+04  0.17519572263E+04  0.46999998093E+01 0. -1.
       -5    1    3    3    0  502  0.26738635911E+03  0.42078924279E+03  0.48939567977E+03  0.69863386210E+03  0.46999998093E+01 0.  1.
</event>
<event>
 5   0  0.3395569E-04  0.1419121E+04  0.7818609E-02  0.8940093E-01
        2   -1    0    0  501    0  0.00000000000E+00  0.00000000000E+00  0.99284421944E+03  0.99284421945E+03  0.25500000920E-02 0.  1.
       -2   -1    0    0    0  501  0.00000000000E+00  0.00000000000E+00 -0.50710452290E+03  0.50710452291E+03  0.25500000920E-02 0. -1.
    10030    2    1    2    0    0  0.00000000000E+00  0.00000000000E+00  0.48573969654E+03  0.14999487424E+04  0.14191205646E+04 0.  0.
        4    1    3    3  502    0 -0.31326323726E+03  0.33721545015E+02 -0.42911114477E+03  0.53236170587E+03  0.12699999809E+01 0. -1.
       -4    1    3    3    0  502  0.31326323726E+03 -0.33721545015E+02  0.91485084131E+03  0.96758703648E+03  0.12699999809E+01 0.  1.
</event>
<event>
 5   0  0.3395569E-04  0.1235053E+04  0.7818609E-02  0.9082716E-01
       -2   -1    0    0    0  501  0.00000000000E+00  0.00000000000E+00  0.13779553987E+03  0.13779553990E+03  0.25500000920E-02 0.  1.
        2   -1    0    0  501    0  0.00000000000E+00  0.00000000000E+00 -0.27674250427E+04  0.27674250427E+04  0.25500000920E-02 0. -1.
    10030    2    1    2    0    0  0.00000000000E+00  0.00000000000E+00 -0.26296295028E+04  0.29052205826E+04  0.12350527565E+04 0.  0.
        4    1    3    3  502    0  0.15882749458E+03 -0.20330650470E+03  0.49467297913E+01  0.25804222701E+03  0.12699999809E+01 0.  1.
       -4    1    3    3    0  502 -0.15882749458E+03  0.20330650470E+03 -0.26345762326E+04  0.26471783556E+04  0.12699999809E+01 0. -1.
</event>
<event>
 5   0  0.1643565E-04  0.2028144E+04  0.7818609E-02  0.8593574E-01
       -1   -1    0    0    0  501  0.00000000000E+00  0.00000000000E+00  0.11112607424E+04  0.11112607424E+04  0.50400001928E-02 0.  1.
        1   -1    0    0  501    0  0.00000000000E+00  0.00000000000E+00 -0.92538349907E+03  0.92538349908E+03  0.50400001928E-02 0. -1.
    10030    2    1    2    0    0  0.00000000000E+00  0.00000000000E+00  0.18587724329E+03  0.20366442415E+04  0.20281443284E+04 0.  0.
        2    1    3    3  502    0 -0.32102664827E+03 -0.44760228505E+03 -0.76206170670E+03  0.94028929554E+03  0.25500000920E-02 0. -1.
       -2    1    3    3    0  502  0.32102664827E+03  0.44760228505E+03  0.94793895000E+03  0.10963549459E+04  0.25500000920E-02 0.  1.
</event>
<event>
 5   0  0.1708578E-04  0.1990690E+04  0.7818609E-02  0.8610986E-01
        1   -1    0    0  501    0  0.00000000000E+00  0.00000000000E+00  0.94398115142E+03  0.94398115144E+03  0.50400001928E-02 0. -1.
       -1   -1    0    0    0  501  0.00000000000E+00  0.00000000000E+00 -0.10495035833E+04  0.10495035834E+04  0.50400001928E-02 0.  1.
    10030    2    1    2    0    0  0.00000000000E+00  0.00000000000E+00 -0.10552243192E+03  0.19934847348E+04  0.19906899317E+04 0.  0.
        3    1    3    3  502    0  0.21043910879E+03 -0.90051200121E+03  0.31586577215E+03  0.97722959382E+03  0.10100000352E+00 0. -1.
       -3    1    3    3    0  502 -0.21043910879E+03  0.90051200121E+03 -0.42138820408E+03  0.10162551410E+04  0.10100000352E+00 0.  1.
</event>
<event>
 5   0  0.1664168E-04  0.2039256E+04  0.7818609E-02  0.8588484E-01
       -1   -1    0    0    0  501  0.00000000000E+00  0.00000000000E+00  0.86056471360E+03  0.86056471362E+03  0.50400001928E-02 0. -1.
        1   -1    0    0  501    0  0.00000000000E+00  0.00000000000E+00 -0.12080915825E+04  0.12080915825E+04  0.50400001928E-02 0.  1.
    10030    2    1    2    0    0  0.00000000000E+00  0.00000000000E+00 -0.34752686888E+03  0.20686562961E+04  0.20392557336E+04 0.  0.
        5    1    3    3  502    0  0.39743316456E+02 -0.55142639155E+02  0.85825282574E+03  0.86095310252E+03  0.46999998093E+01 0. -1.
       -5    1    3    3    0  502 -0.39743316456E+02  0.55142639155E+02 -0.12057796946E+04  0.12077031936E+04  0.46999998093E+01 0.  1.
</event>
<event>
 5   0  0.3395569E-04  0.1937847E+04  0.7818609E-02  0.8636243E-01
       -2   -1    0    0    0  501  0.00000000000E+00  0.00000000000E+00  0.54764854868E+03  0.54764854869E+03  0.25500000920E-02 0. -1.
        2   -1    0    0  501    0  0.00000000000E+00  0.00000000000E+00 -0.17142615272E+04  0.17142615272E+04  0.25500000920E-02 0.  1.
    10030    2    1    2    0    0  0.00000000000E+00  0.00000000000E+00 -0.11666129785E+04  0.22619100758E+04  0.19378470914E+04 0.  0.
        4    1    3    3  502    0  0.74481210489E+02 -0.69120409276E+03 -0.13710781304E+04  0.15372597051E+04  0.12699999809E+01 0.  1.
       -4    1    3    3    0  502 -0.74481210489E+02  0.69120409276E+03  0.20446515188E+03  0.72465037073E+03  0.12699999809E+01 0. -1.
</event>
<event>
 5   0  0.3460648E-04  0.2044968E+04  0.7818609E-02  0.8585881E-01
        2   -1    0    0  501    0  0.00000000000E+00  0.00000000000E+00  0.18478562526E+04  0.18478562526E+04  0.25500000920E-02 0. -1.
       -2   -1    0    0    0  501  0.00000000000E+00  0.00000000000E+00 -0.56577617295E+03  0.56577617296E+03  0.25500000920E-02 0.  1.
    10030    2    1    2    0    0  0.00000000000E+00  0.00000000000E+00  0.12820800796E+04  0.24136324255E+04  0.20449675193E+04 0.  0.
        5    1    3    3  502    0  0.96051017669E+03 -0.29352048436E+03  0.41487911587E+03  0.10866834153E+04  0.46999998093E+01 0.  1.
       -5    1    3    3    0  502 -0.96051017669E+03  0.29352048436E+03  0.86720096373E+03  0.13269490102E+04  0.46999998093E+01 0. -1.
</event>
<event>
 5   0  0.3387881E-04  0.2127010E+04  0.7818609E-02  0.8549438E-01
        2   -1    0    0  501    0  0.00000000000E+00  0.00000000000E+00  0.14353527395E+04  0.14353527395E+04  0.25500000920E-02 0. -1.
       -2   -1    0    0    0  501  0.00000000000E+00  0.00000000000E+00 -0.78798936027E+03  0.78798936027E+03  0.25500000920E-02 0.  1.
    10030    2    1    2    0    0  0.00000000000E+00  0.00000000000E+00  0.64736337922E+03  0.22233420998E+04  0.21270098138E+04 0.  0.
        1    1    3    3  502    0  0.84941279615E+02 -0.10599733699E+04  0.34130098569E+03  0.11168012037E+04  0.50400001928E-02 0. -1.
       -1    1    3    3    0  502 -0.84941279615E+02  0.10599733699E+04  0.30606239353E+03  0.11065408960E+04  0.50400001928E-02 0.  1.
</event>
<event>
 5   0  0.3387881E-04  0.1813843E+04  0.7818609E-02  0.8698972E-01
       -2   -1    0    0    0  501  0.00000000000E+00  0.00000000000E+00  0.53029284597E+03  0.53029284597E+03  0.25500000920E-02 0.  1.
        2   -1    0    0  501    0  0.00000000000E+00  0.00000000000E+00 -0.15510424918E+04  0.15510424918E+04  0.25500000920E-02 0. -1.
    10030    2    1    2    0    0  0.00000000000E+00  0.00000000000E+00 -0.10207496458E+04  0.20813353378E+04  0.18138431434E+04 0.  0.
        1    1    3    3  502    0  0.24427910650E+03  0.84541875834E+03 -0.76203934365E+03  0.11640915428E+04  0.50400001928E-02 0. -1.
       -1    1    3    3    0  502 -0.24427910650E+03 -0.84541875834E+03 -0.25871030217E+03  0.91724379491E+03  0.50400001928E-02 0.  1.
</event>
<event>
 5   0  0.1222488E-04  0.1844846E+04  0.7818609E-02  0.8682808E-01
       -3   -1    0    0    0  501  0.00000000000E+00  0.00000000000E+00  0.65854888684E+03  0.65854889459E+03  0.10100000352E+00 0. -1.
        3   -1    0    0  501    0  0.00000000000E+00  0.00000000000E+00 -0.12920291001E+04  0.12920291040E+04  0.10100000352E+00 0.  1.
    10030    2    1    2    0    0  0.00000000000E+00  0.00000000000E+00 -0.63348021323E+03  0.19505779986E+04  0.18448461584E+04 0.  0.
        4    1    3    3  502    0  0.75576646801E+03  0.52814857963E+03 -0.34547970229E+03  0.98462262514E+03  0.12699999809E+01 0. -1.
       -4    1    3    3    0  502 -0.75576646801E+03 -0.52814857963E+03 -0.28800051094E+03  0.96595537347E+03  0.12699999809E+01 0.  1.
</event>
<event>
 5   0  0.1222488E-04  0.1966998E+04  0.7818609E-02  0.8622208E-01
        3   -1    0    0  501    0  0.00000000000E+00  0.00000000000E+00  0.65100525980E+03  0.65100526764E+03  0.10100000352E+00 0.  1.
       -3   -1    0    0    0  501  0.00000000000E+00  0.00000000000E+00 -0.14858095609E+04  0.14858095643E+04  0.10100000352E+00 0. -1.
    10030    2    1    2    0    0  0.00000000000E+00  0.00000000000E+00 -0.83480430109E+03  0.21368148320E+04  0.19669975610E+04 0.  0.
        4    1    3    3  502    0  0.31314280190E+03  0.16444309173E+03 -0.14143272069E+04  0.14578830563E+04  0.12699999809E+01 0. -1.
       -4    1    3    3    0  502 -0.31314280190E+03 -0.16444309173E+03  0.57952290578E+03  0.67893177568E+03  0.12699999809E+01 0.  1.
</event>
<event>
 5   0  0.3395569E-04  0.2047806E+04  0.7818609E-02  0.8584590E-01
        2   -1    0    0  501    0  0.00000000000E+00  0.00000000000E+00  0.82847811562E+03  0.82847811562E+03  0.25500000920E-02 0.  1.
       -2   -1    0    0    0  501  0.00000000000E+00  0.00000000000E+00 -0.12654259330E+04  0.12654259330E+04  0.25500000920E-02 0. -1.
    10030    2    1    2    0    0  0.00000000000E+00  0.00000000000E+00 -0.43694781738E+03  0.20939040486E+04  0.20478063311E+04 0.  0.
        4    1    3    3  502    0 -0.35238489652E+03  0.15369638434E+03  0.75187663829E+03  0.84446301634E+03  0.12699999809E+01 0.  1.
       -4    1    3    3    0  502  0.35238489652E+03 -0.15369638434E+03 -0.11888244557E+04  0.12494410323E+04  0.12699999809E+01 0. -1.
</event>
<event>
 5   0  0.1696052E-04  0.2091670E+04  0.7818609E-02  0.8564922E-01
        1   -1    0    0  501    0  0.00000000000E+00  0.00000000000E+00  0.76019058877E+03  0.76019058879E+03  0.50400001928E-02 0. -1.
       -1   -1    0    0    0  501  0.00000000000E+00  0.00000000000E+00 -0.14388106870E+04  0.14388106870E+04  0.50400001928E-02 0.  1.
    10030    2    1    2    0    0  0.00000000000E+00  0.00000000000E+00 -0.67862009822E+03  0.21990012758E+04  0.20916695182E+04 0.  0.
        4    1    3    3  502    0 -0.21731098192E+03  0.56397129580E+03 -0.12366180534E+04  0.13764132767E+04  0.12699999809E+01 0.  1.
       -4    1    3    3    0  502  0.21731098192E+03 -0.56397129580E+03  0.55799795520E+03  0.82258799909E+03  0.12699999809E+01 0. -1.
</event>
<event>
 5   0  0.3395569E-04  0.2701460E+04  0.7818609E-02  0.8334532E-01
       -2   -1    0    0    0  501  0.00000000000E+00  0.00000000000E+00  0.18938857442E+04  0.18938857442E+04  0.25500000920E-02 0.  1.
        2   -1    0    0  501    0  0.00000000000E+00  0.00000000000E+00 -0.96334796333E+03  0.96334796333E+03  0.25500000920E-02 0. -1.
    10030    2    1    2    0    0  0.00000000000E+00  0.00000000000E+00  0.93053778082E+03  0.28572337075E+04  0.27014595865E+04 0.  0.
        4    1    3    3  502    0 -0.18917443162E+03  0.11477885452E+04 -0.26080254961E+03  0.11921514555E+04  0.12699999809E+01 0. -1.
       -4    1    3    3    0  502  0.18917443162E+03 -0.11477885452E+04  0.11913403304E+04  0.16650822520E+04  0.12699999809E+01 0.  1.
</event>
<event>
 5   0  0.1708578E-04  0.2016313E+04  0.7818609E-02  0.8599032E-01
       -1   -1    0    0    0  501  0.00000000000E+00  0.00000000000E+00  0.46387466662E+03  0.46387466665E+03  0.50400001928E-02 0.  1.
        1   -1    0    0  501    0  0.00000000000E+00  0.00000000000E+00 -0.21910643442E+04  0.21910643442E+04  0.50400001928E-02 0. -1.
    10030    2    1    2    0    0  0.00000000000E+00  0.00000000000E+00 -0.17271896776E+04  0.26549390109E+04  0.20163127161E+04 0.  0.
        3    1    3    3  502    0  0.80920138167E+03  0.11796899274E+03 -0.16399694414E+04  0.18325455897E+04  0.10100000352E+00 0. -1.
       -3    1    3    3    0  502 -0.80920138167E+03 -0.11796899274E+03 -0.87220236156E+02  0.82239342115E+03  0.10100000352E+00 0.  1.
</event>
<event>
 5   0  0.1696052E-04  0.1968156E+04  0.7818609E-02  0.8621655E-01
        1   -1    0    0  501    0  0.00000000000E+00  0.00000000000E+00  0.80298606677E+03  0.80298606679E+03  0.50400001928E-02 0. -1.
       -1   -1    0    0    0  501  0.00000000000E+00  0.00000000000E+00 -0.12060102190E+04  0.12060102190E+04  0.50400001928E-02 0.  1.
    10030    2    1    2    0    0  0.00000000000E+00  0.00000000000E+00 -0.40302415224E+03  0.20089962858E+04  0.19681558905E+04 0.  0.
        4    1    3    3  502    0  0.91740018855E+03 -0.34266296533E+03 -0.10272168657E+03  0.98467983200E+03  0.12699999809E+01 0.  1.
       -4    1    3    3    0  502 -0.91740018855E+03  0.34266296533E+03 -0.30030246567E+03  0.10243164538E+04  0.12699999809E+01 0. -1.
</event>
<event>
 5   0  0.1643565E-04  0.2007932E+04  0.7818609E-02  0.8602921E-01
       -1   -1    0    0    0  501  0.00000000000E+00  0.00000000000E+00  0.97169437727E+03  0.97169437728E+03  0.50400001928E-02 0. -1.
        1   -1    0    0  501    0  0.00000000000E+00  0.00000000000E+00 -0.10373089953E+04  0.10373089953E+04  0.50400001928E-02 0.  1.
    10030    2    1    2    0    0  0.00000000000E+00  0.00000000000E+00 -0.65614618002E+02  0.20090033726E+04  0.20079315907E+04 0.  0.
        2    1    3    3  502    0  0.59151700614E+03 -0.31982971263E+03 -0.77870097950E+03  0.10288627844E+04  0.25500000920E-02 0.  1.
       -2    1    3    3    0  502 -0.59151700614E+03  0.31982971263E+03  0.71308636149E+03  0.98014058818E+03  0.25500000920E-02 0. -1.
</event>
<event>
 5   0  0.3387881E-04  0.1990052E+04  0.7818609E-02  0.8611286E-01
        2   -1    0    0  501    0  0.00000000000E+00  0.00000000000E+00  0.20652981015E+04  0.20652981015E+04  0.25500000920E-02 0. -1.
       -2   -1    0    0    0  501  0.00000000000E+00  0.00000000000E+00 -0.47938670437E+03  0.47938670438E+03  0.25500000920E-02 0.  1.
    10030    2    1    2    0    0  0.00000000000E+00  0.00000000000E+00  0.15859113971E+04  0.25446848059E+04  0.19900517083E+04 0.  0.
        1    1    3    3  502    0 -0.21128448669E+03 -0.97023287840E+03  0.71124390694E+03  0.12214175649E+04  0.50400001928E-02 0.  1.
       -1    1    3    3    0  502  0.21128448669E+03  0.97023287840E+03  0.87466749016E+03  0.13232672410E+04  0.50400001928E-02 0. -1.
</event>
<event>
 5   0  0.1650221E-04  0.2022146E+04  0.7818609E-02  0.8596336E-01
       -1   -1    0    0    0  501  0.00000000000E+00  0.00000000000E+00  0.49676358474E+03  0.49676358476E+03  0.50400001928E-02 0. -1.
        1   -1    0    0  501    0  0.00000000000E+00  0.00000000000E+00 -0.20578570573E+04  0.20578570573E+04  0.50400001928E-02 0.  1.
    10030    2    1    2    0    0  0.00000000000E+00  0.00000000000E+00 -0.15610934726E+04  0.25546206421E+04  0.20221458392E+04 0.  0.
        1    1    3    3  502    0 -0.51303277838E+03 -0.85189111797E+03 -0.10112451150E+04  0.14182869213E+04  0.50400001928E-02 0.  1.
       -1    1    3    3    0  502  0.51303277838E+03  0.85189111797E+03 -0.54984835755E+03  0.11363337207E+04  0.50400001928E-02 0. -1.
</event>
<event>
 5   0  0.3387881E-04  0.1619991E+04  0.7818609E-02  0.8808360E-01
       -2   -1    0    0    0  501  0.00000000000E+00  0.00000000000E+00  0.40135919688E+03  0.40135919688E+03  0.25500000920E-02 0.  1.
        2   -1    0    0  501    0  0.00000000000E+00  0.00000000000E+00 -0.16346764901E+04  0.16346764901E+04  0.25500000920E-02 0. -1.
    10030    2    1    2    0    0  0.00000000000E+00  0.00000000000E+00 -0.12333172932E+04  0.20360356869E+04  0.16199906706E+04 0.  0.
        1    1    3    3  502    0  0.65164977967E+03 -0.17320167405E+03 -0.11807538400E+04  0.13597153694E+04  0.50400001928E-02 0. -1.
       -1    1    3    3    0  502 -0.65164977967E+03  0.17320167405E+03 -0.52563453205E+02  0.67632031751E+03  0.50400001928E-02 0.  1.
</event>
<event>
 5   0  0.3371947E-04  0.2001949E+04  0.7818609E-02  0.8605710E-01
        2   -1    0    0  501    0  0.00000000000E+00  0.00000000000E+00  0.75009312285E+03  0.75009312285E+03  0.25500000920E-02 0. -1.
       -2   -1    0    0    0  501  0.00000000000E+00  0.00000000000E+00 -0.13357669917E+04  0.13357669917E+04  0.25500000920E-02 0.  1.
    10030    2    1    2    0    0  0.00000000000E+00  0.00000000000E+00 -0.58567386883E+03  0.20858601145E+04  0.20019486849E+04 0.  0.
        2    1    3    3  502    0  0.92412518099E+03 -0.25524040242E+02 -0.69270807360E+03  0.11552070386E+04  0.25500000920E-02 0.  1.
       -2    1    3    3    0  502 -0.92412518099E+03  0.25524040242E+02  0.10703420477E+03  0.93065307595E+03  0.25500000920E-02 0. -1.
</event>
<event>
 5   0  0.3395569E-04  0.1941305E+04  0.7818609E-02  0.8634565E-01
       -2   -1    0    0    0  501  0.00000000000E+00  0.00000000000E+00  0.78837802007E+03  0.78837802008E+03  0.25500000920E-02 0. -1.
        2   -1    0    0  501    0  0.00000000000E+00  0.00000000000E+00 -0.11950688159E+04  0.11950688159E+04  0.25500000920E-02 0.  1.
    10030    2    1    2    0    0  0.00000000000E+00  0.00000000000E+00 -0.40669079587E+03  0.19834468360E+04  0.19413047025E+04 0.  0.
        4    1    3    3  502    0 -0.18699391457E+03 -0.72666475422E+03  0.42577796818E+03  0.86272642257E+03  0.12699999809E+01 0. -1.
       -4    1    3    3    0  502  0.18699391457E+03  0.72666475422E+03 -0.83246876405E+03  0.11207204135E+04  0.12699999809E+01 0.  1.
</event>
<event>
 5   0  0.1696052E-04  0.1632248E+04  0.7818609E-02  0.8800978E-01
        1   -1    0    0  501    0  0.00000000000E+00  0.00000000000E+00  0.22843403611E+04  0.22843403611E+04  0.50400001928E-02 0.  1.
       -1   -1    0    0    0  501  0.00000000000E+00  0.00000000000E+00 -0.29157567540E+03  0.29157567544E+03  0.50400001928E-02 0. -1.
    10030    2    1    2    0    0  0.00000000000E+00  0.00000000000E+00  0.19927646857E+04  0.25759160366E+04  0.16322476328E+04 0.  0.
        4    1    3    3  502    0 -0.68951986135E+03  0.37389001476E+03  0.13521649613E+04  0.15631964297E+04  0.12699999809E+01 0. -1.
       -4    1    3    3    0  502  0.68951986135E+03 -0.37389001476E+03  0.64059972445E+03  0.10127196069E+04  0.12699999809E+01 0.  1.
</event>
<event>
 5   0  0.1650221E-04  0.2132667E+04  0.7818609E-02  0.8546988E-01
       -1   -1    0    0    0  501  0.00000000000E+00  0.00000000000E+00  0.11020519984E+04  0.11020519984E+04  0.50400001928E-02 0. -1.
        1   -1    0    0  501    0  0.00000000000E+00  0.00000000000E+00 -0.10317725026E+04  0.10317725026E+04  0.50400001928E-02 0.  1.
    10030    2    1    2    0    0  0.00000000000E+00  0.00000000000E+00  0.70279495844E+02  0.21338245010E+04  0.21326668267E+04 0.  0.
        1    1    3    3  502    0  0.10594822144E+04  0.11848768269E+03  0.12213234428E+02  0.10661571445E+04  0.50400001928E-02 0.  1.
       -1    1    3    3    0  502 -0.10594822144E+04 -0.11848768269E+03  0.58066261417E+02  0.10676673566E+04  0.50400001928E-02 0. -1.
</event>
<event>
 5   0  0.3395569E-04  0.2011544E+04  0.7818609E-02  0.8601242E-01
        2   -1    0    0  501    0  0.00000000000E+00  0.00000000000E+00  0.12062719672E+04  0.12062719672E+04  0.25500000920E-02 0.  1.
       -2   -1    0    0    0  501  0.00000000000E+00  0.00000000000E+00 -0.83859798609E+03  0.83859798609E+03  0.25500000920E-02 0. -1.
    10030    2    1    2    0    0  0.00000000000E+00  0.00000000000E+00  0.36767398113E+03  0.20448699533E+04  0.20115439268E+04 0.  0.
        4    1    3    3  502    0 -0.12053728797E+03 -0.43451244839E+03 -0.73008215010E+03  0.85810947110E+03  0.12699999809E+01 0. -1.
       -4    1    3    3    0  502  0.12053728797E+03  0.43451244839E+03  0.10977561312E+04  0.11867604822E+04  0.12699999809E+01 0.  1.
</event>
<event>
 5   0  0.3460648E-04  0.1811544E+04  0.7818609E-02  0.8700184E-01
       -2   -1    0    0    0  501  0.00000000000E+00  0.00000000000E+00  0.42897372430E+03  0.42897372431E+03  0.25500000920E-02 0.  1.
        2   -1    0    0  501    0  0.00000000000E+00  0.00000000000E+00 -0.19125257172E+04  0.19125257172E+04  0.25500000920E-02 0. -1.
    10030    2    1    2    0    0  0.00000000000E+00  0.00000000000E+00 -0.14835519929E+04  0.23414994415E+04  0.18115444016E+04 0.  0.
        5    1    3    3  502    0 -0.10789129865E+03 -0.35326447503E+02  0.41972545237E+03  0.43483334231E+03  0.46999998093E+01 0.  1.
       -5    1    3    3    0  502  0.10789129865E+03  0.35326447503E+02 -0.19032774452E+04  0.19066660992E+04  0.46999998093E+01 0. -1.
</event>
<event>
 5   0  0.1643565E-04  0.1985846E+04  0.7818609E-02  0.8613267E-01
       -1   -1    0    0    0  501  0.00000000000E+00  0.00000000000E+00  0.73885748123E+03  0.73885748124E+03  0.50400001928E-02 0. -1.
        1   -1    0    0  501    0  0.00000000000E+00  0.00000000000E+00 -0.13343516032E+04  0.13343516032E+04  0.50400001928E-02 0.  1.
    10030    2    1    2    0    0  0.00000000000E+00  0.00000000000E+00 -0.59549412200E+03  0.20732090845E+04  0.19858455777E+04 0.  0.
        2    1    3    3  502    0  0.81635529387E+03  0.23321063474E+03  0.23975479107E+03  0.88221625798E+03  0.25500000920E-02 0. -1.
       -2    1    3    3    0  502 -0.81635529387E+03 -0.23321063474E+03 -0.83524891307E+03  0.11909928265E+04  0.25500000920E-02 0.  1.
</event>
<event>
 5   0  0.1708578E-04  0.1982345E+04  0.7818609E-02  0.8614920E-01
       -1   -1    0    0    0  501  0.00000000000E+00  0.00000000000E+00  0.63542424056E+03  0.63542424058E+03  0.50400001928E-02 0. -1.
        1   -1    0    0  501    0  0.00000000000E+00  0.00000000000E+00 -0.15460898863E+04  0.15460898863E+04  0.50400001928E-02 0.  1.
    10030    2    1    2    0    0  0.00000000000E+00  0.00000000000E+00 -0.91066564575E+03  0.21815141269E+04  0.19823450677E+04 0.  0.
        3    1    3    3  502    0  0.16539653940E+03  0.96272967398E+03 -0.64019414510E+03  0.11679267931E+04  0.10100000352E+00 0.  1.
       -3    1    3    3    0  502 -0.16539653940E+03 -0.96272967398E+03 -0.27047150065E+03  0.10135873338E+04  0.10100000352E+00 0. -1.
</event>
<event>
 5   0  0.3371947E-04  0.1995054E+04  0.7818609E-02  0.8608936E-01
       -2   -1    0    0    0  501  0.00000000000E+00  0.00000000000E+00  0.52533042402E+03  0.52533042403E+03  0.25500000920E-02 0. -1.
        2   -1    0    0  501    0  0.00000000000E+00  0.00000000000E+00 -0.18941608204E+04  0.18941608204E+04  0.25500000920E-02 0.  1.
    10030    2    1    2    0    0  0.00000000000E+00  0.00000000000E+00 -0.13688303964E+04  0.24194912445E+04  0.19950541917E+04 0.  0.
        2    1    3    3  502    0  0.60144264049E+03  0.62910655161E+03 -0.93331874045E+02  0.87533944376E+03  0.25500000920E-02 0. -1.
       -2    1    3    3    0  502 -0.60144264049E+03 -0.62910655161E+03 -0.12754985224E+04  0.15441518007E+04  0.25500000920E-02 0.  1.
</event>
<event>
 5   0  0.3395569E-04  0.1981470E+04  0.7818609E-02  0.8615333E-01
       -2   -1    0    0    0  501  0.00000000000E+00  0.00000000000E+00  0.52108430753E+03  0.52108430754E+03  0.25500000920E-02 0. -1.
        2   -1    0    0  501    0  0.00000000000E+00  0.00000000000E+00 -0.18836802229E+04  0.18836802229E+04  0.25500000920E-02 0.  1.
    10030    2    1    2    0    0  0.00000000000E+00  0.00000000000E+00 -0.13625959154E+04  0.24047645304E+04  0.19814703678E+04 0.  0.
        4    1    3    3  502    0 -0.21212826271E+03 -0.51448784465E+03  0.31347476307E+03  0.63872073875E+03  0.12699999809E+01 0. -1.
       -4    1    3    3    0  502  0.21212826271E+03  0.51448784465E+03 -0.16760706784E+04  0.17660437917E+04  0.12699999809E+01 0.  1.
</event>
<event>
 5   0  0.1650221E-04  0.1246329E+04  0.7818609E-02  0.9073244E-01
       -1   -1    0    0    0  501  0.00000000000E+00  0.00000000000E+00  0.65645084565E+03  0.65645084567E+03  0.50400001928E-02 0. -1.
        1   -1    0    0  501    0  0.00000000000E+00  0.00000000000E+00 -0.59156585047E+03  0.59156585049E+03  0.50400001928E-02 0.  1.
    10030    2    1    2    0    0  0.00000000000E+00  0.00000000000E+00  0.64884995180E+02  0.12480166962E+04  0.12463288536E+04 0.  0.
        1    1    3    3  502    0  0.30422840021E+03  0.24322119689E+01 -0.51214423771E+03  0.59569501878E+03  0.50400001928E-02 0.  1.
       -1    1    3    3    0  502 -0.30422840021E+03 -0.24322119689E+01  0.57702923289E+03  0.65232167738E+03  0.50400001928E-02 0. -1.
</event>
<event>
 5   0  0.1650221E-04  0.1979577E+04  0.7818609E-02  0.8616229E-01
        1   -1    0    0  501    0  0.00000000000E+00  0.00000000000E+00  0.12165214883E+04  0.12165214883E+04  0.50400001928E-02 0. -1.
       -1   -1    0    0    0  501  0.00000000000E+00  0.00000000000E+00 -0.80531325339E+03  0.80531325340E+03  0.50400001928E-02 0.  1.
    10030    2    1    2    0    0  0.00000000000E+00  0.00000000000E+00  0.41120823495E+03  0.20218347417E+04  0.19795765988E+04 0.  0.
        1    1    3    3  502    0 -0.18894784705E+03 -0.94754828772E+03  0.42497232691E+03  0.10555332894E+04  0.50400001928E-02 0. -1.
       -1    1    3    3    0  502  0.18894784705E+03  0.94754828772E+03 -0.13764091958E+02  0.96630145230E+03  0.50400001928E-02 0.  1.
</event>
<event>
 5   0  0.3431030E-04  0.1988612E+04  0.7818609E-02  0.8611964E-01
        2   -1    0    0  501    0  0.00000000000E+00  0.00000000000E+00  0.13866588651E+04  0.13866588651E+04  0.25500000920E-02 0. -1.
       -2   -1    0    0    0  501  0.00000000000E+00  0.00000000000E+00 -0.71296871283E+03  0.71296871284E+03  0.25500000920E-02 0.  1.
    10030    2    1    2    0    0  0.00000000000E+00  0.00000000000E+00  0.67369015222E+03  0.20996275779E+04  0.19886119643E+04 0.  0.
        3    1    3    3  502    0  0.44113939474E+03  0.29015599709E+03  0.12264055665E+04  0.13352397133E+04  0.10100000352E+00 0. -1.
       -3    1    3    3    0  502 -0.44113939474E+03 -0.29015599709E+03 -0.55271541424E+03  0.76438786462E+03  0.10100000352E+00 0.  1.
</event>
<event>
 5   0  0.1696052E-04  0.1984517E+04  0.7818609E-02  0.8613894E-01
       -1   -1    0    0    0  501  0.00000000000E+00  0.00000000000E+00  0.20325080797E+04  0.20325080797E+04  0.50400001928E-02 0.  1.
        1   -1    0    0  501    0  0.00000000000E+00  0.00000000000E+00 -0.48441454786E+03  0.48441454789E+03  0.50400001928E-02 0. -1.
    10030    2    1    2    0    0  0.00000000000E+00  0.00000000000E+00  0.15480935319E+04  0.25169226276E+04  0.19845165482E+04 0.  0.
        4    1    3    3  502    0  0.33416894071E+03 -0.34206806165E+03 -0.32862435444E+03  0.58023703688E+03  0.12699999809E+01 0. -1.
       -4    1    3    3    0  502 -0.33416894071E+03  0.34206806165E+03  0.18767178863E+04  0.19366855907E+04  0.12699999809E+01 0.  1.
</event>
<event>
 5   0  0.1650221E-04  0.1824463E+04  0.7818609E-02  0.8693397E-01
       -1   -1    0    0    0  501  0.00000000000E+00  0.00000000000E+00  0.63982929224E+03  0.63982929226E+03  0.50400001928E-02 0.  1.
        1   -1    0    0  501    0  0.00000000000E+00  0.00000000000E+00 -0.13006067800E+04  0.13006067800E+04  0.50400001928E-02 0. -1.
    10030    2    1    2    0    0  0.00000000000E+00  0.00000000000E+00 -0.66077748778E+03  0.19404360723E+04  0.18244630066E+04 0.  0.
        1    1    3    3  502    0  0.49381425869E+03 -0.39609105561E+03 -0.10289705461E+04  0.12081063824E+04  0.50400001928E-02 0. -1.
       -1    1    3    3    0  502 -0.49381425869E+03  0.39609105561E+03  0.36819305835E+03  0.73232968987E+03  0.50400001928E-02 0.  1.
</event>
<event>
 5   0  0.1650221E-04  0.2174428E+04  0.7818609E-02  0.8529148E-01
        1   -1    0    0  501    0  0.00000000000E+00  0.00000000000E+00  0.92568121958E+03  0.92568121959E+03  0.50400001928E-02 0.  1.
       -1   -1    0    0    0  501  0.00000000000E+00  0.00000000000E+00 -0.12769340008E+04  0.12769340008E+04  0.50400001928E-02 0. -1.
    10030    2    1    2    0    0  0.00000000000E+00  0.00000000000E+00 -0.35125278118E+03  0.22026152204E+04  0.21744275782E+04 0.  0.
        1    1    3    3  502    0 -0.32389912130E+03 -0.10215479280E+04 -0.36120339501E+03  0.11309017210E+04  0.50400001928E-02 0. -1.
       -1    1    3    3    0  502  0.32389912130E+03  0.10215479280E+04  0.99506138263E+01  0.10717134994E+04  0.50400001928E-02 0.  1.
</event>
<event>
 5   0  0.1708578E-04  0.9974598E+03  0.7818609E-02  0.9311335E-01
        1   -1    0    0  501    0  0.00000000000E+00  0.00000000000E+00  0.79504681264E+03  0.79504681266E+03  0.50400001928E-02 0.  1.
       -1   -1    0    0    0  501  0.00000000000E+00  0.00000000000E+00 -0.31285141481E+03  0.31285141485E+03  0.50400001928E-02 0. -1.
    10030    2    1    2    0    0  0.00000000000E+00  0.00000000000E+00  0.48219539783E+03  0.11078982275E+04  0.99745981415E+03 0.  0.
        3    1    3    3  502    0 -0.47482868596E+03 -0.90319013580E+02  0.10455729281E+03  0.49452203480E+03  0.10100000352E+00 0. -1.
       -3    1    3    3    0  502  0.47482868596E+03  0.90319013580E+02  0.37763810502E+03  0.61337619271E+03  0.10100000352E+00 0.  1.
</event>
<event>
 5   0  0.3460648E-04  0.1814351E+04  0.7818609E-02  0.8698705E-01
        2   -1    0    0  501    0  0.00000000000E+00  0.00000000000E+00  0.11675028727E+04  0.11675028727E+04  0.25500000920E-02 0. -1.
       -2   -1    0    0    0  501  0.00000000000E+00  0.00000000000E+00 -0.70489530331E+03  0.70489530332E+03  0.25500000920E-02 0.  1.
    10030    2    1    2    0    0  0.00000000000E+00  0.00000000000E+00  0.46260756944E+03  0.18723981761E+04  0.18143508940E+04 0.  0.
        5    1    3    3  502    0  0.75646248913E+03  0.30637270472E+03  0.64001157547E+03  0.10371772454E+04  0.46999998093E+01 0. -1.
       -5    1    3    3    0  502 -0.75646248913E+03 -0.30637270472E+03 -0.17740400603E+03  0.83522093066E+03  0.46999998093E+01 0.  1.
</event>
<event>
 5   0  0.1696052E-04  0.2009808E+04  0.7818609E-02  0.8602049E-01
        1   -1    0    0  501    0  0.00000000000E+00  0.00000000000E+00  0.94318940179E+03  0.94318940181E+03  0.50400001928E-02 0.  1.
       -1   -1    0    0    0  501  0.00000000000E+00  0.00000000000E+00 -0.10706564054E+04  0.10706564054E+04  0.50400001928E-02 0. -1.
    10030    2    1    2    0    0  0.00000000000E+00  0.00000000000E+00 -0.12746700357E+03  0.20138458072E+04  0.20098077266E+04 0.  0.
        4    1    3    3  502    0 -0.16821079994E+03  0.86509417999E+03 -0.54755698488E+03  0.10375466631E+04  0.12699999809E+01 0. -1.
       -4    1    3    3    0  502  0.16821079994E+03 -0.86509417999E+03  0.42008998131E+03  0.97629914410E+03  0.12699999809E+01 0.  1.
</event>
<event>
 5   0  0.1650221E-04  0.2022121E+04  0.7818609E-02  0.8596348E-01
       -1   -1    0    0    0  501  0.00000000000E+00  0.00000000000E+00  0.69368393361E+03  0.69368393363E+03  0.50400001928E-02 0.  1.
        1   -1    0    0  501    0  0.00000000000E+00  0.00000000000E+00 -0.14736444595E+04  0.14736444595E+04  0.50400001928E-02 0. -1.
    10030    2    1    2    0    0  0.00000000000E+00  0.00000000000E+00 -0.77996052590E+03  0.21673283932E+04  0.20221211491E+04 0.  0.
        1    1    3    3  502    0  0.57498945538E+03 -0.83145116721E+03 -0.40914043089E+03  0.10905594021E+04  0.50400001928E-02 0.  1.
       -1    1    3    3    0  502 -0.57498945538E+03  0.83145116721E+03 -0.37082009501E+03  0.10767689911E+04  0.50400001928E-02 0. -1.
</event>
<event>
 5   0  0.1650221E-04  0.1866314E+04  0.7818609E-02  0.8671808E-01
       -1   -1    0    0    0  501  0.00000000000E+00  0.00000000000E+00  0.36195739250E+03  0.36195739254E+03  0.50400001928E-02 0.  1.
        1   -1    0    0  501    0  0.00000000000E+00  0.00000000000E+00 -0.24057585897E+04  0.24057585897E+04  0.50400001928E-02 0. -1.
    10030    2    1    2    0    0  0.00000000000E+00  0.00000000000E+00 -0.20438011972E+04  0.27677159823E+04  0.18663141281E+04 0.  0.
        1    1    3    3  502    0  0.29656935348E+03 -0.66921900211E+03 -0.16359340947E+03  0.75004683711E+03  0.50400001928E-02 0.  1.
       -1    1    3    3    0  502 -0.29656935348E+03  0.66921900211E+03 -0.18802077878E+04  0.20176691452E+04  0.50400001928E-02 0. -1.
</event>
<event>
 5   0  0.3460648E-04  0.1981790E+04  0.7818609E-02  0.8615182E-01
        2   -1    0    0  501    0  0.00000000000E+00  0.00000000000E+00  0.10397235016E+04  0.10397235016E+04  0.25500000920E-02 0.  1.
       -2   -1    0    0    0  501  0.00000000000E+00  0.00000000000E+00 -0.94435974039E+03  0.94435974039E+03  0.25500000920E-02 0. -1.
    10030    2    1    2    0    0  0.00000000000E+00  0.00000000000E+00  0.95363761208E+02  0.19840832420E+04  0.19817901161E+04 0.  0.
        5    1    3    3  502    0  0.17537081986E+02  0.16209356210E+03  0.10261914683E+04  0.10390730926E+04  0.46999998093E+01 0.  1.
       -5    1    3    3    0  502 -0.17537081986E+02 -0.16209356210E+03 -0.93082770711E+03  0.94501014939E+03  0.46999998093E+01 0. -1.
</event>
<event>
 5   0  0.3395569E-04  0.1865083E+04  0.7818609E-02  0.8672435E-01
       -2   -1    0    0    0  501  0.00000000000E+00  0.00000000000E+00  0.52924416508E+03  0.52924416508E+03  0.25500000920E-02 0. -1.
        2   -1    0    0  501    0  0.00000000000E+00  0.00000000000E+00 -0.16431619750E+04  0.16431619750E+04  0.25500000920E-02 0.  1.
    10030    2    1    2    0    0  0.00000000000E+00  0.00000000000E+00 -0.11139178099E+04  0.21724061400E+04  0.18650832555E+04 0.  0.
        4    1    3    3  502    0 -0.27930577008E+03  0.39110732125E+03 -0.14878013306E+04  0.15634996202E+04  0.12699999809E+01 0.  1.
       -4    1    3    3    0  502  0.27930577008E+03 -0.39110732125E+03  0.37388352076E+03  0.60890651986E+03  0.12699999809E+01 0. -1.
</event>
<event>
 5   0  0.1664168E-04  0.1965753E+04  0.7818609E-02  0.8622802E-01
        1   -1    0    0  501    0  0.00000000000E+00  0.00000000000E+00  0.16736992443E+04  0.16736992443E+04  0.50400001928E-02 0. -1.
       -1   -1    0    0    0  501  0.00000000000E+00  0.00000000000E+00 -0.57719219455E+03  0.57719219457E+03  0.50400001928E-02 0.  1.
    10030    2    1    2    0    0  0.00000000000E+00  0.00000000000E+00  0.10965070498E+04  0.22508914389E+04  0.19657529243E+04 0.  0.
        5    1    3    3  502    0  0.61784654785E+03  0.71268772035E+03  0.23182518373E+03  0.97129972163E+03  0.46999998093E+01 0. -1.
       -5    1    3    3    0  502 -0.61784654785E+03 -0.71268772035E+03  0.86468186603E+03  0.12795917173E+04  0.46999998093E+01 0.  1.
</event>
<event>
 5   0  0.3395569E-04  0.1992056E+04  0.7818609E-02  0.8610344E-01
       -2   -1    0    0    0  501  0.00000000000E+00  0.00000000000E+00  0.56837272323E+03  0.56837272323E+03  0.25500000920E-02 0. -1.
        2   -1    0    0  501    0  0.00000000000E+00  0.00000000000E+00 -0.17454602760E+04  0.17454602760E+04  0.25500000920E-02 0.  1.
    10030    2    1    2    0    0  0.00000000000E+00  0.00000000000E+00 -0.11770875527E+04  0.23138329992E+04  0.19920562345E+04 0.  0.
        4    1    3    3  502    0 -0.13862781942E+03 -0.98545248846E+03 -0.63694095575E+03  0.11815369962E+04  0.12699999809E+01 0. -1.
       -4    1    3    3    0  502  0.13862781942E+03  0.98545248846E+03 -0.54014659699E+03  0.11322960030E+04  0.12699999809E+01 0.  1.
</event>
<event>
 5   0  0.1708578E-04  0.1960618E+04  0.7818609E-02  0.8625257E-01
        1   -1    0    0  501    0  0.00000000000E+00  0.00000000000E+00  0.14197772943E+04  0.14197772943E+04  0.50400001928E-02 0. -1.
       -1   -1    0    0    0  501  0.00000000000E+00  0.00000000000E+00 -0.67687108360E+03  0.67687108362E+03  0.50400001928E-02 0.  1.
    10030    2    1    2    0    0  0.00000000000E+00  0.00000000000E+00  0.74290621067E+03  0.20966483779E+04  0.19606184694E+04 0.  0.
        3    1    3    3  502    0  0.49401262106E+03  0.78409583969E+03  0.71323947411E+03  0.11694294819E+04  0.10100000352E+00 0. -1.
       -3    1    3    3    0  502 -0.49401262106E+03 -0.78409583969E+03  0.29666736561E+02  0.92721889597E+03  0.10100000352E+00 0.  1.
</event>
<event>
 5   0  0.3371947E-04  0.2200339E+04  0.7818609E-02  0.8518287E-01
       -2   -1    0    0    0  501  0.00000000000E+00  0.00000000000E+00  0.12151102040E+04  0.12151102040E+04  0.25500000920E-02 0.  1.
        2   -1    0    0  501    0  0.00000000000E+00  0.00000000000E+00 -0.99610095267E+03  0.99610095267E+03  0.25500000920E-02 0. -1.
    10030    2    1    2    0    0  0.00000000000E+00  0.00000000000E+00  0.21900925130E+03  0.22112111566E+04  0.22003385483E+04 0.  0.
        2    1    3    3  502    0  0.70830075180E+03 -0.84156573497E+03  0.13081294852E+03  0.11077160596E+04  0.25500000920E-02 0.  1.
       -2    1    3    3    0  502 -0.70830075180E+03  0.84156573497E+03  0.88196302780E+02  0.11034950970E+04  0.25500000920E-02 0. -1.
</event>
<event>
 5   0  0.3387881E-04  0.1958281E+04  0.7818609E-02  0.8626378E-01
       -2   -1    0    0    0  501  0.00000000000E+00  0.00000000000E+00  0.95648425890E+03  0.95648425890E+03  0.25500000920E-02 0.  1.
        2   -1    0    0  501    0  0.00000000000E+00  0.00000000000E+00 -0.10023332514E+04  0.10023332514E+04  0.25500000920E-02 0. -1.
    10030    2    1    2    0    0  0.00000000000E+00  0.00000000000E+00 -0.45848992469E+02  0.19588175103E+04  0.19582808553E+04 0.  0.
        1    1    3    3  502    0  0.57056849531E+03 -0.46360870571E+02 -0.81750875212E+03  0.99800716329E+03  0.50400001928E-02 0. -1.
       -1    1    3    3    0  502 -0.57056849531E+03  0.46360870571E+02  0.77165975965E+03  0.96081034698E+03  0.50400001928E-02 0.  1.
</event>
<event>
 5   0  0.1696052E-04  0.1976388E+04  0.7818609E-02  0.8617740E-01
        1   -1    0    0  501    0  0.00000000000E+00  0.00000000000E+00  0.22199793387E+04  0.22199793387E+04  0.50400001928E-02 0. -1.
       -1   -1    0    0    0  501  0.00000000000E+00  0.00000000000E+00 -0.43988110965E+03  0.43988110968E+03  0.50400001928E-02 0.  1.
    10030    2    1    2    0    0  0.00000000000E+00  0.00000000000E+00  0.17800982290E+04  0.26598604484E+04  0.19763875885E+04 0.  0.
        4    1    3    3  502    0  0.45263192436E+02 -0.13577313713E+03 -0.42585813289E+03  0.44926591636E+03  0.12699999809E+01 0.  1.
       -4    1    3    3    0  502 -0.45263192436E+02  0.13577313713E+03  0.22059563619E+04  0.22105945320E+04  0.12699999809E+01 0. -1.
</event>
<event>
 5   0  0.3387881E-04  0.1928438E+04  0.7818609E-02  0.8640829E-01
       -2   -1    0    0    0  501  0.00000000000E+00  0.00000000000E+00  0.17161499155E+04  0.17161499155E+04  0.25500000920E-02 0. -1.
        2   -1    0    0  501    0  0.00000000000E+00  0.00000000000E+00 -0.54174629014E+03  0.54174629015E+03  0.25500000920E-02 0.  1.
    10030    2    1    2    0    0  0.00000000000E+00  0.00000000000E+00  0.11744036253E+04  0.22578962056E+04  0.19284375541E+04 0.  0.
        1    1    3    3  502    0 -0.44359905767E+03  0.38282970560E+03 -0.30937530470E+03  0.66260982987E+03  0.50400001928E-02 0.  1.
       -1    1    3    3    0  502  0.44359905767E+03 -0.38282970560E+03  0.14837789300E+04  0.15952863758E+04  0.50400001928E-02 0. -1.
</event>
<event>
 5   0  0.1643565E-04  0.1958615E+04  0.7818609E-02  0.8626218E-01
       -1   -1    0    0    0  501  0.00000000000E+00  0.00000000000E+00  0.79760973590E+03  0.79760973592E+03  0.50400001928E-02 0. -1.
        1   -1    0    0  501    0  0.00000000000E+00  0.00000000000E+00 -0.12023965383E+04  0.12023965383E+04  0.50400001928E-02 0.  1.
    10030    2    1    2    0    0  0.00000000000E+00  0.00000000000E+00 -0.40478680239E+03  0.20000062742E+04  0.19586150060E+04 0.  0.
        2    1    3    3  502    0 -0.16344316315E+03  0.53694152237E+03 -0.10218634350E+04  0.11658579441E+04  0.25500000920E-02 0.  1.
       -2    1    3    3    0  502  0.16344316315E+03 -0.53694152237E+03  0.61707663265E+03  0.83414833009E+03  0.25500000920E-02 0. -1.
</event>
<event>
 5   0  0.3395569E-04  0.1839923E+04  0.7818609E-02  0.8685352E-01
        2   -1    0    0  501    0  0.00000000000E+00  0.00000000000E+00  0.23650107988E+04  0.23650107988E+04  0.25500000920E-02 0. -1.
       -2   -1    0    0    0  501  0.00000000000E+00  0.00000000000E+00 -0.35785422303E+03  0.35785422304E+03  0.25500000920E-02 0.  1.
    10030    2    1    2    0    0  0.00000000000E+00  0.00000000000E+00  0.20071565757E+04  0.27228650218E+04  0.18399229352E+04 0.  0.
        4    1    3    3  502    0 -0.45036775569E+03 -0.71800237075E+03  0.15329720452E+04  0.17516744629E+04  0.12699999809E+01 0. -1.
       -4    1    3    3    0  502  0.45036775569E+03  0.71800237075E+03  0.47418453051E+03  0.97119055887E+03  0.12699999809E+01 0.  1.
</event>
<event>
 5   0  0.3431030E-04  0.2025533E+04  0.7818609E-02  0.8594775E-01
        2   -1    0    0  501    0  0.00000000000E+00  0.00000000000E+00  0.11769476193E+04  0.11769476194E+04  0.25500000920E-02 0. -1.
       -2   -1    0    0    0  501  0.00000000000E+00  0.00000000000E+00 -0.87148798418E+03  0.87148798419E+03  0.25500000920E-02 0.  1.
    10030    2    1    2    0    0  0.00000000000E+00  0.00000000000E+00  0.30545963516E+03  0.20484356035E+04  0.20255327282E+04 0.  0.
        3    1    3    3  502    0 -0.94927020552E+03 -0.33400681246E+03  0.37328980359E+02  0.10070094026E+04  0.10100000352E+00 0.  1.
       -3    1    3    3    0  502  0.94927020552E+03  0.33400681246E+03  0.26813065481E+03  0.10414262010E+04  0.10100000352E+00 0. -1.
</event>
<event>
 5   0  0.1643565E-04  0.1917664E+04  0.7818609E-02  0.8646113E-01
        1   -1    0    0  501    0  0.00000000000E+00  0.00000000000E+00  0.59531685744E+03  0.59531685746E+03  0.50400001928E-02 0.  1.
       -1   -1    0    0    0  501  0.00000000000E+00  0.00000000000E+00 -0.15443190630E+04  0.15443190630E+04  0.50400001928E-02 0. -1.
    10030    2    1    2    0    0  0.00000000000E+00  0.00000000000E+00 -0.94900220553E+03  0.21396359204E+04  0.19176643830E+04 0.  0.
        2    1    3    3  502    0 -0.94360215185E+02  0.42827904276E+03  0.47685729423E+03  0.64785775271E+03  0.25500000920E-02 0.  1.
       -2    1    3    3    0  502  0.94360215185E+02 -0.42827904276E+03 -0.14258594998E+04  0.14917781677E+04  0.25500000920E-02 0. -1.
</event>
<event>
 5   0  0.1696052E-04  0.1754383E+04  0.7818609E-02  0.8730942E-01
        1   -1    0    0  501    0  0.00000000000E+00  0.00000000000E+00  0.11998673710E+04  0.11998673710E+04  0.50400001928E-02 0.  1.
       -1   -1    0    0    0  501  0.00000000000E+00  0.00000000000E+00 -0.64129133249E+03  0.64129133251E+03  0.50400001928E-02 0. -1.
    10030    2    1    2    0    0  0.00000000000E+00  0.00000000000E+00  0.55857603849E+03  0.18411587035E+04  0.17543825640E+04 0.  0.
        4    1    3    3  502    0 -0.52397765807E+03 -0.49347073423E+03 -0.24690726482E+03  0.76094070861E+03  0.12699999809E+01 0. -1.
       -4    1    3    3    0  502  0.52397765807E+03  0.49347073423E+03  0.80548330332E+03  0.10802179949E+04  0.12699999809E+01 0.  1.
</event>
<event>
 5   0  0.1708578E-04  0.1944500E+04  0.7818609E-02  0.8633018E-01
       -1   -1    0    0    0  501  0.00000000000E+00  0.00000000000E+00  0.49570480454E+03  0.49570480456E+03  0.50400001928E-02 0.  1.
        1   -1    0    0  501    0  0.00000000000E+00  0.00000000000E+00 -0.19069211895E+04  0.19069211895E+04  0.50400001928E-02 0. -1.
    10030    2    1    2    0    0  0.00000000000E+00  0.00000000000E+00 -0.14112163850E+04  0.24026259941E+04  0.19444999311E+04 0.  0.
        3    1    3    3  502    0 -0.38825565473E+02  0.62511700329E+03 -0.16244428880E+04  0.17410035609E+04  0.10100000352E+00 0. -1.
       -3    1    3    3    0  502  0.38825565473E+02 -0.62511700329E+03  0.21322650304E+03  0.66162243321E+03  0.10100000352E+00 0.  1.
</event>
<event>
 5   0  0.1708578E-04  0.1910924E+04  0.7818609E-02  0.8649438E-01
       -1   -1    0    0    0  501  0.00000000000E+00  0.00000000000E+00  0.90287682792E+03  0.90287682794E+03  0.50400001928E-02 0.  1.
        1   -1    0    0  501    0  0.00000000000E+00  0.00000000000E+00 -0.10111096163E+04  0.10111096163E+04  0.50400001928E-02 0. -1.
    10030    2    1    2    0    0  0.00000000000E+00  0.00000000000E+00 -0.10823278840E+03  0.19139864443E+04  0.19109238008E+04 0.  0.
        3    1    3    3  502    0  0.43023779121E+03 -0.74060585672E+03 -0.47824025526E+03  0.98097672956E+03  0.10100000352E+00 0. -1.
       -3    1    3    3    0  502 -0.43023779121E+03  0.74060585672E+03  0.37000746687E+03  0.93300971470E+03  0.10100000352E+00 0.  1.
</event>
<event>
 5   0  0.3387881E-04  0.1896603E+04  0.7818609E-02  0.8656549E-01
        2   -1    0    0  501    0  0.00000000000E+00  0.00000000000E+00  0.16780030143E+04  0.16780030143E+04  0.25500000920E-02 0. -1.
       -2   -1    0    0    0  501  0.00000000000E+00  0.00000000000E+00 -0.53591996975E+03  0.53591996975E+03  0.25500000920E-02 0.  1.
    10030    2    1    2    0    0  0.00000000000E+00  0.00000000000E+00  0.11420830445E+04  0.22139229840E+04  0.18966025674E+04 0.  0.
        1    1    3    3  502    0  0.91466587943E+03 -0.24129366720E+03  0.49326836752E+03  0.10668411256E+04  0.50400001928E-02 0.  1.
       -1    1    3    3    0  502 -0.91466587943E+03  0.24129366720E+03  0.64881467700E+03  0.11470818584E+04  0.50400001928E-02 0. -1.
</event>
<event>
 5   0  0.3460648E-04  0.1962774E+04  0.7818609E-02  0.8624226E-01
        2   -1    0    0  501    0  0.00000000000E+00  0.00000000000E+00  0.14960875642E+04  0.14960875642E+04  0.25500000920E-02 0.  1.
       -2   -1    0    0    0  501  0.00000000000E+00  0.00000000000E+00 -0.64375932178E+03  0.64375932178E+03  0.25500000920E-02 0. -1.
    10030    2    1    2    0    0  0.00000000000E+00  0.00000000000E+00  0.85232824242E+03  0.21398468860E+04  0.19627738695E+04 0.  0.
        5    1    3    3  502    0  0.62438182323E+03  0.58498440729E+03 -0.97864368589E+02  0.86119622769E+03  0.46999998093E+01 0. -1.
       -5    1    3    3    0  502 -0.62438182323E+03 -0.58498440729E+03  0.95019261101E+03  0.12786506583E+04  0.46999998093E+01 0.  1.
</event>
<event>
 5   0  0.3371947E-04  0.2238397E+04  0.7818609E-02  0.8502614E-01
        2   -1    0    0  501    0  0.00000000000E+00  0.00000000000E+00  0.79496457526E+03  0.79496457527E+03  0.25500000920E-02 0.  1.
       -2   -1    0    0    0  501  0.00000000000E+00  0.00000000000E+00 -0.15756746462E+04  0.15756746462E+04  0.25500000920E-02 0. -1.
    10030    2    1    2    0    0  0.00000000000E+00  0.00000000000E+00 -0.78071007092E+03  0.23706392215E+04  0.22383972175E+04 0.  0.
        2    1    3    3  502    0 -0.27435670759E+03  0.63365408336E+03  0.54248632400E+03  0.87811190181E+03  0.25500000920E-02 0.  1.
       -2    1    3    3    0  502  0.27435670759E+03 -0.63365408336E+03 -0.13231963949E+04  0.14925273196E+04  0.25500000920E-02 0. -1.
</event>
<event>
 5   0  0.1650221E-04  0.1891257E+04  0.7818609E-02  0.8659221E-01
        1   -1    0    0  501    0  0.00000000000E+00  0.00000000000E+00  0.10852017229E+04  0.10852017229E+04  0.50400001928E-02 0.  1.
       -1   -1    0    0    0  501  0.00000000000E+00  0.00000000000E+00 -0.82400608241E+03  0.82400608242E+03  0.50400001928E-02 0. -1.
    10030    2    1    2    0    0  0.00000000000E+00  0.00000000000E+00  0.26119564048E+03  0.19092078053E+04  0.18912565350E+04 0.  0.
        1    1    3    3  502    0  0.16169854336E+03 -0.72898080947E+03  0.71632347915E+03  0.10347360853E+04  0.50400001928E-02 0.  1.
       -1    1    3    3    0  502 -0.16169854336E+03  0.72898080947E+03 -0.45512783867E+03  0.87447171999E+03  0.50400001928E-02 0. -1.
</event>
<event>
 5   0  0.3371947E-04  0.1969001E+04  0.7818609E-02  0.8621253E-01
        2   -1    0    0  501    0  0.00000000000E+00  0.00000000000E+00  0.10095334276E+04  0.10095334276E+04  0.25500000920E-02 0. -1.
       -2   -1    0    0    0  501  0.00000000000E+00  0.00000000000E+00 -0.96008807738E+03  0.96008807738E+03  0.25500000920E-02 0.  1.
    10030    2    1    2    0    0  0.00000000000E+00  0.00000000000E+00  0.49445350242E+02  0.19696215050E+04  0.19690007695E+04 0.  0.
        2    1    3    3  502    0 -0.29678310276E+03 -0.80333886529E+03 -0.46103052042E+03  0.97261641119E+03  0.25500000920E-02 0.  1.
       -2    1    3    3    0  502  0.29678310276E+03  0.80333886529E+03  0.51047587066E+03  0.99700509382E+03  0.25500000920E-02 0. -1.
</event>
<event>
 5   0  0.1650221E-04  0.1989853E+04  0.7818609E-02  0.8611380E-01
       -1   -1    0    0    0  501  0.00000000000E+00  0.00000000000E+00  0.19098131348E+04  0.19098131348E+04  0.50400001928E-02 0.  1.
        1   -1    0    0  501    0  0.00000000000E+00  0.00000000000E+00 -0.51831175474E+03  0.51831175476E+03  0.50400001928E-02 0. -1.
    10030    2    1    2    0    0  0.00000000000E+00  0.00000000000E+00  0.13915013800E+04  0.24281248895E+04  0.19898528560E+04 0.  0.
        1    1    3    3  502    0 -0.76986990952E+03 -0.15985569496E+03 -0.48128764069E+02  0.78776259035E+03  0.50400001928E-02 0. -1.
       -1    1    3    3    0  502  0.76986990952E+03  0.15985569496E+03  0.14396301441E+04  0.16403622992E+04  0.50400001928E-02 0.  1.
</event>
<event>
 5   0  0.1664168E-04  0.1271124E+04  0.7818609E-02  0.9052783E-01
       -1   -1    0    0    0  501  0.00000000000E+00  0.00000000000E+00  0.50457249424E+03  0.50457249426E+03  0.50400001928E-02 0.  1.
        1   -1    0    0  501    0  0.00000000000E+00  0.00000000000E+00 -0.80055670196E+03  0.80055670197E+03  0.50400001928E-02 0. -1.
    10030    2    1    2    0    0  0.00000000000E+00  0.00000000000E+00 -0.29598420772E+03  0.13051291962E+04  0.12711237421E+04 0.  0.
        5    1    3    3  502    0 -0.55392749305E+03 -0.28546474720E+03 -0.27619647538E+03  0.68163947395E+03  0.46999998093E+01 0. -1.
       -5    1    3    3    0  502  0.55392749305E+03  0.28546474720E+03 -0.19787732340E+02  0.62348972228E+03  0.46999998093E+01 0.  1.
</event>
<event>
 5   0  0.3395569E-04  0.1938552E+04  0.7818609E-02  0.8635901E-01
       -2   -1    0    0    0  501  0.00000000000E+00  0.00000000000E+00  0.72826333218E+03  0.72826333218E+03  0.25500000920E-02 0.  1.
        2   -1    0    0  501    0  0.00000000000E+00  0.00000000000E+00 -0.12900504100E+04  0.12900504100E+04  0.25500000920E-02 0. -1.
    10030    2    1    2    0    0  0.00000000000E+00  0.00000000000E+00 -0.56178707777E+03  0.20183137421E+04  0.19385524602E+04 0.  0.
        4    1    3    3  502    0  0.89646445311E+03  0.32269580951E+03 -0.46630413476E+03  0.10607649410E+04  0.12699999809E+01 0. -1.
       -4    1    3    3    0  502 -0.89646445311E+03 -0.32269580951E+03 -0.95482943010E+02  0.95754880109E+03  0.12699999809E+01 0.  1.
</event>
<event>
 5   0  0.1708578E-04  0.2017815E+04  0.7818609E-02  0.8598336E-01
       -1   -1    0    0    0  501  0.00000000000E+00  0.00000000000E+00  0.80279479283E+03  0.80279479285E+03  0.50400001928E-02 0.  1.
        1   -1    0    0  501    0  0.00000000000E+00  0.00000000000E+00 -0.12679386931E+04  0.12679386931E+04  0.50400001928E-02 0. -1.
    10030    2    1    2    0    0  0.00000000000E+00  0.00000000000E+00 -0.46514390029E+03  0.20707334860E+04  0.20178152348E+04 0.  0.
        3    1    3    3  502    0 -0.29276211485E+03 -0.59927183173E+03 -0.10094308943E+04  0.12098707058E+04  0.10100000352E+00 0. -1.
       -3    1    3    3    0  502  0.29276211485E+03  0.59927183173E+03  0.54428699403E+03  0.86086278016E+03  0.10100000352E+00 0.  1.
</event>
<event>
 5   0  0.1222488E-04  0.1982662E+04  0.7818609E-02  0.8614770E-01
        3   -1    0    0  501    0  0.00000000000E+00  0.00000000000E+00  0.74406152520E+03  0.74406153206E+03  0.10100000352E+00 0. -1.
       -3   -1    0    0    0  501  0.00000000000E+00  0.00000000000E+00 -0.13207745641E+04  0.13207745679E+04  0.10100000352E+00 0.  1.
    10030    2    1    2    0    0  0.00000000000E+00  0.00000000000E+00 -0.57671303886E+03  0.20648361000E+04  0.19826623995E+04 0.  0.
        3    1    3    3  502    0 -0.90145487916E+02 -0.37530184911E+02  0.73904095067E+03  0.74546378902E+03  0.10100000352E+00 0. -1.
       -3    1    3    3    0  502  0.90145487916E+02  0.37530184911E+02 -0.13157539895E+04  0.13193723110E+04  0.10100000352E+00 0.  1.
</event>
<event>
 5   0  0.1650221E-04  0.1899204E+04  0.7818609E-02  0.8655253E-01
       -1   -1    0    0    0  501  0.00000000000E+00  0.00000000000E+00  0.61945584807E+03  0.61945584809E+03  0.50400001928E-02 0.  1.
        1   -1    0    0  501    0  0.00000000000E+00  0.00000000000E+00 -0.14557031893E+04  0.14557031893E+04  0.50400001928E-02 0. -1.
    10030    2    1    2    0    0  0.00000000000E+00  0.00000000000E+00 -0.83624734118E+03  0.20751590374E+04  0.18992038897E+04 0.  0.
        1    1    3    3  502    0  0.84763709748E+03 -0.32614138873E+03 -0.72109829137E+03  0.11596721952E+04  0.50400001928E-02 0. -1.
       -1    1    3    3    0  502 -0.84763709748E+03  0.32614138873E+03 -0.11514904981E+03  0.91548684216E+03  0.50400001928E-02 0.  1.
</event>
<event>
 5   0  0.1643565E-04  0.1961927E+04  0.7818609E-02  0.8624631E-01
        1   -1    0    0  501    0  0.00000000000E+00  0.00000000000E+00  0.76914955112E+03  0.76914955113E+03  0.50400001928E-02 0. -1.
       -1   -1    0    0    0  501  0.00000000000E+00  0.00000000000E+00 -0.12511082943E+04  0.12511082943E+04  0.50400001928E-02 0.  1.
    10030    2    1    2    0    0  0.00000000000E+00  0.00000000000E+00 -0.48195874315E+03  0.20202578454E+04  0.19619269945E+04 0.  0.
        2    1    3    3  502    0  0.52426645599E+03  0.82364528612E+03 -0.33889870027E+03  0.10334888501E+04  0.25500000920E-02 0. -1.
       -2    1    3    3    0  502 -0.52426645599E+03 -0.82364528612E+03 -0.14306004287E+03  0.98676899531E+03  0.25500000920E-02 0.  1.
</event>
<event>
 5   0  0.1696052E-04  0.2027594E+04  0.7818609E-02  0.8593827E-01
       -1   -1    0    0    0  501  0.00000000000E+00  0.00000000000E+00  0.54320419789E+03  0.54320419792E+03  0.50400001928E-02 0.  1.
        1   -1    0    0  501    0  0.00000000000E+00  0.00000000000E+00 -0.18920776174E+04  0.18920776174E+04  0.50400001928E-02 0. -1.
    10030    2    1    2    0    0  0.00000000000E+00  0.00000000000E+00 -0.13488734195E+04  0.24352818153E+04  0.20275941453E+04 0.  0.
        4    1    3    3  502    0  0.26534325152E+03  0.36696721296E+02 -0.18488035398E+04  0.18681086243E+04  0.12699999809E+01 0. -1.
       -4    1    3    3    0  502 -0.26534325152E+03 -0.36696721296E+02  0.49993012032E+03  0.56717319100E+03  0.12699999809E+01 0.  1.
</event>
<event>
 5   0  0.1222488E-04  0.1309173E+04  0.7818609E-02  0.9022322E-01
        3   -1    0    0  501    0  0.00000000000E+00  0.00000000000E+00  0.64627166726E+03  0.64627167515E+03  0.10100000352E+00 0.  1.
       -3   -1    0    0    0  501  0.00000000000E+00  0.00000000000E+00 -0.66300837821E+03  0.66300838590E+03  0.10100000352E+00 0. -1.
    10030    2    1    2    0    0  0.00000000000E+00  0.00000000000E+00 -0.16736710944E+02  0.13092800611E+04  0.13091730828E+04 0.  0.
        2    1    3    3  502    0 -0.10044710742E+03  0.34807504072E+03 -0.55360799451E+03  0.66160990543E+03  0.25500000920E-02 0. -1.
       -2    1    3    3    0  502  0.10044710742E+03 -0.34807504072E+03  0.53687128357E+03  0.64767015563E+03  0.25500000920E-02 0.  1.
</event>
<event>
 5   0  0.3387881E-04  0.2202135E+04  0.7818609E-02  0.8517540E-01
       -2   -1    0    0    0  501  0.00000000000E+00  0.00000000000E+00  0.81257117628E+03  0.81257117628E+03  0.25500000920E-02 0. -1.
        2   -1    0    0  501    0  0.00000000000E+00  0.00000000000E+00 -0.14919925806E+04  0.14919925806E+04  0.25500000920E-02 0.  1.
    10030    2    1    2    0    0  0.00000000000E+00  0.00000000000E+00 -0.67942140434E+03  0.23045637569E+04  0.22021354783E+04 0.  0.
        1    1    3    3  502    0 -0.10372857751E+04  0.25650882027E+03 -0.61661762014E+02  0.10703087064E+04  0.50400001928E-02 0. -1.
       -1    1    3    3    0  502  0.10372857751E+04 -0.25650882027E+03 -0.61775964233E+03  0.12342550505E+04  0.50400001928E-02 0.  1.
</event>
<event>
 5   0  0.1643565E-04  0.1985787E+04  0.7818609E-02  0.8613295E-01
        1   -1    0    0  501    0  0.00000000000E+00  0.00000000000E+00  0.64374138096E+03  0.64374138098E+03  0.50400001928E-02 0. -1.
       -1   -1    0    0    0  501  0.00000000000E+00  0.00000000000E+00 -0.15314182114E+04  0.15314182114E+04  0.50400001928E-02 0.  1.
    10030    2    1    2    0    0  0.00000000000E+00  0.00000000000E+00 -0.88767683043E+03  0.21751595924E+04  0.19857867703E+04 0.  0.
        2    1    3    3  502    0  0.95672103626E+02  0.89445217970E+03 -0.90420344901E+03  0.12754535391E+04  0.25500000920E-02 0.  1.
       -2    1    3    3    0  502 -0.95672103626E+02 -0.89445217970E+03  0.16526618589E+02  0.89970605328E+03  0.25500000920E-02 0. -1.
</event>
<event>
 5   0  0.3431030E-04  0.2741247E+04  0.7818609E-02  0.8321745E-01
       -2   -1    0    0    0  501  0.00000000000E+00  0.00000000000E+00  0.15390508339E+04  0.15390508339E+04  0.25500000920E-02 0.  1.
        2   -1    0    0  501    0  0.00000000000E+00  0.00000000000E+00 -0.12206277170E+04  0.12206277170E+04  0.25500000920E-02 0. -1.
    10030    2    1    2    0    0  0.00000000000E+00  0.00000000000E+00  0.31842311694E+03  0.27596785509E+04  0.27412465090E+04 0.  0.
        3    1    3    3  502    0  0.10655738476E+04  0.15391405790E+03  0.10131312591E+04  0.14783680598E+04  0.10100000352E+00 0.  1.
       -3    1    3    3    0  502 -0.10655738476E+04 -0.15391405790E+03 -0.69470814213E+03  0.12813104912E+04  0.10100000352E+00 0. -1.
</event>
<event>
 5   0  0.1696052E-04  0.1975888E+04  0.7818609E-02  0.8617978E-01
        1   -1    0    0  501    0  0.00000000000E+00  0.00000000000E+00  0.11609543767E+04  0.11609543767E+04  0.50400001928E-02 0. -1.
       -1   -1    0    0    0  501  0.00000000000E+00  0.00000000000E+00 -0.84071596871E+03  0.84071596872E+03  0.50400001928E-02 0.  1.
    10030    2    1    2    0    0  0.00000000000E+00  0.00000000000E+00  0.32023840798E+03  0.20016703454E+04  0.19758875306E+04 0.  0.
        4    1    3    3  502    0 -0.18038306384E+03 -0.75758831481E+03  0.77596048675E+03  0.10993609027E+04  0.12699999809E+01 0. -1.
       -4    1    3    3    0  502  0.18038306384E+03  0.75758831481E+03 -0.45572207877E+03  0.90230944273E+03  0.12699999809E+01 0.  1.
</event>
<event>
 5   0  0.3387881E-04  0.1851880E+04  0.7818609E-02  0.8679187E-01
       -2   -1    0    0    0  501  0.00000000000E+00  0.00000000000E+00  0.10871279152E+04  0.10871279152E+04  0.25500000920E-02 0. -1.
        2   -1    0    0  501    0  0.00000000000E+00  0.00000000000E+00 -0.78865149756E+03  0.78865149757E+03  0.25500000920E-02 0.  1.
    10030    2    1    2    0    0  0.00000000000E+00  0.00000000000E+00  0.29847641761E+03  0.18757794127E+04  0.18518801887E+04 0.  0.
        1    1    3    3  502    0  0.72838907177E+03  0.10864950913E+03  0.71773870061E+03  0.10283502312E+04  0.50400001928E-02 0. -1.
       -1    1    3    3    0  502 -0.72838907177E+03 -0.10864950913E+03 -0.41926228300E+03  0.84742918151E+03  0.50400001928E-02 0.  1.
</event>
<event>
 5   0  0.1708578E-04  0.1977296E+04  0.7818609E-02  0.8617310E-01
        1   -1    0    0  501    0  0.00000000000E+00  0.00000000000E+00  0.12754985284E+04  0.12754985284E+04  0.50400001928E-02 0. -1.
       -1   -1    0    0    0  501  0.00000000000E+00  0.00000000000E+00 -0.76630789453E+03  0.76630789454E+03  0.50400001928E-02 0.  1.
    10030    2    1    2    0    0  0.00000000000E+00  0.00000000000E+00  0.50919063386E+03  0.20418064229E+04  0.19772957207E+04 0.  0.
        3    1    3    3  502    0  0.60318345646E+03 -0.24340366322E+03 -0.51424218020E+03  0.82916865324E+03  0.10100000352E+00 0.  1.
       -3    1    3    3    0  502 -0.60318345646E+03  0.24340366322E+03  0.10234328141E+04  0.12126377697E+04  0.10100000352E+00 0. -1.
</event>
<event>
 5   0  0.3395569E-04  0.1927997E+04  0.7818609E-02  0.8641045E-01
        2   -1    0    0  501    0  0.00000000000E+00  0.00000000000E+00  0.13743261171E+04  0.13743261171E+04  0.25500000920E-02 0.  1.
       -2   -1    0    0    0  501  0.00000000000E+00  0.00000000000E+00 -0.67618095540E+03  0.67618095540E+03  0.25500000920E-02 0. -1.
    10030    2    1    2    0    0  0.00000000000E+00  0.00000000000E+00  0.69814516171E+03  0.20505070725E+04  0.19279970403E+04 0.  0.
        4    1    3    3  502    0  0.36987361601E+03  0.40531460498E+03 -0.49388484757E+03  0.73824811302E+03  0.12699999809E+01 0. -1.
       -4    1    3    3    0  502 -0.36987361601E+03 -0.40531460498E+03  0.11920300093E+04  0.13122589595E+04  0.12699999809E+01 0.  1.
</event>
<event>
 5   0  0.3395569E-04  0.1979061E+04  0.7818609E-02  0.8616474E-01
        2   -1    0    0  501    0  0.00000000000E+00  0.00000000000E+00  0.82401768925E+03  0.82401768925E+03  0.25500000920E-02 0.  1.
       -2   -1    0    0    0  501  0.00000000000E+00  0.00000000000E+00 -0.11882878868E+04  0.11882878868E+04  0.25500000920E-02 0. -1.
    10030    2    1    2    0    0  0.00000000000E+00  0.00000000000E+00 -0.36427019760E+03  0.20123055761E+04  0.19790606243E+04 0.  0.
        4    1    3    3  502    0  0.89689393259E+03 -0.20355025428E+03 -0.55339488799E+03  0.10733587226E+04  0.12699999809E+01 0.  1.
       -4    1    3    3    0  502 -0.89689393259E+03  0.20355025428E+03  0.18912469040E+03  0.93894685353E+03  0.12699999809E+01 0. -1.
</event>
<event>
 5   0  0.3460648E-04  0.1944311E+04  0.7818609E-02  0.8633109E-01
       -2   -1    0    0    0  501  0.00000000000E+00  0.00000000000E+00  0.74446307538E+03  0.74446307538E+03  0.25500000920E-02 0.  1.
        2   -1    0    0  501    0  0.00000000000E+00  0.00000000000E+00 -0.12694873624E+04  0.12694873624E+04  0.25500000920E-02 0. -1.
    10030    2    1    2    0    0  0.00000000000E+00  0.00000000000E+00 -0.52502428699E+03  0.20139504378E+04  0.19443111541E+04 0.  0.
        5    1    3    3  502    0 -0.15194439806E+03  0.62253648436E+03 -0.10197400979E+04  0.12043798121E+04  0.46999998093E+01 0. -1.
       -5    1    3    3    0  502  0.15194439806E+03 -0.62253648436E+03  0.49471581088E+03  0.80957062570E+03  0.46999998093E+01 0.  1.
</event>
<event>
 5   0  0.3371947E-04  0.1502251E+04  0.7818609E-02  0.8882957E-01
        2   -1    0    0  501    0  0.00000000000E+00  0.00000000000E+00  0.10599910622E+04  0.10599910623E+04  0.25500000920E-02 0. -1.
       -2   -1    0    0    0  501  0.00000000000E+00  0.00000000000E+00 -0.53225893866E+03  0.53225893867E+03  0.25500000920E-02 0.  1.
    10030    2    1    2    0    0  0.00000000000E+00  0.00000000000E+00  0.52773212359E+03  0.15922500009E+04  0.15022512677E+04 0.  0.
        2    1    3    3  502    0 -0.45155587893E+03 -0.16120124980E+03 -0.34896055887E+03  0.59301098336E+03  0.25500000920E-02 0.  1.
       -2    1    3    3    0  502  0.45155587893E+03  0.16120124980E+03  0.87669268246E+03  0.99923901756E+03  0.25500000920E-02 0. -1.
</event>
<event>
 5   0  0.3431030E-04  0.1942361E+04  0.7818609E-02  0.8634053E-01
       -2   -1    0    0    0  501  0.00000000000E+00  0.00000000000E+00  0.91555013466E+03  0.91555013466E+03  0.25500000920E-02 0. -1.
        2   -1    0    0  501    0  0.00000000000E+00  0.00000000000E+00 -0.10301909158E+04  0.10301909158E+04  0.25500000920E-02 0.  1.
    10030    2    1    2    0    0  0.00000000000E+00  0.00000000000E+00 -0.11464078114E+03  0.19457410505E+04  0.19423608642E+04 0.  0.
        3    1    3    3  502    0 -0.68076771323E+03  0.61012043293E+03  0.27112180713E+03  0.95351909607E+03  0.10100000352E+00 0. -1.
       -3    1    3    3    0  502  0.68076771323E+03 -0.61012043293E+03 -0.38576258827E+03  0.99222195439E+03  0.10100000352E+00 0.  1.
</event>
<event>
 5   0  0.3431030E-04  0.1791467E+04  0.7818609E-02  0.8710851E-01
        2   -1    0    0  501    0  0.00000000000E+00  0.00000000000E+00  0.12852223313E+04  0.12852223313E+04  0.25500000920E-02 0.  1.
       -2   -1    0    0    0  501  0.00000000000E+00  0.00000000000E+00 -0.62427962535E+03  0.62427962535E+03  0.25500000920E-02 0. -1.
    10030    2    1    2    0    0  0.00000000000E+00  0.00000000000E+00  0.66094270597E+03  0.19095019567E+04  0.17914665674E+04 0.  0.
        3    1    3    3  502    0 -0.82876961914E+03  0.33937180490E+03  0.31183197753E+03  0.94829926499E+03  0.10100000352E+00 0.  1.
       -3    1    3    3    0  502  0.82876961914E+03 -0.33937180490E+03  0.34911072844E+03  0.96120269168E+03  0.10100000352E+00 0. -1.
</event>
<event>
 5   0  0.3371947E-04  0.2002719E+04  0.7818609E-02  0.8605351E-01
       -2   -1    0    0    0  501  0.00000000000E+00  0.00000000000E+00  0.99811234732E+03  0.99811234733E+03  0.25500000920E-02 0. -1.
        2   -1    0    0  501    0  0.00000000000E+00  0.00000000000E+00 -0.10046169569E+04  0.10046169569E+04  0.25500000920E-02 0.  1.
    10030    2    1    2    0    0  0.00000000000E+00  0.00000000000E+00 -0.65046096020E+01  0.20027293043E+04  0.20027187412E+04 0.  0.
        2    1    3    3  502    0  0.89908768571E+03  0.35707931668E+03  0.25531488048E+03  0.10005248589E+04  0.25500000920E-02 0. -1.
       -2    1    3    3    0  502 -0.89908768571E+03 -0.35707931668E+03 -0.26181949009E+03  0.10022044454E+04  0.25500000920E-02 0.  1.
</event>
<event>
 5   0  0.1222488E-04  0.1450565E+04  0.7818609E-02  0.8918009E-01
        4   -1    0    0  501    0  0.00000000000E+00  0.00000000000E+00  0.53211350890E+03  0.53211502446E+03  0.12699999809E+01 0.  1.
       -4   -1    0    0    0  501  0.00000000000E+00  0.00000000000E+00 -0.98857238813E+03  0.98857320390E+03  0.12699999809E+01 0. -1.
    10030    2    1    2    0    0  0.00000000000E+00  0.00000000000E+00 -0.45645887923E+03  0.15206882284E+04  0.14505647105E+04 0.  0.
        4    1    3    3  502    0  0.69252299508E+03 -0.14506017850E+03 -0.39531535213E+03  0.81049762161E+03  0.12699999809E+01 0. -1.
       -4    1    3    3    0  502 -0.69252299508E+03  0.14506017850E+03 -0.61143527094E+02  0.71019060674E+03  0.12699999809E+01 0.  1.
</event>
<event>
 5   0  0.3431030E-04  0.1971534E+04  0.7818609E-02  0.8620046E-01
        2   -1    0    0  501    0  0.00000000000E+00  0.00000000000E+00  0.19418210848E+04  0.19418210848E+04  0.25500000920E-02 0. -1.
       -2   -1    0    0    0  501  0.00000000000E+00  0.00000000000E+00 -0.50042558985E+03  0.50042558986E+03  0.25500000920E-02 0.  1.
    10030    2    1    2    0    0  0.00000000000E+00  0.00000000000E+00  0.14413954950E+04  0.24422466747E+04  0.19715343890E+04 0.  0.
        3    1    3    3  502    0 -0.41033835853E+03  0.10479647098E+03 -0.38198638035E+03  0.57032751449E+03  0.10100000352E+00 0.  1.
       -3    1    3    3    0  502  0.41033835853E+03 -0.10479647098E+03  0.18233818753E+04  0.18719191602E+04  0.10100000352E+00 0. -1.
</event>
<event>
 5   0  0.1696052E-04  0.1966108E+04  0.7818609E-02  0.8622632E-01
        1   -1    0    0  501    0  0.00000000000E+00  0.00000000000E+00  0.68276658661E+03  0.68276658663E+03  0.50400001928E-02 0. -1.
       -1   -1    0    0    0  501  0.00000000000E+00  0.00000000000E+00 -0.14154103047E+04  0.14154103047E+04  0.50400001928E-02 0.  1.
    10030    2    1    2    0    0  0.00000000000E+00  0.00000000000E+00 -0.73264371807E+03  0.20981768913E+04  0.19661076902E+04 0.  0.
        4    1    3    3  502    0 -0.72153233575E+03 -0.65974625630E+03 -0.47577455650E+03  0.10873072591E+04  0.12699999809E+01 0.  1.
       -4    1    3    3    0  502  0.72153233575E+03  0.65974625630E+03 -0.25686916157E+03  0.10108696322E+04  0.12699999809E+01 0. -1.
</event>
<event>
 5   0  0.3387881E-04  0.1972901E+04  0.7818609E-02  0.8619396E-01
        2   -1    0    0  501    0  0.00000000000E+00  0.00000000000E+00  0.17449731677E+04  0.17449731677E+04  0.25500000920E-02 0. -1.
       -2   -1    0    0    0  501  0.00000000000E+00  0.00000000000E+00 -0.55765026888E+03  0.55765026889E+03  0.25500000920E-02 0.  1.
    10030    2    1    2    0    0  0.00000000000E+00  0.00000000000E+00  0.11873228989E+04  0.23026234366E+04  0.19729011695E+04 0.  0.
        1    1    3    3  502    0  0.36498850410E+03  0.64391583320E+03  0.13547495377E+04  0.15437585687E+04  0.50400001928E-02 0. -1.
       -1    1    3    3    0  502 -0.36498850410E+03 -0.64391583320E+03 -0.16742663888E+03  0.75886486795E+03  0.50400001928E-02 0.  1.
</event>
<event>
 5   0  0.3371947E-04  0.2082197E+04  0.7818609E-02  0.8569126E-01
        2   -1    0    0  501    0  0.00000000000E+00  0.00000000000E+00  0.14027566680E+04  0.14027566680E+04  0.25500000920E-02 0. -1.
       -2   -1    0    0    0  501  0.00000000000E+00  0.00000000000E+00 -0.77268302711E+03  0.77268302711E+03  0.25500000920E-02 0.  1.
    10030    2    1    2    0    0  0.00000000000E+00  0.00000000000E+00  0.63007364094E+03  0.21754396952E+04  0.20821971747E+04 0.  0.
        2    1    3    3  502    0  0.19499956575E+03 -0.60166120319E+03 -0.54895664740E+03  0.83748100563E+03  0.25500000920E-02 0.  1.
       -2    1    3    3    0  502 -0.19499956575E+03  0.60166120319E+03  0.11790302883E+04  0.13379586895E+04  0.25500000920E-02 0. -1.
</event>
<event>
 5   0  0.1643565E-04  0.1982545E+04  0.7818609E-02  0.8614825E-01
        1   -1    0    0  501    0  0.00000000000E+00  0.00000000000E+00  0.14130629189E+04  0.14130629189E+04  0.50400001928E-02 0.  1.
       -1   -1    0    0    0  501  0.00000000000E+00  0.00000000000E+00 -0.69538387289E+03  0.69538387291E+03  0.50400001928E-02 0. -1.
    10030    2    1    2    0    0  0.00000000000E+00  0.00000000000E+00  0.71767904601E+03  0.21084467918E+04  0.19825449959E+04 0.  0.
        2    1    3    3  502    0 -0.63041749356E+03 -0.17569364352E+03  0.11506522697E+04  0.13237428445E+04  0.25500000920E-02 0.  1.
       -2    1    3    3    0  502  0.63041749356E+03  0.17569364352E+03 -0.43297322367E+03  0.78470394735E+03  0.25500000920E-02 0. -1.
</event>
<event>
 5   0  0.3460648E-04  0.2003205E+04  0.7818609E-02  0.8605124E-01
        2   -1    0    0  501    0  0.00000000000E+00  0.00000000000E+00  0.16770868550E+04  0.16770868550E+04  0.25500000920E-02 0.  1.
       -2   -1    0    0    0  501  0.00000000000E+00  0.00000000000E+00 -0.59818470269E+03  0.59818470269E+03  0.25500000920E-02 0. -1.
    10030    2    1    2    0    0  0.00000000000E+00  0.00000000000E+00  0.10789021523E+04  0.22752715577E+04  0.20032051335E+04 0.  0.
        5    1    3    3  502    0  0.15599333963E+03  0.85986623137E+03  0.10952836936E+04  0.14012038814E+04  0.46999998093E+01 0.  1.
       -5    1    3    3    0  502 -0.15599333963E+03 -0.85986623137E+03 -0.16381541240E+02  0.87406767630E+03  0.46999998093E+01 0. -1.
</event>
<event>
 5   0  0.1708578E-04  0.1941577E+04  0.7818609E-02  0.8634433E-01
        1   -1    0    0  501    0  0.00000000000E+00  0.00000000000E+00  0.87109810022E+03  0.87109810023E+03  0.50400001928E-02 0.  1.
       -1   -1    0    0    0  501  0.00000000000E+00  0.00000000000E+00 -0.10818876085E+04  0.10818876085E+04  0.50400001928E-02 0. -1.
    10030    2    1    2    0    0  0.00000000000E+00  0.00000000000E+00 -0.21078950829E+03  0.19529857087E+04  0.19415769266E+04 0.  0.
        3    1    3    3  502    0 -0.10035775180E+03 -0.77792533659E+03 -0.68076175946E+03  0.10385933232E+04  0.10100000352E+00 0. -1.
       -3    1    3    3    0  502  0.10035775180E+03  0.77792533659E+03  0.46997225117E+03  0.91439238554E+03  0.10100000352E+00 0.  1.
</event>
<event>
 5   0  0.1708578E-04  0.1912095E+04  0.7818609E-02  0.8648859E-01
       -1   -1    0    0    0  501  0.00000000000E+00  0.00000000000E+00  0.87037813090E+03  0.87037813092E+03  0.50400001928E-02 0. -1.
        1   -1    0    0  501    0  0.00000000000E+00  0.00000000000E+00 -0.10501489044E+04  0.10501489044E+04  0.50400001928E-02 0.  1.
    10030    2    1    2    0    0  0.00000000000E+00  0.00000000000E+00 -0.17977077347E+03  0.19205270353E+04  0.19120948100E+04 0.  0.
        3    1    3    3  502    0  0.59386914953E+03 -0.29099178205E+03 -0.78334287519E+03  0.10251745482E+04  0.10100000352E+00 0.  1.
       -3    1    3    3    0  502 -0.59386914953E+03  0.29099178205E+03  0.60357210172E+03  0.89535248710E+03  0.10100000352E+00 0. -1.
</event>
<event>
 5   0  0.1696052E-04  0.1943669E+04  0.7818609E-02  0.8633420E-01
       -1   -1    0    0    0  501  0.00000000000E+00  0.00000000000E+00  0.13363696779E+04  0.13363696779E+04  0.50400001928E-02 0.  1.
        1   -1    0    0  501    0  0.00000000000E+00  0.00000000000E+00 -0.70673713139E+03  0.70673713140E+03  0.50400001928E-02 0. -1.
    10030    2    1    2    0    0  0.00000000000E+00  0.00000000000E+00  0.62963254650E+03  0.20431068093E+04  0.19436687708E+04 0.  0.
        4    1    3    3  502    0 -0.29802377252E+03 -0.78223401169E+03 -0.20415476663E+03  0.86161998565E+03  0.12699999809E+01 0. -1.
       -4    1    3    3    0  502  0.29802377252E+03  0.78223401169E+03  0.83378731313E+03  0.11814868237E+04  0.12699999809E+01 0.  1.
</event>
<event>
 5   0  0.3395569E-04  0.2202218E+04  0.7818609E-02  0.8517506E-01
        2   -1    0    0  501    0  0.00000000000E+00  0.00000000000E+00  0.10240140017E+04  0.10240140017E+04  0.25500000920E-02 0. -1.
       -2   -1    0    0    0  501  0.00000000000E+00  0.00000000000E+00 -0.11840078841E+04  0.11840078841E+04  0.25500000920E-02 0.  1.
    10030    2    1    2    0    0  0.00000000000E+00  0.00000000000E+00 -0.15999388243E+03  0.22080218858E+04  0.22022176564E+04 0.  0.
        4    1    3    3  502    0  0.39471708721E+02 -0.25512460156E+03  0.99324123750E+03  0.10262438048E+04  0.12699999809E+01 0. -1.
       -4    1    3    3    0  502 -0.39471708721E+02  0.25512460156E+03 -0.11532351199E+04  0.11817780811E+04  0.12699999809E+01 0.  1.
</event>
<event>
 5   0  0.3371947E-04  0.1979977E+04  0.7818609E-02  0.8616040E-01
        2   -1    0    0  501    0  0.00000000000E+00  0.00000000000E+00  0.22480107865E+04  0.22480107865E+04  0.25500000920E-02 0.  1.
       -2   -1    0    0    0  501  0.00000000000E+00  0.00000000000E+00 -0.43597545944E+03  0.43597545945E+03  0.25500000920E-02 0. -1.
    10030    2    1    2    0    0  0.00000000000E+00  0.00000000000E+00  0.18120353270E+04  0.26839862459E+04  0.19799773084E+04 0.  0.
        2    1    3    3  502    0  0.10740800455E+03  0.98074000274E+03  0.10168933896E+04  0.14168484740E+04  0.25500000920E-02 0. -1.
       -2    1    3    3    0  502 -0.10740800455E+03 -0.98074000274E+03  0.79514193741E+03  0.12671377719E+04  0.25500000920E-02 0.  1.
</event>
<event>
 5   0  0.3395569E-04  0.1953250E+04  0.7818609E-02  0.8628795E-01
       -2   -1    0    0    0  501  0.00000000000E+00  0.00000000000E+00  0.55563499983E+03  0.55563499983E+03  0.25500000920E-02 0.  1.
        2   -1    0    0  501    0  0.00000000000E+00  0.00000000000E+00 -0.17165884192E+04  0.17165884192E+04  0.25500000920E-02 0. -1.
    10030    2    1    2    0    0  0.00000000000E+00  0.00000000000E+00 -0.11609534194E+04  0.22722234191E+04  0.19532502206E+04 0.  0.
        4    1    3    3  502    0 -0.48431950340E+03  0.44185668111E+03 -0.14225610595E+04  0.15663602041E+04  0.12699999809E+01 0. -1.
       -4    1    3    3    0  502  0.48431950340E+03 -0.44185668111E+03  0.26160764010E+03  0.70586321499E+03  0.12699999809E+01 0.  1.
</event>
<event>
 5   0  0.3387881E-04  0.1979229E+04  0.7818609E-02  0.8616394E-01
        2   -1    0    0  501    0  0.00000000000E+00  0.00000000000E+00  0.12563787274E+04  0.12563787274E+04  0.25500000920E-02 0.  1.
       -2   -1    0    0    0  501  0.00000000000E+00  0.00000000000E+00 -0.77949174907E+03  0.77949174907E+03  0.25500000920E-02 0. -1.
    10030    2    1    2    0    0  0.00000000000E+00  0.00000000000E+00  0.47688697831E+03  0.20358704764E+04  0.19792289930E+04 0.  0.
        1    1    3    3  502    0  0.89821378000E+03  0.26022595476E+03  0.57148594915E+03  0.10959478693E+04  0.50400001928E-02 0.  1.
       -1    1    3    3    0  502 -0.89821378000E+03 -0.26022595476E+03 -0.94598970838E+02  0.93992260715E+03  0.50400001928E-02 0. -1.
</event>
<event>
 5   0  0.3431030E-04  0.1994266E+04  0.7818609E-02  0.8609306E-01
        2   -1    0    0  501    0  0.00000000000E+00  0.00000000000E+00  0.95309476194E+03  0.95309476194E+03  0.25500000920E-02 0.  1.
       -2   -1    0    0    0  501  0.00000000000E+00  0.00000000000E+00 -0.10432064252E+04  0.10432064252E+04  0.25500000920E-02 0. -1.
    10030    2    1    2    0    0  0.00000000000E+00  0.00000000000E+00 -0.90111663250E+02  0.19963011871E+04  0.19942663608E+04 0.  0.
        3    1    3    3  502    0 -0.64859534772E+02  0.60185110787E+02  0.94915722692E+03  0.95327249957E+03  0.10100000352E+00 0.  1.
       -3    1    3    3    0  502  0.64859534772E+02 -0.60185110787E+02 -0.10392688902E+04  0.10430286876E+04  0.10100000352E+00 0. -1.
</event>
<event>
 5   0  0.1650221E-04  0.1971617E+04  0.7818609E-02  0.8620007E-01
        1   -1    0    0  501    0  0.00000000000E+00  0.00000000000E+00  0.18996643148E+04  0.18996643149E+04  0.50400001928E-02 0.  1.
       -1   -1    0    0    0  501  0.00000000000E+00  0.00000000000E+00 -0.51157354464E+03  0.51157354467E+03  0.50400001928E-02 0. -1.
    10030    2    1    2    0    0  0.00000000000E+00  0.00000000000E+00  0.13880907702E+04  0.24112378595E+04  0.19716166029E+04 0.  0.
        1    1    3    3  502    0 -0.28741245667E+03  0.39298594068E+02  0.18462849874E+04  0.18689351392E+04  0.50400001928E-02 0.  1.
       -1    1    3    3    0  502  0.28741245667E+03 -0.39298594068E+02 -0.45819421722E+03  0.54230272032E+03  0.50400001928E-02 0. -1.
</event>
<event>
 5   0  0.3371947E-04  0.1998001E+04  0.7818609E-02  0.8607556E-01
       -2   -1    0    0    0  501  0.00000000000E+00  0.00000000000E+00  0.45521828346E+03  0.45521828346E+03  0.25500000920E-02 0.  1.
        2   -1    0    0  501    0  0.00000000000E+00  0.00000000000E+00 -0.21923588517E+04  0.21923588517E+04  0.25500000920E-02 0. -1.
    10030    2    1    2    0    0  0.00000000000E+00  0.00000000000E+00 -0.17371405682E+04  0.26475771352E+04  0.19980008340E+04 0.  0.
        2    1    3    3  502    0  0.87331875685E+02  0.26788134846E+03 -0.21386167751E+04  0.21570973516E+04  0.25500000920E-02 0. -1.
       -2    1    3    3    0  502 -0.87331875685E+02 -0.26788134846E+03  0.40147620690E+03  0.49047978356E+03  0.25500000920E-02 0.  1.
</event>
<event>
 5   0  0.1643565E-04  0.2121235E+04  0.7818609E-02  0.8551947E-01
       -1   -1    0    0    0  501  0.00000000000E+00  0.00000000000E+00  0.90622461446E+03  0.90622461448E+03  0.50400001928E-02 0. -1.
        1   -1    0    0  501    0  0.00000000000E+00  0.00000000000E+00 -0.12413136865E+04  0.12413136865E+04  0.50400001928E-02 0.  1.
    10030    2    1    2    0    0  0.00000000000E+00  0.00000000000E+00 -0.33508907208E+03  0.21475383010E+04  0.21212345623E+04 0.  0.
        2    1    3    3  502    0 -0.71879746257E+03  0.77824154745E+03 -0.11612777401E+03  0.10657463855E+04  0.25500000920E-02 0.  1.
       -2    1    3    3    0  502  0.71879746257E+03 -0.77824154745E+03 -0.21896129807E+03  0.10817919155E+04  0.25500000920E-02 0. -1.
</event>
<event>
 5   0  0.3371947E-04  0.1862249E+04  0.7818609E-02  0.8673879E-01
       -2   -1    0    0    0  501  0.00000000000E+00  0.00000000000E+00  0.12742153240E+04  0.12742153240E+04  0.25500000920E-02 0.  1.
        2   -1    0    0  501    0  0.00000000000E+00  0.00000000000E+00 -0.68041337747E+03  0.68041337747E+03  0.25500000920E-02 0. -1.
    10030    2    1    2    0    0  0.00000000000E+00  0.00000000000E+00  0.59380194648E+03  0.19546287014E+04  0.18622493412E+04 0.  0.
        2    1    3    3  502    0 -0.97367509908E+02 -0.55219783764E+03 -0.48333875225E+03  0.74028321156E+03  0.25500000920E-02 0. -1.
       -2    1    3    3    0  502  0.97367509908E+02  0.55219783764E+03  0.10771406987E+04  0.12143454899E+04  0.25500000920E-02 0.  1.
</event>
<event>
 5   0  0.3395569E-04  0.1751417E+04  0.7818609E-02  0.8732571E-01
        2   -1    0    0  501    0  0.00000000000E+00  0.00000000000E+00  0.11739755933E+04  0.11739755933E+04  0.25500000920E-02 0.  1.
       -2   -1    0    0    0  501  0.00000000000E+00  0.00000000000E+00 -0.65322108578E+03  0.65322108579E+03  0.25500000920E-02 0. -1.
    10030    2    1    2    0    0  0.00000000000E+00  0.00000000000E+00  0.52075450752E+03  0.18271966791E+04  0.17514172681E+04 0.  0.
        4    1    3    3  502    0  0.55794067128E+03  0.11715057539E+03 -0.43309508535E+03  0.71595741202E+03  0.12699999809E+01 0. -1.
       -4    1    3    3    0  502 -0.55794067128E+03 -0.11715057539E+03  0.95384959286E+03  0.11112392671E+04  0.12699999809E+01 0.  1.
</event>
<event>
 5   0  0.1650221E-04  0.2059154E+04  0.7818609E-02  0.8579453E-01
        1   -1    0    0  501    0  0.00000000000E+00  0.00000000000E+00  0.11475267009E+04  0.11475267009E+04  0.50400001928E-02 0.  1.
       -1   -1    0    0    0  501  0.00000000000E+00  0.00000000000E+00 -0.92375078076E+03  0.92375078077E+03  0.50400001928E-02 0. -1.
    10030    2    1    2    0    0  0.00000000000E+00  0.00000000000E+00  0.22377592014E+03  0.20712774817E+04  0.20591538902E+04 0.  0.
        1    1    3    3  502    0 -0.75744684079E+03  0.47889507959E+03 -0.39801123899E+03  0.98055043739E+03  0.50400001928E-02 0. -1.
       -1    1    3    3    0  502  0.75744684079E+03 -0.47889507959E+03  0.62178715913E+03  0.10907270443E+04  0.50400001928E-02 0.  1.
</event>
<event>
 5   0  0.1708578E-04  0.1974070E+04  0.7818609E-02  0.8618841E-01
       -1   -1    0    0    0  501  0.00000000000E+00  0.00000000000E+00  0.13319645599E+04  0.13319645599E+04  0.50400001928E-02 0.  1.
        1   -1    0    0  501    0  0.00000000000E+00  0.00000000000E+00 -0.73142953797E+03  0.73142953798E+03  0.50400001928E-02 0. -1.
    10030    2    1    2    0    0  0.00000000000E+00  0.00000000000E+00  0.60053502194E+03  0.20633940979E+04  0.19740701332E+04 0.  0.
        3    1    3    3  502    0 -0.21910286178E+03 -0.80053391952E+03  0.85864710770E+03  0.11942091467E+04  0.10100000352E+00 0.  1.
       -3    1    3    3    0  502  0.21910286178E+03  0.80053391952E+03 -0.25811208576E+03  0.86918495118E+03  0.10100000352E+00 0. -1.
</event>
<event>
 5   0  0.3431030E-04  0.1983508E+04  0.7818609E-02  0.8614370E-01
        2   -1    0    0  501    0  0.00000000000E+00  0.00000000000E+00  0.96695287139E+03  0.96695287139E+03  0.25500000920E-02 0.  1.
       -2   -1    0    0    0  501  0.00000000000E+00  0.00000000000E+00 -0.10171914028E+04  0.10171914028E+04  0.25500000920E-02 0. -1.
    10030    2    1    2    0    0  0.00000000000E+00  0.00000000000E+00 -0.50238531431E+02  0.19841442742E+04  0.19835081525E+04 0.  0.
        3    1    3    3  502    0 -0.85732647771E+03 -0.35630971813E+03  0.32372002093E+03  0.98323952665E+03  0.10100000352E+00 0. -1.
       -3    1    3    3    0  502  0.85732647771E+03  0.35630971813E+03 -0.37395855236E+03  0.10009047476E+04  0.10100000352E+00 0.  1.
</event>
<event>
 5   0  0.1664168E-04  0.1849677E+04  0.7818609E-02  0.8680319E-01
        1   -1    0    0  501    0  0.00000000000E+00  0.00000000000E+00  0.73309314819E+03  0.73309314821E+03  0.50400001928E-02 0.  1.
       -1   -1    0    0    0  501  0.00000000000E+00  0.00000000000E+00 -0.11667355329E+04  0.11667355329E+04  0.50400001928E-02 0. -1.
    10030    2    1    2    0    0  0.00000000000E+00  0.00000000000E+00 -0.43364238470E+03  0.18998286811E+04  0.18496765392E+04 0.  0.
        5    1    3    3  502    0 -0.42154699226E+02  0.16501523125E+03 -0.11504766885E+04  0.11630243961E+04  0.46999998093E+01 0. -1.
       -5    1    3    3    0  502  0.42154699226E+02 -0.16501523125E+03  0.71683430382E+03  0.73680428496E+03  0.46999998093E+01 0.  1.
</event>
<event>
 5   0  0.1696052E-04  0.2009216E+04  0.7818609E-02  0.8602324E-01
       -1   -1    0    0    0  501  0.00000000000E+00  0.00000000000E+00  0.47368701933E+03  0.47368701935E+03  0.50400001928E-02 0.  1.
        1   -1    0    0  501    0  0.00000000000E+00  0.00000000000E+00 -0.21305993206E+04  0.21305993206E+04  0.50400001928E-02 0. -1.
    10030    2    1    2    0    0  0.00000000000E+00  0.00000000000E+00 -0.16569123013E+04  0.26042863400E+04  0.20092160079E+04 0.  0.
        4    1    3    3  502    0  0.65907035883E+03 -0.80269468514E+02 -0.18056850080E+04  0.19238806840E+04  0.12699999809E+01 0. -1.
       -4    1    3    3    0  502 -0.65907035883E+03  0.80269468514E+02  0.14877270670E+03  0.68040565593E+03  0.12699999809E+01 0.  1.
</event>
<event>
 5   0  0.3395569E-04  0.2093316E+04  0.7818609E-02  0.8564193E-01
       -2   -1    0    0    0  501  0.00000000000E+00  0.00000000000E+00  0.78259153957E+03  0.78259153957E+03  0.25500000920E-02 0.  1.
        2   -1    0    0  501    0  0.00000000000E+00  0.00000000000E+00 -0.13998276979E+04  0.13998276979E+04  0.25500000920E-02 0. -1.
    10030    2    1    2    0    0  0.00000000000E+00  0.00000000000E+00 -0.61723615828E+03  0.21824192374E+04  0.20933163289E+04 0.  0.
        4    1    3    3  502    0  0.70177138296E+03  0.77653621188E+03 -0.30900536983E+03  0.10913191530E+04  0.12699999809E+01 0.  1.
       -4    1    3    3    0  502 -0.70177138296E+03 -0.77653621188E+03 -0.30823078845E+03  0.10911000844E+04  0.12699999809E+01 0. -1.
</event>
<event>
 5   0  0.3387881E-04  0.1962937E+04  0.7818609E-02  0.8624147E-01
       -2   -1    0    0    0  501  0.00000000000E+00  0.00000000000E+00  0.15600516033E+04  0.15600516033E+04  0.25500000920E-02 0.  1.
        2   -1    0    0  501    0  0.00000000000E+00  0.00000000000E+00 -0.61746711996E+03  0.61746711997E+03  0.25500000920E-02 0. -1.
    10030    2    1    2    0    0  0.00000000000E+00  0.00000000000E+00  0.94258448335E+03  0.21775187233E+04  0.19629371569E+04 0.  0.
        1    1    3    3  502    0 -0.39035888128E+03 -0.23848288003E+03 -0.49197942552E+03  0.67178709084E+03  0.50400001928E-02 0. -1.
       -1    1    3    3    0  502  0.39035888128E+03  0.23848288003E+03  0.14345639089E+04  0.15057316324E+04  0.50400001928E-02 0.  1.
</event>
<event>
 5   0  0.1643565E-04  0.2032364E+04  0.7818609E-02  0.8591637E-01
       -1   -1    0    0    0  501  0.00000000000E+00  0.00000000000E+00  0.11351039542E+04  0.11351039542E+04  0.50400001928E-02 0. -1.
        1   -1    0    0  501    0  0.00000000000E+00  0.00000000000E+00 -0.90971902538E+03  0.90971902540E+03  0.50400001928E-02 0.  1.
    10030    2    1    2    0    0  0.00000000000E+00  0.00000000000E+00  0.22538492878E+03  0.20448229796E+04  0.20323638089E+04 0.  0.
        2    1    3    3  502    0 -0.90861303418E+03 -0.29735652414E+02  0.56952863044E+03  0.10727649863E+04  0.25500000920E-02 0. -1.
       -2    1    3    3    0  502  0.90861303418E+03  0.29735652414E+02 -0.34414370166E+03  0.97205799328E+03  0.25500000920E-02 0.  1.
</event>
<event>
 5   0  0.3371947E-04  0.2171803E+04  0.7818609E-02  0.8530257E-01
       -2   -1    0    0    0  501  0.00000000000E+00  0.00000000000E+00  0.10590725850E+04  0.10590725850E+04  0.25500000920E-02 0.  1.
        2   -1    0    0  501    0  0.00000000000E+00  0.00000000000E+00 -0.11134103381E+04  0.11134103381E+04  0.25500000920E-02 0. -1.
    10030    2    1    2    0    0  0.00000000000E+00  0.00000000000E+00 -0.54337753071E+02  0.21724829230E+04  0.21718032737E+04 0.  0.
        2    1    3    3  502    0  0.17669730013E+03  0.96064149361E+03 -0.50179428275E+03  0.10981127070E+04  0.25500000920E-02 0. -1.
       -2    1    3    3    0  502 -0.17669730013E+03 -0.96064149361E+03  0.44745652968E+03  0.10743702160E+04  0.25500000920E-02 0.  1.
</event>
<event>
 5   0  0.3387881E-04  0.1427628E+04  0.7818609E-02  0.8934060E-01
        2   -1    0    0  501    0  0.00000000000E+00  0.00000000000E+00  0.10127434762E+04  0.10127434762E+04  0.25500000920E-02 0. -1.
       -2   -1    0    0    0  501  0.00000000000E+00  0.00000000000E+00 -0.50311866032E+03  0.50311866033E+03  0.25500000920E-02 0.  1.
    10030    2    1    2    0    0  0.00000000000E+00  0.00000000000E+00  0.50962481585E+03  0.15158621365E+04  0.14276275999E+04 0.  0.
        1    1    3    3  502    0 -0.26619349198E+03  0.62945224150E+03  0.47360876703E+03  0.83148924451E+03  0.50400001928E-02 0.  1.
       -1    1    3    3    0  502  0.26619349198E+03 -0.62945224150E+03  0.36016048820E+02  0.68437289200E+03  0.50400001928E-02 0. -1.
</event>
<event>
 5   0  0.3431030E-04  0.2130749E+04  0.7818609E-02  0.8547818E-01
       -2   -1    0    0    0  501  0.00000000000E+00  0.00000000000E+00  0.99944165670E+03  0.99944165670E+03  0.25500000920E-02 0. -1.
        2   -1    0    0  501    0  0.00000000000E+00  0.00000000000E+00 -0.11356565676E+04  0.11356565676E+04  0.25500000920E-02 0.  1.
    10030    2    1    2    0    0  0.00000000000E+00  0.00000000000E+00 -0.13621491094E+03  0.21350982243E+04  0.21307486773E+04 0.  0.
        3    1    3    3  502    0  0.28720942422E+03 -0.16031556539E+03  0.94728833388E+03  0.10027689323E+04  0.10100000352E+00 0. -1.
       -3    1    3    3    0  502 -0.28720942422E+03  0.16031556539E+03 -0.10835032448E+04  0.11323292920E+04  0.10100000352E+00 0.  1.
</event>
<event>
 5   0  0.3371947E-04  0.1999225E+04  0.7818609E-02  0.8606983E-01
       -2   -1    0    0    0  501  0.00000000000E+00  0.00000000000E+00  0.80844675408E+03  0.80844675408E+03  0.25500000920E-02 0.  1.
        2   -1    0    0  501    0  0.00000000000E+00  0.00000000000E+00 -0.12359812717E+04  0.12359812717E+04  0.25500000920E-02 0. -1.
    10030    2    1    2    0    0  0.00000000000E+00  0.00000000000E+00 -0.42753451761E+03  0.20444280258E+04  0.19992248970E+04 0.  0.
        2    1    3    3  502    0 -0.45120507360E+02  0.71629783802E+02  0.80477437313E+03  0.80921472909E+03  0.25500000920E-02 0.  1.
       -2    1    3    3    0  502  0.45120507360E+02 -0.71629783802E+02 -0.12323088907E+04  0.12352132967E+04  0.25500000920E-02 0. -1.
</event>
<event>
 5   0  0.1664168E-04  0.1987121E+04  0.7818609E-02  0.8612666E-01
        1   -1    0    0  501    0  0.00000000000E+00  0.00000000000E+00  0.90939416581E+03  0.90939416582E+03  0.50400001928E-02 0.  1.
       -1   -1    0    0    0  501  0.00000000000E+00  0.00000000000E+00 -0.10855162486E+04  0.10855162486E+04  0.50400001928E-02 0. -1.
    10030    2    1    2    0    0  0.00000000000E+00  0.00000000000E+00 -0.17612208275E+03  0.19949104144E+04  0.19871206741E+04 0.  0.
        5    1    3    3  502    0  0.28482534322E+02 -0.12924426433E+03  0.90049431814E+03  0.91017989520E+03  0.46999998093E+01 0.  1.
       -5    1    3    3    0  502 -0.28482534322E+02  0.12924426433E+03 -0.10766164009E+04  0.10847305192E+04  0.46999998093E+01 0. -1.
</event>
<event>
 5   0  0.3395569E-04  0.1965630E+04  0.7818609E-02  0.8622861E-01
        2   -1    0    0  501    0  0.00000000000E+00  0.00000000000E+00  0.17359349266E+04  0.17359349266E+04  0.25500000920E-02 0.  1.
       -2   -1    0    0    0  501  0.00000000000E+00  0.00000000000E+00 -0.55642930560E+03  0.55642930560E+03  0.25500000920E-02 0. -1.
    10030    2    1    2    0    0  0.00000000000E+00  0.00000000000E+00  0.11795056210E+04  0.22923642322E+04  0.19656297370E+04 0.  0.
        4    1    3    3  502    0  0.58333852002E+03 -0.50358321565E+02 -0.33082830588E+03  0.67250930875E+03  0.12699999809E+01 0. -1.
       -4    1    3    3    0  502 -0.58333852002E+03  0.50358321565E+02  0.15103339269E+04  0.16198549235E+04  0.12699999809E+01 0.  1.
</event>
<event>
 5   0  0.1708578E-04  0.2083850E+04  0.7818609E-02  0.8568391E-01
        1   -1    0    0  501    0  0.00000000000E+00  0.00000000000E+00  0.11473853558E+04  0.11473853558E+04  0.50400001928E-02 0. -1.
       -1   -1    0    0    0  501  0.00000000000E+00  0.00000000000E+00 -0.94615762023E+03  0.94615762024E+03  0.50400001928E-02 0.  1.
    10030    2    1    2    0    0  0.00000000000E+00  0.00000000000E+00  0.20122773553E+03  0.20935429760E+04  0.20838497045E+04 0.  0.
        3    1    3    3  502    0 -0.10006985297E+04 -0.68224338861E+00 -0.19092449394E+03  0.10187493241E+04  0.10100000352E+00 0.  1.
       -3    1    3    3    0  502  0.10006985297E+04  0.68224338861E+00  0.39215222948E+03  0.10747936519E+04  0.10100000352E+00 0. -1.
</event>
<event>
 5   0  0.1708578E-04  0.2030574E+04  0.7818609E-02  0.8592458E-01
       -1   -1    0    0    0  501  0.00000000000E+00  0.00000000000E+00  0.11230004336E+04  0.11230004336E+04  0.50400001928E-02 0. -1.
        1   -1    0    0  501    0  0.00000000000E+00  0.00000000000E+00 -0.91790499898E+03  0.91790499900E+03  0.50400001928E-02 0.  1.
    10030    2    1    2    0    0  0.00000000000E+00  0.00000000000E+00  0.20509543461E+03  0.20409054326E+04  0.20305740192E+04 0.  0.
        3    1    3    3  502    0  0.61084712611E+03 -0.71911074675E+02  0.91443376074E+03  0.11020410732E+04  0.10100000352E+00 0. -1.
       -3    1    3    3    0  502 -0.61084712611E+03  0.71911074675E+02 -0.70933832613E+03  0.93886435935E+03  0.10100000352E+00 0.  1.
</event>
<event>
 5   0  0.3431030E-04  0.1988647E+04  0.7818609E-02  0.8611947E-01
        2   -1    0    0  501    0  0.00000000000E+00  0.00000000000E+00  0.14420859585E+04  0.14420859585E+04  0.25500000920E-02 0.  1.
       -2   -1    0    0    0  501  0.00000000000E+00  0.00000000000E+00 -0.68558989383E+03  0.68558989383E+03  0.25500000920E-02 0. -1.
    10030    2    1    2    0    0  0.00000000000E+00  0.00000000000E+00  0.75649606463E+03  0.21276758523E+04  0.19886473384E+04 0.  0.
        3    1    3    3  502    0 -0.52890769559E+03  0.45832268799E+03  0.11339389801E+04  0.13325241677E+04  0.10100000352E+00 0.  1.
       -3    1    3    3    0  502  0.52890769559E+03 -0.45832268799E+03 -0.37744291550E+03  0.79515168455E+03  0.10100000352E+00 0. -1.
</event>
<event>
 5   0  0.1222488E-04  0.1950274E+04  0.7818609E-02  0.8630228E-01
       -3   -1    0    0    0  501  0.00000000000E+00  0.00000000000E+00  0.16143450837E+04  0.16143450869E+04  0.10100000352E+00 0.  1.
        3   -1    0    0  501    0  0.00000000000E+00  0.00000000000E+00 -0.58902685115E+03  0.58902685981E+03  0.10100000352E+00 0. -1.
    10030    2    1    2    0    0  0.00000000000E+00  0.00000000000E+00  0.10253182326E+04  0.22033719467E+04  0.19502744569E+04 0.  0.
        3    1    3    3  502    0  0.41324505195E+03 -0.69974330786E+03  0.11215654977E+04  0.13850347814E+04  0.10100000352E+00 0.  1.
       -3    1    3    3    0  502 -0.41324505195E+03  0.69974330786E+03 -0.96247265127E+02  0.81833716529E+03  0.10100000352E+00 0. -1.
</event>
<event>
 5   0  0.1708578E-04  0.1611624E+04  0.7818609E-02  0.8813438E-01
       -1   -1    0    0    0  501  0.00000000000E+00  0.00000000000E+00  0.45578091948E+03  0.45578091951E+03  0.50400001928E-02 0.  1.
        1   -1    0    0  501    0  0.00000000000E+00  0.00000000000E+00 -0.14246608469E+04  0.14246608469E+04  0.50400001928E-02 0. -1.
    10030    2    1    2    0    0  0.00000000000E+00  0.00000000000E+00 -0.96887992738E+03  0.18804417664E+04  0.16116243120E+04 0.  0.
        3    1    3    3  502    0  0.45823170263E+03  0.25338625060E+03 -0.11991006721E+04  0.13084430891E+04  0.10100000352E+00 0. -1.
       -3    1    3    3    0  502 -0.45823170263E+03 -0.25338625060E+03  0.23022074476E+03  0.57199867728E+03  0.10100000352E+00 0.  1.
</event>
<event>
 5   0  0.1696052E-04  0.1964597E+04  0.7818609E-02  0.8623354E-01
       -1   -1    0    0    0  501  0.00000000000E+00  0.00000000000E+00  0.19137045676E+04  0.19137045676E+04  0.50400001928E-02 0.  1.
        1   -1    0    0  501    0  0.00000000000E+00  0.00000000000E+00 -0.50421067695E+03  0.50421067698E+03  0.50400001928E-02 0. -1.
    10030    2    1    2    0    0  0.00000000000E+00  0.00000000000E+00  0.14094938906E+04  0.24179152446E+04  0.19645969312E+04 0.  0.
        4    1    3    3  502    0  0.15352321659E+03 -0.96866782602E+03  0.63709042955E+03  0.11695180903E+04  0.12699999809E+01 0. -1.
       -4    1    3    3    0  502 -0.15352321659E+03  0.96866782602E+03  0.77240346109E+03  0.12483971543E+04  0.12699999809E+01 0.  1.
</event>
<event>
 5   0  0.1664168E-04  0.1978075E+04  0.7818609E-02  0.8616940E-01
        1   -1    0    0  501    0  0.00000000000E+00  0.00000000000E+00  0.82725279930E+03  0.82725279931E+03  0.50400001928E-02 0. -1.
       -1   -1    0    0    0  501  0.00000000000E+00  0.00000000000E+00 -0.11824625157E+04  0.11824625157E+04  0.50400001928E-02 0.  1.
    10030    2    1    2    0    0  0.00000000000E+00  0.00000000000E+00 -0.35520971636E+03  0.20097153150E+04  0.19780752525E+04 0.  0.
        5    1    3    3  502    0  0.61777745030E+03  0.55288394809E+03 -0.72553041980E+03  0.11017014651E+04  0.46999998093E+01 0. -1.
       -5    1    3    3    0  502 -0.61777745030E+03 -0.55288394809E+03  0.37032070345E+03  0.90801384987E+03  0.46999998093E+01 0.  1.
</event>
<event>
 5   0  0.1696052E-04  0.2009831E+04  0.7818609E-02  0.8602038E-01
       -1   -1    0    0    0  501  0.00000000000E+00  0.00000000000E+00  0.59080133434E+03  0.59080133436E+03  0.50400001928E-02 0. -1.
        1   -1    0    0  501    0  0.00000000000E+00  0.00000000000E+00 -0.17092971476E+04  0.17092971476E+04  0.50400001928E-02 0.  1.
    10030    2    1    2    0    0  0.00000000000E+00  0.00000000000E+00 -0.11184958132E+04  0.23000984819E+04  0.20098308741E+04 0.  0.
        4    1    3    3  502    0 -0.46610181224E+02  0.13749277318E+03  0.57873573506E+03  0.59666861456E+03  0.12699999809E+01 0. -1.
       -4    1    3    3    0  502  0.46610181224E+02 -0.13749277318E+03 -0.16972315483E+04  0.17034298674E+04  0.12699999809E+01 0.  1.
</event>
<event>
 5   0  0.3431030E-04  0.1910755E+04  0.7818609E-02  0.8649521E-01
       -2   -1    0    0    0  501  0.00000000000E+00  0.00000000000E+00  0.10720202279E+04  0.10720202279E+04  0.25500000920E-02 0.  1.
        2   -1    0    0  501    0  0.00000000000E+00  0.00000000000E+00 -0.85142666032E+03  0.85142666032E+03  0.25500000920E-02 0. -1.
    10030    2    1    2    0    0  0.00000000000E+00  0.00000000000E+00  0.22059356760E+03  0.19234468882E+04  0.19107554553E+04 0.  0.
        3    1    3    3  502    0 -0.67047368749E+03  0.64293947766E+02 -0.57175647889E+03  0.88350108018E+03  0.10100000352E+00 0. -1.
       -3    1    3    3    0  502  0.67047368749E+03 -0.64293947766E+02  0.79235004649E+03  0.10399458081E+04  0.10100000352E+00 0.  1.
</event>
<event>
 5   0  0.1650221E-04  0.2004713E+04  0.7818609E-02  0.8604421E-01
        1   -1    0    0  501    0  0.00000000000E+00  0.00000000000E+00  0.24509024645E+04  0.24509024645E+04  0.50400001928E-02 0.  1.
       -1   -1    0    0    0  501  0.00000000000E+00  0.00000000000E+00 -0.40993804669E+03  0.40993804673E+03  0.50400001928E-02 0. -1.
    10030    2    1    2    0    0  0.00000000000E+00  0.00000000000E+00  0.20409644178E+04  0.28608405112E+04  0.20047126168E+04 0.  0.
        1    1    3    3  502    0  0.34076894117E+03  0.89152604308E+03  0.14574882128E+04  0.17421865707E+04  0.50400001928E-02 0.  1.
       -1    1    3    3    0  502 -0.34076894117E+03 -0.89152604308E+03  0.58347620500E+03  0.11186539405E+04  0.50400001928E-02 0. -1.
</event>
<event>
 5   0  0.3431030E-04  0.1941394E+04  0.7818609E-02  0.8634522E-01
        2   -1    0    0  501    0  0.00000000000E+00  0.00000000000E+00  0.23780975119E+04  0.23780975119E+04  0.25500000920E-02 0. -1.
       -2   -1    0    0    0  501  0.00000000000E+00  0.00000000000E+00 -0.39622117674E+03  0.39622117675E+03  0.25500000920E-02 0.  1.
    10030    2    1    2    0    0  0.00000000000E+00  0.00000000000E+00  0.19818763351E+04  0.27743186886E+04  0.19413939266E+04 0.  0.
        3    1    3    3  502    0  0.18321198406E+03  0.47488440224E+03  0.21720943163E+04  0.22309360268E+04  0.10100000352E+00 0. -1.
       -3    1    3    3    0  502 -0.18321198406E+03 -0.47488440224E+03 -0.19021798118E+03  0.54338266181E+03  0.10100000352E+00 0.  1.
</event>
<event>
 5   0  0.3395569E-04  0.1983333E+04  0.7818609E-02  0.8614453E-01
        2   -1    0    0  501    0  0.00000000000E+00  0.00000000000E+00  0.15313729834E+04  0.15313729834E+04  0.25500000920E-02 0.  1.
       -2   -1    0    0    0  501  0.00000000000E+00  0.00000000000E+00 -0.64217016732E+03  0.64217016732E+03  0.25500000920E-02 0. -1.
    10030    2    1    2    0    0  0.00000000000E+00  0.00000000000E+00  0.88920281610E+03  0.21735431507E+04  0.19833325944E+04 0.  0.
        4    1    3    3  502    0  0.22342438227E+03 -0.37921431684E+03  0.14184644140E+04  0.14851817597E+04  0.12699999809E+01 0.  1.
       -4    1    3    3    0  502 -0.22342438227E+03  0.37921431684E+03 -0.52926159793E+03  0.68836139101E+03  0.12699999809E+01 0. -1.
</event>
<event>
 5   0  0.1696052E-04  0.2025724E+04  0.7818609E-02  0.8594687E-01
       -1   -1    0    0    0  501  0.00000000000E+00  0.00000000000E+00  0.50949660421E+03  0.50949660423E+03  0.50400001928E-02 0. -1.
        1   -1    0    0  501    0  0.00000000000E+00  0.00000000000E+00 -0.20135350904E+04  0.20135350904E+04  0.50400001928E-02 0.  1.
    10030    2    1    2    0    0  0.00000000000E+00  0.00000000000E+00 -0.15040384862E+04  0.25230316946E+04  0.20257238618E+04 0.  0.
        4    1    3    3  502    0  0.31411120864E+03 -0.66101276402E+03  0.12008078740E+03  0.74163652418E+03  0.12699999809E+01 0. -1.
       -4    1    3    3    0  502 -0.31411120864E+03  0.66101276402E+03 -0.16241192736E+04  0.17813951704E+04  0.12699999809E+01 0.  1.
</event>
<event>
 5   0  0.1650221E-04  0.2099157E+04  0.7818609E-02  0.8561615E-01
        1   -1    0    0  501    0  0.00000000000E+00  0.00000000000E+00  0.12462633907E+04  0.12462633907E+04  0.50400001928E-02 0.  1.
       -1   -1    0    0    0  501  0.00000000000E+00  0.00000000000E+00 -0.88393404074E+03  0.88393404076E+03  0.50400001928E-02 0. -1.
    10030    2    1    2    0    0  0.00000000000E+00  0.00000000000E+00  0.36232934992E+03  0.21301974314E+04  0.20991566257E+04 0.  0.
        1    1    3    3  502    0 -0.43061967068E+03 -0.37384983101E+03  0.10753400570E+04  0.12171907144E+04  0.50400001928E-02 0.  1.
       -1    1    3    3    0  502  0.43061967068E+03  0.37384983101E+03 -0.71301070709E+03  0.91300671705E+03  0.50400001928E-02 0. -1.
</event>
<event>
 5   0  0.3371947E-04  0.2004360E+04  0.7818609E-02  0.8604585E-01
        2   -1    0    0  501    0  0.00000000000E+00  0.00000000000E+00  0.23936107718E+04  0.23936107718E+04  0.25500000920E-02 0. -1.
       -2   -1    0    0    0  501  0.00000000000E+00  0.00000000000E+00 -0.41960251569E+03  0.41960251570E+03  0.25500000920E-02 0.  1.
    10030    2    1    2    0    0  0.00000000000E+00  0.00000000000E+00  0.19740082561E+04  0.28132132875E+04  0.20043603483E+04 0.  0.
        2    1    3    3  502    0 -0.99797357174E+03 -0.85586337142E+02  0.94069069390E+03  0.13741088940E+04  0.25500000920E-02 0.  1.
       -2    1    3    3    0  502  0.99797357174E+03  0.85586337142E+02  0.10333175622E+04  0.14391043935E+04  0.25500000920E-02 0. -1.
</event>
<event>
 5   0  0.3431030E-04  0.1972829E+04  0.7818609E-02  0.8619431E-01
       -2   -1    0    0    0  501  0.00000000000E+00  0.00000000000E+00  0.37994845095E+03  0.37994845096E+03  0.25500000920E-02 0.  1.
        2   -1    0    0  501    0  0.00000000000E+00  0.00000000000E+00 -0.25609083954E+04  0.25609083954E+04  0.25500000920E-02 0. -1.
    10030    2    1    2    0    0  0.00000000000E+00  0.00000000000E+00 -0.21809599445E+04  0.29408568464E+04  0.19728286067E+04 0.  0.
        3    1    3    3  502    0  0.47659216182E+03  0.63348711897E+03 -0.19655069900E+04  0.21193545613E+04  0.10100000352E+00 0. -1.
       -3    1    3    3    0  502 -0.47659216182E+03 -0.63348711897E+03 -0.21545295450E+03  0.82150228509E+03  0.10100000352E+00 0.  1.
</event>
<event>
 5   0  0.1696052E-04  0.1664274E+04  0.7818609E-02  0.8782006E-01
       -1   -1    0    0    0  501  0.00000000000E+00  0.00000000000E+00  0.48539279178E+03  0.48539279180E+03  0.50400001928E-02 0.  1.
        1   -1    0    0  501    0  0.00000000000E+00  0.00000000000E+00 -0.14265814645E+04  0.14265814646E+04  0.50400001928E-02 0. -1.
    10030    2    1    2    0    0  0.00000000000E+00  0.00000000000E+00 -0.94118867276E+03  0.19119742564E+04  0.16642744483E+04 0.  0.
        4    1    3    3  502    0  0.22074732213E+03 -0.80174865498E+03 -0.43573976297E+03  0.93882961176E+03  0.12699999809E+01 0.  1.
       -4    1    3    3    0  502 -0.22074732213E+03  0.80174865498E+03 -0.50544890979E+03  0.97314464459E+03  0.12699999809E+01 0. -1.
</event>
<event>
 5   0  0.1643565E-04  0.1926075E+04  0.7818609E-02  0.8641985E-01
       -1   -1    0    0    0  501  0.00000000000E+00  0.00000000000E+00  0.10299680721E+04  0.10299680722E+04  0.50400001928E-02 0.  1.
        1   -1    0    0  501    0  0.00000000000E+00  0.00000000000E+00 -0.90045656367E+03  0.90045656369E+03  0.50400001928E-02 0. -1.
    10030    2    1    2    0    0  0.00000000000E+00  0.00000000000E+00  0.12951150847E+03  0.19304246358E+04  0.19260752955E+04 0.  0.
        2    1    3    3  502    0 -0.87392068536E+03  0.12393423078E+03  0.45078058955E+03  0.99111058807E+03  0.25500000920E-02 0.  1.
       -2    1    3    3    0  502  0.87392068536E+03 -0.12393423078E+03 -0.32126908109E+03  0.93931404777E+03  0.25500000920E-02 0. -1.
</event>
<event>
 5   0  0.1650221E-04  0.1966909E+04  0.7818609E-02  0.8622250E-01
       -1   -1    0    0    0  501  0.00000000000E+00  0.00000000000E+00  0.74020668219E+03  0.74020668221E+03  0.50400001928E-02 0. -1.
        1   -1    0    0  501    0  0.00000000000E+00  0.00000000000E+00 -0.13066381959E+04  0.13066381959E+04  0.50400001928E-02 0.  1.
    10030    2    1    2    0    0  0.00000000000E+00  0.00000000000E+00 -0.56643151369E+03  0.20468448781E+04  0.19669085630E+04 0.  0.
        1    1    3    3  502    0  0.83753106247E+02 -0.92345208986E+03  0.57828660170E+02  0.92904386282E+03  0.50400001928E-02 0. -1.
       -1    1    3    3    0  502 -0.83753106247E+02  0.92345208986E+03 -0.62426017386E+03  0.11178010153E+04  0.50400001928E-02 0.  1.
</event>
<event>
 5   0  0.3371947E-04  0.1894834E+04  0.7818609E-02  0.8657432E-01
       -2   -1    0    0    0  501  0.00000000000E+00  0.00000000000E+00  0.82126483244E+03  0.82126483245E+03  0.25500000920E-02 0.  1.
        2   -1    0    0  501    0  0.00000000000E+00  0.00000000000E+00 -0.10929467826E+04  0.10929467826E+04  0.25500000920E-02 0. -1.
    10030    2    1    2    0    0  0.00000000000E+00  0.00000000000E+00 -0.27168195015E+03  0.19142116150E+04  0.18948337724E+04 0.  0.
        2    1    3    3  502    0  0.28271949547E+03  0.25136430234E+03  0.74165265293E+03  0.83256410156E+03  0.25500000920E-02 0.  1.
       -2    1    3    3    0  502 -0.28271949547E+03 -0.25136430234E+03 -0.10133346031E+04  0.10816475135E+04  0.25500000920E-02 0. -1.
</event>
<event>
 5   0  0.1664168E-04  0.1986231E+04  0.7818609E-02  0.8613086E-01
        1   -1    0    0  501    0  0.00000000000E+00  0.00000000000E+00  0.57584289446E+03  0.57584289449E+03  0.50400001928E-02 0. -1.
       -1   -1    0    0    0  501  0.00000000000E+00  0.00000000000E+00 -0.17127552559E+04  0.17127552559E+04  0.50400001928E-02 0.  1.
    10030    2    1    2    0    0  0.00000000000E+00  0.00000000000E+00 -0.11369123614E+04  0.22885981504E+04  0.19862305446E+04 0.  0.
        5    1    3    3  502    0 -0.43832612828E+03 -0.67422326571E+03 -0.12398713430E+04  0.14778395866E+04  0.46999998093E+01 0.  1.
       -5    1    3    3    0  502  0.43832612828E+03  0.67422326571E+03  0.10295898156E+03  0.81075856372E+03  0.46999998093E+01 0. -1.
</event>
<event>
 5   0  0.1708578E-04  0.2001777E+04  0.7818609E-02  0.8605790E-01
        1   -1    0    0  501    0  0.00000000000E+00  0.00000000000E+00  0.19160014984E+04  0.19160014984E+04  0.50400001928E-02 0. -1.
       -1   -1    0    0    0  501  0.00000000000E+00  0.00000000000E+00 -0.52284799687E+03  0.52284799689E+03  0.50400001928E-02 0.  1.
    10030    2    1    2    0    0  0.00000000000E+00  0.00000000000E+00  0.13931535015E+04  0.24388494953E+04  0.20017767563E+04 0.  0.
        3    1    3    3  502    0 -0.31252478086E+03  0.63091657080E+03 -0.17011787964E+03  0.72433939637E+03  0.10100000352E+00 0.  1.
       -3    1    3    3    0  502  0.31252478086E+03 -0.63091657080E+03  0.15632713812E+04  0.17145100989E+04  0.10100000352E+00 0. -1.
</event>
<event>
 5   0  0.3431030E-04  0.1324573E+04  0.7818609E-02  0.9010302E-01
       -2   -1    0    0    0  501  0.00000000000E+00  0.00000000000E+00  0.42805453802E+03  0.42805453803E+03  0.25500000920E-02 0. -1.
        2   -1    0    0  501    0  0.00000000000E+00  0.00000000000E+00 -0.10246904849E+04  0.10246904849E+04  0.25500000920E-02 0.  1.
    10030    2    1    2    0    0  0.00000000000E+00  0.00000000000E+00 -0.59663594692E+03  0.14527450230E+04  0.13245730061E+04 0.  0.
        3    1    3    3  502    0  0.56898924227E+03  0.30095486786E+03 -0.12734640900E+03  0.65615524717E+03  0.10100000352E+00 0. -1.
       -3    1    3    3    0  502 -0.56898924227E+03 -0.30095486786E+03 -0.46928953793E+03  0.79658977580E+03  0.10100000352E+00 0.  1.
</event>
<event>
 5   0  0.3431030E-04  0.1963126E+04  0.7818609E-02  0.8624057E-01
       -2   -1    0    0    0  501  0.00000000000E+00  0.00000000000E+00  0.71888193382E+03  0.71888193382E+03  0.25500000920E-02 0.  1.
        2   -1    0    0  501    0  0.00000000000E+00  0.00000000000E+00 -0.13402283864E+04  0.13402283864E+04  0.25500000920E-02 0. -1.
    10030    2    1    2    0    0  0.00000000000E+00  0.00000000000E+00 -0.62134645256E+03  0.20591103202E+04  0.19631260522E+04 0.  0.
        3    1    3    3  502    0  0.80561915828E+03 -0.25777023105E+03  0.21166971646E+03  0.87193566235E+03  0.10100000352E+00 0. -1.
       -3    1    3    3    0  502 -0.80561915828E+03  0.25777023105E+03 -0.83301616902E+03  0.11871746579E+04  0.10100000352E+00 0.  1.
</event>
<event>
 5   0  0.1650221E-04  0.1647462E+04  0.7818609E-02  0.8791909E-01
       -1   -1    0    0    0  501  0.00000000000E+00  0.00000000000E+00  0.10744806474E+04  0.10744806474E+04  0.50400001928E-02 0. -1.
        1   -1    0    0  501    0  0.00000000000E+00  0.00000000000E+00 -0.63149827367E+03  0.63149827369E+03  0.50400001928E-02 0.  1.
    10030    2    1    2    0    0  0.00000000000E+00  0.00000000000E+00  0.44298237375E+03  0.17059789211E+04  0.16474618951E+04 0.  0.
        1    1    3    3  502    0  0.27423146393E+03  0.72574330073E+02  0.10223051873E+04  0.10609325263E+04  0.50400001928E-02 0. -1.
       -1    1    3    3    0  502 -0.27423146393E+03 -0.72574330073E+02 -0.57932281357E+03  0.64504639488E+03  0.50400001928E-02 0.  1.
</event>
<event>
 5   0  0.3387881E-04  0.2006833E+04  0.7818609E-02  0.8603433E-01
        2   -1    0    0  501    0  0.00000000000E+00  0.00000000000E+00  0.71797194779E+03  0.71797194779E+03  0.25500000920E-02 0. -1.
       -2   -1    0    0    0  501  0.00000000000E+00  0.00000000000E+00 -0.14023452393E+04  0.14023452393E+04  0.25500000920E-02 0.  1.
    10030    2    1    2    0    0  0.00000000000E+00  0.00000000000E+00 -0.68437329150E+03  0.21203171871E+04  0.20068328709E+04 0.  0.
        1    1    3    3  502    0  0.35807781912E+02  0.76338773130E+03 -0.10291884797E+04  0.12819016937E+04  0.50400001928E-02 0.  1.
       -1    1    3    3    0  502 -0.35807781912E+02 -0.76338773130E+03  0.34481518818E+03  0.83841549339E+03  0.50400001928E-02 0. -1.
</event>
<event>
 5   0  0.1643565E-04  0.2019458E+04  0.7818609E-02  0.8597577E-01
       -1   -1    0    0    0  501  0.00000000000E+00  0.00000000000E+00  0.10784101532E+04  0.10784101532E+04  0.50400001928E-02 0. -1.
        1   -1    0    0  501    0  0.00000000000E+00  0.00000000000E+00 -0.94542177306E+03  0.94542177307E+03  0.50400001928E-02 0.  1.
    10030    2    1    2    0    0  0.00000000000E+00  0.00000000000E+00  0.13298838016E+03  0.20238319263E+04  0.20194577878E+04 0.  0.
        2    1    3    3  502    0  0.59337321161E+03 -0.19875599759E+03  0.86064781158E+03  0.10641007332E+04  0.25500000920E-02 0. -1.
       -2    1    3    3    0  502 -0.59337321161E+03  0.19875599759E+03 -0.72765943142E+03  0.95973119308E+03  0.25500000920E-02 0.  1.
</event>
<event>
 5   0  0.1650221E-04  0.1990116E+04  0.7818609E-02  0.8611256E-01
        1   -1    0    0  501    0  0.00000000000E+00  0.00000000000E+00  0.20887472146E+04  0.20887472146E+04  0.50400001928E-02 0. -1.
       -1   -1    0    0    0  501  0.00000000000E+00  0.00000000000E+00 -0.47403534771E+03  0.47403534774E+03  0.50400001928E-02 0.  1.
    10030    2    1    2    0    0  0.00000000000E+00  0.00000000000E+00  0.16147118669E+04  0.25627825624E+04  0.19901155868E+04 0.  0.
        1    1    3    3  502    0  0.52869694960E+03  0.22914288420E+03 -0.23732512997E+03  0.62317745726E+03  0.50400001928E-02 0.  1.
       -1    1    3    3    0  502 -0.52869694960E+03 -0.22914288420E+03  0.18520369969E+04  0.19396051051E+04  0.50400001928E-02 0. -1.
</event>
<event>
 5   0  0.1222488E-04  0.1944556E+04  0.7818609E-02  0.8632991E-01
       -4   -1    0    0    0  501  0.00000000000E+00  0.00000000000E+00  0.13192049458E+04  0.13192055572E+04  0.12699999809E+01 0.  1.
        4   -1    0    0  501    0  0.00000000000E+00  0.00000000000E+00 -0.71658500458E+03  0.71658612999E+03  0.12699999809E+01 0. -1.
    10030    2    1    2    0    0  0.00000000000E+00  0.00000000000E+00  0.60261994127E+03  0.20357916871E+04  0.19445557333E+04 0.  0.
        3    1    3    3  502    0  0.28050287962E+03  0.79448205940E+03 -0.20667825793E+03  0.86752493952E+03  0.10100000352E+00 0. -1.
       -3    1    3    3    0  502 -0.28050287962E+03 -0.79448205940E+03  0.80929819920E+03  0.11682667476E+04  0.10100000352E+00 0.  1.
</event>
<event>
 5   0  0.3387881E-04  0.1556428E+04  0.7818609E-02  0.8847772E-01
       -2   -1    0    0    0  501  0.00000000000E+00  0.00000000000E+00  0.62880363277E+03  0.62880363277E+03  0.25500000920E-02 0. -1.
        2   -1    0    0  501    0  0.00000000000E+00  0.00000000000E+00 -0.96312554641E+03  0.96312554642E+03  0.25500000920E-02 0.  1.
    10030    2    1    2    0    0  0.00000000000E+00  0.00000000000E+00 -0.33432191365E+03  0.15919291792E+04  0.15564277592E+04 0.  0.
        1    1    3    3  502    0  0.76271720467E+03  0.13315263454E+03 -0.86952312632E+02  0.77911992856E+03  0.50400001928E-02 0.  1.
       -1    1    3    3    0  502 -0.76271720467E+03 -0.13315263454E+03 -0.24736960101E+03  0.81280925063E+03  0.50400001928E-02 0. -1.
</event>
<event>
 5   0  0.1696052E-04  0.1720459E+04  0.7818609E-02  0.8749781E-01
        1   -1    0    0  501    0  0.00000000000E+00  0.00000000000E+00  0.46947742407E+03  0.46947742410E+03  0.50400001928E-02 0.  1.
       -1   -1    0    0    0  501  0.00000000000E+00  0.00000000000E+00 -0.15762096501E+04  0.15762096501E+04  0.50400001928E-02 0. -1.
    10030    2    1    2    0    0  0.00000000000E+00  0.00000000000E+00 -0.11067322260E+04  0.20456870742E+04  0.17204590624E+04 0.  0.
        4    1    3    3  502    0 -0.38415156723E+03 -0.23762076374E+03 -0.14238483318E+04  0.14937810211E+04  0.12699999809E+01 0. -1.
       -4    1    3    3    0  502  0.38415156723E+03  0.23762076374E+03  0.31711610584E+03  0.55190605310E+03  0.12699999809E+01 0.  1.
</event>
<event>
 5   0  0.1643565E-04  0.1998430E+04  0.7818609E-02  0.8607355E-01
        1   -1    0    0  501    0  0.00000000000E+00  0.00000000000E+00  0.11691273067E+04  0.11691273067E+04  0.50400001928E-02 0.  1.
       -1   -1    0    0    0  501  0.00000000000E+00  0.00000000000E+00 -0.85399617850E+03  0.85399617852E+03  0.50400001928E-02 0. -1.
    10030    2    1    2    0    0  0.00000000000E+00  0.00000000000E+00  0.31513112815E+03  0.20231234852E+04  0.19984296356E+04 0.  0.
        2    1    3    3  502    0  0.23821849909E+03  0.66980731378E+03 -0.55327919629E+03  0.90083725498E+03  0.25500000920E-02 0. -1.
       -2    1    3    3    0  502 -0.23821849909E+03 -0.66980731378E+03  0.86841032444E+03  0.11222862302E+04  0.25500000920E-02 0.  1.
</event>
<event>
 5   0  0.3371947E-04  0.1070819E+04  0.7818609E-02  0.9234110E-01
       -2   -1    0    0    0  501  0.00000000000E+00  0.00000000000E+00  0.53891237154E+03  0.53891237154E+03  0.25500000920E-02 0. -1.
        2   -1    0    0  501    0  0.00000000000E+00  0.00000000000E+00 -0.53192924218E+03  0.53192924219E+03  0.25500000920E-02 0.  1.
    10030    2    1    2    0    0  0.00000000000E+00  0.00000000000E+00  0.69831293521E+01  0.10708416137E+04  0.10708188444E+04 0.  0.
        2    1    3    3  502    0 -0.12684727636E+03 -0.19908230249E+03  0.48406317843E+03  0.53855469119E+03  0.25500000920E-02 0. -1.
       -2    1    3    3    0  502  0.12684727636E+03  0.19908230249E+03 -0.47708004907E+03  0.53228692255E+03  0.25500000920E-02 0.  1.
</event>
<event>
 5   0  0.1708578E-04  0.2012458E+04  0.7818609E-02  0.8600818E-01
        1   -1    0    0  501    0  0.00000000000E+00  0.00000000000E+00  0.10565318921E+04  0.10565318921E+04  0.50400001928E-02 0.  1.
       -1   -1    0    0    0  501  0.00000000000E+00  0.00000000000E+00 -0.95832070792E+03  0.95832070793E+03  0.50400001928E-02 0. -1.
    10030    2    1    2    0    0  0.00000000000E+00  0.00000000000E+00  0.98211184184E+02  0.20148526000E+04  0.20124575929E+04 0.  0.
        3    1    3    3  502    0  0.69803177780E+03  0.70734365517E+03  0.20713186823E+03  0.10151290708E+04  0.10100000352E+00 0.  1.
       -3    1    3    3    0  502 -0.69803177780E+03 -0.70734365517E+03 -0.10892068405E+03  0.99972352925E+03  0.10100000352E+00 0. -1.
</event>
<event>
 5   0  0.3460648E-04  0.1878554E+04  0.7818609E-02  0.8665606E-01
        2   -1    0    0  501    0  0.00000000000E+00  0.00000000000E+00  0.11958427446E+04  0.11958427446E+04  0.25500000920E-02 0.  1.
       -2   -1    0    0    0  501  0.00000000000E+00  0.00000000000E+00 -0.73775688770E+03  0.73775688771E+03  0.25500000920E-02 0. -1.
    10030    2    1    2    0    0  0.00000000000E+00  0.00000000000E+00  0.45808585686E+03  0.19335996323E+04  0.18785539347E+04 0.  0.
        5    1    3    3  502    0 -0.57544481124E+03 -0.59995287713E+03 -0.22096221696E+03  0.86018984933E+03  0.46999998093E+01 0.  1.
       -5    1    3    3    0  502  0.57544481124E+03  0.59995287713E+03  0.67904807382E+03  0.10734097829E+04  0.46999998093E+01 0. -1.
</event>
<event>
 5   0  0.1708578E-04  0.1304919E+04  0.7818609E-02  0.9025673E-01
       -1   -1    0    0    0  501  0.00000000000E+00  0.00000000000E+00  0.96071610537E+03  0.96071610538E+03  0.50400001928E-02 0.  1.
        1   -1    0    0  501    0  0.00000000000E+00  0.00000000000E+00 -0.44311070085E+03  0.44311070088E+03  0.50400001928E-02 0. -1.
    10030    2    1    2    0    0  0.00000000000E+00  0.00000000000E+00  0.51760540451E+03  0.14038268063E+04  0.13049192876E+04 0.  0.
        3    1    3    3  502    0 -0.19223478827E+03 -0.56432807062E+03 -0.26401301385E+02  0.59675574906E+03  0.10100000352E+00 0. -1.
       -3    1    3    3    0  502  0.19223478827E+03  0.56432807062E+03  0.54400670590E+03  0.80707105720E+03  0.10100000352E+00 0.  1.
</event>
<event>
 5   0  0.3371947E-04  0.1003933E+04  0.7818609E-02  0.9304242E-01
       -2   -1    0    0    0  501  0.00000000000E+00  0.00000000000E+00  0.39221428989E+03  0.39221428990E+03  0.25500000920E-02 0. -1.
        2   -1    0    0  501    0  0.00000000000E+00  0.00000000000E+00 -0.64243015397E+03  0.64243015397E+03  0.25500000920E-02 0.  1.
    10030    2    1    2    0    0  0.00000000000E+00  0.00000000000E+00 -0.25021586408E+03  0.10346444439E+04  0.10039328397E+04 0.  0.
        2    1    3    3  502    0 -0.22102360074E+02 -0.48721359197E+03 -0.27116535744E+01  0.48772220740E+03  0.25500000920E-02 0. -1.
       -2    1    3    3    0  502  0.22102360074E+02  0.48721359197E+03 -0.24750421050E+03  0.54692223647E+03  0.25500000920E-02 0.  1.
</event>
<event>
 5   0  0.3371947E-04  0.1947164E+04  0.7818609E-02  0.8631730E-01
       -2   -1    0    0    0  501  0.00000000000E+00  0.00000000000E+00  0.77452081429E+03  0.77452081429E+03  0.25500000920E-02 0.  1.
        2   -1    0    0  501    0  0.00000000000E+00  0.00000000000E+00 -0.12238039908E+04  0.12238039908E+04  0.25500000920E-02 0. -1.
    10030    2    1    2    0    0  0.00000000000E+00  0.00000000000E+00 -0.44928317647E+03  0.19983248051E+04  0.19471637460E+04 0.  0.
        2    1    3    3  502    0 -0.81719403604E+03 -0.15411554853E+03 -0.74420824189E+03  0.11159765240E+04  0.25500000920E-02 0. -1.
       -2    1    3    3    0  502  0.81719403604E+03  0.15411554853E+03  0.29492506542E+03  0.88234828104E+03  0.25500000920E-02 0.  1.
</event>
<event>
 5   0  0.1650221E-04  0.2022454E+04  0.7818609E-02  0.8596194E-01
        1   -1    0    0  501    0  0.00000000000E+00  0.00000000000E+00  0.13072588461E+04  0.13072588461E+04  0.50400001928E-02 0.  1.
       -1   -1    0    0    0  501  0.00000000000E+00  0.00000000000E+00 -0.78223243097E+03  0.78223243098E+03  0.50400001928E-02 0. -1.
    10030    2    1    2    0    0  0.00000000000E+00  0.00000000000E+00  0.52502641511E+03  0.20894912771E+04  0.20224542171E+04 0.  0.
        1    1    3    3  502    0  0.19619863074E+03 -0.65314295887E+03 -0.50888860054E+03  0.85091552766E+03  0.50400001928E-02 0. -1.
       -1    1    3    3    0  502 -0.19619863074E+03  0.65314295887E+03  0.10339150156E+04  0.12385757494E+04  0.50400001928E-02 0.  1.
</event>
<event>
 5   0  0.3431030E-04  0.1978215E+04  0.7818609E-02  0.8616874E-01
        2   -1    0    0  501    0  0.00000000000E+00  0.00000000000E+00  0.13186538803E+04  0.13186538803E+04  0.25500000920E-02 0.  1.
       -2   -1    0    0    0  501  0.00000000000E+00  0.00000000000E+00 -0.74191842323E+03  0.74191842324E+03  0.25500000920E-02 0. -1.
    10030    2    1    2    0    0  0.00000000000E+00  0.00000000000E+00  0.57673545705E+03  0.20605723035E+04  0.19782149607E+04 0.  0.
        3    1    3    3  502    0 -0.10261451347E+03 -0.24404331299E+03  0.12810637820E+04  0.13081327535E+04  0.10100000352E+00 0.  1.
       -3    1    3    3    0  502  0.10261451347E+03  0.24404331299E+03 -0.70432832493E+03  0.75243955006E+03  0.10100000352E+00 0. -1.
</event>
<event>
 5   0  0.3371947E-04  0.1979204E+04  0.7818609E-02  0.8616406E-01
       -2   -1    0    0    0  501  0.00000000000E+00  0.00000000000E+00  0.78051559963E+03  0.78051559964E+03  0.25500000920E-02 0.  1.
        2   -1    0    0  501    0  0.00000000000E+00  0.00000000000E+00 -0.12546988956E+04  0.12546988956E+04  0.25500000920E-02 0. -1.
    10030    2    1    2    0    0  0.00000000000E+00  0.00000000000E+00 -0.47418329592E+03  0.20352144952E+04  0.19792039418E+04 0.  0.
        2    1    3    3  502    0 -0.75509952659E+03  0.58306994683E+03  0.33345661752E+02  0.95459823545E+03  0.25500000920E-02 0. -1.
       -2    1    3    3    0  502  0.75509952659E+03 -0.58306994683E+03 -0.50752895767E+03  0.10806162597E+04  0.25500000920E-02 0.  1.
</event>
<event>
 5   0  0.1708578E-04  0.2001689E+04  0.7818609E-02  0.8605831E-01
        1   -1    0    0  501    0  0.00000000000E+00  0.00000000000E+00  0.75823113472E+03  0.75823113474E+03  0.50400001928E-02 0. -1.
       -1   -1    0    0    0  501  0.00000000000E+00  0.00000000000E+00 -0.13210878291E+04  0.13210878291E+04  0.50400001928E-02 0.  1.
    10030    2    1    2    0    0  0.00000000000E+00  0.00000000000E+00 -0.56285669439E+03  0.20793189639E+04  0.20016892104E+04 0.  0.
        3    1    3    3  502    0 -0.13974811025E+03  0.74081719252E+03  0.40239511929E+03  0.85455338585E+03  0.10100000352E+00 0. -1.
       -3    1    3    3    0  502  0.13974811025E+03 -0.74081719252E+03 -0.96525181368E+03  0.12247655780E+04  0.10100000352E+00 0.  1.
</event>
<event>
 5   0  0.1708578E-04  0.1992473E+04  0.7818609E-02  0.8610148E-01
       -1   -1    0    0    0  501  0.00000000000E+00  0.00000000000E+00  0.71944922708E+03  0.71944922710E+03  0.50400001928E-02 0. -1.
        1   -1    0    0  501    0  0.00000000000E+00  0.00000000000E+00 -0.13795092307E+04  0.13795092307E+04  0.50400001928E-02 0.  1.
    10030    2    1    2    0    0  0.00000000000E+00  0.00000000000E+00 -0.66006000360E+03  0.20989584578E+04  0.19924726847E+04 0.  0.
        3    1    3    3  502    0  0.58919501139E+03  0.26043074975E+03  0.47052640361E+03  0.79772805113E+03  0.10100000352E+00 0. -1.
       -3    1    3    3    0  502 -0.58919501139E+03 -0.26043074975E+03 -0.11305864072E+04  0.13012304067E+04  0.10100000352E+00 0.  1.
</event>
<event>
 5   0  0.1696052E-04  0.1964331E+04  0.7818609E-02  0.8623481E-01
        1   -1    0    0  501    0  0.00000000000E+00  0.00000000000E+00  0.10162867208E+04  0.10162867209E+04  0.50400001928E-02 0. -1.
       -1   -1    0    0    0  501  0.00000000000E+00  0.00000000000E+00 -0.94918975723E+03  0.94918975725E+03  0.50400001928E-02 0.  1.
    10030    2    1    2    0    0  0.00000000000E+00  0.00000000000E+00  0.67096963610E+02  0.19654764781E+04  0.19643308742E+04 0.  0.
        4    1    3    3  502    0 -0.14589293630E+03  0.49638663710E+03  0.86887839838E+03  0.10112545310E+04  0.12699999809E+01 0. -1.
       -4    1    3    3    0  502  0.14589293630E+03 -0.49638663710E+03 -0.80178143476E+03  0.95422194713E+03  0.12699999809E+01 0.  1.
</event>
<event>
 5   0  0.3431030E-04  0.1987549E+04  0.7818609E-02  0.8612464E-01
       -2   -1    0    0    0  501  0.00000000000E+00  0.00000000000E+00  0.47186801208E+03  0.47186801209E+03  0.25500000920E-02 0.  1.
        2   -1    0    0  501    0  0.00000000000E+00  0.00000000000E+00 -0.20929312190E+04  0.20929312190E+04  0.25500000920E-02 0. -1.
    10030    2    1    2    0    0  0.00000000000E+00  0.00000000000E+00 -0.16210632069E+04  0.25647992311E+04  0.19875485340E+04 0.  0.
        3    1    3    3  502    0  0.80436582598E+03  0.56130625529E+03 -0.60439241603E+03  0.11521108007E+04  0.10100000352E+00 0. -1.
       -3    1    3    3    0  502 -0.80436582598E+03 -0.56130625529E+03 -0.10166707909E+04  0.14126884304E+04  0.10100000352E+00 0.  1.
</event>
<event>
 5   0  0.3371947E-04  0.1990206E+04  0.7818609E-02  0.8611213E-01
       -2   -1    0    0    0  501  0.00000000000E+00  0.00000000000E+00  0.42696553474E+03  0.42696553475E+03  0.25500000920E-02 0. -1.
        2   -1    0    0  501    0  0.00000000000E+00  0.00000000000E+00 -0.23192265925E+04  0.23192265925E+04  0.25500000920E-02 0.  1.
    10030    2    1    2    0    0  0.00000000000E+00  0.00000000000E+00 -0.18922610578E+04  0.27461921273E+04  0.19902058409E+04 0.  0.
        2    1    3    3  502    0 -0.17247303611E+03  0.97829905784E+03 -0.86550850298E+03  0.13175435338E+04  0.25500000920E-02 0. -1.
       -2    1    3    3    0  502  0.17247303611E+03 -0.97829905784E+03 -0.10267525548E+04  0.14286485934E+04  0.25500000920E-02 0.  1.
</event>
<event>
 5   0  0.3395569E-04  0.2048226E+04  0.7818609E-02  0.8584399E-01
       -2   -1    0    0    0  501  0.00000000000E+00  0.00000000000E+00  0.85650726404E+03  0.85650726405E+03  0.25500000920E-02 0. -1.
        2   -1    0    0  501    0  0.00000000000E+00  0.00000000000E+00 -0.12245168233E+04  0.12245168233E+04  0.25500000920E-02 0.  1.
    10030    2    1    2    0    0  0.00000000000E+00  0.00000000000E+00 -0.36800955926E+03  0.20810240873E+04  0.20482261146E+04 0.  0.
        4    1    3    3  502    0 -0.56514995764E+03  0.33226678851E+03  0.61536573974E+03  0.89915087717E+03  0.12699999809E+01 0. -1.
       -4    1    3    3    0  502  0.56514995764E+03 -0.33226678851E+03 -0.98337529899E+03  0.11818732102E+04  0.12699999809E+01 0.  1.
</event>
<event>
 5   0  0.1643565E-04  0.2064714E+04  0.7818609E-02  0.8576949E-01
        1   -1    0    0  501    0  0.00000000000E+00  0.00000000000E+00  0.10647371332E+04  0.10647371332E+04  0.50400001928E-02 0.  1.
       -1   -1    0    0    0  501  0.00000000000E+00  0.00000000000E+00 -0.10009613808E+04  0.10009613808E+04  0.50400001928E-02 0. -1.
    10030    2    1    2    0    0  0.00000000000E+00  0.00000000000E+00  0.63775752434E+02  0.20656985140E+04  0.20647137826E+04 0.  0.
        2    1    3    3  502    0  0.27058605637E+03  0.92810191184E+03  0.39423567560E+03  0.10440362736E+04  0.25500000920E-02 0.  1.
       -2    1    3    3    0  502 -0.27058605637E+03 -0.92810191184E+03 -0.33045992316E+03  0.10216622404E+04  0.25500000920E-02 0. -1.
</event>
<event>
 5   0  0.1222488E-04  0.2020691E+04  0.7818609E-02  0.8597008E-01
        3   -1    0    0  501    0  0.00000000000E+00  0.00000000000E+00  0.10360799007E+04  0.10360799056E+04  0.10100000352E+00 0. -1.
       -3   -1    0    0    0  501  0.00000000000E+00  0.00000000000E+00 -0.98524991039E+03  0.98524991557E+03  0.10100000352E+00 0.  1.
    10030    2    1    2    0    0  0.00000000000E+00  0.00000000000E+00  0.50829990305E+02  0.20213298212E+04  0.20206906141E+04 0.  0.
        5    1    3    3  502    0  0.34848755624E+03  0.89076928546E+03 -0.30005241987E+03  0.10024804444E+04  0.46999998093E+01 0. -1.
       -5    1    3    3    0  502 -0.34848755624E+03 -0.89076928546E+03  0.35088241017E+03  0.10188493768E+04  0.46999998093E+01 0.  1.
</event>
<event>
 5   0  0.3387881E-04  0.1999350E+04  0.7818609E-02  0.8606924E-01
       -2   -1    0    0    0  501  0.00000000000E+00  0.00000000000E+00  0.50677580007E+03  0.50677580008E+03  0.25500000920E-02 0.  1.
        2   -1    0    0  501    0  0.00000000000E+00  0.00000000000E+00 -0.19719774948E+04  0.19719774948E+04  0.25500000920E-02 0. -1.
    10030    2    1    2    0    0  0.00000000000E+00  0.00000000000E+00 -0.14652016947E+04  0.24787532949E+04  0.19993503672E+04 0.  0.
        1    1    3    3  502    0  0.88969871203E+03  0.35587279889E+03 -0.10857557007E+04  0.14481279946E+04  0.50400001928E-02 0. -1.
       -1    1    3    3    0  502 -0.88969871203E+03 -0.35587279889E+03 -0.37944599407E+03  0.10306253003E+04  0.50400001928E-02 0.  1.
</event>
<event>
 5   0  0.3371947E-04  0.1980141E+04  0.7818609E-02  0.8615962E-01
       -2   -1    0    0    0  501  0.00000000000E+00  0.00000000000E+00  0.53572814877E+03  0.53572814878E+03  0.25500000920E-02 0.  1.
        2   -1    0    0  501    0  0.00000000000E+00  0.00000000000E+00 -0.18297335811E+04  0.18297335811E+04  0.25500000920E-02 0. -1.
    10030    2    1    2    0    0  0.00000000000E+00  0.00000000000E+00 -0.12940054324E+04  0.23654617299E+04  0.19801411911E+04 0.  0.
        2    1    3    3  502    0  0.42609740684E+03  0.74400818329E+03 -0.55549619148E+02  0.85918155073E+03  0.25500000920E-02 0.  1.
       -2    1    3    3    0  502 -0.42609740684E+03 -0.74400818329E+03 -0.12384558132E+04  0.15062801792E+04  0.25500000920E-02 0. -1.
</event>
<event>
 5   0  0.1650221E-04  0.2030653E+04  0.7818609E-02  0.8592422E-01
       -1   -1    0    0    0  501  0.00000000000E+00  0.00000000000E+00  0.15812536264E+04  0.15812536264E+04  0.50400001928E-02 0.  1.
        1   -1    0    0  501    0  0.00000000000E+00  0.00000000000E+00 -0.65194363011E+03  0.65194363013E+03  0.50400001928E-02 0. -1.
    10030    2    1    2    0    0  0.00000000000E+00  0.00000000000E+00  0.92930999627E+03  0.22331972565E+04  0.20306533228E+04 0.  0.
        1    1    3    3  502    0  0.33659471496E+03 -0.69419876236E+03 -0.26124244021E+03  0.81452779965E+03  0.50400001928E-02 0. -1.
       -1    1    3    3    0  502 -0.33659471496E+03  0.69419876236E+03  0.11905524365E+04  0.14186694569E+04  0.50400001928E-02 0.  1.
</event>
<event>
 5   0  0.1708578E-04  0.2016284E+04  0.7818609E-02  0.8599045E-01
        1   -1    0    0  501    0  0.00000000000E+00  0.00000000000E+00  0.11716510412E+04  0.11716510412E+04  0.50400001928E-02 0. -1.
       -1   -1    0    0    0  501  0.00000000000E+00  0.00000000000E+00 -0.86745097580E+03  0.86745097582E+03  0.50400001928E-02 0.  1.
    10030    2    1    2    0    0  0.00000000000E+00  0.00000000000E+00  0.30420006541E+03  0.20391020170E+04  0.20162835505E+04 0.  0.
        3    1    3    3  502    0  0.16745975950E+03 -0.88124683366E+03  0.61742798010E+03  0.10889701895E+04  0.10100000352E+00 0. -1.
       -3    1    3    3    0  502 -0.16745975950E+03  0.88124683366E+03 -0.31322791470E+03  0.95013182750E+03  0.10100000352E+00 0.  1.
</event>
<event>
 5   0  0.1696052E-04  0.1994792E+04  0.7818609E-02  0.8609060E-01
       -1   -1    0    0    0  501  0.00000000000E+00  0.00000000000E+00  0.42686926748E+03  0.42686926751E+03  0.50400001928E-02 0. -1.
        1   -1    0    0  501    0  0.00000000000E+00  0.00000000000E+00 -0.23304524332E+04  0.23304524332E+04  0.50400001928E-02 0.  1.
    10030    2    1    2    0    0  0.00000000000E+00  0.00000000000E+00 -0.19035831657E+04  0.27573217007E+04  0.19947917416E+04 0.  0.
        4    1    3    3  502    0 -0.67310821887E+02 -0.51718459665E+03 -0.21269456832E+04  0.21899566676E+04  0.12699999809E+01 0.  1.
       -4    1    3    3    0  502  0.67310821887E+02  0.51718459665E+03  0.22336251744E+03  0.56736503316E+03  0.12699999809E+01 0. -1.
</event>
<event>
 5   0  0.1708578E-04  0.2000607E+04  0.7818609E-02  0.8606337E-01
        1   -1    0    0  501    0  0.00000000000E+00  0.00000000000E+00  0.14769785603E+04  0.14769785604E+04  0.50400001928E-02 0.  1.
       -1   -1    0    0    0  501  0.00000000000E+00  0.00000000000E+00 -0.67746907625E+03  0.67746907627E+03  0.50400001928E-02 0. -1.
    10030    2    1    2    0    0  0.00000000000E+00  0.00000000000E+00  0.79950948409E+03  0.21544476366E+04  0.20006072088E+04 0.  0.
        3    1    3    3  502    0  0.30896263203E+03 -0.18471373142E+03  0.14048118174E+04  0.14501976842E+04  0.10100000352E+00 0.  1.
       -3    1    3    3    0  502 -0.30896263203E+03  0.18471373142E+03 -0.60530233334E+03  0.70424995245E+03  0.10100000352E+00 0. -1.
</event>
<event>
 5   0  0.3431030E-04  0.1957134E+04  0.7818609E-02  0.8626928E-01
       -2   -1    0    0    0  501  0.00000000000E+00  0.00000000000E+00  0.91397514478E+03  0.91397514478E+03  0.25500000920E-02 0. -1.
        2   -1    0    0  501    0  0.00000000000E+00  0.00000000000E+00 -0.10477232960E+04  0.10477232961E+04  0.25500000920E-02 0.  1.
    10030    2    1    2    0    0  0.00000000000E+00  0.00000000000E+00 -0.13374815127E+03  0.19616984408E+04  0.19571336706E+04 0.  0.
        3    1    3    3  502    0 -0.73432901435E+03  0.24875728703E+03  0.53157270743E+03  0.94004725554E+03  0.10100000352E+00 0. -1.
       -3    1    3    3    0  502  0.73432901435E+03 -0.24875728703E+03 -0.66532085870E+03  0.10216511853E+04  0.10100000352E+00 0.  1.
</event>
<event>
 5   0  0.1643565E-04  0.1990871E+04  0.7818609E-02  0.8610901E-01
        1   -1    0    0  501    0  0.00000000000E+00  0.00000000000E+00  0.95414810989E+03  0.95414810990E+03  0.50400001928E-02 0.  1.
       -1   -1    0    0    0  501  0.00000000000E+00  0.00000000000E+00 -0.10385095816E+04  0.10385095816E+04  0.50400001928E-02 0. -1.
    10030    2    1    2    0    0  0.00000000000E+00  0.00000000000E+00 -0.84361471703E+02  0.19926576915E+04  0.19908711203E+04 0.  0.
        2    1    3    3  502    0 -0.36008330950E+03  0.50733855225E+03 -0.81994920613E+03  0.10292565749E+04  0.25500000920E-02 0. -1.
       -2    1    3    3    0  502  0.36008330950E+03 -0.50733855225E+03  0.73558773443E+03  0.96340111658E+03  0.25500000920E-02 0.  1.
</event>
<event>
 5   0  0.3387881E-04  0.1973855E+04  0.7818609E-02  0.8618943E-01
       -2   -1    0    0    0  501  0.00000000000E+00  0.00000000000E+00  0.49660460666E+03  0.49660460667E+03  0.25500000920E-02 0.  1.
        2   -1    0    0  501    0  0.00000000000E+00  0.00000000000E+00 -0.19613712546E+04  0.19613712546E+04  0.25500000920E-02 0. -1.
    10030    2    1    2    0    0  0.00000000000E+00  0.00000000000E+00 -0.14647666480E+04  0.24579758613E+04  0.19738551116E+04 0.  0.
        1    1    3    3  502    0 -0.17996599834E+03  0.57272174818E+03 -0.17078556227E+04  0.18102952216E+04  0.50400001928E-02 0. -1.
       -1    1    3    3    0  502  0.17996599834E+03 -0.57272174818E+03  0.24308897471E+03  0.64768063970E+03  0.50400001928E-02 0.  1.
</event>
<event>
 5   0  0.1643565E-04  0.1795267E+04  0.7818609E-02  0.8708820E-01
        1   -1    0    0  501    0  0.00000000000E+00  0.00000000000E+00  0.10455395517E+04  0.10455395517E+04  0.50400001928E-02 0.  1.
       -1   -1    0    0    0  501  0.00000000000E+00  0.00000000000E+00 -0.77065115902E+03  0.77065115903E+03  0.50400001928E-02 0. -1.
    10030    2    1    2    0    0  0.00000000000E+00  0.00000000000E+00  0.27488839269E+03  0.18161907107E+04  0.17952674089E+04 0.  0.
        2    1    3    3  502    0  0.77639103258E+03  0.41908826376E+03  0.30468347517E+03  0.93340775031E+03  0.25500000920E-02 0. -1.
       -2    1    3    3    0  502 -0.77639103258E+03 -0.41908826376E+03 -0.29795082480E+02  0.88278296044E+03  0.25500000920E-02 0.  1.
</event>
<event>
 5   0  0.1708578E-04  0.1982522E+04  0.7818609E-02  0.8614836E-01
       -1   -1    0    0    0  501  0.00000000000E+00  0.00000000000E+00  0.84753176347E+03  0.84753176349E+03  0.50400001928E-02 0.  1.
        1   -1    0    0  501    0  0.00000000000E+00  0.00000000000E+00 -0.11593641501E+04  0.11593641501E+04  0.50400001928E-02 0. -1.
    10030    2    1    2    0    0  0.00000000000E+00  0.00000000000E+00 -0.31183238660E+03  0.20068959136E+04  0.19825215688E+04 0.  0.
        3    1    3    3  502    0  0.70182617566E+03 -0.69182253348E+03 -0.47740144503E+02  0.98663951384E+03  0.10100000352E+00 0. -1.
       -3    1    3    3    0  502 -0.70182617566E+03  0.69182253348E+03 -0.26409224210E+03  0.10202563997E+04  0.10100000352E+00 0.  1.
</event>
<event>
 5   0  0.3387881E-04  0.1039532E+04  0.7818609E-02  0.9266219E-01
        2   -1    0    0  501    0  0.00000000000E+00  0.00000000000E+00  0.46617795397E+03  0.46617795398E+03  0.25500000920E-02 0.  1.
       -2   -1    0    0    0  501  0.00000000000E+00  0.00000000000E+00 -0.57951380350E+03  0.57951380350E+03  0.25500000920E-02 0. -1.
    10030    2    1    2    0    0  0.00000000000E+00  0.00000000000E+00 -0.11333584952E+03  0.10456917575E+04  0.10395317392E+04 0.  0.
        1    1    3    3  502    0 -0.36839600797E+03 -0.25505872199E+03  0.20830519670E+03  0.49412713480E+03  0.50400001928E-02 0.  1.
       -1    1    3    3    0  502  0.36839600797E+03  0.25505872199E+03 -0.32164104622E+03  0.55156462268E+03  0.50400001928E-02 0. -1.
</event>
<event>
 5   0  0.1696052E-04  0.1923121E+04  0.7818609E-02  0.8643433E-01
       -1   -1    0    0    0  501  0.00000000000E+00  0.00000000000E+00  0.48558747877E+03  0.48558747879E+03  0.50400001928E-02 0.  1.
        1   -1    0    0  501    0  0.00000000000E+00  0.00000000000E+00 -0.19040818645E+04  0.19040818645E+04  0.50400001928E-02 0. -1.
    10030    2    1    2    0    0  0.00000000000E+00  0.00000000000E+00 -0.14184943857E+04  0.23896693433E+04  0.19231207055E+04 0.  0.
        4    1    3    3  502    0 -0.19878179256E+01  0.91663884043E+03 -0.34832386245E+03  0.98059259698E+03  0.12699999809E+01 0.  1.
       -4    1    3    3    0  502  0.19878179256E+01 -0.91663884043E+03 -0.10701705233E+04  0.14090767463E+04  0.12699999809E+01 0. -1.
</event>
<event>
 5   0  0.3371947E-04  0.1986976E+04  0.7818609E-02  0.8612734E-01
        2   -1    0    0  501    0  0.00000000000E+00  0.00000000000E+00  0.82233985110E+03  0.82233985110E+03  0.25500000920E-02 0.  1.
       -2   -1    0    0    0  501  0.00000000000E+00  0.00000000000E+00 -0.12002565977E+04  0.12002565977E+04  0.25500000920E-02 0. -1.
    10030    2    1    2    0    0  0.00000000000E+00  0.00000000000E+00 -0.37791674663E+03  0.20225964488E+04  0.19869764285E+04 0.  0.
        2    1    3    3  502    0 -0.28073441348E+02  0.10848265992E+03 -0.11938032666E+04  0.11990508100E+04  0.25500000920E-02 0. -1.
       -2    1    3    3    0  502  0.28073441348E+02 -0.10848265992E+03  0.81588652002E+03  0.82354563879E+03  0.25500000920E-02 0.  1.
</event>
<event>
 5   0  0.1664168E-04  0.1830610E+04  0.7818609E-02  0.8690189E-01
        1   -1    0    0  501    0  0.00000000000E+00  0.00000000000E+00  0.95588780820E+03  0.95588780821E+03  0.50400001928E-02 0.  1.
       -1   -1    0    0    0  501  0.00000000000E+00  0.00000000000E+00 -0.87644512535E+03  0.87644512537E+03  0.50400001928E-02 0. -1.
    10030    2    1    2    0    0  0.00000000000E+00  0.00000000000E+00  0.79442682849E+02  0.18323329336E+04  0.18306099638E+04 0.  0.
        5    1    3    3  502    0  0.48663382626E+03  0.36672314415E+03  0.72334496387E+03  0.94580567352E+03  0.46999998093E+01 0.  1.
       -5    1    3    3    0  502 -0.48663382626E+03 -0.36672314415E+03 -0.64390228103E+03  0.88652726005E+03  0.46999998093E+01 0. -1.
</event>
<event>
 5   0  0.3431030E-04  0.2012514E+04  0.7818609E-02  0.8600792E-01
       -2   -1    0    0    0  501  0.00000000000E+00  0.00000000000E+00  0.48067872118E+03  0.48067872118E+03  0.25500000920E-02 0.  1.
        2   -1    0    0  501    0  0.00000000000E+00  0.00000000000E+00 -0.21065080382E+04  0.21065080382E+04  0.25500000920E-02 0. -1.
    10030    2    1    2    0    0  0.00000000000E+00  0.00000000000E+00 -0.16258293170E+04  0.25871867594E+04  0.20125144372E+04 0.  0.
        3    1    3    3  502    0  0.32240432735E+03 -0.83758629249E+03 -0.13978865876E+04  0.16611990458E+04  0.10100000352E+00 0. -1.
       -3    1    3    3    0  502 -0.32240432735E+03  0.83758629249E+03 -0.22794272942E+03  0.92598771361E+03  0.10100000352E+00 0.  1.
</event>
<event>
 5   0  0.1643565E-04  0.2005306E+04  0.7818609E-02  0.8604144E-01
        1   -1    0    0  501    0  0.00000000000E+00  0.00000000000E+00  0.19872732400E+04  0.19872732400E+04  0.50400001928E-02 0. -1.
       -1   -1    0    0    0  501  0.00000000000E+00  0.00000000000E+00 -0.50587574796E+03  0.50587574798E+03  0.50400001928E-02 0.  1.
    10030    2    1    2    0    0  0.00000000000E+00  0.00000000000E+00  0.14813974920E+04  0.24931489880E+04  0.20053062975E+04 0.  0.
        2    1    3    3  502    0 -0.65367814312E+03 -0.10795085557E+03  0.16763535565E+04  0.18025287095E+04  0.25500000920E-02 0. -1.
       -2    1    3    3    0  502  0.65367814312E+03  0.10795085557E+03 -0.19495606448E+03  0.69062027852E+03  0.25500000920E-02 0.  1.
</event>
<event>
 5   0  0.3371947E-04  0.2006213E+04  0.7818609E-02  0.8603722E-01
        2   -1    0    0  501    0  0.00000000000E+00  0.00000000000E+00  0.95693209463E+03  0.95693209463E+03  0.25500000920E-02 0.  1.
       -2   -1    0    0    0  501  0.00000000000E+00  0.00000000000E+00 -0.10515086704E+04  0.10515086704E+04  0.25500000920E-02 0. -1.
    10030    2    1    2    0    0  0.00000000000E+00  0.00000000000E+00 -0.94576575764E+02  0.20084407650E+04  0.20062127449E+04 0.  0.
        2    1    3    3  502    0  0.88408682985E+03 -0.47166847345E+03 -0.95814023869E+00  0.10020387166E+04  0.25500000920E-02 0. -1.
       -2    1    3    3    0  502 -0.88408682985E+03  0.47166847345E+03 -0.93618435526E+02  0.10064020484E+04  0.25500000920E-02 0.  1.
</event>
<event>
 5   0  0.3387881E-04  0.1769616E+04  0.7818609E-02  0.8722626E-01
       -2   -1    0    0    0  501  0.00000000000E+00  0.00000000000E+00  0.45186800710E+03  0.45186800711E+03  0.25500000920E-02 0.  1.
        2   -1    0    0  501    0  0.00000000000E+00  0.00000000000E+00 -0.17325534194E+04  0.17325534194E+04  0.25500000920E-02 0. -1.
    10030    2    1    2    0    0  0.00000000000E+00  0.00000000000E+00 -0.12806854123E+04  0.21844214265E+04  0.17696162984E+04 0.  0.
        1    1    3    3  502    0 -0.17789954641E+03 -0.16222777977E+03  0.41065596598E+03  0.47602985575E+03  0.50400001928E-02 0.  1.
       -1    1    3    3    0  502  0.17789954641E+03  0.16222777977E+03 -0.16913413783E+04  0.17083915708E+04  0.50400001928E-02 0. -1.
</event>
<event>
 5   0  0.1708578E-04  0.1898344E+04  0.7818609E-02  0.8655681E-01
       -1   -1    0    0    0  501  0.00000000000E+00  0.00000000000E+00  0.11085739072E+04  0.11085739073E+04  0.50400001928E-02 0. -1.
        1   -1    0    0  501    0  0.00000000000E+00  0.00000000000E+00 -0.81269008604E+03  0.81269008606E+03  0.50400001928E-02 0.  1.
    10030    2    1    2    0    0  0.00000000000E+00  0.00000000000E+00  0.29588382121E+03  0.19212639933E+04  0.18983435138E+04 0.  0.
        3    1    3    3  502    0  0.44257905410E+03 -0.55566901734E+03  0.78505249240E+03  0.10587500659E+04  0.10100000352E+00 0. -1.
       -3    1    3    3    0  502 -0.44257905410E+03  0.55566901734E+03 -0.48916867120E+03  0.86251392745E+03  0.10100000352E+00 0.  1.
</event>
<event>
 5   0  0.1696052E-04  0.1997017E+04  0.7818609E-02  0.8608017E-01
       -1   -1    0    0    0  501  0.00000000000E+00  0.00000000000E+00  0.75666365954E+03  0.75666365956E+03  0.50400001928E-02 0.  1.
        1   -1    0    0  501    0  0.00000000000E+00  0.00000000000E+00 -0.13176513511E+04  0.13176513512E+04  0.50400001928E-02 0. -1.
    10030    2    1    2    0    0  0.00000000000E+00  0.00000000000E+00 -0.56098769160E+03  0.20743150107E+04  0.19970166683E+04 0.  0.
        4    1    3    3  502    0 -0.79241346645E+02  0.12586873230E+03 -0.13060795904E+04  0.13145218287E+04  0.12699999809E+01 0. -1.
       -4    1    3    3    0  502  0.79241346645E+02 -0.12586873230E+03  0.74509189883E+03  0.75979318198E+03  0.12699999809E+01 0.  1.
</event>
<event>
 5   0  0.3371947E-04  0.1945292E+04  0.7818609E-02  0.8632635E-01
       -2   -1    0    0    0  501  0.00000000000E+00  0.00000000000E+00  0.61899675048E+03  0.61899675048E+03  0.25500000920E-02 0.  1.
        2   -1    0    0  501    0  0.00000000000E+00  0.00000000000E+00 -0.15283438607E+04  0.15283438607E+04  0.25500000920E-02 0. -1.
    10030    2    1    2    0    0  0.00000000000E+00  0.00000000000E+00 -0.90934711018E+03  0.21473406111E+04  0.19452916320E+04 0.  0.
        2    1    3    3  502    0  0.66281604069E+03 -0.63136686470E+03 -0.91754052578E+02  0.91998262364E+03  0.25500000920E-02 0.  1.
       -2    1    3    3    0  502 -0.66281604069E+03  0.63136686470E+03 -0.81759305760E+03  0.12273579875E+04  0.25500000920E-02 0. -1.
</event>
<event>
 5   0  0.3395569E-04  0.1964655E+04  0.7818609E-02  0.8623326E-01
       -2   -1    0    0    0  501  0.00000000000E+00  0.00000000000E+00  0.84060230973E+03  0.84060230974E+03  0.25500000920E-02 0. -1.
        2   -1    0    0  501    0  0.00000000000E+00  0.00000000000E+00 -0.11479476218E+04  0.11479476218E+04  0.25500000920E-02 0.  1.
    10030    2    1    2    0    0  0.00000000000E+00  0.00000000000E+00 -0.30734531204E+03  0.19885499315E+04  0.19646551070E+04 0.  0.
        4    1    3    3  502    0 -0.65257849158E+03  0.51993349611E+03  0.37106913033E+03  0.91317218553E+03  0.12699999809E+01 0. -1.
       -4    1    3    3    0  502  0.65257849158E+03 -0.51993349611E+03 -0.67841444237E+03  0.10753777460E+04  0.12699999809E+01 0.  1.
</event>
<event>
 5   0  0.3431030E-04  0.2075194E+04  0.7818609E-02  0.8572250E-01
       -2   -1    0    0    0  501  0.00000000000E+00  0.00000000000E+00  0.50682100791E+03  0.50682100792E+03  0.25500000920E-02 0. -1.
        2   -1    0    0  501    0  0.00000000000E+00  0.00000000000E+00 -0.21242366375E+04  0.21242366375E+04  0.25500000920E-02 0.  1.
    10030    2    1    2    0    0  0.00000000000E+00  0.00000000000E+00 -0.16174156296E+04  0.26310576455E+04  0.20751942113E+04 0.  0.
        3    1    3    3  502    0 -0.88765101045E+03  0.44284864685E+03 -0.11944554183E+04  0.15526631949E+04  0.10100000352E+00 0.  1.
       -3    1    3    3    0  502  0.88765101045E+03 -0.44284864685E+03 -0.42296021131E+03  0.10783944505E+04  0.10100000352E+00 0. -1.
</event>
<event>
 5   0  0.3460648E-04  0.1979781E+04  0.7818609E-02  0.8616132E-01
       -2   -1    0    0    0  501  0.00000000000E+00  0.00000000000E+00  0.96177794593E+03  0.96177794593E+03  0.25500000920E-02 0. -1.
        2   -1    0    0  501    0  0.00000000000E+00  0.00000000000E+00 -0.10188249599E+04  0.10188249599E+04  0.25500000920E-02 0.  1.
    10030    2    1    2    0    0  0.00000000000E+00  0.00000000000E+00 -0.57047013987E+02  0.19806029059E+04  0.19797811770E+04 0.  0.
        5    1    3    3  502    0  0.25091041681E+03 -0.16734298859E+03  0.91468358745E+03  0.96313439781E+03  0.46999998093E+01 0. -1.
       -5    1    3    3    0  502 -0.25091041681E+03  0.16734298859E+03 -0.97173060144E+03  0.10174685080E+04  0.46999998093E+01 0.  1.
</event>
<event>
 5   0  0.1696052E-04  0.1993460E+04  0.7818609E-02  0.8609685E-01
       -1   -1    0    0    0  501  0.00000000000E+00  0.00000000000E+00  0.16507983164E+04  0.16507983164E+04  0.50400001928E-02 0. -1.
        1   -1    0    0  501    0  0.00000000000E+00  0.00000000000E+00 -0.60181202676E+03  0.60181202678E+03  0.50400001928E-02 0.  1.
    10030    2    1    2    0    0  0.00000000000E+00  0.00000000000E+00  0.10489862896E+04  0.22526103432E+04  0.19934595863E+04 0.  0.
        4    1    3    3  502    0 -0.75474484896E+03  0.44349701190E+03  0.10630415719E+04  0.13770941809E+04  0.12699999809E+01 0. -1.
       -4    1    3    3    0  502  0.75474484896E+03 -0.44349701190E+03 -0.14055282228E+02  0.87551616231E+03  0.12699999809E+01 0.  1.
</event>
<event>
 5   0  0.1664168E-04  0.2005002E+04  0.7818609E-02  0.8604286E-01
        1   -1    0    0  501    0  0.00000000000E+00  0.00000000000E+00  0.10188422084E+04  0.10188422084E+04  0.50400001928E-02 0. -1.
       -1   -1    0    0    0  501  0.00000000000E+00  0.00000000000E+00 -0.98642140246E+03  0.98642140247E+03  0.50400001928E-02 0.  1.
    10030    2    1    2    0    0  0.00000000000E+00  0.00000000000E+00  0.32420805952E+02  0.20052636109E+04  0.20050015064E+04 0.  0.
        5    1    3    3  502    0  0.15390613454E+03 -0.98897153996E+03  0.73084919050E+02  0.10035513442E+04  0.46999998093E+01 0.  1.
       -5    1    3    3    0  502 -0.15390613454E+03  0.98897153996E+03 -0.40664113099E+02  0.10017122667E+04  0.46999998093E+01 0. -1.
</event>
<event>
 5   0  0.1650221E-04  0.1936223E+04  0.7818609E-02  0.8637033E-01
       -1   -1    0    0    0  501  0.00000000000E+00  0.00000000000E+00  0.85995251639E+03  0.85995251640E+03  0.50400001928E-02 0. -1.
        1   -1    0    0  501    0  0.00000000000E+00  0.00000000000E+00 -0.10898737564E+04  0.10898737564E+04  0.50400001928E-02 0.  1.
    10030    2    1    2    0    0  0.00000000000E+00  0.00000000000E+00 -0.22992124002E+03  0.19498262728E+04  0.19362227965E+04 0.  0.
        1    1    3    3  502    0 -0.52553137375E+03  0.73037440090E+03 -0.47469538818E+03  0.10173326407E+04  0.50400001928E-02 0.  1.
       -1    1    3    3    0  502  0.52553137375E+03 -0.73037440090E+03  0.24477414816E+03  0.93249363211E+03  0.50400001928E-02 0. -1.
</event>
<event>
 5   0  0.3395569E-04  0.2078379E+04  0.7818609E-02  0.8570828E-01
        2   -1    0    0  501    0  0.00000000000E+00  0.00000000000E+00  0.18999716602E+04  0.18999716602E+04  0.25500000920E-02 0.  1.
       -2   -1    0    0    0  501  0.00000000000E+00  0.00000000000E+00 -0.56838483246E+03  0.56838483247E+03  0.25500000920E-02 0. -1.
    10030    2    1    2    0    0  0.00000000000E+00  0.00000000000E+00  0.13315868278E+04  0.24683564927E+04  0.20783792472E+04 0.  0.
        4    1    3    3  502    0 -0.80192724301E+03  0.47486108846E+03  0.11982583720E+03  0.93964897732E+03  0.12699999809E+01 0. -1.
       -4    1    3    3    0  502  0.80192724301E+03 -0.47486108846E+03  0.12117609906E+04  0.15287075154E+04  0.12699999809E+01 0.  1.
</event>
<event>
 5   0  0.3395569E-04  0.2019735E+04  0.7818609E-02  0.8597449E-01
       -2   -1    0    0    0  501  0.00000000000E+00  0.00000000000E+00  0.76229986120E+03  0.76229986120E+03  0.25500000920E-02 0. -1.
        2   -1    0    0  501    0  0.00000000000E+00  0.00000000000E+00 -0.13378361238E+04  0.13378361238E+04  0.25500000920E-02 0.  1.
    10030    2    1    2    0    0  0.00000000000E+00  0.00000000000E+00 -0.57553626261E+03  0.21001359850E+04  0.20197349247E+04 0.  0.
        4    1    3    3  502    0  0.40323050610E+03 -0.78966163470E+03 -0.79040557348E+03  0.11878143465E+04  0.12699999809E+01 0.  1.
       -4    1    3    3    0  502 -0.40323050610E+03  0.78966163470E+03  0.21486931087E+03  0.91232163847E+03  0.12699999809E+01 0. -1.
</event>
<event>
 5   0  0.1222488E-04  0.2041473E+04  0.7818609E-02  0.8587472E-01
       -3   -1    0    0    0  501  0.00000000000E+00  0.00000000000E+00  0.56176600863E+03  0.56176601771E+03  0.10100000352E+00 0.  1.
        3   -1    0    0  501    0  0.00000000000E+00  0.00000000000E+00 -0.18546925406E+04  0.18546925433E+04  0.10100000352E+00 0. -1.
    10030    2    1    2    0    0  0.00000000000E+00  0.00000000000E+00 -0.12929265319E+04  0.24164585610E+04  0.20414732328E+04 0.  0.
        1    1    3    3  502    0  0.28236693371E+03 -0.87171733102E+03 -0.11409364965E+03  0.92338483384E+03  0.50400001928E-02 0.  1.
       -1    1    3    3    0  502 -0.28236693371E+03  0.87171733102E+03 -0.11788328823E+04  0.14930737272E+04  0.50400001928E-02 0. -1.
</event>
<event>
 5   0  0.3371947E-04  0.1977938E+04  0.7818609E-02  0.8617005E-01
       -2   -1    0    0    0  501  0.00000000000E+00  0.00000000000E+00  0.55628550432E+03  0.55628550433E+03  0.25500000920E-02 0. -1.
        2   -1    0    0  501    0  0.00000000000E+00  0.00000000000E+00 -0.17581968391E+04  0.17581968391E+04  0.25500000920E-02 0.  1.
    10030    2    1    2    0    0  0.00000000000E+00  0.00000000000E+00 -0.12019113347E+04  0.23144823434E+04  0.19779377294E+04 0.  0.
        2    1    3    3  502    0  0.52271675559E+03  0.15168064166E+03  0.36526427164E+03  0.65548288442E+03  0.25500000920E-02 0. -1.
       -2    1    3    3    0  502 -0.52271675559E+03 -0.15168064166E+03 -0.15671756064E+04  0.16589994590E+04  0.25500000920E-02 0.  1.
</event>
<event>
 5   0  0.1643565E-04  0.1938167E+04  0.7818609E-02  0.8636088E-01
        1   -1    0    0  501    0  0.00000000000E+00  0.00000000000E+00  0.27407066514E+04  0.27407066514E+04  0.50400001928E-02 0. -1.
       -1   -1    0    0    0  501  0.00000000000E+00  0.00000000000E+00 -0.34265713247E+03  0.34265713251E+03  0.50400001928E-02 0.  1.
    10030    2    1    2    0    0  0.00000000000E+00  0.00000000000E+00  0.23980495189E+04  0.30833637839E+04  0.19381668475E+04 0.  0.
        2    1    3    3  502    0  0.73103150538E+03  0.20276473777E+03  0.23974167431E+03  0.79561087923E+03  0.25500000920E-02 0.  1.
       -2    1    3    3    0  502 -0.73103150538E+03 -0.20276473777E+03  0.21583078446E+04  0.22877529047E+04  0.25500000920E-02 0. -1.
</event>
<event>
 5   0  0.1708578E-04  0.2480300E+04  0.7818609E-02  0.8410037E-01
        1   -1    0    0  501    0  0.00000000000E+00  0.00000000000E+00  0.12107974897E+04  0.12107974897E+04  0.50400001928E-02 0.  1.
       -1   -1    0    0    0  501  0.00000000000E+00  0.00000000000E+00 -0.12702144302E+04  0.12702144302E+04  0.50400001928E-02 0. -1.
    10030    2    1    2    0    0  0.00000000000E+00  0.00000000000E+00 -0.59416940543E+02  0.24810119199E+04  0.24803003394E+04 0.  0.
        3    1    3    3  502    0 -0.74738430128E+02 -0.68792385299E+03  0.99973564361E+03  0.12158521406E+04  0.10100000352E+00 0.  1.
       -3    1    3    3    0  502  0.74738430128E+02  0.68792385299E+03 -0.10591525841E+04  0.12651597793E+04  0.10100000352E+00 0. -1.
</event>
<event>
 5   0  0.3460648E-04  0.1985467E+04  0.7818609E-02  0.8613445E-01
        2   -1    0    0  501    0  0.00000000000E+00  0.00000000000E+00  0.19634576844E+04  0.19634576844E+04  0.25500000920E-02 0. -1.
       -2   -1    0    0    0  501  0.00000000000E+00  0.00000000000E+00 -0.50193094375E+03  0.50193094375E+03  0.25500000920E-02 0.  1.
    10030    2    1    2    0    0  0.00000000000E+00  0.00000000000E+00  0.14615267406E+04  0.24653886281E+04  0.19854673692E+04 0.  0.
        5    1    3    3  502    0 -0.67911445628E+03 -0.70364878747E+03  0.51865128680E+03  0.11069504542E+04  0.46999998093E+01 0. -1.
       -5    1    3    3    0  502  0.67911445628E+03  0.70364878747E+03  0.94287545382E+03  0.13584381739E+04  0.46999998093E+01 0.  1.
</event>
<event>
 5   0  0.3387881E-04  0.1989711E+04  0.7818609E-02  0.8611446E-01
        2   -1    0    0  501    0  0.00000000000E+00  0.00000000000E+00  0.26716238784E+04  0.26716238784E+04  0.25500000920E-02 0.  1.
       -2   -1    0    0    0  501  0.00000000000E+00  0.00000000000E+00 -0.37046287004E+03  0.37046287005E+03  0.25500000920E-02 0. -1.
    10030    2    1    2    0    0  0.00000000000E+00  0.00000000000E+00  0.23011610084E+04  0.30420867485E+04  0.19897109837E+04 0.  0.
        1    1    3    3  502    0  0.38098260297E+03  0.59104165006E+03  0.22265451287E+04  0.23349477908E+04  0.50400001928E-02 0.  1.
       -1    1    3    3    0  502 -0.38098260297E+03 -0.59104165006E+03  0.74615879692E+02  0.70713895763E+03  0.50400001928E-02 0. -1.
</event>
<event>
 5   0  0.1696052E-04  0.1186377E+04  0.7818609E-02  0.9124865E-01
       -1   -1    0    0    0  501  0.00000000000E+00  0.00000000000E+00  0.19549529800E+03  0.19549529806E+03  0.50400001928E-02 0.  1.
        1   -1    0    0  501    0  0.00000000000E+00  0.00000000000E+00 -0.17999026827E+04  0.17999026827E+04  0.50400001928E-02 0. -1.
    10030    2    1    2    0    0  0.00000000000E+00  0.00000000000E+00 -0.16044073847E+04  0.19953979808E+04  0.11863768565E+04 0.  0.
        4    1    3    3  502    0  0.55157611128E+03 -0.21019811785E+03 -0.90101513257E+03  0.10771487071E+04  0.12699999809E+01 0.  1.
       -4    1    3    3    0  502 -0.55157611128E+03  0.21019811785E+03 -0.70339225217E+03  0.91824927367E+03  0.12699999809E+01 0. -1.
</event>
<event>
 5   0  0.1696052E-04  0.9904722E+03  0.7818609E-02  0.9319057E-01
       -1   -1    0    0    0  501  0.00000000000E+00  0.00000000000E+00  0.51666673254E+03  0.51666673257E+03  0.50400001928E-02 0. -1.
        1   -1    0    0  501    0  0.00000000000E+00  0.00000000000E+00 -0.47469437961E+03  0.47469437964E+03  0.50400001928E-02 0.  1.
    10030    2    1    2    0    0  0.00000000000E+00  0.00000000000E+00  0.41972352928E+02  0.99136111221E+03  0.99047219869E+03 0.  0.
        4    1    3    3  502    0  0.43702453432E+02  0.47141182209E+03 -0.12446516721E+03  0.48952242154E+03  0.12699999809E+01 0. -1.
       -4    1    3    3    0  502 -0.43702453432E+02 -0.47141182209E+03  0.16643752014E+03  0.50183869067E+03  0.12699999809E+01 0.  1.
</event>
<event>
 5   0  0.1664168E-04  0.2041401E+04  0.7818609E-02  0.8587505E-01
        1   -1    0    0  501    0  0.00000000000E+00  0.00000000000E+00  0.12625810959E+04  0.12625810959E+04  0.50400001928E-02 0. -1.
       -1   -1    0    0    0  501  0.00000000000E+00  0.00000000000E+00 -0.82515871756E+03  0.82515871757E+03  0.50400001928E-02 0.  1.
    10030    2    1    2    0    0  0.00000000000E+00  0.00000000000E+00  0.43742237838E+03  0.20877398135E+04  0.20414012814E+04 0.  0.
        5    1    3    3  502    0 -0.89563161474E+03 -0.48902554157E+03  0.24171029373E+03  0.10486886696E+04  0.46999998093E+01 0. -1.
       -5    1    3    3    0  502  0.89563161474E+03  0.48902554157E+03  0.19571208466E+03  0.10390511439E+04  0.46999998093E+01 0.  1.
</event>
<event>
 5   0  0.3395569E-04  0.1991738E+04  0.7818609E-02  0.8610493E-01
        2   -1    0    0  501    0  0.00000000000E+00  0.00000000000E+00  0.95870611464E+03  0.95870611465E+03  0.25500000920E-02 0. -1.
       -2   -1    0    0    0  501  0.00000000000E+00  0.00000000000E+00 -0.10344728676E+04  0.10344728676E+04  0.25500000920E-02 0.  1.
    10030    2    1    2    0    0  0.00000000000E+00  0.00000000000E+00 -0.75766752950E+02  0.19931789822E+04  0.19917384001E+04 0.  0.
        4    1    3    3  502    0 -0.45072242957E+03 -0.86758368126E+03 -0.22749785600E+03  0.10037973102E+04  0.12699999809E+01 0.  1.
       -4    1    3    3    0  502  0.45072242957E+03  0.86758368126E+03  0.15173110305E+03  0.98938167208E+03  0.12699999809E+01 0. -1.
</event>
<event>
 5   0  0.1664168E-04  0.1953980E+04  0.7818609E-02  0.8628444E-01
       -1   -1    0    0    0  501  0.00000000000E+00  0.00000000000E+00  0.81193645560E+03  0.81193645562E+03  0.50400001928E-02 0.  1.
        1   -1    0    0  501    0  0.00000000000E+00  0.00000000000E+00 -0.11755956763E+04  0.11755956763E+04  0.50400001928E-02 0. -1.
    10030    2    1    2    0    0  0.00000000000E+00  0.00000000000E+00 -0.36365922071E+03  0.19875321319E+04  0.19539795154E+04 0.  0.
        5    1    3    3  502    0  0.89320913607E+03  0.21516628987E+03 -0.51975074287E+03  0.10555955749E+04  0.46999998093E+01 0. -1.
       -5    1    3    3    0  502 -0.89320913607E+03 -0.21516628987E+03  0.15609152215E+03  0.93193655704E+03  0.46999998093E+01 0.  1.
</event>
<event>
 5   0  0.3431030E-04  0.2061272E+04  0.7818609E-02  0.8578498E-01
        2   -1    0    0  501    0  0.00000000000E+00  0.00000000000E+00  0.14690799709E+04  0.14690799709E+04  0.25500000920E-02 0. -1.
       -2   -1    0    0    0  501  0.00000000000E+00  0.00000000000E+00 -0.72304453428E+03  0.72304453428E+03  0.25500000920E-02 0.  1.
    10030    2    1    2    0    0  0.00000000000E+00  0.00000000000E+00  0.74603543661E+03  0.21921245052E+04  0.20612716884E+04 0.  0.
        3    1    3    3  502    0  0.77229563339E+03  0.50945458394E+03 -0.10993141098E+03  0.93170244379E+03  0.10100000352E+00 0.  1.
       -3    1    3    3    0  502 -0.77229563339E+03 -0.50945458394E+03  0.85596684758E+03  0.12604220614E+04  0.10100000352E+00 0. -1.
</event>
<event>
 5   0  0.3431030E-04  0.1893463E+04  0.7818609E-02  0.8658117E-01
        2   -1    0    0  501    0  0.00000000000E+00  0.00000000000E+00  0.11915208531E+04  0.11915208531E+04  0.25500000920E-02 0.  1.
       -2   -1    0    0    0  501  0.00000000000E+00  0.00000000000E+00 -0.75223252694E+03  0.75223252694E+03  0.25500000920E-02 0. -1.
    10030    2    1    2    0    0  0.00000000000E+00  0.00000000000E+00  0.43928832616E+03  0.19437533800E+04  0.18934632209E+04 0.  0.
        3    1    3    3  502    0 -0.19075085940E+03  0.46661203750E+03  0.10422947221E+04  0.11577957427E+04  0.10100000352E+00 0.  1.
       -3    1    3    3    0  502  0.19075085940E+03 -0.46661203750E+03 -0.60300639595E+03  0.78595763732E+03  0.10100000352E+00 0. -1.
</event>
<event>
 5   0  0.1222488E-04  0.1981768E+04  0.7818609E-02  0.8615193E-01
        3   -1    0    0  501    0  0.00000000000E+00  0.00000000000E+00  0.55967190536E+03  0.55967191448E+03  0.10100000352E+00 0. -1.
       -3   -1    0    0    0  501  0.00000000000E+00  0.00000000000E+00 -0.17543331197E+04  0.17543331226E+04  0.10100000352E+00 0.  1.
    10030    2    1    2    0    0  0.00000000000E+00  0.00000000000E+00 -0.11946612143E+04  0.23140050370E+04  0.19817678710E+04 0.  0.
        3    1    3    3  502    0  0.29416222207E+03  0.92390530115E+02 -0.16968941414E+04  0.17246788572E+04  0.10100000352E+00 0.  1.
       -3    1    3    3    0  502 -0.29416222207E+03 -0.92390530115E+02  0.50223292715E+03  0.58932617986E+03  0.10100000352E+00 0. -1.
</event>
<event>
 5   0  0.1664168E-04  0.2081402E+04  0.7818609E-02  0.8569480E-01
        1   -1    0    0  501    0  0.00000000000E+00  0.00000000000E+00  0.15903431965E+04  0.15903431965E+04  0.50400001928E-02 0.  1.
       -1   -1    0    0    0  501  0.00000000000E+00  0.00000000000E+00 -0.68102214801E+03  0.68102214803E+03  0.50400001928E-02 0. -1.
    10030    2    1    2    0    0  0.00000000000E+00  0.00000000000E+00  0.90932104848E+03  0.22713653445E+04  0.20814023540E+04 0.  0.
        5    1    3    3  502    0 -0.64323497309E+03  0.22726098078E+03  0.13122866076E+04  0.14790256977E+04  0.46999998093E+01 0.  1.
       -5    1    3    3    0  502  0.64323497309E+03 -0.22726098078E+03 -0.40296555916E+03  0.79233964678E+03  0.46999998093E+01 0. -1.
</event>
<event>
 5   0  0.3431030E-04  0.1942951E+04  0.7818609E-02  0.8633767E-01
        2   -1    0    0  501    0  0.00000000000E+00  0.00000000000E+00  0.16358276718E+04  0.16358276718E+04  0.25500000920E-02 0. -1.
       -2   -1    0    0    0  501  0.00000000000E+00  0.00000000000E+00 -0.57693419074E+03  0.57693419075E+03  0.25500000920E-02 0.  1.
    10030    2    1    2    0    0  0.00000000000E+00  0.00000000000E+00  0.10588934811E+04  0.22127618626E+04  0.19429512748E+04 0.  0.
        3    1    3    3  502    0 -0.24872706620E+03  0.92097512717E+02  0.15937950802E+04  0.16157134255E+04  0.10100000352E+00 0. -1.
       -3    1    3    3    0  502  0.24872706620E+03 -0.92097512717E+02 -0.53490159913E+03  0.59704843711E+03  0.10100000352E+00 0.  1.
</event>
<event>
 5   0  0.3371947E-04  0.1950246E+04  0.7818609E-02  0.8630242E-01
       -2   -1    0    0    0  501  0.00000000000E+00  0.00000000000E+00  0.10810239557E+04  0.10810239557E+04  0.25500000920E-02 0.  1.
        2   -1    0    0  501    0  0.00000000000E+00  0.00000000000E+00 -0.87959617245E+03  0.87959617245E+03  0.25500000920E-02 0. -1.
    10030    2    1    2    0    0  0.00000000000E+00  0.00000000000E+00  0.20142778322E+03  0.19606201281E+04  0.19502456602E+04 0.  0.
        2    1    3    3  502    0  0.54270930239E+03 -0.38761352623E+03 -0.61446828902E+03  0.90683455538E+03  0.25500000920E-02 0. -1.
       -2    1    3    3    0  502 -0.54270930239E+03  0.38761352623E+03  0.81589607224E+03  0.10537855727E+04  0.25500000920E-02 0.  1.
</event>
<event>
 5   0  0.3387881E-04  0.1780749E+04  0.7818609E-02  0.8716604E-01
        2   -1    0    0  501    0  0.00000000000E+00  0.00000000000E+00  0.72116279646E+03  0.72116279646E+03  0.25500000920E-02 0.  1.
       -2   -1    0    0    0  501  0.00000000000E+00  0.00000000000E+00 -0.10992900758E+04  0.10992900758E+04  0.25500000920E-02 0. -1.
    10030    2    1    2    0    0  0.00000000000E+00  0.00000000000E+00 -0.37812727931E+03  0.18204528722E+04  0.17807493986E+04 0.  0.
        1    1    3    3  502    0  0.68169985413E+03  0.54931411430E+03 -0.23254872160E+02  0.87578620473E+03  0.50400001928E-02 0. -1.
       -1    1    3    3    0  502 -0.68169985413E+03 -0.54931411430E+03 -0.35487240715E+03  0.94466666750E+03  0.50400001928E-02 0.  1.
</event>
<event>
 5   0  0.1650221E-04  0.1871466E+04  0.7818609E-02  0.8669191E-01
       -1   -1    0    0    0  501  0.00000000000E+00  0.00000000000E+00  0.62533218510E+03  0.62533218512E+03  0.50400001928E-02 0.  1.
        1   -1    0    0  501    0  0.00000000000E+00  0.00000000000E+00 -0.14002096038E+04  0.14002096038E+04  0.50400001928E-02 0. -1.
    10030    2    1    2    0    0  0.00000000000E+00  0.00000000000E+00 -0.77487741868E+03  0.20255417889E+04  0.18714658759E+04 0.  0.
        1    1    3    3  502    0 -0.86298556580E+03 -0.95738833911E+02 -0.76499335355E+03  0.11572056179E+04  0.50400001928E-02 0. -1.
       -1    1    3    3    0  502  0.86298556580E+03  0.95738833911E+02 -0.98840651305E+01  0.86833617100E+03  0.50400001928E-02 0.  1.
</event>
<event>
 5   0  0.3395569E-04  0.1970732E+04  0.7818609E-02  0.8620428E-01
        2   -1    0    0  501    0  0.00000000000E+00  0.00000000000E+00  0.49953920699E+03  0.49953920700E+03  0.25500000920E-02 0. -1.
       -2   -1    0    0    0  501  0.00000000000E+00  0.00000000000E+00 -0.19436844844E+04  0.19436844844E+04  0.25500000920E-02 0.  1.
    10030    2    1    2    0    0  0.00000000000E+00  0.00000000000E+00 -0.14441452774E+04  0.24432236914E+04  0.19707324587E+04 0.  0.
        4    1    3    3  502    0  0.30635844341E+03  0.65328006405E+03 -0.15540156959E+04  0.17133583204E+04  0.12699999809E+01 0. -1.
       -4    1    3    3    0  502 -0.30635844341E+03 -0.65328006405E+03  0.10987041858E+03  0.72986537095E+03  0.12699999809E+01 0.  1.
</event>
<event>
 5   0  0.3395569E-04  0.2021110E+04  0.7818609E-02  0.8596814E-01
       -2   -1    0    0    0  501  0.00000000000E+00  0.00000000000E+00  0.12511107764E+04  0.12511107764E+04  0.25500000920E-02 0.  1.
        2   -1    0    0  501    0  0.00000000000E+00  0.00000000000E+00 -0.81625207642E+03  0.81625207643E+03  0.25500000920E-02 0. -1.
    10030    2    1    2    0    0  0.00000000000E+00  0.00000000000E+00  0.43485869994E+03  0.20673628528E+04  0.20211103573E+04 0.  0.
        4    1    3    3  502    0 -0.55173839483E+03 -0.79790016916E+03  0.50703440003E+03  0.10945982971E+04  0.12699999809E+01 0.  1.
       -4    1    3    3    0  502  0.55173839483E+03  0.79790016916E+03 -0.72175700088E+02  0.97276455571E+03  0.12699999809E+01 0. -1.
</event>
<event>
 5   0  0.3460648E-04  0.1932918E+04  0.7818609E-02  0.8638642E-01
        2   -1    0    0  501    0  0.00000000000E+00  0.00000000000E+00  0.18952177736E+04  0.18952177736E+04  0.25500000920E-02 0. -1.
       -2   -1    0    0    0  501  0.00000000000E+00  0.00000000000E+00 -0.49284218442E+03  0.49284218442E+03  0.25500000920E-02 0.  1.
    10030    2    1    2    0    0  0.00000000000E+00  0.00000000000E+00  0.14023755892E+04  0.23880599580E+04  0.19329182782E+04 0.  0.
        5    1    3    3  502    0  0.87040540341E+03 -0.41248446849E+03  0.79903328154E+03  0.12514892241E+04  0.46999998093E+01 0.  1.
       -5    1    3    3    0  502 -0.87040540341E+03  0.41248446849E+03  0.60334230767E+03  0.11365707339E+04  0.46999998093E+01 0. -1.
</event>
<event>
 5   0  0.1696052E-04  0.2016483E+04  0.7818609E-02  0.8598953E-01
       -1   -1    0    0    0  501  0.00000000000E+00  0.00000000000E+00  0.57125799587E+03  0.57125799589E+03  0.50400001928E-02 0. -1.
        1   -1    0    0  501    0  0.00000000000E+00  0.00000000000E+00 -0.17794956332E+04  0.17794956332E+04  0.50400001928E-02 0.  1.
    10030    2    1    2    0    0  0.00000000000E+00  0.00000000000E+00 -0.12082376374E+04  0.23507536291E+04  0.20164831853E+04 0.  0.
        4    1    3    3  502    0 -0.30922280045E+03  0.95884007107E+03 -0.65011094075E+03  0.11990157924E+04  0.12699999809E+01 0.  1.
       -4    1    3    3    0  502  0.30922280045E+03 -0.95884007107E+03 -0.55812669660E+03  0.11517378367E+04  0.12699999809E+01 0. -1.
</event>
<event>
 5   0  0.1643565E-04  0.1849412E+04  0.7818609E-02  0.8680455E-01
        1   -1    0    0  501    0  0.00000000000E+00  0.00000000000E+00  0.65181902952E+03  0.65181902953E+03  0.50400001928E-02 0.  1.
       -1   -1    0    0    0  501  0.00000000000E+00  0.00000000000E+00 -0.13118386269E+04  0.13118386269E+04  0.50400001928E-02 0. -1.
    10030    2    1    2    0    0  0.00000000000E+00  0.00000000000E+00 -0.66001959742E+03  0.19636576565E+04  0.18494122101E+04 0.  0.
        2    1    3    3  502    0 -0.57323394408E+03 -0.20422469498E+03  0.40925977826E+03  0.73334742571E+03  0.25500000920E-02 0.  1.
       -2    1    3    3    0  502  0.57323394408E+03  0.20422469498E+03 -0.10692793757E+04  0.12303102308E+04  0.25500000920E-02 0. -1.
</event>
<event>
 5   0  0.3431030E-04  0.1999263E+04  0.7818609E-02  0.8606965E-01
        2   -1    0    0  501    0  0.00000000000E+00  0.00000000000E+00  0.23874580788E+04  0.23874580788E+04  0.25500000920E-02 0. -1.
       -2   -1    0    0    0  501  0.00000000000E+00  0.00000000000E+00 -0.41854680344E+03  0.41854680345E+03  0.25500000920E-02 0.  1.
    10030    2    1    2    0    0  0.00000000000E+00  0.00000000000E+00  0.19689112753E+04  0.28060048822E+04  0.19992628114E+04 0.  0.
        3    1    3    3  502    0 -0.37055143423E+03 -0.39907942498E+02 -0.31738890434E+03  0.48952705348E+03  0.10100000352E+00 0.  1.
       -3    1    3    3    0  502  0.37055143423E+03  0.39907942498E+02  0.22863001797E+04  0.23164778288E+04  0.10100000352E+00 0. -1.
</event>
<event>
 5   0  0.3395569E-04  0.1427066E+04  0.7818609E-02  0.8934457E-01
       -2   -1    0    0    0  501  0.00000000000E+00  0.00000000000E+00  0.40504095072E+03  0.40504095073E+03  0.25500000920E-02 0. -1.
        2   -1    0    0  501    0  0.00000000000E+00  0.00000000000E+00 -0.12569820068E+04  0.12569820068E+04  0.25500000920E-02 0.  1.
    10030    2    1    2    0    0  0.00000000000E+00  0.00000000000E+00 -0.85194105607E+03  0.16620229575E+04  0.14270657828E+04 0.  0.
        4    1    3    3  502    0 -0.10639309748E+03 -0.41748210414E+03 -0.10884027179E+04  0.11705694715E+04  0.12699999809E+01 0.  1.
       -4    1    3    3    0  502  0.10639309748E+03  0.41748210414E+03  0.23646166183E+03  0.49145348598E+03  0.12699999809E+01 0. -1.
</event>
<event>
 5   0  0.3395569E-04  0.2020467E+04  0.7818609E-02  0.8597111E-01
        2   -1    0    0  501    0  0.00000000000E+00  0.00000000000E+00  0.12148225202E+04  0.12148225202E+04  0.25500000920E-02 0. -1.
       -2   -1    0    0    0  501  0.00000000000E+00  0.00000000000E+00 -0.84009920477E+03  0.84009920477E+03  0.25500000920E-02 0.  1.
    10030    2    1    2    0    0  0.00000000000E+00  0.00000000000E+00  0.37472331540E+03  0.20549217249E+04  0.20204667116E+04 0.  0.
        4    1    3    3  502    0 -0.49348702851E+03 -0.64824349723E+03  0.79489291835E+03  0.11382466532E+04  0.12699999809E+01 0. -1.
       -4    1    3    3    0  502  0.49348702851E+03  0.64824349723E+03 -0.42016960295E+03  0.91667507174E+03  0.12699999809E+01 0.  1.
</event>
<event>
 5   0  0.1708578E-04  0.2009103E+04  0.7818609E-02  0.8602377E-01
        1   -1    0    0  501    0  0.00000000000E+00  0.00000000000E+00  0.12602791923E+04  0.12602791923E+04  0.50400001928E-02 0.  1.
       -1   -1    0    0    0  501  0.00000000000E+00  0.00000000000E+00 -0.80071434717E+03  0.80071434718E+03  0.50400001928E-02 0. -1.
    10030    2    1    2    0    0  0.00000000000E+00  0.00000000000E+00  0.45956484510E+03  0.20609935395E+04  0.20091029149E+04 0.  0.
        3    1    3    3  502    0  0.61467040618E+03 -0.54798437286E+03 -0.36041814347E+03  0.89889255724E+03  0.10100000352E+00 0. -1.
       -3    1    3    3    0  502 -0.61467040618E+03  0.54798437286E+03  0.81998298856E+03  0.11621009822E+04  0.10100000352E+00 0.  1.
</event>
<event>
 5   0  0.1650221E-04  0.1994317E+04  0.7818609E-02  0.8609282E-01
        1   -1    0    0  501    0  0.00000000000E+00  0.00000000000E+00  0.67953684534E+03  0.67953684536E+03  0.50400001928E-02 0.  1.
       -1   -1    0    0    0  501  0.00000000000E+00  0.00000000000E+00 -0.14632398372E+04  0.14632398372E+04  0.50400001928E-02 0. -1.
    10030    2    1    2    0    0  0.00000000000E+00  0.00000000000E+00 -0.78370299183E+03  0.21427766825E+04  0.19943173097E+04 0.  0.
        1    1    3    3  502    0  0.35485277753E+03 -0.92552206389E+03 -0.27506908637E+03  0.10286761331E+04  0.50400001928E-02 0.  1.
       -1    1    3    3    0  502 -0.35485277753E+03  0.92552206389E+03 -0.50863390546E+03  0.11141005495E+04  0.50400001928E-02 0. -1.
</event>
<event>
 5   0  0.1643565E-04  0.1507123E+04  0.7818609E-02  0.8879730E-01
       -1   -1    0    0    0  501  0.00000000000E+00  0.00000000000E+00  0.48638768713E+03  0.48638768716E+03  0.50400001928E-02 0. -1.
        1   -1    0    0  501    0  0.00000000000E+00  0.00000000000E+00 -0.11674950018E+04  0.11674950018E+04  0.50400001928E-02 0.  1.
    10030    2    1    2    0    0  0.00000000000E+00  0.00000000000E+00 -0.68110731467E+03  0.16538826890E+04  0.15071233442E+04 0.  0.
        2    1    3    3  502    0 -0.25676020402E+03 -0.15812289890E+03  0.41729354226E+03  0.51484226123E+03  0.25500000920E-02 0. -1.
       -2    1    3    3    0  502  0.25676020402E+03  0.15812289890E+03 -0.10984008569E+04  0.11390404277E+04  0.25500000920E-02 0.  1.
</event>
<event>
 5   0  0.3387881E-04  0.2004765E+04  0.7818609E-02  0.8604396E-01
       -2   -1    0    0    0  501  0.00000000000E+00  0.00000000000E+00  0.12454973569E+04  0.12454973569E+04  0.25500000920E-02 0. -1.
        2   -1    0    0  501    0  0.00000000000E+00  0.00000000000E+00 -0.80672220069E+03  0.80672220069E+03  0.25500000920E-02 0.  1.
    10030    2    1    2    0    0  0.00000000000E+00  0.00000000000E+00  0.43877515622E+03  0.20522195576E+04  0.20047646931E+04 0.  0.
        1    1    3    3  502    0  0.66098576047E+03  0.69857556602E+03 -0.69897532078E+02  0.96425912596E+03  0.50400001928E-02 0.  1.
       -1    1    3    3    0  502 -0.66098576047E+03 -0.69857556602E+03  0.50867268830E+03  0.10879604316E+04  0.50400001928E-02 0. -1.
</event>
<event>
 5   0  0.3395569E-04  0.2026542E+04  0.7818609E-02  0.8594311E-01
        2   -1    0    0  501    0  0.00000000000E+00  0.00000000000E+00  0.12027489856E+04  0.12027489856E+04  0.25500000920E-02 0. -1.
       -2   -1    0    0    0  501  0.00000000000E+00  0.00000000000E+00 -0.85364260682E+03  0.85364260683E+03  0.25500000920E-02 0.  1.
    10030    2    1    2    0    0  0.00000000000E+00  0.00000000000E+00  0.34910637874E+03  0.20563915924E+04  0.20265416644E+04 0.  0.
        4    1    3    3  502    0 -0.14781997661E+03 -0.62329609380E+03 -0.62210149296E+03  0.89295052857E+03  0.12699999809E+01 0.  1.
       -4    1    3    3    0  502  0.14781997661E+03  0.62329609380E+03  0.97120787171E+03  0.11634410638E+04  0.12699999809E+01 0. -1.
</event>
<event>
 5   0  0.1664168E-04  0.2083812E+04  0.7818609E-02  0.8568408E-01
        1   -1    0    0  501    0  0.00000000000E+00  0.00000000000E+00  0.18910376059E+04  0.18910376059E+04  0.50400001928E-02 0. -1.
       -1   -1    0    0    0  501  0.00000000000E+00  0.00000000000E+00 -0.57405972980E+03  0.57405972982E+03  0.50400001928E-02 0.  1.
    10030    2    1    2    0    0  0.00000000000E+00  0.00000000000E+00  0.13169778761E+04  0.24650973357E+04  0.20838124072E+04 0.  0.
        5    1    3    3  502    0  0.88653224088E+03  0.13918961091E+02  0.11180909697E+02  0.88672445232E+03  0.46999998093E+01 0.  1.
       -5    1    3    3    0  502 -0.88653224088E+03 -0.13918961091E+02  0.13057969664E+04  0.15783728834E+04  0.46999998093E+01 0. -1.
</event>
<event>
 5   0  0.3387881E-04  0.2024394E+04  0.7818609E-02  0.8595300E-01
        2   -1    0    0  501    0  0.00000000000E+00  0.00000000000E+00  0.25129436553E+04  0.25129436553E+04  0.25500000920E-02 0. -1.
       -2   -1    0    0    0  501  0.00000000000E+00  0.00000000000E+00 -0.40770641895E+03  0.40770641896E+03  0.25500000920E-02 0.  1.
    10030    2    1    2    0    0  0.00000000000E+00  0.00000000000E+00  0.21052372363E+04  0.29206500742E+04  0.20243944860E+04 0.  0.
        1    1    3    3  502    0 -0.70488010206E+03 -0.62665590713E+03  0.15826903644E+04  0.18424066798E+04  0.50400001928E-02 0. -1.
       -1    1    3    3    0  502  0.70488010206E+03  0.62665590713E+03  0.52254687190E+03  0.10782433944E+04  0.50400001928E-02 0.  1.
</event>
<event>
 5   0  0.1708578E-04  0.2007147E+04  0.7818609E-02  0.8603287E-01
       -1   -1    0    0    0  501  0.00000000000E+00  0.00000000000E+00  0.14288325305E+04  0.14288325305E+04  0.50400001928E-02 0. -1.
        1   -1    0    0  501    0  0.00000000000E+00  0.00000000000E+00 -0.70488284017E+03  0.70488284019E+03  0.50400001928E-02 0.  1.
    10030    2    1    2    0    0  0.00000000000E+00  0.00000000000E+00  0.72394969029E+03  0.21337153707E+04  0.20071467632E+04 0.  0.
        3    1    3    3  502    0 -0.19856943580E+03  0.65407352402E+03 -0.41915111063E+03  0.80182894648E+03  0.10100000352E+00 0.  1.
       -3    1    3    3    0  502  0.19856943580E+03 -0.65407352402E+03  0.11431008009E+04  0.13318864242E+04  0.10100000352E+00 0. -1.
</event>
<event>
 5   0  0.1222488E-04  0.2002219E+04  0.7818609E-02  0.8605584E-01
       -3   -1    0    0    0  501  0.00000000000E+00  0.00000000000E+00  0.60498948243E+03  0.60498949086E+03  0.10100000352E+00 0.  1.
        3   -1    0    0  501    0  0.00000000000E+00  0.00000000000E+00 -0.16565906902E+04  0.16565906933E+04  0.10100000352E+00 0. -1.
    10030    2    1    2    0    0  0.00000000000E+00  0.00000000000E+00 -0.10516012078E+04  0.22615801841E+04  0.20022187266E+04 0.  0.
        2    1    3    3  502    0  0.84789743085E+03 -0.30101871673E+03 -0.29989640018E+02  0.90024535521E+03  0.25500000920E-02 0.  1.
       -2    1    3    3    0  502 -0.84789743085E+03  0.30101871673E+03 -0.10216115677E+04  0.13613348289E+04  0.25500000920E-02 0. -1.
</event>
<event>
 5   0  0.1664168E-04  0.1930638E+04  0.7818609E-02  0.8639754E-01
        1   -1    0    0  501    0  0.00000000000E+00  0.00000000000E+00  0.95711643545E+03  0.95711643546E+03  0.50400001928E-02 0.  1.
       -1   -1    0    0    0  501  0.00000000000E+00  0.00000000000E+00 -0.97359232142E+03  0.97359232144E+03  0.50400001928E-02 0. -1.
    10030    2    1    2    0    0  0.00000000000E+00  0.00000000000E+00 -0.16475885971E+02  0.19307087569E+04  0.19306384564E+04 0.  0.
        5    1    3    3  502    0 -0.87872521136E+03  0.39355782745E+03  0.60854092021E+02  0.96476477503E+03  0.46999998093E+01 0.  1.
       -5    1    3    3    0  502  0.87872521136E+03 -0.39355782745E+03 -0.77329977992E+02  0.96594398187E+03  0.46999998093E+01 0. -1.
</event>
<event>
 5   0  0.1222488E-04  0.2057759E+04  0.7818609E-02  0.8580082E-01
       -4   -1    0    0    0  501  0.00000000000E+00  0.00000000000E+00  0.17881364778E+04  0.17881369288E+04  0.12699999809E+01 0.  1.
        4   -1    0    0  501    0  0.00000000000E+00  0.00000000000E+00 -0.59200800922E+03  0.59200937145E+03  0.12699999809E+01 0. -1.
    10030    2    1    2    0    0  0.00000000000E+00  0.00000000000E+00  0.11961284685E+04  0.23801463002E+04  0.20577592418E+04 0.  0.
        4    1    3    3  502    0  0.11127298337E+03 -0.68334715478E+03 -0.28225635085E+03  0.74767323830E+03  0.12699999809E+01 0. -1.
       -4    1    3    3    0  502 -0.11127298337E+03  0.68334715478E+03  0.14783848194E+04  0.16324730619E+04  0.12699999809E+01 0.  1.
</event>
<event>
 5   0  0.3460648E-04  0.2073883E+04  0.7818609E-02  0.8572836E-01
       -2   -1    0    0    0  501  0.00000000000E+00  0.00000000000E+00  0.99271190681E+03  0.99271190681E+03  0.25500000920E-02 0. -1.
        2   -1    0    0  501    0  0.00000000000E+00  0.00000000000E+00 -0.10831412831E+04  0.10831412831E+04  0.25500000920E-02 0.  1.
    10030    2    1    2    0    0  0.00000000000E+00  0.00000000000E+00 -0.90429376250E+02  0.20758531899E+04  0.20738825892E+04 0.  0.
        5    1    3    3  502    0 -0.23054558636E+03  0.94355037228E+03  0.31815447941E+03  0.10220973218E+04  0.46999998093E+01 0. -1.
       -5    1    3    3    0  502  0.23054558636E+03 -0.94355037228E+03 -0.40858385566E+03  0.10537558681E+04  0.46999998093E+01 0.  1.
</event>
<event>
 5   0  0.3395569E-04  0.1836185E+04  0.7818609E-02  0.8687290E-01
       -2   -1    0    0    0  501  0.00000000000E+00  0.00000000000E+00  0.33636821949E+03  0.33636821950E+03  0.25500000920E-02 0.  1.
        2   -1    0    0  501    0  0.00000000000E+00  0.00000000000E+00 -0.25058666321E+04  0.25058666321E+04  0.25500000920E-02 0. -1.
    10030    2    1    2    0    0  0.00000000000E+00  0.00000000000E+00 -0.21694984126E+04  0.28422348516E+04  0.18361850640E+04 0.  0.
        4    1    3    3  502    0 -0.66952059181E+03  0.53941424073E+03 -0.58636619754E+03  0.10406980717E+04  0.12699999809E+01 0.  1.
       -4    1    3    3    0  502  0.66952059181E+03 -0.53941424073E+03 -0.15831322151E+04  0.18015367799E+04  0.12699999809E+01 0. -1.
</event>
<event>
 5   0  0.1650221E-04  0.2340684E+04  0.7818609E-02  0.8462050E-01
        1   -1    0    0  501    0  0.00000000000E+00  0.00000000000E+00  0.19722303850E+04  0.19722303850E+04  0.50400001928E-02 0.  1.
       -1   -1    0    0    0  501  0.00000000000E+00  0.00000000000E+00 -0.69449329366E+03  0.69449329368E+03  0.50400001928E-02 0. -1.
    10030    2    1    2    0    0  0.00000000000E+00  0.00000000000E+00  0.12777370913E+04  0.26667236786E+04  0.23406843238E+04 0.  0.
        1    1    3    3  502    0  0.95454384130E+03 -0.20297311826E+03 -0.97143167890E+02  0.98070832912E+03  0.50400001928E-02 0. -1.
       -1    1    3    3    0  502 -0.95454384130E+03  0.20297311826E+03  0.13748802592E+04  0.16860153495E+04  0.50400001928E-02 0.  1.
</event>
<event>
 5   0  0.3460648E-04  0.1785014E+04  0.7818609E-02  0.8714310E-01
        2   -1    0    0  501    0  0.00000000000E+00  0.00000000000E+00  0.10891025483E+04  0.10891025483E+04  0.25500000920E-02 0.  1.
       -2   -1    0    0    0  501  0.00000000000E+00  0.00000000000E+00 -0.73139896013E+03  0.73139896014E+03  0.25500000920E-02 0. -1.
    10030    2    1    2    0    0  0.00000000000E+00  0.00000000000E+00  0.35770358818E+03  0.18205015085E+04  0.17850136933E+04 0.  0.
        5    1    3    3  502    0  0.91033214369E+02  0.98018917548E+02  0.10788074046E+04  0.10870796937E+04  0.46999998093E+01 0.  1.
       -5    1    3    3    0  502 -0.91033214369E+02 -0.98018917548E+02 -0.72110381640E+03  0.73342181474E+03  0.46999998093E+01 0. -1.
</event>
<event>
 5   0  0.1664168E-04  0.1979967E+04  0.7818609E-02  0.8616044E-01
       -1   -1    0    0    0  501  0.00000000000E+00  0.00000000000E+00  0.13264209670E+04  0.13264209670E+04  0.50400001928E-02 0. -1.
        1   -1    0    0  501    0  0.00000000000E+00  0.00000000000E+00 -0.73888102831E+03  0.73888102833E+03  0.50400001928E-02 0.  1.
    10030    2    1    2    0    0  0.00000000000E+00  0.00000000000E+00  0.58753993866E+03  0.20653019953E+04  0.19799669574E+04 0.  0.
        5    1    3    3  502    0 -0.56302026753E+03 -0.81018469390E+03  0.37885859915E+03  0.10568571275E+04  0.46999998093E+01 0. -1.
       -5    1    3    3    0  502  0.56302026753E+03  0.81018469390E+03  0.20868133951E+03  0.10084448678E+04  0.46999998093E+01 0.  1.
</event>
<event>
 5   0  0.3431030E-04  0.1869554E+04  0.7818609E-02  0.8670161E-01
        2   -1    0    0  501    0  0.00000000000E+00  0.00000000000E+00  0.16529188501E+04  0.16529188501E+04  0.25500000920E-02 0.  1.
       -2   -1    0    0    0  501  0.00000000000E+00  0.00000000000E+00 -0.52864551000E+03  0.52864551000E+03  0.25500000920E-02 0. -1.
    10030    2    1    2    0    0  0.00000000000E+00  0.00000000000E+00  0.11242733401E+04  0.21815643601E+04  0.18695540950E+04 0.  0.
        3    1    3    3  502    0  0.55123942174E+03  0.25938556712E+03  0.13894464741E+04  0.15171378603E+04  0.10100000352E+00 0.  1.
       -3    1    3    3    0  502 -0.55123942174E+03 -0.25938556712E+03 -0.26517313397E+03  0.66442649984E+03  0.10100000352E+00 0. -1.
</event>
<event>
 5   0  0.3460648E-04  0.1984749E+04  0.7818609E-02  0.8613784E-01
        2   -1    0    0  501    0  0.00000000000E+00  0.00000000000E+00  0.11821483406E+04  0.11821483406E+04  0.25500000920E-02 0. -1.
       -2   -1    0    0    0  501  0.00000000000E+00  0.00000000000E+00 -0.83306545687E+03  0.83306545688E+03  0.25500000920E-02 0.  1.
    10030    2    1    2    0    0  0.00000000000E+00  0.00000000000E+00  0.34908288374E+03  0.20152137975E+04  0.19847487977E+04 0.  0.
        5    1    3    3  502    0 -0.28326289874E+03 -0.77993502353E+03 -0.37810012617E+03  0.91187625593E+03  0.46999998093E+01 0.  1.
       -5    1    3    3    0  502  0.28326289874E+03  0.77993502353E+03  0.72718300990E+03  0.11033375416E+04  0.46999998093E+01 0. -1.
</event>
<event>
 5   0  0.1696052E-04  0.1987385E+04  0.7818609E-02  0.8612542E-01
       -1   -1    0    0    0  501  0.00000000000E+00  0.00000000000E+00  0.48106628072E+03  0.48106628075E+03  0.50400001928E-02 0. -1.
        1   -1    0    0  501    0  0.00000000000E+00  0.00000000000E+00 -0.20525744178E+04  0.20525744178E+04  0.50400001928E-02 0.  1.
    10030    2    1    2    0    0  0.00000000000E+00  0.00000000000E+00 -0.15715081370E+04  0.25336406985E+04  0.19873845537E+04 0.  0.
        4    1    3    3  502    0 -0.38543678496E+03 -0.90560859236E+03 -0.96024856777E+03  0.13750517672E+04  0.12699999809E+01 0.  1.
       -4    1    3    3    0  502  0.38543678496E+03  0.90560859236E+03 -0.61125956927E+03  0.11585889313E+04  0.12699999809E+01 0. -1.
</event>
<event>
 5   0  0.3431030E-04  0.1987822E+04  0.7818609E-02  0.8612336E-01
       -2   -1    0    0    0  501  0.00000000000E+00  0.00000000000E+00  0.77219990749E+03  0.77219990749E+03  0.25500000920E-02 0.  1.
        2   -1    0    0  501    0  0.00000000000E+00  0.00000000000E+00 -0.12792783688E+04  0.12792783688E+04  0.25500000920E-02 0. -1.
    10030    2    1    2    0    0  0.00000000000E+00  0.00000000000E+00 -0.50707846131E+03  0.20514782763E+04  0.19878215594E+04 0.  0.
        3    1    3    3  502    0  0.68453385662E+03 -0.71418908277E+03 -0.35255960491E+03  0.10502147076E+04  0.10100000352E+00 0. -1.
       -3    1    3    3    0  502 -0.68453385662E+03  0.71418908277E+03 -0.15451885639E+03  0.10012635687E+04  0.10100000352E+00 0.  1.
</event>
<event>
 5   0  0.3371947E-04  0.1994100E+04  0.7818609E-02  0.8609384E-01
        2   -1    0    0  501    0  0.00000000000E+00  0.00000000000E+00  0.91172383811E+03  0.91172383811E+03  0.25500000920E-02 0. -1.
       -2   -1    0    0    0  501  0.00000000000E+00  0.00000000000E+00 -0.10903619054E+04  0.10903619054E+04  0.25500000920E-02 0.  1.
    10030    2    1    2    0    0  0.00000000000E+00  0.00000000000E+00 -0.17863806729E+03  0.20020857435E+04  0.19941002395E+04 0.  0.
        2    1    3    3  502    0  0.17939027700E+03 -0.27675637408E+03 -0.10340088938E+04  0.10853337526E+04  0.25500000920E-02 0.  1.
       -2    1    3    3    0  502 -0.17939027700E+03  0.27675637408E+03  0.85537082649E+03  0.91675199094E+03  0.25500000920E-02 0. -1.
</event>
<event>
 5   0  0.3395569E-04  0.1943123E+04  0.7818609E-02  0.8633684E-01
       -2   -1    0    0    0  501  0.00000000000E+00  0.00000000000E+00  0.45007964880E+03  0.45007964881E+03  0.25500000920E-02 0. -1.
        2   -1    0    0  501    0  0.00000000000E+00  0.00000000000E+00 -0.20972551158E+04  0.20972551158E+04  0.25500000920E-02 0.  1.
    10030    2    1    2    0    0  0.00000000000E+00  0.00000000000E+00 -0.16471754670E+04  0.25473347646E+04  0.19431231005E+04 0.  0.
        4    1    3    3  502    0  0.31504764102E+03 -0.38882946033E+03 -0.19152915499E+04  0.19795925589E+04  0.12699999809E+01 0.  1.
       -4    1    3    3    0  502 -0.31504764102E+03  0.38882946033E+03  0.26811608289E+03  0.56774220570E+03  0.12699999809E+01 0. -1.
</event>
<event>
 5   0  0.3460648E-04  0.1960147E+04  0.7818609E-02  0.8625483E-01
       -2   -1    0    0    0  501  0.00000000000E+00  0.00000000000E+00  0.49771761562E+03  0.49771761563E+03  0.25500000920E-02 0.  1.
        2   -1    0    0  501    0  0.00000000000E+00  0.00000000000E+00 -0.19298975761E+04  0.19298975761E+04  0.25500000920E-02 0. -1.
    10030    2    1    2    0    0  0.00000000000E+00  0.00000000000E+00 -0.14321799605E+04  0.24276151917E+04  0.19601469537E+04 0.  0.
        5    1    3    3  502    0  0.40065878254E+03  0.54736742427E+02  0.38956576825E+03  0.56152217123E+03  0.46999998093E+01 0.  1.
       -5    1    3    3    0  502 -0.40065878254E+03 -0.54736742427E+02 -0.18217457287E+04  0.18660930205E+04  0.46999998093E+01 0. -1.
</event>
<event>
 5   0  0.3387881E-04  0.2022581E+04  0.7818609E-02  0.8596136E-01
       -2   -1    0    0    0  501  0.00000000000E+00  0.00000000000E+00  0.11583192417E+04  0.11583192417E+04  0.25500000920E-02 0. -1.
        2   -1    0    0  501    0  0.00000000000E+00  0.00000000000E+00 -0.88292439669E+03  0.88292439669E+03  0.25500000920E-02 0.  1.
    10030    2    1    2    0    0  0.00000000000E+00  0.00000000000E+00  0.27539484502E+03  0.20412436384E+04  0.20225808440E+04 0.  0.
        1    1    3    3  502    0 -0.22131620648E+03  0.34269004464E+03 -0.79620099855E+03  0.89462470347E+03  0.50400001928E-02 0.  1.
       -1    1    3    3    0  502  0.22131620648E+03 -0.34269004464E+03  0.10715958436E+04  0.11466189349E+04  0.50400001928E-02 0. -1.
</event>
<event>
 5   0  0.3387881E-04  0.1991615E+04  0.7818609E-02  0.8610551E-01
        2   -1    0    0  501    0  0.00000000000E+00  0.00000000000E+00  0.17432662081E+04  0.17432662081E+04  0.25500000920E-02 0.  1.
       -2   -1    0    0    0  501  0.00000000000E+00  0.00000000000E+00 -0.56883621087E+03  0.56883621088E+03  0.25500000920E-02 0. -1.
    10030    2    1    2    0    0  0.00000000000E+00  0.00000000000E+00  0.11744299973E+04  0.23121024190E+04  0.19916153689E+04 0.  0.
        1    1    3    3  502    0 -0.51068810680E+03 -0.22633080062E+03  0.15442545198E+04  0.16421784299E+04  0.50400001928E-02 0.  1.
       -1    1    3    3    0  502  0.51068810680E+03  0.22633080062E+03 -0.36982452251E+03  0.66992398913E+03  0.50400001928E-02 0. -1.
</event>
<event>
 5   0  0.1650221E-04  0.2015507E+04  0.7818609E-02  0.8599405E-01
        1   -1    0    0  501    0  0.00000000000E+00  0.00000000000E+00  0.16156440848E+04  0.16156440848E+04  0.50400001928E-02 0.  1.
       -1   -1    0    0    0  501  0.00000000000E+00  0.00000000000E+00 -0.62858326056E+03  0.62858326058E+03  0.50400001928E-02 0. -1.
    10030    2    1    2    0    0  0.00000000000E+00  0.00000000000E+00  0.98706082425E+03  0.22442273454E+04  0.20155067122E+04 0.  0.
        1    1    3    3  502    0  0.78852015130E+03 -0.59951623335E+03  0.28706133658E+03  0.10313040066E+04  0.50400001928E-02 0. -1.
       -1    1    3    3    0  502 -0.78852015130E+03  0.59951623335E+03  0.69999948767E+03  0.12129233388E+04  0.50400001928E-02 0.  1.
</event>
<event>
 5   0  0.1643565E-04  0.1709258E+04  0.7818609E-02  0.8756102E-01
       -1   -1    0    0    0  501  0.00000000000E+00  0.00000000000E+00  0.72377755933E+03  0.72377755935E+03  0.50400001928E-02 0.  1.
        1   -1    0    0  501    0  0.00000000000E+00  0.00000000000E+00 -0.10091373692E+04  0.10091373692E+04  0.50400001928E-02 0. -1.
    10030    2    1    2    0    0  0.00000000000E+00  0.00000000000E+00 -0.28535980983E+03  0.17329149285E+04  0.17092582977E+04 0.  0.
        2    1    3    3  502    0 -0.44728217752E+03 -0.72823073458E+03 -0.13953324448E+03  0.86593930240E+03  0.25500000920E-02 0. -1.
       -2    1    3    3    0  502  0.44728217752E+03  0.72823073458E+03 -0.14582656535E+03  0.86697562612E+03  0.25500000920E-02 0.  1.
</event>
<event>
 5   0  0.3387881E-04  0.1984019E+04  0.7818609E-02  0.8614129E-01
        2   -1    0    0  501    0  0.00000000000E+00  0.00000000000E+00  0.15043720993E+04  0.15043720993E+04  0.25500000920E-02 0.  1.
       -2   -1    0    0    0  501  0.00000000000E+00  0.00000000000E+00 -0.65414855139E+03  0.65414855140E+03  0.25500000920E-02 0. -1.
    10030    2    1    2    0    0  0.00000000000E+00  0.00000000000E+00  0.85022354787E+03  0.21585206507E+04  0.19840189813E+04 0.  0.
        1    1    3    3  502    0  0.57553154095E+03  0.41049277553E+02 -0.45280764042E+03  0.73345508183E+03  0.50400001928E-02 0. -1.
       -1    1    3    3    0  502 -0.57553154095E+03 -0.41049277553E+02  0.13030311883E+04  0.14250655688E+04  0.50400001928E-02 0.  1.
</event>
<event>
 5   0  0.1664168E-04  0.2003815E+04  0.7818609E-02  0.8604839E-01
        1   -1    0    0  501    0  0.00000000000E+00  0.00000000000E+00  0.22403600177E+04  0.22403600177E+04  0.50400001928E-02 0. -1.
       -1   -1    0    0    0  501  0.00000000000E+00  0.00000000000E+00 -0.44806144005E+03  0.44806144008E+03  0.50400001928E-02 0.  1.
    10030    2    1    2    0    0  0.00000000000E+00  0.00000000000E+00  0.17922985777E+04  0.26884214578E+04  0.20038152967E+04 0.  0.
        5    1    3    3  502    0 -0.75679182283E+02 -0.14383882359E+03 -0.43024110289E+03  0.45994178155E+03  0.46999998093E+01 0.  1.
       -5    1    3    3    0  502  0.75679182283E+02  0.14383882359E+03  0.22225396805E+04  0.22284796762E+04  0.46999998093E+01 0. -1.
</event>
<event>
 5   0  0.3460648E-04  0.2045722E+04  0.7818609E-02  0.8585538E-01
        2   -1    0    0  501    0  0.00000000000E+00  0.00000000000E+00  0.14446971750E+04  0.14446971750E+04  0.25500000920E-02 0.  1.
       -2   -1    0    0    0  501  0.00000000000E+00  0.00000000000E+00 -0.72419652999E+03  0.72419653000E+03  0.25500000920E-02 0. -1.
    10030    2    1    2    0    0  0.00000000000E+00  0.00000000000E+00  0.72050064500E+03  0.21688937050E+04  0.20457220545E+04 0.  0.
        5    1    3    3  502    0 -0.76709941315E+03 -0.38218033619E+03  0.95218457007E+03  0.12810858146E+04  0.46999998093E+01 0.  1.
       -5    1    3    3    0  502  0.76709941315E+03  0.38218033619E+03 -0.23168392507E+03  0.88780789034E+03  0.46999998093E+01 0. -1.
</event>
<event>
 5   0  0.1708578E-04  0.1990375E+04  0.7818609E-02  0.8611134E-01
       -1   -1    0    0    0  501  0.00000000000E+00  0.00000000000E+00  0.11399876215E+04  0.11399876215E+04  0.50400001928E-02 0.  1.
        1   -1    0    0  501    0  0.00000000000E+00  0.00000000000E+00 -0.86877960236E+03  0.86877960237E+03  0.50400001928E-02 0. -1.
    10030    2    1    2    0    0  0.00000000000E+00  0.00000000000E+00  0.27120801915E+03  0.20087672239E+04  0.19903748316E+04 0.  0.
        3    1    3    3  502    0  0.21724518816E+03 -0.55586916193E+03 -0.66812929510E+03  0.89586983549E+03  0.10100000352E+00 0. -1.
       -3    1    3    3    0  502 -0.21724518816E+03  0.55586916193E+03  0.93933731425E+03  0.11128973884E+04  0.10100000352E+00 0.  1.
</event>
<event>
 5   0  0.3371947E-04  0.1764870E+04  0.7818609E-02  0.8725208E-01
       -2   -1    0    0    0  501  0.00000000000E+00  0.00000000000E+00  0.50271047519E+03  0.50271047520E+03  0.25500000920E-02 0. -1.
        2   -1    0    0  501    0  0.00000000000E+00  0.00000000000E+00 -0.15489860060E+04  0.15489860060E+04  0.25500000920E-02 0.  1.
    10030    2    1    2    0    0  0.00000000000E+00  0.00000000000E+00 -0.10462755309E+04  0.20516964813E+04  0.17648699569E+04 0.  0.
        2    1    3    3  502    0 -0.45150875222E+03  0.61648154730E+03 -0.10362054186E+04  0.12874903188E+04  0.25500000920E-02 0.  1.
       -2    1    3    3    0  502  0.45150875222E+03 -0.61648154730E+03 -0.10070112223E+02  0.76420616241E+03  0.25500000920E-02 0. -1.
</event>
<event>
 5   0  0.1696052E-04  0.1498623E+04  0.7818609E-02  0.8885369E-01
        1   -1    0    0  501    0  0.00000000000E+00  0.00000000000E+00  0.57099897664E+03  0.57099897666E+03  0.50400001928E-02 0.  1.
       -1   -1    0    0    0  501  0.00000000000E+00  0.00000000000E+00 -0.98330787427E+03  0.98330787429E+03  0.50400001928E-02 0. -1.
    10030    2    1    2    0    0  0.00000000000E+00  0.00000000000E+00 -0.41230889763E+03  0.15543068509E+04  0.14986230880E+04 0.  0.
        4    1    3    3  502    0  0.54138019463E+03 -0.17651735573E+02 -0.74313929774E+03  0.91959867750E+03  0.12699999809E+01 0. -1.
       -4    1    3    3    0  502 -0.54138019463E+03  0.17651735573E+02  0.33083040011E+03  0.63470817345E+03  0.12699999809E+01 0.  1.
</event>
<event>
 5   0  0.1664168E-04  0.2003843E+04  0.7818609E-02  0.8604826E-01
        1   -1    0    0  501    0  0.00000000000E+00  0.00000000000E+00  0.23434430476E+04  0.23434430476E+04  0.50400001928E-02 0.  1.
       -1   -1    0    0    0  501  0.00000000000E+00  0.00000000000E+00 -0.42836403165E+03  0.42836403168E+03  0.50400001928E-02 0. -1.
    10030    2    1    2    0    0  0.00000000000E+00  0.00000000000E+00  0.19150790160E+04  0.27718070793E+04  0.20038430197E+04 0.  0.
        5    1    3    3  502    0 -0.62462570664E+03  0.50246914697E+03  0.12621912713E+03  0.81153304006E+03  0.46999998093E+01 0. -1.
       -5    1    3    3    0  502  0.62462570664E+03 -0.50246914697E+03  0.17888598888E+04  0.19602740393E+04  0.46999998093E+01 0.  1.
</event>
<event>
 5   0  0.1650221E-04  0.1347444E+04  0.7818609E-02  0.8992766E-01
       -1   -1    0    0    0  501  0.00000000000E+00  0.00000000000E+00  0.50959048256E+03  0.50959048258E+03  0.50400001928E-02 0.  1.
        1   -1    0    0  501    0  0.00000000000E+00  0.00000000000E+00 -0.89071721983E+03  0.89071721984E+03  0.50400001928E-02 0. -1.
    10030    2    1    2    0    0  0.00000000000E+00  0.00000000000E+00 -0.38112673727E+03  0.14003077024E+04  0.13474435319E+04 0.  0.
        1    1    3    3  502    0  0.15314218256E+03 -0.63273672941E+03 -0.37084174307E+03  0.74922085879E+03  0.50400001928E-02 0. -1.
       -1    1    3    3    0  502 -0.15314218256E+03  0.63273672941E+03 -0.10284994193E+02  0.65108684363E+03  0.50400001928E-02 0.  1.
</event>
<event>
 5   0  0.1643565E-04  0.2003497E+04  0.7818609E-02  0.8604988E-01
        1   -1    0    0  501    0  0.00000000000E+00  0.00000000000E+00  0.15273902080E+04  0.15273902080E+04  0.50400001928E-02 0.  1.
       -1   -1    0    0    0  501  0.00000000000E+00  0.00000000000E+00 -0.65700287937E+03  0.65700287938E+03  0.50400001928E-02 0. -1.
    10030    2    1    2    0    0  0.00000000000E+00  0.00000000000E+00  0.87038732866E+03  0.21843930874E+04  0.20034967079E+04 0.  0.
        2    1    3    3  502    0  0.50125287298E+03  0.81726048614E+03  0.75181108480E+03  0.12183550600E+04  0.25500000920E-02 0.  1.
       -2    1    3    3    0  502 -0.50125287298E+03 -0.81726048614E+03  0.11857624386E+03  0.96603802746E+03  0.25500000920E-02 0. -1.
</event>
<event>
 5   0  0.3431030E-04  0.2056491E+04  0.7818609E-02  0.8580656E-01
       -2   -1    0    0    0  501  0.00000000000E+00  0.00000000000E+00  0.55477176613E+03  0.55477176614E+03  0.25500000920E-02 0. -1.
        2   -1    0    0  501    0  0.00000000000E+00  0.00000000000E+00 -0.19058077128E+04  0.19058077128E+04  0.25500000920E-02 0.  1.
    10030    2    1    2    0    0  0.00000000000E+00  0.00000000000E+00 -0.13510359467E+04  0.24605794789E+04  0.20564905161E+04 0.  0.
        3    1    3    3  502    0  0.87751400137E+03 -0.48475916255E+03 -0.40197821882E+03  0.10800966470E+04  0.10100000352E+00 0.  1.
       -3    1    3    3    0  502 -0.87751400137E+03  0.48475916255E+03 -0.94905772785E+03  0.13804828319E+04  0.10100000352E+00 0. -1.
</event>
<event>
 5   0  0.3387881E-04  0.1987263E+04  0.7818609E-02  0.8612599E-01
       -2   -1    0    0    0  501  0.00000000000E+00  0.00000000000E+00  0.68563586536E+03  0.68563586536E+03  0.25500000920E-02 0. -1.
        2   -1    0    0  501    0  0.00000000000E+00  0.00000000000E+00 -0.14399830487E+04  0.14399830487E+04  0.25500000920E-02 0.  1.
    10030    2    1    2    0    0  0.00000000000E+00  0.00000000000E+00 -0.75434718329E+03  0.21256189140E+04  0.19872634689E+04 0.  0.
        1    1    3    3  502    0  0.41164117254E+03  0.52147589886E+02 -0.13428798508E+04  0.14055227212E+04  0.50400001928E-02 0.  1.
       -1    1    3    3    0  502 -0.41164117254E+03 -0.52147589886E+02  0.58853266756E+03  0.72009619279E+03  0.50400001928E-02 0. -1.
</event>
<event>
 5   0  0.1643565E-04  0.1965971E+04  0.7818609E-02  0.8622698E-01
       -1   -1    0    0    0  501  0.00000000000E+00  0.00000000000E+00  0.10326084273E+04  0.10326084273E+04  0.50400001928E-02 0.  1.
        1   -1    0    0  501    0  0.00000000000E+00  0.00000000000E+00 -0.93574739273E+03  0.93574739274E+03  0.50400001928E-02 0. -1.
    10030    2    1    2    0    0  0.00000000000E+00  0.00000000000E+00  0.96861034590E+02  0.19683558201E+04  0.19659711530E+04 0.  0.
        2    1    3    3  502    0 -0.92758163833E+03  0.32435577764E+03  0.22977695868E+02  0.98292539939E+03  0.25500000920E-02 0. -1.
       -2    1    3    3    0  502  0.92758163833E+03 -0.32435577764E+03  0.73883338722E+02  0.98543042068E+03  0.25500000920E-02 0.  1.
</event>
<event>
 5   0  0.1696052E-04  0.1987752E+04  0.7818609E-02  0.8612369E-01
       -1   -1    0    0    0  501  0.00000000000E+00  0.00000000000E+00  0.74885253637E+03  0.74885253638E+03  0.50400001928E-02 0.  1.
        1   -1    0    0  501    0  0.00000000000E+00  0.00000000000E+00 -0.13190703367E+04  0.13190703367E+04  0.50400001928E-02 0. -1.
    10030    2    1    2    0    0  0.00000000000E+00  0.00000000000E+00 -0.57021780036E+03  0.20679228731E+04  0.19877516619E+04 0.  0.
        4    1    3    3  502    0  0.22003002821E+03  0.21067578940E+03 -0.12693042664E+04  0.13053476300E+04  0.12699999809E+01 0. -1.
       -4    1    3    3    0  502 -0.22003002821E+03 -0.21067578940E+03  0.69908646603E+03  0.76257524313E+03  0.12699999809E+01 0.  1.
</event>
<event>
 5   0  0.1708578E-04  0.1979526E+04  0.7818609E-02  0.8616253E-01
        1   -1    0    0  501    0  0.00000000000E+00  0.00000000000E+00  0.87388797278E+03  0.87388797279E+03  0.50400001928E-02 0. -1.
       -1   -1    0    0    0  501  0.00000000000E+00  0.00000000000E+00 -0.11210027578E+04  0.11210027579E+04  0.50400001928E-02 0.  1.
    10030    2    1    2    0    0  0.00000000000E+00  0.00000000000E+00 -0.24711478507E+03  0.19948907306E+04  0.19795260317E+04 0.  0.
        3    1    3    3  502    0 -0.74012504776E+03 -0.63104237175E+03 -0.30836908283E+03  0.10203387000E+04  0.10100000352E+00 0. -1.
       -3    1    3    3    0  502  0.74012504776E+03  0.63104237175E+03  0.61254297758E+02  0.97455203065E+03  0.10100000352E+00 0.  1.
</event>
<event>
 5   0  0.1696052E-04  0.2107386E+04  0.7818609E-02  0.8557997E-01
        1   -1    0    0  501    0  0.00000000000E+00  0.00000000000E+00  0.10547031041E+04  0.10547031041E+04  0.50400001928E-02 0. -1.
       -1   -1    0    0    0  501  0.00000000000E+00  0.00000000000E+00 -0.10526834899E+04  0.10526834899E+04  0.50400001928E-02 0.  1.
    10030    2    1    2    0    0  0.00000000000E+00  0.00000000000E+00  0.20196141493E+01  0.21073865940E+04  0.21073856262E+04 0.  0.
        4    1    3    3  502    0 -0.14928145438E+02  0.41497860384E+03 -0.96741040218E+03  0.10527652114E+04  0.12699999809E+01 0.  1.
       -4    1    3    3    0  502  0.14928145438E+02 -0.41497860384E+03  0.96943001633E+03  0.10546213826E+04  0.12699999809E+01 0. -1.
</event>
<event>
 5   0  0.3371947E-04  0.2040103E+04  0.7818609E-02  0.8588097E-01
        2   -1    0    0  501    0  0.00000000000E+00  0.00000000000E+00  0.14728067253E+04  0.14728067253E+04  0.25500000920E-02 0.  1.
       -2   -1    0    0    0  501  0.00000000000E+00  0.00000000000E+00 -0.70647799154E+03  0.70647799155E+03  0.25500000920E-02 0. -1.
    10030    2    1    2    0    0  0.00000000000E+00  0.00000000000E+00  0.76632873373E+03  0.21792847168E+04  0.20401034652E+04 0.  0.
        2    1    3    3  502    0 -0.67813918262E+03  0.47787799126E+03 -0.25084661574E+03  0.86669726559E+03  0.25500000920E-02 0. -1.
       -2    1    3    3    0  502  0.67813918262E+03 -0.47787799126E+03  0.10171753495E+04  0.13125874512E+04  0.25500000920E-02 0.  1.
</event>
<event>
 5   0  0.3387881E-04  0.1986624E+04  0.7818609E-02  0.8612900E-01
       -2   -1    0    0    0  501  0.00000000000E+00  0.00000000000E+00  0.89172264788E+03  0.89172264789E+03  0.25500000920E-02 0.  1.
        2   -1    0    0  501    0  0.00000000000E+00  0.00000000000E+00 -0.11064748527E+04  0.11064748527E+04  0.25500000920E-02 0. -1.
    10030    2    1    2    0    0  0.00000000000E+00  0.00000000000E+00 -0.21475220480E+03  0.19981975006E+04  0.19866239558E+04 0.  0.
        1    1    3    3  502    0  0.12861195369E+03 -0.95935602046E+03 -0.33175343133E+03  0.10232132465E+04  0.50400001928E-02 0. -1.
       -1    1    3    3    0  502 -0.12861195369E+03  0.95935602046E+03  0.11700122653E+03  0.97498425405E+03  0.50400001928E-02 0.  1.
</event>
<event>
 5   0  0.1650221E-04  0.1989708E+04  0.7818609E-02  0.8611448E-01
        1   -1    0    0  501    0  0.00000000000E+00  0.00000000000E+00  0.10934358564E+04  0.10934358564E+04  0.50400001928E-02 0.  1.
       -1   -1    0    0    0  501  0.00000000000E+00  0.00000000000E+00 -0.90515984401E+03  0.90515984402E+03  0.50400001928E-02 0. -1.
    10030    2    1    2    0    0  0.00000000000E+00  0.00000000000E+00  0.18827601239E+03  0.19985957004E+04  0.19897077466E+04 0.  0.
        1    1    3    3  502    0 -0.90486006135E+03 -0.34207944877E+03  0.32743429613E+03  0.10212753293E+04  0.50400001928E-02 0.  1.
       -1    1    3    3    0  502  0.90486006135E+03  0.34207944877E+03 -0.13915828374E+03  0.97732037114E+03  0.50400001928E-02 0. -1.
</event>
<event>
 5   0  0.3371947E-04  0.1947301E+04  0.7818609E-02  0.8631663E-01
       -2   -1    0    0    0  501  0.00000000000E+00  0.00000000000E+00  0.10477583525E+04  0.10477583525E+04  0.25500000920E-02 0. -1.
        2   -1    0    0  501    0  0.00000000000E+00  0.00000000000E+00 -0.90478430856E+03  0.90478430856E+03  0.25500000920E-02 0.  1.
    10030    2    1    2    0    0  0.00000000000E+00  0.00000000000E+00  0.14297404395E+03  0.19525426611E+04  0.19473010209E+04 0.  0.
        2    1    3    3  502    0  0.32679843108E+03  0.39422525244E+02  0.99027441144E+03  0.10435491172E+04  0.25500000920E-02 0. -1.
       -2    1    3    3    0  502 -0.32679843108E+03 -0.39422525244E+02 -0.84730036749E+03  0.90899354388E+03  0.25500000920E-02 0.  1.
</event>
<event>
 5   0  0.1708578E-04  0.2001213E+04  0.7818609E-02  0.8606054E-01
        1   -1    0    0  501    0  0.00000000000E+00  0.00000000000E+00  0.65055122246E+03  0.65055122248E+03  0.50400001928E-02 0. -1.
       -1   -1    0    0    0  501  0.00000000000E+00  0.00000000000E+00 -0.15390224606E+04  0.15390224606E+04  0.50400001928E-02 0.  1.
    10030    2    1    2    0    0  0.00000000000E+00  0.00000000000E+00 -0.88847123811E+03  0.21895736831E+04  0.20012125756E+04 0.  0.
        3    1    3    3  502    0 -0.46642147633E+03  0.38443493847E+02  0.52342122084E+03  0.70213722336E+03  0.10100000352E+00 0. -1.
       -3    1    3    3    0  502  0.46642147633E+03 -0.38443493847E+02 -0.14118924589E+04  0.14874364597E+04  0.10100000352E+00 0.  1.
</event>
<event>
 5   0  0.3387881E-04  0.1984382E+04  0.7818609E-02  0.8613957E-01
        2   -1    0    0  501    0  0.00000000000E+00  0.00000000000E+00  0.89490498322E+03  0.89490498322E+03  0.25500000920E-02 0.  1.
       -2   -1    0    0    0  501  0.00000000000E+00  0.00000000000E+00 -0.11000533828E+04  0.11000533828E+04  0.25500000920E-02 0. -1.
    10030    2    1    2    0    0  0.00000000000E+00  0.00000000000E+00 -0.20514839956E+03  0.19949583660E+04  0.19843822757E+04 0.  0.
        1    1    3    3  502    0 -0.25492714793E+03  0.93456342820E+03  0.11315418436E+03  0.97529509460E+03  0.50400001928E-02 0.  1.
       -1    1    3    3    0  502  0.25492714793E+03 -0.93456342820E+03 -0.31830258392E+03  0.10196632714E+04  0.50400001928E-02 0. -1.
</event>
<event>
 5   0  0.1708578E-04  0.1863436E+04  0.7818609E-02  0.8673274E-01
       -1   -1    0    0    0  501  0.00000000000E+00  0.00000000000E+00  0.34530255226E+03  0.34530255230E+03  0.50400001928E-02 0.  1.
        1   -1    0    0  501    0  0.00000000000E+00  0.00000000000E+00 -0.25140232771E+04  0.25140232771E+04  0.50400001928E-02 0. -1.
    10030    2    1    2    0    0  0.00000000000E+00  0.00000000000E+00 -0.21687207248E+04  0.28593258294E+04  0.18634362389E+04 0.  0.
        3    1    3    3  502    0 -0.19273466810E+03 -0.26758299469E+03 -0.24214806863E+04  0.24438322438E+04  0.10100000352E+00 0. -1.
       -3    1    3    3    0  502  0.19273466810E+03  0.26758299469E+03  0.25275996150E+03  0.41549358560E+03  0.10100000352E+00 0.  1.
</event>
<event>
 5   0  0.3460648E-04  0.2014932E+04  0.7818609E-02  0.8599671E-01
        2   -1    0    0  501    0  0.00000000000E+00  0.00000000000E+00  0.12182143915E+04  0.12182143915E+04  0.25500000920E-02 0. -1.
       -2   -1    0    0    0  501  0.00000000000E+00  0.00000000000E+00 -0.83317690455E+03  0.83317690455E+03  0.25500000920E-02 0.  1.
    10030    2    1    2    0    0  0.00000000000E+00  0.00000000000E+00  0.38503748690E+03  0.20513912960E+04  0.20149323520E+04 0.  0.
        5    1    3    3  502    0 -0.14408728377E+03 -0.51918029881E+03 -0.67415210302E+03  0.86302518852E+03  0.46999998093E+01 0.  1.
       -5    1    3    3    0  502  0.14408728377E+03  0.51918029881E+03  0.10591895899E+04  0.11883661075E+04  0.46999998093E+01 0. -1.
</event>
<event>
 5   0  0.3387881E-04  0.1972120E+04  0.7818609E-02  0.8619768E-01
       -2   -1    0    0    0  501  0.00000000000E+00  0.00000000000E+00  0.13472066698E+04  0.13472066698E+04  0.25500000920E-02 0.  1.
        2   -1    0    0  501    0  0.00000000000E+00  0.00000000000E+00 -0.72172619645E+03  0.72172619645E+03  0.25500000920E-02 0. -1.
    10030    2    1    2    0    0  0.00000000000E+00  0.00000000000E+00  0.62548047337E+03  0.20689328663E+04  0.19721200224E+04 0.  0.
        1    1    3    3  502    0  0.94182346244E+03 -0.27276337344E+03  0.42218334899E+03  0.10675533113E+04  0.50400001928E-02 0.  1.
       -1    1    3    3    0  502 -0.94182346244E+03  0.27276337344E+03  0.20329712439E+03  0.10013795550E+04  0.50400001928E-02 0. -1.
</event>
<event>
 5   0  0.1643565E-04  0.2112479E+04  0.7818609E-02  0.8555766E-01
        1   -1    0    0  501    0  0.00000000000E+00  0.00000000000E+00  0.15243365976E+04  0.15243365976E+04  0.50400001928E-02 0. -1.
       -1   -1    0    0    0  501  0.00000000000E+00  0.00000000000E+00 -0.73188676869E+03  0.73188676871E+03  0.50400001928E-02 0.  1.
    10030    2    1    2    0    0  0.00000000000E+00  0.00000000000E+00  0.79244982890E+03  0.22562233663E+04  0.21124789105E+04 0.  0.
        2    1    3    3  502    0 -0.29708774776E+03  0.66939085618E+03  0.12091306307E+04  0.14136272954E+04  0.25500000920E-02 0. -1.
       -2    1    3    3    0  502  0.29708774776E+03 -0.66939085618E+03 -0.41668080176E+03  0.84259607094E+03  0.25500000920E-02 0.  1.
</event>
<event>
 5   0  0.3371947E-04  0.2006725E+04  0.7818609E-02  0.8603483E-01
        2   -1    0    0  501    0  0.00000000000E+00  0.00000000000E+00  0.87768205513E+03  0.87768205513E+03  0.25500000920E-02 0. -1.
       -2   -1    0    0    0  501  0.00000000000E+00  0.00000000000E+00 -0.11470393732E+04  0.11470393732E+04  0.25500000920E-02 0.  1.
    10030    2    1    2    0    0  0.00000000000E+00  0.00000000000E+00 -0.26935731810E+03  0.20247214284E+04  0.20067245695E+04 0.  0.
        2    1    3    3  502    0  0.89716768371E+03  0.42694683595E+03  0.63692633421E+01  0.99359650812E+03  0.25500000920E-02 0.  1.
       -2    1    3    3    0  502 -0.89716768371E+03 -0.42694683595E+03 -0.27572658145E+03  0.10311249202E+04  0.25500000920E-02 0. -1.
</event>
<event>
 5   0  0.3387881E-04  0.1895481E+04  0.7818609E-02  0.8657109E-01
       -2   -1    0    0    0  501  0.00000000000E+00  0.00000000000E+00  0.10982171461E+04  0.10982171461E+04  0.25500000920E-02 0. -1.
        2   -1    0    0  501    0  0.00000000000E+00  0.00000000000E+00 -0.81788243555E+03  0.81788243555E+03  0.25500000920E-02 0.  1.
    10030    2    1    2    0    0  0.00000000000E+00  0.00000000000E+00  0.28033471058E+03  0.19160995817E+04  0.18954814842E+04 0.  0.
        1    1    3    3  502    0  0.82765737624E+03 -0.46096026139E+03  0.11320478324E+03  0.95410503510E+03  0.50400001928E-02 0.  1.
       -1    1    3    3    0  502 -0.82765737624E+03  0.46096026139E+03  0.16712992735E+03  0.96199454659E+03  0.50400001928E-02 0. -1.
</event>
<event>
 5   0  0.1643565E-04  0.1922966E+04  0.7818609E-02  0.8643508E-01
        1   -1    0    0  501    0  0.00000000000E+00  0.00000000000E+00  0.83648319321E+03  0.83648319323E+03  0.50400001928E-02 0.  1.
       -1   -1    0    0    0  501  0.00000000000E+00  0.00000000000E+00 -0.11051623359E+04  0.11051623360E+04  0.50400001928E-02 0. -1.
    10030    2    1    2    0    0  0.00000000000E+00  0.00000000000E+00 -0.26867914273E+03  0.19416455292E+04  0.19229661670E+04 0.  0.
        2    1    3    3  502    0 -0.18894797046E+03 -0.63240479643E+03 -0.84028231928E+03  0.10685090258E+04  0.25500000920E-02 0. -1.
       -2    1    3    3    0  502  0.18894797046E+03  0.63240479643E+03  0.57160317656E+03  0.87313650339E+03  0.25500000920E-02 0.  1.
</event>
<event>
 5   0  0.1696052E-04  0.2011521E+04  0.7818609E-02  0.8601253E-01
       -1   -1    0    0    0  501  0.00000000000E+00  0.00000000000E+00  0.11639059085E+04  0.11639059085E+04  0.50400001928E-02 0. -1.
        1   -1    0    0  501    0  0.00000000000E+00  0.00000000000E+00 -0.86910272494E+03  0.86910272496E+03  0.50400001928E-02 0.  1.
    10030    2    1    2    0    0  0.00000000000E+00  0.00000000000E+00  0.29480318356E+03  0.20330086335E+04  0.20115206155E+04 0.  0.
        4    1    3    3  502    0  0.57500283825E+03 -0.82455707211E+03  0.11497215322E+03  0.10118017781E+04  0.12699999809E+01 0.  1.
       -4    1    3    3    0  502 -0.57500283825E+03  0.82455707211E+03  0.17983103034E+03  0.10212068554E+04  0.12699999809E+01 0. -1.
</event>
<event>
 5   0  0.3460648E-04  0.1972698E+04  0.7818609E-02  0.8619492E-01
        2   -1    0    0  501    0  0.00000000000E+00  0.00000000000E+00  0.25062395825E+04  0.25062395825E+04  0.25500000920E-02 0.  1.
       -2   -1    0    0    0  501  0.00000000000E+00  0.00000000000E+00 -0.38818507554E+03  0.38818507555E+03  0.25500000920E-02 0. -1.
    10030    2    1    2    0    0  0.00000000000E+00  0.00000000000E+00  0.21180545069E+04  0.28944246580E+04  0.19726984581E+04 0.  0.
        5    1    3    3  502    0  0.57092604366E+03  0.13127905408E+03  0.22233107090E+04  0.22992005864E+04  0.46999998093E+01 0.  1.
       -5    1    3    3    0  502 -0.57092604366E+03 -0.13127905408E+03 -0.10525620213E+03  0.59522407164E+03  0.46999998093E+01 0. -1.
</event>
<event>
 5   0  0.1664168E-04  0.2012081E+04  0.7818609E-02  0.8600993E-01
       -1   -1    0    0    0  501  0.00000000000E+00  0.00000000000E+00  0.94337530526E+03  0.94337530527E+03  0.50400001928E-02 0.  1.
        1   -1    0    0  501    0  0.00000000000E+00  0.00000000000E+00 -0.10728680277E+04  0.10728680277E+04  0.50400001928E-02 0. -1.
    10030    2    1    2    0    0  0.00000000000E+00  0.00000000000E+00 -0.12949272244E+03  0.20162433330E+04  0.20120807172E+04 0.  0.
        5    1    3    3  502    0 -0.12359219294E+03 -0.70862832519E+02 -0.10626975000E+04  0.10722148281E+04  0.46999998093E+01 0. -1.
       -5    1    3    3    0  502  0.12359219294E+03  0.70862832519E+02  0.93320477754E+03  0.94402850487E+03  0.46999998093E+01 0.  1.
</event>
<event>
 5   0  0.1708578E-04  0.2027447E+04  0.7818609E-02  0.8593895E-01
        1   -1    0    0  501    0  0.00000000000E+00  0.00000000000E+00  0.18362869223E+04  0.18362869223E+04  0.50400001928E-02 0. -1.
       -1   -1    0    0    0  501  0.00000000000E+00  0.00000000000E+00 -0.55962658305E+03  0.55962658307E+03  0.50400001928E-02 0.  1.
    10030    2    1    2    0    0  0.00000000000E+00  0.00000000000E+00  0.12766603393E+04  0.23959135054E+04  0.20274466463E+04 0.  0.
        3    1    3    3  502    0 -0.54089483683E+03  0.43873386301E+03 -0.23213966867E+03  0.73412768850E+03  0.10100000352E+00 0.  1.
       -3    1    3    3    0  502  0.54089483683E+03 -0.43873386301E+03  0.15088000079E+04  0.16617858169E+04  0.10100000352E+00 0. -1.
</event>
<event>
 5   0  0.3431030E-04  0.2016145E+04  0.7818609E-02  0.8599109E-01
        2   -1    0    0  501    0  0.00000000000E+00  0.00000000000E+00  0.13287642752E+04  0.13287642752E+04  0.25500000920E-02 0.  1.
       -2   -1    0    0    0  501  0.00000000000E+00  0.00000000000E+00 -0.76477851782E+03  0.76477851782E+03  0.25500000920E-02 0. -1.
    10030    2    1    2    0    0  0.00000000000E+00  0.00000000000E+00  0.56398575734E+03  0.20935427930E+04  0.20161452060E+04 0.  0.
        3    1    3    3  502    0  0.24317579411E+02 -0.97746578141E+03  0.27260051879E+02  0.97814815807E+03  0.10100000352E+00 0.  1.
       -3    1    3    3    0  502 -0.24317579411E+02  0.97746578141E+03  0.53672570546E+03  0.11153946349E+04  0.10100000352E+00 0. -1.
</event>
<event>
 5   0  0.3460648E-04  0.1992957E+04  0.7818609E-02  0.8609921E-01
        2   -1    0    0  501    0  0.00000000000E+00  0.00000000000E+00  0.17327677290E+04  0.17327677290E+04  0.25500000920E-02 0. -1.
       -2   -1    0    0    0  501  0.00000000000E+00  0.00000000000E+00 -0.57305375488E+03  0.57305375489E+03  0.25500000920E-02 0.  1.
    10030    2    1    2    0    0  0.00000000000E+00  0.00000000000E+00  0.11597139741E+04  0.23058214839E+04  0.19929566513E+04 0.  0.
        5    1    3    3  502    0  0.90589584708E+03  0.40973111270E+03  0.50293623339E+03  0.11142234136E+04  0.46999998093E+01 0. -1.
       -5    1    3    3    0  502 -0.90589584708E+03 -0.40973111270E+03  0.65677774072E+03  0.11915980703E+04  0.46999998093E+01 0.  1.
</event>
<event>
 5   0  0.1664168E-04  0.2052887E+04  0.7818609E-02  0.8582286E-01
       -1   -1    0    0    0  501  0.00000000000E+00  0.00000000000E+00  0.11997326137E+04  0.11997326137E+04  0.50400001928E-02 0. -1.
        1   -1    0    0  501    0  0.00000000000E+00  0.00000000000E+00 -0.87818388275E+03  0.87818388277E+03  0.50400001928E-02 0.  1.
    10030    2    1    2    0    0  0.00000000000E+00  0.00000000000E+00  0.32154873096E+03  0.20779164965E+04  0.20528865970E+04 0.  0.
        5    1    3    3  502    0 -0.73004803283E+03  0.61361803227E+03  0.54496315440E+03  0.10984098276E+04  0.46999998093E+01 0. -1.
       -5    1    3    3    0  502  0.73004803283E+03 -0.61361803227E+03 -0.22341442344E+03  0.97950666887E+03  0.46999998093E+01 0.  1.
</event>
<event>
 5   0  0.1643565E-04  0.1940936E+04  0.7818609E-02  0.8634744E-01
        1   -1    0    0  501    0  0.00000000000E+00  0.00000000000E+00  0.20690411035E+04  0.20690411035E+04  0.50400001928E-02 0.  1.
       -1   -1    0    0    0  501  0.00000000000E+00  0.00000000000E+00 -0.45519067434E+03  0.45519067437E+03  0.50400001928E-02 0. -1.
    10030    2    1    2    0    0  0.00000000000E+00  0.00000000000E+00  0.16138504291E+04  0.25242317778E+04  0.19409360785E+04 0.  0.
        2    1    3    3  502    0  0.62535825800E+03  0.70412495884E+03  0.11117676296E+04  0.14570148148E+04  0.25500000920E-02 0. -1.
       -2    1    3    3    0  502 -0.62535825800E+03 -0.70412495884E+03  0.50208279955E+03  0.10672169630E+04  0.25500000920E-02 0.  1.
</event>
<event>
 5   0  0.3395569E-04  0.1979561E+04  0.7818609E-02  0.8616237E-01
        2   -1    0    0  501    0  0.00000000000E+00  0.00000000000E+00  0.11326561347E+04  0.11326561347E+04  0.25500000920E-02 0.  1.
       -2   -1    0    0    0  501  0.00000000000E+00  0.00000000000E+00 -0.86492731863E+03  0.86492731864E+03  0.25500000920E-02 0. -1.
    10030    2    1    2    0    0  0.00000000000E+00  0.00000000000E+00  0.26772881610E+03  0.19975834534E+04  0.19795607933E+04 0.  0.
        4    1    3    3  502    0  0.11640770290E+03 -0.50104601558E+03 -0.71945000065E+03  0.88442511236E+03  0.12699999809E+01 0. -1.
       -4    1    3    3    0  502 -0.11640770290E+03  0.50104601558E+03  0.98717881675E+03  0.11131583410E+04  0.12699999809E+01 0.  1.
</event>
<event>
 5   0  0.3460648E-04  0.2039547E+04  0.7818609E-02  0.8588351E-01
       -2   -1    0    0    0  501  0.00000000000E+00  0.00000000000E+00  0.75979826877E+03  0.75979826878E+03  0.25500000920E-02 0. -1.
        2   -1    0    0  501    0  0.00000000000E+00  0.00000000000E+00 -0.13687023272E+04  0.13687023272E+04  0.25500000920E-02 0.  1.
    10030    2    1    2    0    0  0.00000000000E+00  0.00000000000E+00 -0.60890405845E+03  0.21285005960E+04  0.20395466738E+04 0.  0.
        5    1    3    3  502    0  0.84766777698E+03 -0.56197928945E+03 -0.22667517591E+03  0.10420005313E+04  0.46999998093E+01 0. -1.
       -5    1    3    3    0  502 -0.84766777698E+03  0.56197928945E+03 -0.38222888253E+03  0.10865000647E+04  0.46999998093E+01 0.  1.
</event>
<event>
 5   0  0.1650221E-04  0.2013314E+04  0.7818609E-02  0.8600421E-01
       -1   -1    0    0    0  501  0.00000000000E+00  0.00000000000E+00  0.90995984199E+03  0.90995984200E+03  0.50400001928E-02 0.  1.
        1   -1    0    0  501    0  0.00000000000E+00  0.00000000000E+00 -0.11136297747E+04  0.11136297747E+04  0.50400001928E-02 0. -1.
    10030    2    1    2    0    0  0.00000000000E+00  0.00000000000E+00 -0.20366993272E+03  0.20235896167E+04  0.20133140578E+04 0.  0.
        1    1    3    3  502    0 -0.97894659231E+03 -0.11662305431E+03  0.10272528086E+03  0.99120626044E+03  0.50400001928E-02 0.  1.
       -1    1    3    3    0  502  0.97894659231E+03  0.11662305431E+03 -0.30639521359E+03  0.10323833563E+04  0.50400001928E-02 0. -1.
</event>
<event>
 5   0  0.3371947E-04  0.1991075E+04  0.7818609E-02  0.8610805E-01
       -2   -1    0    0    0  501  0.00000000000E+00  0.00000000000E+00  0.10385224433E+04  0.10385224433E+04  0.25500000920E-02 0. -1.
        2   -1    0    0  501    0  0.00000000000E+00  0.00000000000E+00 -0.95433181992E+03  0.95433181992E+03  0.25500000920E-02 0.  1.
    10030    2    1    2    0    0  0.00000000000E+00  0.00000000000E+00  0.84190623410E+02  0.19928542633E+04  0.19910750999E+04 0.  0.
        2    1    3    3  502    0 -0.32731174389E+03 -0.92674299382E+03 -0.11650592792E+03  0.98972682369E+03  0.25500000920E-02 0. -1.
       -2    1    3    3    0  502  0.32731174389E+03  0.92674299382E+03  0.20069655133E+03  0.10031274396E+04  0.25500000920E-02 0.  1.
</event>
<event>
 5   0  0.1643565E-04  0.2019742E+04  0.7818609E-02  0.8597446E-01
        1   -1    0    0  501    0  0.00000000000E+00  0.00000000000E+00  0.11622392052E+04  0.11622392052E+04  0.50400001928E-02 0. -1.
       -1   -1    0    0    0  501  0.00000000000E+00  0.00000000000E+00 -0.87747821894E+03  0.87747821895E+03  0.50400001928E-02 0.  1.
    10030    2    1    2    0    0  0.00000000000E+00  0.00000000000E+00  0.28476098622E+03  0.20397174241E+04  0.20197421496E+04 0.  0.
        2    1    3    3  502    0  0.49964276449E+02 -0.61257623348E+02  0.11591098829E+04  0.11618023266E+04  0.25500000920E-02 0. -1.
       -2    1    3    3    0  502 -0.49964276449E+02  0.61257623348E+02 -0.87434889670E+03  0.87791509755E+03  0.25500000920E-02 0.  1.
</event>
<event>
 5   0  0.3387881E-04  0.1759469E+04  0.7818609E-02  0.8728155E-01
        2   -1    0    0  501    0  0.00000000000E+00  0.00000000000E+00  0.46735435610E+03  0.46735435611E+03  0.25500000920E-02 0. -1.
       -2   -1    0    0    0  501  0.00000000000E+00  0.00000000000E+00 -0.16559879837E+04  0.16559879837E+04  0.25500000920E-02 0.  1.
    10030    2    1    2    0    0  0.00000000000E+00  0.00000000000E+00 -0.11886336276E+04  0.21233423398E+04  0.17594694630E+04 0.  0.
        1    1    3    3  502    0  0.41401656618E+03 -0.66743968873E+03 -0.11606774266E+03  0.79395036122E+03  0.50400001928E-02 0. -1.
       -1    1    3    3    0  502 -0.41401656618E+03  0.66743968873E+03 -0.10725658849E+04  0.13293919786E+04  0.50400001928E-02 0.  1.
</event>
<event>
 5   0  0.1708578E-04  0.1936945E+04  0.7818609E-02  0.8636682E-01
        1   -1    0    0  501    0  0.00000000000E+00  0.00000000000E+00  0.29727193899E+04  0.29727193899E+04  0.50400001928E-02 0. -1.
       -1   -1    0    0    0  501  0.00000000000E+00  0.00000000000E+00 -0.31551556295E+03  0.31551556299E+03  0.50400001928E-02 0.  1.
    10030    2    1    2    0    0  0.00000000000E+00  0.00000000000E+00  0.26572038270E+04  0.32882349529E+04  0.19369452567E+04 0.  0.
        3    1    3    3  502    0  0.73077599727E+03 -0.49685213034E+02  0.25299343369E+03  0.77492442616E+03  0.10100000352E+00 0.  1.
       -3    1    3    3    0  502 -0.73077599727E+03  0.49685213034E+02  0.24042103933E+04  0.25133105268E+04  0.10100000352E+00 0. -1.
</event>
<event>
 5   0  0.1708578E-04  0.2014228E+04  0.7818609E-02  0.8599997E-01
       -1   -1    0    0    0  501  0.00000000000E+00  0.00000000000E+00  0.15606364166E+04  0.15606364166E+04  0.50400001928E-02 0.  1.
        1   -1    0    0  501    0  0.00000000000E+00  0.00000000000E+00 -0.64991334617E+03  0.64991334619E+03  0.50400001928E-02 0. -1.
    10030    2    1    2    0    0  0.00000000000E+00  0.00000000000E+00  0.91072307045E+03  0.22105497628E+04  0.20142278279E+04 0.  0.
        3    1    3    3  502    0 -0.73158165042E+03  0.40975202894E+02  0.12136375836E+04  0.14176765756E+04  0.10100000352E+00 0.  1.
       -3    1    3    3    0  502  0.73158165042E+03 -0.40975202894E+02 -0.30291451318E+03  0.79287318719E+03  0.10100000352E+00 0. -1.
</event>
<event>
 5   0  0.3395569E-04  0.2068922E+04  0.7818609E-02  0.8575058E-01
       -2   -1    0    0    0  501  0.00000000000E+00  0.00000000000E+00  0.10359869289E+04  0.10359869289E+04  0.25500000920E-02 0. -1.
        2   -1    0    0  501    0  0.00000000000E+00  0.00000000000E+00 -0.10329372621E+04  0.10329372621E+04  0.25500000920E-02 0.  1.
    10030    2    1    2    0    0  0.00000000000E+00  0.00000000000E+00  0.30496668586E+01  0.20689241910E+04  0.20689219434E+04 0.  0.
        4    1    3    3  502    0  0.84037979950E+03 -0.40223089349E+03  0.45105840174E+03  0.10351247238E+04  0.12699999809E+01 0. -1.
       -4    1    3    3    0  502 -0.84037979950E+03  0.40223089349E+03 -0.44800873488E+03  0.10337994673E+04  0.12699999809E+01 0.  1.
</event>
<event>
 5   0  0.3387881E-04  0.1984723E+04  0.7818609E-02  0.8613797E-01
        2   -1    0    0  501    0  0.00000000000E+00  0.00000000000E+00  0.15900706192E+04  0.15900706192E+04  0.25500000920E-02 0. -1.
       -2   -1    0    0    0  501  0.00000000000E+00  0.00000000000E+00 -0.61933170112E+03  0.61933170113E+03  0.25500000920E-02 0.  1.
    10030    2    1    2    0    0  0.00000000000E+00  0.00000000000E+00  0.97073891812E+03  0.22094023204E+04  0.19847227933E+04 0.  0.
        1    1    3    3  502    0 -0.29261479698E+03 -0.77014079667E+03 -0.13046596426E+03  0.83412327265E+03  0.50400001928E-02 0.  1.
       -1    1    3    3    0  502  0.29261479698E+03  0.77014079667E+03  0.11012048824E+04  0.13752790477E+04  0.50400001928E-02 0. -1.
</event>
<event>
 5   0  0.1222488E-04  0.1937360E+04  0.7818609E-02  0.8636480E-01
       -4   -1    0    0    0  501  0.00000000000E+00  0.00000000000E+00  0.63479176063E+03  0.63479303104E+03  0.12699999809E+01 0. -1.
        4   -1    0    0  501    0  0.00000000000E+00  0.00000000000E+00 -0.14781833729E+04  0.14781839185E+04  0.12699999809E+01 0.  1.
    10030    2    1    2    0    0  0.00000000000E+00  0.00000000000E+00 -0.84339161228E+03  0.21129769495E+04  0.19373595891E+04 0.  0.
        5    1    3    3  502    0  0.27868875957E+03 -0.77565608255E+03  0.13336642196E+03  0.83493621051E+03  0.46999998093E+01 0. -1.
       -5    1    3    3    0  502 -0.27868875957E+03  0.77565608255E+03 -0.97675803424E+03  0.12780407390E+04  0.46999998093E+01 0.  1.
</event>
<event>
 5   0  0.1696052E-04  0.2053227E+04  0.7818609E-02  0.8582132E-01
       -1   -1    0    0    0  501  0.00000000000E+00  0.00000000000E+00  0.46851889927E+03  0.46851889930E+03  0.50400001928E-02 0.  1.
        1   -1    0    0  501    0  0.00000000000E+00  0.00000000000E+00 -0.22495040729E+04  0.22495040729E+04  0.50400001928E-02 0. -1.
    10030    2    1    2    0    0  0.00000000000E+00  0.00000000000E+00 -0.17809851736E+04  0.27180229722E+04  0.20532268965E+04 0.  0.
        4    1    3    3  502    0  0.88805080733E+03  0.19490769877E+03 -0.25935252630E+03  0.94545681722E+03  0.12699999809E+01 0.  1.
       -4    1    3    3    0  502 -0.88805080733E+03 -0.19490769877E+03 -0.15216326473E+04  0.17725661550E+04  0.12699999809E+01 0. -1.
</event>
<event>
 5   0  0.1664168E-04  0.2019065E+04  0.7818609E-02  0.8597759E-01
       -1   -1    0    0    0  501  0.00000000000E+00  0.00000000000E+00  0.11508102129E+04  0.11508102129E+04  0.50400001928E-02 0.  1.
        1   -1    0    0  501    0  0.00000000000E+00  0.00000000000E+00 -0.88559855941E+03  0.88559855942E+03  0.50400001928E-02 0. -1.
    10030    2    1    2    0    0  0.00000000000E+00  0.00000000000E+00  0.26521165351E+03  0.20364087724E+04  0.20190649982E+04 0.  0.
        5    1    3    3  502    0  0.83326172822E+03  0.51202337225E+03  0.38503705625E+03  0.10510797620E+04  0.46999998093E+01 0.  1.
       -5    1    3    3    0  502 -0.83326172822E+03 -0.51202337225E+03 -0.11982540274E+03  0.98532901033E+03  0.46999998093E+01 0. -1.
</event>
<event>
 5   0  0.3371947E-04  0.1983461E+04  0.7818609E-02  0.8614392E-01
        2   -1    0    0  501    0  0.00000000000E+00  0.00000000000E+00  0.85768706425E+03  0.85768706425E+03  0.25500000920E-02 0. -1.
       -2   -1    0    0    0  501  0.00000000000E+00  0.00000000000E+00 -0.11467233727E+04  0.11467233727E+04  0.25500000920E-02 0.  1.
    10030    2    1    2    0    0  0.00000000000E+00  0.00000000000E+00 -0.28903630849E+03  0.20044104370E+04  0.19834614219E+04 0.  0.
        2    1    3    3  502    0 -0.10033458189E+03  0.28086504248E+03 -0.11003288979E+04  0.11400332820E+04  0.25500000920E-02 0.  1.
       -2    1    3    3    0  502  0.10033458189E+03 -0.28086504248E+03  0.81129258944E+03  0.86437715500E+03  0.25500000920E-02 0. -1.
</event>
<event>
 5   0  0.1696052E-04  0.2065619E+04  0.7818609E-02  0.8576541E-01
       -1   -1    0    0    0  501  0.00000000000E+00  0.00000000000E+00  0.62050735640E+03  0.62050735642E+03  0.50400001928E-02 0.  1.
        1   -1    0    0  501    0  0.00000000000E+00  0.00000000000E+00 -0.17190702431E+04  0.17190702431E+04  0.50400001928E-02 0. -1.
    10030    2    1    2    0    0  0.00000000000E+00  0.00000000000E+00 -0.10985628867E+04  0.23395775995E+04  0.20656192602E+04 0.  0.
        4    1    3    3  502    0 -0.92739319674E+02  0.21065370232E+03  0.59108880469E+03  0.63432101624E+03  0.12699999809E+01 0.  1.
       -4    1    3    3    0  502  0.92739319674E+02 -0.21065370232E+03 -0.16896516914E+04  0.17052565833E+04  0.12699999809E+01 0. -1.
</event>
<event>
 5   0  0.3460648E-04  0.1975773E+04  0.7818609E-02  0.8618032E-01
       -2   -1    0    0    0  501  0.00000000000E+00  0.00000000000E+00  0.73882998813E+03  0.73882998814E+03  0.25500000920E-02 0.  1.
        2   -1    0    0  501    0  0.00000000000E+00  0.00000000000E+00 -0.13208993806E+04  0.13208993806E+04  0.25500000920E-02 0. -1.
    10030    2    1    2    0    0  0.00000000000E+00  0.00000000000E+00 -0.58206939249E+03  0.20597293688E+04  0.19757733410E+04 0.  0.
        5    1    3    3  502    0  0.13482211871E+03  0.90986116177E+03  0.84658696439E+02  0.92369557879E+03  0.46999998093E+01 0.  1.
       -5    1    3    3    0  502 -0.13482211871E+03 -0.90986116177E+03 -0.66672808893E+03  0.11360337900E+04  0.46999998093E+01 0. -1.
</event>
<event>
 5   0  0.1664168E-04  0.1969199E+04  0.7818609E-02  0.8621158E-01
       -1   -1    0    0    0  501  0.00000000000E+00  0.00000000000E+00  0.53794073673E+03  0.53794073675E+03  0.50400001928E-02 0.  1.
        1   -1    0    0  501    0  0.00000000000E+00  0.00000000000E+00 -0.18021246142E+04  0.18021246142E+04  0.50400001928E-02 0. -1.
    10030    2    1    2    0    0  0.00000000000E+00  0.00000000000E+00 -0.12641838774E+04  0.23400653509E+04  0.19691990683E+04 0.  0.
        5    1    3    3  502    0 -0.39463197235E+03  0.59449210681E+03  0.17410187119E+03  0.73449901989E+03  0.46999998093E+01 0.  1.
       -5    1    3    3    0  502  0.39463197235E+03 -0.59449210681E+03 -0.14382857486E+04  0.16055663310E+04  0.46999998093E+01 0. -1.
</event>
<event>
 5   0  0.1650221E-04  0.2137145E+04  0.7818609E-02  0.8545055E-01
        1   -1    0    0  501    0  0.00000000000E+00  0.00000000000E+00  0.17962488934E+04  0.17962488934E+04  0.50400001928E-02 0. -1.
       -1   -1    0    0    0  501  0.00000000000E+00  0.00000000000E+00 -0.63568425225E+03  0.63568425227E+03  0.50400001928E-02 0.  1.
    10030    2    1    2    0    0  0.00000000000E+00  0.00000000000E+00  0.11605646412E+04  0.24319331457E+04  0.21371449504E+04 0.  0.
        1    1    3    3  502    0  0.28990755343E+03 -0.38007789111E+03 -0.50723018239E+03  0.69698497172E+03  0.50400001928E-02 0.  1.
       -1    1    3    3    0  502 -0.28990755343E+03  0.38007789111E+03  0.16677948236E+04  0.17349481740E+04  0.50400001928E-02 0. -1.
</event>
<event>
 5   0  0.3371947E-04  0.1995969E+04  0.7818609E-02  0.8608507E-01
        2   -1    0    0  501    0  0.00000000000E+00  0.00000000000E+00  0.15974322400E+04  0.15974322400E+04  0.25500000920E-02 0. -1.
       -2   -1    0    0    0  501  0.00000000000E+00  0.00000000000E+00 -0.62348395190E+03  0.62348395191E+03  0.25500000920E-02 0.  1.
    10030    2    1    2    0    0  0.00000000000E+00  0.00000000000E+00  0.97394828806E+03  0.22209161919E+04  0.19959693043E+04 0.  0.
        2    1    3    3  502    0 -0.34141578918E+03 -0.50621644074E+03 -0.39139252118E+03  0.72526404269E+03  0.25500000920E-02 0.  1.
       -2    1    3    3    0  502  0.34141578918E+03  0.50621644074E+03  0.13653408092E+04  0.14956521492E+04  0.25500000920E-02 0. -1.
</event>
<event>
 5   0  0.1664168E-04  0.2112528E+04  0.7818609E-02  0.8555745E-01
        1   -1    0    0  501    0  0.00000000000E+00  0.00000000000E+00  0.11602422992E+04  0.11602422992E+04  0.50400001928E-02 0. -1.
       -1   -1    0    0    0  501  0.00000000000E+00  0.00000000000E+00 -0.96160378277E+03  0.96160378279E+03  0.50400001928E-02 0.  1.
    10030    2    1    2    0    0  0.00000000000E+00  0.00000000000E+00  0.19863851646E+03  0.21218460820E+04  0.21125277597E+04 0.  0.
        5    1    3    3  502    0 -0.33663937969E+03  0.29206970072E+03  0.10611656354E+04  0.11509671489E+04  0.46999998093E+01 0. -1.
       -5    1    3    3    0  502  0.33663937969E+03 -0.29206970072E+03 -0.86252711892E+03  0.97087893318E+03  0.46999998093E+01 0.  1.
</event>
<event>
 5   0  0.3387881E-04  0.1946415E+04  0.7818609E-02  0.8632092E-01
        2   -1    0    0  501    0  0.00000000000E+00  0.00000000000E+00  0.14035713256E+04  0.14035713256E+04  0.25500000920E-02 0. -1.
       -2   -1    0    0    0  501  0.00000000000E+00  0.00000000000E+00 -0.67480190554E+03  0.67480190555E+03  0.25500000920E-02 0.  1.
    10030    2    1    2    0    0  0.00000000000E+00  0.00000000000E+00  0.72876942010E+03  0.20783732312E+04  0.19464147606E+04 0.  0.
        1    1    3    3  502    0 -0.41900517981E+03 -0.86510532819E+03  0.20188306523E+03  0.98220636408E+03  0.50400001928E-02 0. -1.
       -1    1    3    3    0  502  0.41900517981E+03  0.86510532819E+03  0.52688635487E+03  0.10961668671E+04  0.50400001928E-02 0.  1.
</event>
<event>
 5   0  0.1650221E-04  0.2016176E+04  0.7818609E-02  0.8599095E-01
       -1   -1    0    0    0  501  0.00000000000E+00  0.00000000000E+00  0.88140057833E+03  0.88140057834E+03  0.50400001928E-02 0. -1.
        1   -1    0    0  501    0  0.00000000000E+00  0.00000000000E+00 -0.11529844632E+04  0.11529844633E+04  0.50400001928E-02 0.  1.
    10030    2    1    2    0    0  0.00000000000E+00  0.00000000000E+00 -0.27158388492E+03  0.20343850416E+04  0.20161757589E+04 0.  0.
        1    1    3    3  502    0 -0.14886891222E+03 -0.13530660850E+03  0.86094095940E+03  0.88413187191E+03  0.50400001928E-02 0. -1.
       -1    1    3    3    0  502  0.14886891222E+03  0.13530660850E+03 -0.11325248443E+04  0.11502531697E+04  0.50400001928E-02 0.  1.
</event>
<event>
 5   0  0.1643565E-04  0.1991805E+04  0.7818609E-02  0.8610462E-01
       -1   -1    0    0    0  501  0.00000000000E+00  0.00000000000E+00  0.47137473737E+03  0.47137473740E+03  0.50400001928E-02 0.  1.
        1   -1    0    0  501    0  0.00000000000E+00  0.00000000000E+00 -0.21041051944E+04  0.21041051944E+04  0.50400001928E-02 0. -1.
    10030    2    1    2    0    0  0.00000000000E+00  0.00000000000E+00 -0.16327304570E+04  0.25754799318E+04  0.19918052449E+04 0.  0.
        2    1    3    3  502    0 -0.11981849472E+03  0.23945531910E+03 -0.20566891446E+04  0.20740456984E+04  0.25500000920E-02 0. -1.
       -2    1    3    3    0  502  0.11981849472E+03 -0.23945531910E+03  0.42395868764E+03  0.50143423333E+03  0.25500000920E-02 0.  1.
</event>
<event>
 5   0  0.3395569E-04  0.1951995E+04  0.7818609E-02  0.8629399E-01
       -2   -1    0    0    0  501  0.00000000000E+00  0.00000000000E+00  0.77086953027E+03  0.77086953027E+03  0.25500000920E-02 0.  1.
        2   -1    0    0  501    0  0.00000000000E+00  0.00000000000E+00 -0.12357097349E+04  0.12357097349E+04  0.25500000920E-02 0. -1.
    10030    2    1    2    0    0  0.00000000000E+00  0.00000000000E+00 -0.46484020462E+03  0.20065792652E+04  0.19519948595E+04 0.  0.
        4    1    3    3  502    0 -0.51084862267E+03  0.16101531843E+03 -0.10711255544E+04  0.11975824875E+04  0.12699999809E+01 0. -1.
       -4    1    3    3    0  502  0.51084862267E+03 -0.16101531843E+03  0.60628534980E+03  0.80899677770E+03  0.12699999809E+01 0.  1.
</event>
<event>
 5   0  0.3371947E-04  0.1990865E+04  0.7818609E-02  0.8610903E-01
       -2   -1    0    0    0  501  0.00000000000E+00  0.00000000000E+00  0.66157988266E+03  0.66157988267E+03  0.25500000920E-02 0.  1.
        2   -1    0    0  501    0  0.00000000000E+00  0.00000000000E+00 -0.14977570609E+04  0.14977570609E+04  0.25500000920E-02 0. -1.
    10030    2    1    2    0    0  0.00000000000E+00  0.00000000000E+00 -0.83617717827E+03  0.21593369436E+04  0.19908650789E+04 0.  0.
        2    1    3    3  502    0  0.14886481928E+03 -0.96634864815E+03 -0.62069970890E+03  0.11581271834E+04  0.25500000920E-02 0. -1.
       -2    1    3    3    0  502 -0.14886481928E+03  0.96634864815E+03 -0.21547746937E+03  0.10012097602E+04  0.25500000920E-02 0.  1.
</event>
<event>
 5   0  0.3395569E-04  0.1881200E+04  0.7818609E-02  0.8664271E-01
       -2   -1    0    0    0  501  0.00000000000E+00  0.00000000000E+00  0.53611072404E+03  0.53611072405E+03  0.25500000920E-02 0.  1.
        2   -1    0    0  501    0  0.00000000000E+00  0.00000000000E+00 -0.16502720599E+04  0.16502720599E+04  0.25500000920E-02 0. -1.
    10030    2    1    2    0    0  0.00000000000E+00  0.00000000000E+00 -0.11141613359E+04  0.21863827840E+04  0.18812002009E+04 0.  0.
        4    1    3    3  502    0  0.63177565096E+03 -0.68355214033E+03 -0.39967310748E+03  0.10129778909E+04  0.12699999809E+01 0. -1.
       -4    1    3    3    0  502 -0.63177565096E+03  0.68355214033E+03 -0.71448822841E+03  0.11734048931E+04  0.12699999809E+01 0.  1.
</event>
<event>
 5   0  0.1643565E-04  0.1728076E+04  0.7818609E-02  0.8745511E-01
        1   -1    0    0  501    0  0.00000000000E+00  0.00000000000E+00  0.11858624396E+04  0.11858624397E+04  0.50400001928E-02 0. -1.
       -1   -1    0    0    0  501  0.00000000000E+00  0.00000000000E+00 -0.62955193375E+03  0.62955193377E+03  0.50400001928E-02 0.  1.
    10030    2    1    2    0    0  0.00000000000E+00  0.00000000000E+00  0.55631050590E+03  0.18154143734E+04  0.17280763780E+04 0.  0.
        2    1    3    3  502    0  0.29933095564E+03  0.51666531955E+03  0.93423439303E+03  0.11087542444E+04  0.25500000920E-02 0. -1.
       -2    1    3    3    0  502 -0.29933095564E+03 -0.51666531955E+03 -0.37792388713E+03  0.70666012899E+03  0.25500000920E-02 0.  1.
</event>
<event>
 5   0  0.3387881E-04  0.2025770E+04  0.7818609E-02  0.8594666E-01
        2   -1    0    0  501    0  0.00000000000E+00  0.00000000000E+00  0.11761589358E+04  0.11761589358E+04  0.25500000920E-02 0. -1.
       -2   -1    0    0    0  501  0.00000000000E+00  0.00000000000E+00 -0.87227686121E+03  0.87227686121E+03  0.25500000920E-02 0.  1.
    10030    2    1    2    0    0  0.00000000000E+00  0.00000000000E+00  0.30388207456E+03  0.20484357970E+04  0.20257701990E+04 0.  0.
        1    1    3    3  502    0 -0.74069531189E+03 -0.30853260047E+03 -0.47312921675E+03  0.93148975645E+03  0.50400001928E-02 0. -1.
       -1    1    3    3    0  502  0.74069531189E+03  0.30853260047E+03  0.77701129131E+03  0.11169460405E+04  0.50400001928E-02 0.  1.
</event>
<event>
 5   0  0.1696052E-04  0.1648376E+04  0.7818609E-02  0.8791368E-01
       -1   -1    0    0    0  501  0.00000000000E+00  0.00000000000E+00  0.51958762298E+03  0.51958762301E+03  0.50400001928E-02 0.  1.
        1   -1    0    0  501    0  0.00000000000E+00  0.00000000000E+00 -0.13073563962E+04  0.13073563963E+04  0.50400001928E-02 0. -1.
    10030    2    1    2    0    0  0.00000000000E+00  0.00000000000E+00 -0.78776877327E+03  0.18269440193E+04  0.16483764162E+04 0.  0.
        4    1    3    3  502    0 -0.13851611047E+03 -0.14590643323E+03  0.49195385562E+03  0.53150315998E+03  0.12699999809E+01 0.  1.
       -4    1    3    3    0  502  0.13851611047E+03  0.14590643323E+03 -0.12797226289E+04  0.12954408593E+04  0.12699999809E+01 0. -1.
</event>
<event>
 5   0  0.1643565E-04  0.2107457E+04  0.7818609E-02  0.8557966E-01
        1   -1    0    0  501    0  0.00000000000E+00  0.00000000000E+00  0.15398391376E+04  0.15398391376E+04  0.50400001928E-02 0. -1.
       -1   -1    0    0    0  501  0.00000000000E+00  0.00000000000E+00 -0.72107767669E+03  0.72107767671E+03  0.50400001928E-02 0.  1.
    10030    2    1    2    0    0  0.00000000000E+00  0.00000000000E+00  0.81876146088E+03  0.22609168143E+04  0.21074568824E+04 0.  0.
        2    1    3    3  502    0 -0.96187639962E+03  0.32598789842E+03  0.71066739238E+03  0.12395654322E+04  0.25500000920E-02 0. -1.
       -2    1    3    3    0  502  0.96187639962E+03 -0.32598789842E+03  0.10809406851E+03  0.10213513821E+04  0.25500000920E-02 0.  1.
</event>
<event>
 5   0  0.1650221E-04  0.1979320E+04  0.7818609E-02  0.8616351E-01
       -1   -1    0    0    0  501  0.00000000000E+00  0.00000000000E+00  0.99231593041E+03  0.99231593042E+03  0.50400001928E-02 0. -1.
        1   -1    0    0  501    0  0.00000000000E+00  0.00000000000E+00 -0.98701125528E+03  0.98701125529E+03  0.50400001928E-02 0.  1.
    10030    2    1    2    0    0  0.00000000000E+00  0.00000000000E+00  0.53046751297E+01  0.19793271857E+04  0.19793200773E+04 0.  0.
        1    1    3    3  502    0 -0.18568029629E+03  0.62256465744E+03 -0.74391786700E+03  0.98766275519E+03  0.50400001928E-02 0.  1.
       -1    1    3    3    0  502  0.18568029629E+03 -0.62256465744E+03  0.74922254213E+03  0.99166443053E+03  0.50400001928E-02 0. -1.
</event>
<event>
 5   0  0.3387881E-04  0.2003751E+04  0.7818609E-02  0.8604869E-01
        2   -1    0    0  501    0  0.00000000000E+00  0.00000000000E+00  0.61621155846E+03  0.61621155847E+03  0.25500000920E-02 0. -1.
       -2   -1    0    0    0  501  0.00000000000E+00  0.00000000000E+00 -0.16289115801E+04  0.16289115801E+04  0.25500000920E-02 0.  1.
    10030    2    1    2    0    0  0.00000000000E+00  0.00000000000E+00 -0.10127000216E+04  0.22451231385E+04  0.20037506266E+04 0.  0.
        1    1    3    3  502    0  0.12274684054E+03 -0.52218467369E+02  0.60621724053E+03  0.62071966131E+03  0.50400001928E-02 0. -1.
       -1    1    3    3    0  502 -0.12274684054E+03  0.52218467369E+02 -0.16189172621E+04  0.16244034772E+04  0.50400001928E-02 0.  1.
</event>
<event>
 5   0  0.1708578E-04  0.1974418E+04  0.7818609E-02  0.8618675E-01
        1   -1    0    0  501    0  0.00000000000E+00  0.00000000000E+00  0.47397305086E+03  0.47397305088E+03  0.50400001928E-02 0. -1.
       -1   -1    0    0    0  501  0.00000000000E+00  0.00000000000E+00 -0.20561970535E+04  0.20561970535E+04  0.50400001928E-02 0.  1.
    10030    2    1    2    0    0  0.00000000000E+00  0.00000000000E+00 -0.15822240026E+04  0.25301701043E+04  0.19744183859E+04 0.  0.
        3    1    3    3  502    0 -0.79091362431E+03 -0.50501702185E+03 -0.39822840558E+03  0.10193980708E+04  0.10100000352E+00 0.  1.
       -3    1    3    3    0  502  0.79091362431E+03  0.50501702185E+03 -0.11839955970E+04  0.15107720336E+04  0.10100000352E+00 0. -1.
</event>
<event>
 5   0  0.1664168E-04  0.1984259E+04  0.7818609E-02  0.8614016E-01
        1   -1    0    0  501    0  0.00000000000E+00  0.00000000000E+00  0.79889557527E+03  0.79889557529E+03  0.50400001928E-02 0.  1.
       -1   -1    0    0    0  501  0.00000000000E+00  0.00000000000E+00 -0.12321018054E+04  0.12321018054E+04  0.50400001928E-02 0. -1.
    10030    2    1    2    0    0  0.00000000000E+00  0.00000000000E+00 -0.43320623011E+03  0.20309973807E+04  0.19842587338E+04 0.  0.
        5    1    3    3  502    0  0.64363587656E+03  0.39917566491E+03 -0.87254936343E+03  0.11554102452E+04  0.46999998093E+01 0. -1.
       -5    1    3    3    0  502 -0.64363587656E+03 -0.39917566491E+03  0.43934313332E+03  0.87558713550E+03  0.46999998093E+01 0.  1.
</event>
<event>
 5   0  0.1708578E-04  0.1884968E+04  0.7818609E-02  0.8662375E-01
       -1   -1    0    0    0  501  0.00000000000E+00  0.00000000000E+00  0.88521934410E+03  0.88521934411E+03  0.50400001928E-02 0. -1.
        1   -1    0    0  501    0  0.00000000000E+00  0.00000000000E+00 -0.10034527204E+04  0.10034527204E+04  0.50400001928E-02 0.  1.
    10030    2    1    2    0    0  0.00000000000E+00  0.00000000000E+00 -0.11823337626E+03  0.18886720645E+04  0.18849676485E+04 0.  0.
        3    1    3    3  502    0  0.30258451996E+03 -0.20655443923E+03 -0.92918583905E+03  0.99880351510E+03  0.10100000352E+00 0.  1.
       -3    1    3    3    0  502 -0.30258451996E+03  0.20655443923E+03  0.81095246279E+03  0.88986854939E+03  0.10100000352E+00 0. -1.
</event>
<event>
 5   0  0.3371947E-04  0.2047373E+04  0.7818609E-02  0.8584787E-01
       -2   -1    0    0    0  501  0.00000000000E+00  0.00000000000E+00  0.11517970846E+04  0.11517970846E+04  0.25500000920E-02 0. -1.
        2   -1    0    0  501    0  0.00000000000E+00  0.00000000000E+00 -0.90982487324E+03  0.90982487325E+03  0.25500000920E-02 0.  1.
    10030    2    1    2    0    0  0.00000000000E+00  0.00000000000E+00  0.24197221140E+03  0.20616219579E+04  0.20473725958E+04 0.  0.
        2    1    3    3  502    0 -0.13571329886E+03 -0.68407436046E+02 -0.89840143932E+03  0.91116563970E+03  0.25500000920E-02 0.  1.
       -2    1    3    3    0  502  0.13571329886E+03  0.68407436046E+02  0.11403736507E+04  0.11504563182E+04  0.25500000920E-02 0. -1.
</event>
<event>
 5   0  0.3371947E-04  0.1955998E+04  0.7818609E-02  0.8627474E-01
        2   -1    0    0  501    0  0.00000000000E+00  0.00000000000E+00  0.20852529729E+04  0.20852529729E+04  0.25500000920E-02 0.  1.
       -2   -1    0    0    0  501  0.00000000000E+00  0.00000000000E+00 -0.45868866080E+03  0.45868866081E+03  0.25500000920E-02 0. -1.
    10030    2    1    2    0    0  0.00000000000E+00  0.00000000000E+00  0.16265643121E+04  0.25439416337E+04  0.19559978462E+04 0.  0.
        2    1    3    3  502    0  0.53124664585E+03  0.76846795206E+03  0.11895895484E+04  0.15125770346E+04  0.25500000920E-02 0.  1.
       -2    1    3    3    0  502 -0.53124664585E+03 -0.76846795206E+03  0.43697476368E+03  0.10313645991E+04  0.25500000920E-02 0. -1.
</event>
<event>
 5   0  0.3395569E-04  0.2007367E+04  0.7818609E-02  0.8603184E-01
        2   -1    0    0  501    0  0.00000000000E+00  0.00000000000E+00  0.29109778532E+04  0.29109778532E+04  0.25500000920E-02 0.  1.
       -2   -1    0    0    0  501  0.00000000000E+00  0.00000000000E+00 -0.34606244803E+03  0.34606244804E+03  0.25500000920E-02 0. -1.
    10030    2    1    2    0    0  0.00000000000E+00  0.00000000000E+00  0.25649154052E+04  0.32570403012E+04  0.20073665555E+04 0.  0.
        4    1    3    3  502    0 -0.80102035425E+03 -0.32387080211E+03  0.21111514024E+04  0.22811154642E+04  0.12699999809E+01 0.  1.
       -4    1    3    3    0  502  0.80102035425E+03  0.32387080211E+03  0.45376400277E+03  0.97592483700E+03  0.12699999809E+01 0. -1.
</event>
<event>
 5   0  0.1222488E-04  0.2000193E+04  0.7818609E-02  0.8606530E-01
        3   -1    0    0  501    0  0.00000000000E+00  0.00000000000E+00  0.10797362742E+04  0.10797362789E+04  0.10100000352E+00 0.  1.
       -3   -1    0    0    0  501  0.00000000000E+00  0.00000000000E+00 -0.92633072708E+03  0.92633073258E+03  0.10100000352E+00 0. -1.
    10030    2    1    2    0    0  0.00000000000E+00  0.00000000000E+00  0.15340554709E+03  0.20060670115E+04  0.20001928889E+04 0.  0.
        3    1    3    3  502    0  0.17705436045E+03  0.74021047112E+03  0.72740170888E+03  0.10527929732E+04  0.10100000352E+00 0.  1.
       -3    1    3    3    0  502 -0.17705436045E+03 -0.74021047112E+03 -0.57399616179E+03  0.95327403828E+03  0.10100000352E+00 0. -1.
</event>
<event>
 5   0  0.1708578E-04  0.1083866E+04  0.7818609E-02  0.9221061E-01
       -1   -1    0    0    0  501  0.00000000000E+00  0.00000000000E+00  0.15100933032E+03  0.15100933041E+03  0.50400001928E-02 0. -1.
        1   -1    0    0  501    0  0.00000000000E+00  0.00000000000E+00 -0.19448565839E+04  0.19448565839E+04  0.50400001928E-02 0.  1.
    10030    2    1    2    0    0  0.00000000000E+00  0.00000000000E+00 -0.17938472536E+04  0.20958659143E+04  0.10838662102E+04 0.  0.
        3    1    3    3  502    0 -0.26364241647E+03 -0.10262330256E+03 -0.31203902070E+01  0.28292863592E+03  0.10100000352E+00 0. -1.
       -3    1    3    3    0  502  0.26364241647E+03  0.10262330256E+03 -0.17907268634E+04  0.18129372784E+04  0.10100000352E+00 0.  1.
</event>
<event>
 5   0  0.1696052E-04  0.1307544E+04  0.7818609E-02  0.9023604E-01
       -1   -1    0    0    0  501  0.00000000000E+00  0.00000000000E+00  0.76120873914E+03  0.76120873916E+03  0.50400001928E-02 0.  1.
        1   -1    0    0  501    0  0.00000000000E+00  0.00000000000E+00 -0.56149859912E+03  0.56149859914E+03  0.50400001928E-02 0. -1.
    10030    2    1    2    0    0  0.00000000000E+00  0.00000000000E+00  0.19971014002E+03  0.13227073383E+04  0.13075437135E+04 0.  0.
        4    1    3    3  502    0 -0.15544304970E+02 -0.33177700174E+03  0.66950046042E+03  0.74736208340E+03  0.12699999809E+01 0.  1.
       -4    1    3    3    0  502  0.15544304970E+02  0.33177700174E+03 -0.46979032040E+03  0.57534525490E+03  0.12699999809E+01 0. -1.
</event>
<event>
 5   0  0.3460648E-04  0.1898362E+04  0.7818609E-02  0.8655672E-01
        2   -1    0    0  501    0  0.00000000000E+00  0.00000000000E+00  0.16486160698E+04  0.16486160698E+04  0.25500000920E-02 0.  1.
       -2   -1    0    0    0  501  0.00000000000E+00  0.00000000000E+00 -0.54648511968E+03  0.54648511968E+03  0.25500000920E-02 0. -1.
    10030    2    1    2    0    0  0.00000000000E+00  0.00000000000E+00  0.11021309502E+04  0.21951011895E+04  0.18983615570E+04 0.  0.
        5    1    3    3  502    0 -0.68368371468E+02 -0.80388749206E+03  0.11292369649E+04  0.13878427674E+04  0.46999998093E+01 0.  1.
       -5    1    3    3    0  502  0.68368371468E+02  0.80388749206E+03 -0.27106014720E+02  0.80725842215E+03  0.46999998093E+01 0. -1.
</event>
<event>
 5   0  0.1664168E-04  0.1997616E+04  0.7818609E-02  0.8607736E-01
        1   -1    0    0  501    0  0.00000000000E+00  0.00000000000E+00  0.13105046227E+04  0.13105046227E+04  0.50400001928E-02 0. -1.
       -1   -1    0    0    0  501  0.00000000000E+00  0.00000000000E+00 -0.76124662335E+03  0.76124662336E+03  0.50400001928E-02 0.  1.
    10030    2    1    2    0    0  0.00000000000E+00  0.00000000000E+00  0.54925799939E+03  0.20717512461E+04  0.19976157979E+04 0.  0.
        5    1    3    3  502    0 -0.23449432079E+03  0.11359267420E+02  0.12814711138E+04  0.13028073246E+04  0.46999998093E+01 0. -1.
       -5    1    3    3    0  502  0.23449432079E+03 -0.11359267420E+02 -0.73221311445E+03  0.76894392150E+03  0.46999998093E+01 0.  1.
</event>
<event>
 5   0  0.1643565E-04  0.1148421E+04  0.7818609E-02  0.9159241E-01
        1   -1    0    0  501    0  0.00000000000E+00  0.00000000000E+00  0.44310459059E+03  0.44310459062E+03  0.50400001928E-02 0. -1.
       -1   -1    0    0    0  501  0.00000000000E+00  0.00000000000E+00 -0.74410861117E+03  0.74410861119E+03  0.50400001928E-02 0.  1.
    10030    2    1    2    0    0  0.00000000000E+00  0.00000000000E+00 -0.30100402058E+03  0.11872132018E+04  0.11484214236E+04 0.  0.
        2    1    3    3  502    0 -0.30587093128E+03  0.10885187570E+03 -0.64011605114E+03  0.71774251399E+03  0.25500000920E-02 0.  1.
       -2    1    3    3    0  502  0.30587093128E+03 -0.10885187570E+03  0.33911203056E+03  0.46947068783E+03  0.25500000920E-02 0. -1.
</event>
<event>
 5   0  0.3431030E-04  0.1954138E+04  0.7818609E-02  0.8628368E-01
       -2   -1    0    0    0  501  0.00000000000E+00  0.00000000000E+00  0.12498363017E+04  0.12498363017E+04  0.25500000920E-02 0.  1.
        2   -1    0    0  501    0  0.00000000000E+00  0.00000000000E+00 -0.76383107091E+03  0.76383107092E+03  0.25500000920E-02 0. -1.
    10030    2    1    2    0    0  0.00000000000E+00  0.00000000000E+00  0.48600523080E+03  0.20136673726E+04  0.19541379694E+04 0.  0.
        3    1    3    3  502    0  0.63356300285E+03  0.38183039719E+03  0.90077989652E+03  0.11655903925E+04  0.10100000352E+00 0.  1.
       -3    1    3    3    0  502 -0.63356300285E+03 -0.38183039719E+03 -0.41477466572E+03  0.84807698019E+03  0.10100000352E+00 0. -1.
</event>
<event>
 5   0  0.1708578E-04  0.1997533E+04  0.7818609E-02  0.8607775E-01
        1   -1    0    0  501    0  0.00000000000E+00  0.00000000000E+00  0.88319274450E+03  0.88319274452E+03  0.50400001928E-02 0. -1.
       -1   -1    0    0    0  501  0.00000000000E+00  0.00000000000E+00 -0.11294642819E+04  0.11294642819E+04  0.50400001928E-02 0.  1.
    10030    2    1    2    0    0  0.00000000000E+00  0.00000000000E+00 -0.24627153742E+03  0.20126570265E+04  0.19975331376E+04 0.  0.
        3    1    3    3  502    0  0.88540656055E+03  0.38408916303E+03 -0.38211370753E+03  0.10380174172E+04  0.10100000352E+00 0.  1.
       -3    1    3    3    0  502 -0.88540656055E+03 -0.38408916303E+03  0.13584217011E+03  0.97463960930E+03  0.10100000352E+00 0. -1.
</event>
<event>
 5   0  0.1708578E-04  0.1973333E+04  0.7818609E-02  0.8619191E-01
       -1   -1    0    0    0  501  0.00000000000E+00  0.00000000000E+00  0.43076481682E+03  0.43076481685E+03  0.50400001928E-02 0. -1.
        1   -1    0    0  501    0  0.00000000000E+00  0.00000000000E+00 -0.22599582119E+04  0.22599582119E+04  0.50400001928E-02 0.  1.
    10030    2    1    2    0    0  0.00000000000E+00  0.00000000000E+00 -0.18291933951E+04  0.26907230287E+04  0.19733326990E+04 0.  0.
        3    1    3    3  502    0  0.44403062143E+03  0.85118227267E+03 -0.60415181041E+03  0.11343164789E+04  0.10100000352E+00 0. -1.
       -3    1    3    3    0  502 -0.44403062143E+03 -0.85118227267E+03 -0.12250415847E+04  0.15564065498E+04  0.10100000352E+00 0.  1.
</event>
<event>
 5   0  0.1708578E-04  0.2140830E+04  0.7818609E-02  0.8543468E-01
       -1   -1    0    0    0  501  0.00000000000E+00  0.00000000000E+00  0.11281352469E+04  0.11281352469E+04  0.50400001928E-02 0.  1.
        1   -1    0    0  501    0  0.00000000000E+00  0.00000000000E+00 -0.10156475118E+04  0.10156475118E+04  0.50400001928E-02 0. -1.
    10030    2    1    2    0    0  0.00000000000E+00  0.00000000000E+00  0.11248773508E+03  0.21437827587E+04  0.21408295182E+04 0.  0.
        3    1    3    3  502    0  0.22750492441E+03 -0.24331424301E+03 -0.96242411578E+03  0.10184402291E+04  0.10100000352E+00 0. -1.
       -3    1    3    3    0  502 -0.22750492441E+03  0.24331424301E+03  0.10749118509E+04  0.11253425295E+04  0.10100000352E+00 0.  1.
</event>
<event>
 5   0  0.1222488E-04  0.1962706E+04  0.7818609E-02  0.8624258E-01
       -4   -1    0    0    0  501  0.00000000000E+00  0.00000000000E+00  0.24880802284E+04  0.24880805526E+04  0.12699999809E+01 0. -1.
        4   -1    0    0  501    0  0.00000000000E+00  0.00000000000E+00 -0.38706541578E+03  0.38706749927E+03  0.12699999809E+01 0.  1.
    10030    2    1    2    0    0  0.00000000000E+00  0.00000000000E+00  0.21010148127E+04  0.28751480518E+04  0.19627055502E+04 0.  0.
        5    1    3    3  502    0 -0.16629083507E+03 -0.59376060627E+03  0.21688499563E+04  0.22548029897E+04  0.46999998093E+01 0. -1.
       -5    1    3    3    0  502  0.16629083507E+03  0.59376060627E+03 -0.67835143664E+02  0.62034506212E+03  0.46999998093E+01 0.  1.
</event>
<event>
 5   0  0.1696052E-04  0.2003337E+04  0.7818609E-02  0.8605062E-01
       -1   -1    0    0    0  501  0.00000000000E+00  0.00000000000E+00  0.84725507446E+03  0.84725507448E+03  0.50400001928E-02 0.  1.
        1   -1    0    0  501    0  0.00000000000E+00  0.00000000000E+00 -0.11842244158E+04  0.11842244158E+04  0.50400001928E-02 0. -1.
    10030    2    1    2    0    0  0.00000000000E+00  0.00000000000E+00 -0.33696934135E+03  0.20314794903E+04  0.20033373611E+04 0.  0.
        4    1    3    3  502    0 -0.22205374959E+02  0.61055812296E+03 -0.97340104960E+03  0.11492543306E+04  0.12699999809E+01 0. -1.
       -4    1    3    3    0  502  0.22205374959E+02 -0.61055812296E+03  0.63643170825E+03  0.88222515967E+03  0.12699999809E+01 0.  1.
</event>
<event>
 5   0  0.1696052E-04  0.1998201E+04  0.7818609E-02  0.8607462E-01
        1   -1    0    0  501    0  0.00000000000E+00  0.00000000000E+00  0.14605081014E+04  0.14605081015E+04  0.50400001928E-02 0. -1.
       -1   -1    0    0    0  501  0.00000000000E+00  0.00000000000E+00 -0.68346213238E+03  0.68346213240E+03  0.50400001928E-02 0.  1.
    10030    2    1    2    0    0  0.00000000000E+00  0.00000000000E+00  0.77704596906E+03  0.21439702339E+04  0.19982011725E+04 0.  0.
        4    1    3    3  502    0 -0.52512247668E+03 -0.65618972928E+03  0.96817608674E+03  0.12820706393E+04  0.12699999809E+01 0. -1.
       -4    1    3    3    0  502  0.52512247668E+03  0.65618972928E+03 -0.19113011768E+03  0.86189959456E+03  0.12699999809E+01 0.  1.
</event>
<event>
 5   0  0.3431030E-04  0.2029054E+04  0.7818609E-02  0.8593156E-01
        2   -1    0    0  501    0  0.00000000000E+00  0.00000000000E+00  0.12096320662E+04  0.12096320662E+04  0.25500000920E-02 0.  1.
       -2   -1    0    0    0  501  0.00000000000E+00  0.00000000000E+00 -0.85089126459E+03  0.85089126459E+03  0.25500000920E-02 0. -1.
    10030    2    1    2    0    0  0.00000000000E+00  0.00000000000E+00  0.35874080160E+03  0.20605233308E+04  0.20290543201E+04 0.  0.
        3    1    3    3  502    0 -0.50564704383E+03  0.52572169185E+03  0.89543265988E+03  0.11549293869E+04  0.10100000352E+00 0.  1.
       -3    1    3    3    0  502  0.50564704383E+03 -0.52572169185E+03 -0.53669185828E+03  0.90559394386E+03  0.10100000352E+00 0. -1.
</event>
<event>
 5   0  0.3395569E-04  0.2004161E+04  0.7818609E-02  0.8604678E-01
       -2   -1    0    0    0  501  0.00000000000E+00  0.00000000000E+00  0.32297104027E+03  0.32297104028E+03  0.25500000920E-02 0. -1.
        2   -1    0    0  501    0  0.00000000000E+00  0.00000000000E+00 -0.31091482743E+04  0.31091482743E+04  0.25500000920E-02 0.  1.
    10030    2    1    2    0    0  0.00000000000E+00  0.00000000000E+00 -0.27861772340E+04  0.34321193146E+04  0.20041605250E+04 0.  0.
        4    1    3    3  502    0 -0.61914102662E+03  0.56219356784E+03 -0.23384832795E+04  0.24835262994E+04  0.12699999809E+01 0.  1.
       -4    1    3    3    0  502  0.61914102662E+03 -0.56219356784E+03 -0.44769395454E+03  0.94859301516E+03  0.12699999809E+01 0. -1.
</event>
<event>
 5   0  0.3395569E-04  0.1996883E+04  0.7818609E-02  0.8608079E-01
       -2   -1    0    0    0  501  0.00000000000E+00  0.00000000000E+00  0.69458205545E+03  0.69458205545E+03  0.25500000920E-02 0.  1.
        2   -1    0    0  501    0  0.00000000000E+00  0.00000000000E+00 -0.14352302257E+04  0.14352302257E+04  0.25500000920E-02 0. -1.
    10030    2    1    2    0    0  0.00000000000E+00  0.00000000000E+00 -0.74064817026E+03  0.21298122812E+04  0.19968827309E+04 0.  0.
        4    1    3    3  502    0 -0.81328164749E+03 -0.53349815293E+03 -0.61080213075E+03  0.11485330527E+04  0.12699999809E+01 0. -1.
       -4    1    3    3    0  502  0.81328164749E+03  0.53349815293E+03 -0.12984603951E+03  0.98127922846E+03  0.12699999809E+01 0.  1.
</event>
<event>
 5   0  0.1664168E-04  0.2005758E+04  0.7818609E-02  0.8603933E-01
       -1   -1    0    0    0  501  0.00000000000E+00  0.00000000000E+00  0.14479396677E+04  0.14479396677E+04  0.50400001928E-02 0.  1.
        1   -1    0    0  501    0  0.00000000000E+00  0.00000000000E+00 -0.69461908203E+03  0.69461908205E+03  0.50400001928E-02 0. -1.
    10030    2    1    2    0    0  0.00000000000E+00  0.00000000000E+00  0.75332058563E+03  0.21425587497E+04  0.20057582335E+04 0.  0.
        5    1    3    3  502    0  0.31690571988E+03 -0.32718411918E+03 -0.57773415370E+03  0.73571565533E+03  0.46999998093E+01 0. -1.
       -5    1    3    3    0  502 -0.31690571988E+03  0.32718411918E+03  0.13310547393E+04  0.14068430944E+04  0.46999998093E+01 0.  1.
</event>
<event>
 5   0  0.1708578E-04  0.2057060E+04  0.7818609E-02  0.8580398E-01
       -1   -1    0    0    0  501  0.00000000000E+00  0.00000000000E+00  0.14437337578E+04  0.14437337578E+04  0.50400001928E-02 0. -1.
        1   -1    0    0  501    0  0.00000000000E+00  0.00000000000E+00 -0.73273488129E+03  0.73273488131E+03  0.50400001928E-02 0.  1.
    10030    2    1    2    0    0  0.00000000000E+00  0.00000000000E+00  0.71099887654E+03  0.21764686392E+04  0.20570601194E+04 0.  0.
        3    1    3    3  502    0 -0.46118805672E+03  0.90190217108E+03  0.16696451098E+03  0.10266445870E+04  0.10100000352E+00 0. -1.
       -3    1    3    3    0  502  0.46118805672E+03 -0.90190217108E+03  0.54403436556E+03  0.11498240522E+04  0.10100000352E+00 0.  1.
</event>
<event>
 5   0  0.3395569E-04  0.1940357E+04  0.7818609E-02  0.8635025E-01
        2   -1    0    0  501    0  0.00000000000E+00  0.00000000000E+00  0.10755783708E+04  0.10755783708E+04  0.25500000920E-02 0. -1.
       -2   -1    0    0    0  501  0.00000000000E+00  0.00000000000E+00 -0.87510758463E+03  0.87510758464E+03  0.25500000920E-02 0.  1.
    10030    2    1    2    0    0  0.00000000000E+00  0.00000000000E+00  0.20047078619E+03  0.19506859555E+04  0.19403574827E+04 0.  0.
        4    1    3    3  502    0  0.18362434464E+03  0.47268875550E+03  0.93173693581E+03  0.10607958757E+04  0.12699999809E+01 0. -1.
       -4    1    3    3    0  502 -0.18362434464E+03 -0.47268875550E+03 -0.73126614962E+03  0.88989007973E+03  0.12699999809E+01 0.  1.
</event>
<event>
 5   0  0.3460648E-04  0.1977476E+04  0.7818609E-02  0.8617225E-01
        2   -1    0    0  501    0  0.00000000000E+00  0.00000000000E+00  0.24193648539E+04  0.24193648539E+04  0.25500000920E-02 0.  1.
       -2   -1    0    0    0  501  0.00000000000E+00  0.00000000000E+00 -0.40407397550E+03  0.40407397551E+03  0.25500000920E-02 0. -1.
    10030    2    1    2    0    0  0.00000000000E+00  0.00000000000E+00  0.20152908784E+04  0.28234388294E+04  0.19774755369E+04 0.  0.
        5    1    3    3  502    0 -0.50978343928E+03 -0.61555379993E+03  0.17657940163E+03  0.81852795349E+03  0.46999998093E+01 0.  1.
       -5    1    3    3    0  502  0.50978343928E+03  0.61555379993E+03  0.18387114768E+04  0.20049108759E+04  0.46999998093E+01 0. -1.
</event>
<event>
 5   0  0.1664168E-04  0.1902834E+04  0.7818609E-02  0.8653447E-01
       -1   -1    0    0    0  501  0.00000000000E+00  0.00000000000E+00  0.67915339433E+03  0.67915339435E+03  0.50400001928E-02 0.  1.
        1   -1    0    0  501    0  0.00000000000E+00  0.00000000000E+00 -0.13328268712E+04  0.13328268712E+04  0.50400001928E-02 0. -1.
    10030    2    1    2    0    0  0.00000000000E+00  0.00000000000E+00 -0.65367347691E+03  0.20119802656E+04  0.19028335647E+04 0.  0.
        5    1    3    3  502    0 -0.38427378459E+03  0.84620411803E+03 -0.11158135471E+03  0.93605568189E+03  0.46999998093E+01 0.  1.
       -5    1    3    3    0  502  0.38427378459E+03 -0.84620411803E+03 -0.54209212219E+03  0.10759245837E+04  0.46999998093E+01 0. -1.
</event>
<event>
 5   0  0.1708578E-04  0.2085581E+04  0.7818609E-02  0.8567622E-01
       -1   -1    0    0    0  501  0.00000000000E+00  0.00000000000E+00  0.91418449298E+03  0.91418449300E+03  0.50400001928E-02 0.  1.
        1   -1    0    0  501    0  0.00000000000E+00  0.00000000000E+00 -0.11894887776E+04  0.11894887776E+04  0.50400001928E-02 0. -1.
    10030    2    1    2    0    0  0.00000000000E+00  0.00000000000E+00 -0.27530428459E+03  0.21036732706E+04  0.20855811613E+04 0.  0.
        3    1    3    3  502    0  0.31281850194E+03 -0.15184111825E+03  0.85398402335E+03  0.92206283012E+03  0.10100000352E+00 0.  1.
       -3    1    3    3    0  502 -0.31281850194E+03  0.15184111825E+03 -0.11292883079E+04  0.11816104405E+04  0.10100000352E+00 0. -1.
</event>
<event>
 5   0  0.3371947E-04  0.1914589E+04  0.7818609E-02  0.8647628E-01
       -2   -1    0    0    0  501  0.00000000000E+00  0.00000000000E+00  0.10548851330E+04  0.10548851330E+04  0.25500000920E-02 0. -1.
        2   -1    0    0  501    0  0.00000000000E+00  0.00000000000E+00 -0.86873228129E+03  0.86873228130E+03  0.25500000920E-02 0.  1.
    10030    2    1    2    0    0  0.00000000000E+00  0.00000000000E+00  0.18615285171E+03  0.19236174143E+04  0.19145890087E+04 0.  0.
        2    1    3    3  502    0 -0.29595343115E+03  0.85578123419E+03 -0.21897279451E+03  0.93161099122E+03  0.25500000920E-02 0. -1.
       -2    1    3    3    0  502  0.29595343115E+03 -0.85578123419E+03  0.40512564622E+03  0.99200642308E+03  0.25500000920E-02 0.  1.
</event>
<event>
 5   0  0.3460648E-04  0.2078663E+04  0.7818609E-02  0.8570701E-01
       -2   -1    0    0    0  501  0.00000000000E+00  0.00000000000E+00  0.10286124360E+04  0.10286124360E+04  0.25500000920E-02 0. -1.
        2   -1    0    0  501    0  0.00000000000E+00  0.00000000000E+00 -0.10501627021E+04  0.10501627021E+04  0.25500000920E-02 0.  1.
    10030    2    1    2    0    0  0.00000000000E+00  0.00000000000E+00 -0.21550266047E+02  0.20787751381E+04  0.20786634314E+04 0.  0.
        5    1    3    3  502    0 -0.28959152705E+03  0.68486107638E+03 -0.73696178474E+03  0.10469158078E+04  0.46999998093E+01 0.  1.
       -5    1    3    3    0  502  0.28959152705E+03 -0.68486107638E+03  0.71541151870E+03  0.10318593303E+04  0.46999998093E+01 0. -1.
</event>
<event>
 5   0  0.3387881E-04  0.1908815E+04  0.7818609E-02  0.8650481E-01
       -2   -1    0    0    0  501  0.00000000000E+00  0.00000000000E+00  0.68520874754E+03  0.68520874754E+03  0.25500000920E-02 0. -1.
        2   -1    0    0  501    0  0.00000000000E+00  0.00000000000E+00 -0.13293661051E+04  0.13293661051E+04  0.25500000920E-02 0.  1.
    10030    2    1    2    0    0  0.00000000000E+00  0.00000000000E+00 -0.64415735756E+03  0.20145748526E+04  0.19088145891E+04 0.  0.
        1    1    3    3  502    0  0.82394815479E+03 -0.47225084334E+03 -0.22205498761E+03  0.97530499761E+03  0.50400001928E-02 0.  1.
       -1    1    3    3    0  502 -0.82394815479E+03  0.47225084334E+03 -0.42210236995E+03  0.10392698550E+04  0.50400001928E-02 0. -1.
</event>
<event>
 5   0  0.3395569E-04  0.1774466E+04  0.7818609E-02  0.8719997E-01
       -2   -1    0    0    0  501  0.00000000000E+00  0.00000000000E+00  0.51960917349E+03  0.51960917350E+03  0.25500000920E-02 0. -1.
        2   -1    0    0  501    0  0.00000000000E+00  0.00000000000E+00 -0.15149517577E+04  0.15149517577E+04  0.25500000920E-02 0.  1.
    10030    2    1    2    0    0  0.00000000000E+00  0.00000000000E+00 -0.99534258419E+03  0.20345609312E+04  0.17744664896E+04 0.  0.
        4    1    3    3  502    0 -0.50698459910E+03 -0.72698662409E+03 -0.54407976610E+03  0.10399842980E+04  0.12699999809E+01 0. -1.
       -4    1    3    3    0  502  0.50698459910E+03  0.72698662409E+03 -0.45126281809E+03  0.99457663316E+03  0.12699999809E+01 0.  1.
</event>
<event>
 5   0  0.3460648E-04  0.2095700E+04  0.7818609E-02  0.8563140E-01
       -2   -1    0    0    0  501  0.00000000000E+00  0.00000000000E+00  0.66112792177E+03  0.66112792177E+03  0.25500000920E-02 0.  1.
        2   -1    0    0  501    0  0.00000000000E+00  0.00000000000E+00 -0.16607829332E+04  0.16607829332E+04  0.25500000920E-02 0. -1.
    10030    2    1    2    0    0  0.00000000000E+00  0.00000000000E+00 -0.99965501138E+03  0.23219108549E+04  0.20957003308E+04 0.  0.
        5    1    3    3  502    0  0.42693403385E+03 -0.91484121924E+03 -0.81076370873E+03  0.12948231567E+04  0.46999998093E+01 0. -1.
       -5    1    3    3    0  502 -0.42693403385E+03  0.91484121924E+03 -0.18889130265E+03  0.10270876982E+04  0.46999998093E+01 0.  1.
</event>
<event>
 5   0  0.3431030E-04  0.1958997E+04  0.7818609E-02  0.8626035E-01
        2   -1    0    0  501    0  0.00000000000E+00  0.00000000000E+00  0.29440020071E+04  0.29440020071E+04  0.25500000920E-02 0.  1.
       -2   -1    0    0    0  501  0.00000000000E+00  0.00000000000E+00 -0.32588865349E+03  0.32588865350E+03  0.25500000920E-02 0. -1.
    10030    2    1    2    0    0  0.00000000000E+00  0.00000000000E+00  0.26181133536E+04  0.32698906606E+04  0.19589965288E+04 0.  0.
        3    1    3    3  502    0  0.48308967950E+03  0.52750945816E+03  0.24259957209E+04  0.25292483300E+04  0.10100000352E+00 0.  1.
       -3    1    3    3    0  502 -0.48308967950E+03 -0.52750945816E+03  0.19211763274E+03  0.74064233061E+03  0.10100000352E+00 0. -1.
</event>
<event>
 5   0  0.1696052E-04  0.1996452E+04  0.7818609E-02  0.8608281E-01
       -1   -1    0    0    0  501  0.00000000000E+00  0.00000000000E+00  0.49132173367E+03  0.49132173370E+03  0.50400001928E-02 0.  1.
        1   -1    0    0  501    0  0.00000000000E+00  0.00000000000E+00 -0.20281118405E+04  0.20281118405E+04  0.50400001928E-02 0. -1.
    10030    2    1    2    0    0  0.00000000000E+00  0.00000000000E+00 -0.15367901068E+04  0.25194335742E+04  0.19964522790E+04 0.  0.
        4    1    3    3  502    0  0.28425982166E+03  0.91644755949E+01  0.43910970111E+03  0.52316973950E+03  0.12699999809E+01 0.  1.
       -4    1    3    3    0  502 -0.28425982166E+03 -0.91644755949E+01 -0.19758998079E+04  0.19962638347E+04  0.12699999809E+01 0. -1.
</event>
<event>
 5   0  0.3460648E-04  0.1992040E+04  0.7818609E-02  0.8610351E-01
        2   -1    0    0  501    0  0.00000000000E+00  0.00000000000E+00  0.21154098808E+04  0.21154098808E+04  0.25500000920E-02 0. -1.
       -2   -1    0    0    0  501  0.00000000000E+00  0.00000000000E+00 -0.46896646667E+03  0.46896646668E+03  0.25500000920E-02 0.  1.
    10030    2    1    2    0    0  0.00000000000E+00  0.00000000000E+00  0.16464434141E+04  0.25843763474E+04  0.19920404588E+04 0.  0.
        5    1    3    3  502    0  0.71046842939E+03 -0.33198108380E+03  0.26583145821E+02  0.78466909128E+03  0.46999998093E+01 0.  1.
       -5    1    3    3    0  502 -0.71046842939E+03  0.33198108380E+03  0.16198602683E+04  0.17997072562E+04  0.46999998093E+01 0. -1.
</event>
<event>
 5   0  0.1664168E-04  0.1042987E+04  0.7818609E-02  0.9262614E-01
        1   -1    0    0  501    0  0.00000000000E+00  0.00000000000E+00  0.73390147571E+03  0.73390147573E+03  0.50400001928E-02 0.  1.
       -1   -1    0    0    0  501  0.00000000000E+00  0.00000000000E+00 -0.37056134730E+03  0.37056134733E+03  0.50400001928E-02 0. -1.
    10030    2    1    2    0    0  0.00000000000E+00  0.00000000000E+00  0.36334012841E+03  0.11044628231E+04  0.10429870942E+04 0.  0.
        5    1    3    3  502    0  0.22537283930E+03 -0.11530037661E+03 -0.30110335881E+03  0.39341125584E+03  0.46999998093E+01 0. -1.
       -5    1    3    3    0  502 -0.22537283930E+03  0.11530037661E+03  0.66444348722E+03  0.71105156722E+03  0.46999998093E+01 0.  1.
</event>
<event>
 5   0  0.1664168E-04  0.2073953E+04  0.7818609E-02  0.8572805E-01
       -1   -1    0    0    0  501  0.00000000000E+00  0.00000000000E+00  0.59584930836E+03  0.59584930839E+03  0.50400001928E-02 0.  1.
        1   -1    0    0  501    0  0.00000000000E+00  0.00000000000E+00 -0.18046847177E+04  0.18046847177E+04  0.50400001928E-02 0. -1.
    10030    2    1    2    0    0  0.00000000000E+00  0.00000000000E+00 -0.12088354093E+04  0.24005340261E+04  0.20739528836E+04 0.  0.
        5    1    3    3  502    0  0.15185478994E+03  0.99227765305E+03 -0.90541108551E+03  0.13518380605E+04  0.46999998093E+01 0. -1.
       -5    1    3    3    0  502 -0.15185478994E+03 -0.99227765305E+03 -0.30342432379E+03  0.10486959656E+04  0.46999998093E+01 0.  1.
</event>
<event>
 5   0  0.1664168E-04  0.2113925E+04  0.7818609E-02  0.8555134E-01
       -1   -1    0    0    0  501  0.00000000000E+00  0.00000000000E+00  0.61718290635E+03  0.61718290637E+03  0.50400001928E-02 0. -1.
        1   -1    0    0  501    0  0.00000000000E+00  0.00000000000E+00 -0.18101108782E+04  0.18101108782E+04  0.50400001928E-02 0.  1.
    10030    2    1    2    0    0  0.00000000000E+00  0.00000000000E+00 -0.11929279719E+04  0.24272937846E+04  0.21139247788E+04 0.  0.
        5    1    3    3  502    0 -0.59000484696E+03  0.38736405897E+03 -0.14998531991E+04  0.16576303395E+04  0.46999998093E+01 0.  1.
       -5    1    3    3    0  502  0.59000484696E+03 -0.38736405897E+03  0.30692522721E+03  0.76966344510E+03  0.46999998093E+01 0. -1.
</event>
<event>
 5   0  0.1650221E-04  0.2019478E+04  0.7818609E-02  0.8597568E-01
       -1   -1    0    0    0  501  0.00000000000E+00  0.00000000000E+00  0.40271555664E+03  0.40271555667E+03  0.50400001928E-02 0. -1.
        1   -1    0    0  501    0  0.00000000000E+00  0.00000000000E+00 -0.25317453948E+04  0.25317453948E+04  0.50400001928E-02 0.  1.
    10030    2    1    2    0    0  0.00000000000E+00  0.00000000000E+00 -0.21290298381E+04  0.29344609514E+04  0.20194784039E+04 0.  0.
        1    1    3    3  502    0  0.46131635610E+03  0.83372728746E+03 -0.57896202819E+03  0.11149488779E+04  0.50400001928E-02 0. -1.
       -1    1    3    3    0  502 -0.46131635610E+03 -0.83372728746E+03 -0.15500678099E+04  0.18195120735E+04  0.50400001928E-02 0.  1.
</event>
<event>
 5   0  0.3431030E-04  0.2013354E+04  0.7818609E-02  0.8600403E-01
        2   -1    0    0  501    0  0.00000000000E+00  0.00000000000E+00  0.55387333251E+03  0.55387333252E+03  0.25500000920E-02 0. -1.
       -2   -1    0    0    0  501  0.00000000000E+00  0.00000000000E+00 -0.18296575702E+04  0.18296575702E+04  0.25500000920E-02 0.  1.
    10030    2    1    2    0    0  0.00000000000E+00  0.00000000000E+00 -0.12757842376E+04  0.23835309027E+04  0.20133539537E+04 0.  0.
        3    1    3    3  502    0 -0.56022040146E+03  0.40295677170E+03 -0.15055720423E+04  0.16561908835E+04  0.10100000352E+00 0.  1.
       -3    1    3    3    0  502  0.56022040146E+03 -0.40295677170E+03  0.22978780462E+03  0.72734001913E+03  0.10100000352E+00 0. -1.
</event>
<event>
 5   0  0.1222488E-04  0.1899965E+04  0.7818609E-02  0.8654874E-01
        4   -1    0    0  501    0  0.00000000000E+00  0.00000000000E+00  0.13849489279E+04  0.13849495102E+04  0.12699999809E+01 0.  1.
       -4   -1    0    0    0  501  0.00000000000E+00  0.00000000000E+00 -0.65162320654E+03  0.65162444414E+03  0.12699999809E+01 0. -1.
    10030    2    1    2    0    0  0.00000000000E+00  0.00000000000E+00  0.73332572135E+03  0.20365739543E+04  0.18999649623E+04 0.  0.
        1    1    3    3  502    0  0.82144860359E+03  0.45777700120E+03  0.51098833526E+03  0.10702554228E+04  0.50400001928E-02 0. -1.
       -1    1    3    3    0  502 -0.82144860359E+03 -0.45777700120E+03  0.22233738609E+03  0.96631853156E+03  0.50400001928E-02 0.  1.
</event>
<event>
 5   0  0.1696052E-04  0.2090321E+04  0.7818609E-02  0.8565519E-01
       -1   -1    0    0    0  501  0.00000000000E+00  0.00000000000E+00  0.75675684676E+03  0.75675684678E+03  0.50400001928E-02 0. -1.
        1   -1    0    0  501    0  0.00000000000E+00  0.00000000000E+00 -0.14434767256E+04  0.14434767256E+04  0.50400001928E-02 0.  1.
    10030    2    1    2    0    0  0.00000000000E+00  0.00000000000E+00 -0.68671987882E+03  0.22002335724E+04  0.20903214062E+04 0.  0.
        4    1    3    3  502    0  0.19893271405E+03 -0.25017305534E+03  0.70405038663E+03  0.77320717932E+03  0.12699999809E+01 0. -1.
       -4    1    3    3    0  502 -0.19893271405E+03  0.25017305534E+03 -0.13907702654E+04  0.14270263931E+04  0.12699999809E+01 0.  1.
</event>
<event>
 5   0  0.3371947E-04  0.1935556E+04  0.7818609E-02  0.8637358E-01
        2   -1    0    0  501    0  0.00000000000E+00  0.00000000000E+00  0.64481386027E+03  0.64481386027E+03  0.25500000920E-02 0. -1.
       -2   -1    0    0    0  501  0.00000000000E+00  0.00000000000E+00 -0.14525032591E+04  0.14525032591E+04  0.25500000920E-02 0.  1.
    10030    2    1    2    0    0  0.00000000000E+00  0.00000000000E+00 -0.80768939888E+03  0.20973171194E+04  0.19355559755E+04 0.  0.
        2    1    3    3  502    0  0.76720034908E+03 -0.50775661087E+03 -0.78445794288E+02  0.92334549014E+03  0.25500000920E-02 0. -1.
       -2    1    3    3    0  502 -0.76720034908E+03  0.50775661087E+03 -0.72924360459E+03  0.11739716293E+04  0.25500000920E-02 0.  1.
</event>
<event>
 5   0  0.3371947E-04  0.2051571E+04  0.7818609E-02  0.8582882E-01
       -2   -1    0    0    0  501  0.00000000000E+00  0.00000000000E+00  0.93018111780E+03  0.93018111780E+03  0.25500000920E-02 0. -1.
        2   -1    0    0  501    0  0.00000000000E+00  0.00000000000E+00 -0.11312165842E+04  0.11312165842E+04  0.25500000920E-02 0.  1.
    10030    2    1    2    0    0  0.00000000000E+00  0.00000000000E+00 -0.20103546636E+03  0.20613977020E+04  0.20515714043E+04 0.  0.
        2    1    3    3  502    0 -0.23479979825E+03  0.20877562653E+03  0.88064178444E+03  0.93501238494E+03  0.25500000920E-02 0. -1.
       -2    1    3    3    0  502  0.23479979825E+03 -0.20877562653E+03 -0.10816772508E+04  0.11263853170E+04  0.25500000920E-02 0.  1.
</event>
<event>
 5   0  0.1650221E-04  0.2009531E+04  0.7818609E-02  0.8602178E-01
       -1   -1    0    0    0  501  0.00000000000E+00  0.00000000000E+00  0.95548761407E+03  0.95548761408E+03  0.50400001928E-02 0. -1.
        1   -1    0    0  501    0  0.00000000000E+00  0.00000000000E+00 -0.10565845922E+04  0.10565845922E+04  0.50400001928E-02 0.  1.
    10030    2    1    2    0    0  0.00000000000E+00  0.00000000000E+00 -0.10109697810E+03  0.20120722063E+04  0.20095307821E+04 0.  0.
        1    1    3    3  502    0  0.34995122537E+03  0.49212971412E+02 -0.99230470848E+03  0.10533548363E+04  0.50400001928E-02 0.  1.
       -1    1    3    3    0  502 -0.34995122537E+03 -0.49212971412E+02  0.89120773039E+03  0.95871736994E+03  0.50400001928E-02 0. -1.
</event>
<event>
 5   0  0.3460648E-04  0.1226417E+04  0.7818609E-02  0.9090043E-01
        2   -1    0    0  501    0  0.00000000000E+00  0.00000000000E+00  0.17387461490E+04  0.17387461490E+04  0.25500000920E-02 0. -1.
       -2   -1    0    0    0  501  0.00000000000E+00  0.00000000000E+00 -0.21626196073E+03  0.21626196075E+03  0.25500000920E-02 0.  1.
    10030    2    1    2    0    0  0.00000000000E+00  0.00000000000E+00  0.15224841882E+04  0.19550081097E+04  0.12264169787E+04 0.  0.
        5    1    3    3  502    0  0.28698809238E+03  0.25091007466E+03  0.15268733333E+04  0.15737478504E+04  0.46999998093E+01 0. -1.
       -5    1    3    3    0  502 -0.28698809238E+03 -0.25091007466E+03 -0.43891450614E+01  0.38126025931E+03  0.46999998093E+01 0.  1.
</event>
<event>
 5   0  0.1708578E-04  0.1750630E+04  0.7818609E-02  0.8733004E-01
        1   -1    0    0  501    0  0.00000000000E+00  0.00000000000E+00  0.71777204916E+03  0.71777204917E+03  0.50400001928E-02 0.  1.
       -1   -1    0    0    0  501  0.00000000000E+00  0.00000000000E+00 -0.10674362698E+04  0.10674362698E+04  0.50400001928E-02 0. -1.
    10030    2    1    2    0    0  0.00000000000E+00  0.00000000000E+00 -0.34966422062E+03  0.17852083190E+04  0.17506295082E+04 0.  0.
        3    1    3    3  502    0  0.35944905786E+03 -0.51078400926E+03  0.45052795639E+03  0.77011647106E+03  0.10100000352E+00 0.  1.
       -3    1    3    3    0  502 -0.35944905786E+03  0.51078400926E+03 -0.80019217701E+03  0.10150918479E+04  0.10100000352E+00 0. -1.
</event>
<event>
 5   0  0.3395569E-04  0.2029410E+04  0.7818609E-02  0.8592993E-01
        2   -1    0    0  501    0  0.00000000000E+00  0.00000000000E+00  0.83704205419E+03  0.83704205419E+03  0.25500000920E-02 0. -1.
       -2   -1    0    0    0  501  0.00000000000E+00  0.00000000000E+00 -0.12300770150E+04  0.12300770150E+04  0.25500000920E-02 0.  1.
    10030    2    1    2    0    0  0.00000000000E+00  0.00000000000E+00 -0.39303496079E+03  0.20671190692E+04  0.20294099551E+04 0.  0.
        4    1    3    3  502    0 -0.58846779305E+03 -0.29719868644E+03  0.58917997901E+03  0.88416970274E+03  0.12699999809E+01 0. -1.
       -4    1    3    3    0  502  0.58846779305E+03  0.29719868644E+03 -0.98221493980E+03  0.11829493664E+04  0.12699999809E+01 0.  1.
</event>
<event>
 5   0  0.1222488E-04  0.2027861E+04  0.7818609E-02  0.8593704E-01
       -4   -1    0    0    0  501  0.00000000000E+00  0.00000000000E+00  0.84139563053E+03  0.84139658899E+03  0.12699999809E+01 0.  1.
        4   -1    0    0  501    0  0.00000000000E+00  0.00000000000E+00 -0.12218435300E+04  0.12218441900E+04  0.12699999809E+01 0. -1.
    10030    2    1    2    0    0  0.00000000000E+00  0.00000000000E+00 -0.38044789943E+03  0.20632407790E+04  0.20278614124E+04 0.  0.
        1    1    3    3  502    0 -0.38394892622E+03  0.64869799696E+03  0.49971411683E+03  0.90440039130E+03  0.50400001928E-02 0.  1.
       -1    1    3    3    0  502  0.38394892622E+03 -0.64869799696E+03 -0.88016201627E+03  0.11588403877E+04  0.50400001928E-02 0. -1.
</event>
<event>
 5   0  0.1650221E-04  0.2007377E+04  0.7818609E-02  0.8603179E-01
       -1   -1    0    0    0  501  0.00000000000E+00  0.00000000000E+00  0.97741766906E+03  0.97741766907E+03  0.50400001928E-02 0.  1.
        1   -1    0    0  501    0  0.00000000000E+00  0.00000000000E+00 -0.10306655539E+04  0.10306655539E+04  0.50400001928E-02 0. -1.
    10030    2    1    2    0    0  0.00000000000E+00  0.00000000000E+00 -0.53247884838E+02  0.20080832230E+04  0.20073771178E+04 0.  0.
        1    1    3    3  502    0  0.55735556229E+03  0.89725322990E+02 -0.85679227231E+03  0.10260549958E+04  0.50400001928E-02 0. -1.
       -1    1    3    3    0  502 -0.55735556229E+03 -0.89725322990E+02  0.80354438748E+03  0.98202822723E+03  0.50400001928E-02 0.  1.
</event>
<event>
 5   0  0.1650221E-04  0.2030364E+04  0.7818609E-02  0.8592555E-01
        1   -1    0    0  501    0  0.00000000000E+00  0.00000000000E+00  0.68474898697E+03  0.68474898699E+03  0.50400001928E-02 0. -1.
       -1   -1    0    0    0  501  0.00000000000E+00  0.00000000000E+00 -0.15050686648E+04  0.15050686648E+04  0.50400001928E-02 0.  1.
    10030    2    1    2    0    0  0.00000000000E+00  0.00000000000E+00 -0.82031967785E+03  0.21898176518E+04  0.20303637542E+04 0.  0.
        1    1    3    3  502    0  0.95906924193E+03 -0.86212205101E+02 -0.75688463726E+03  0.12247941498E+04  0.50400001928E-02 0.  1.
       -1    1    3    3    0  502 -0.95906924193E+03  0.86212205101E+02 -0.63435040588E+02  0.96502350206E+03  0.50400001928E-02 0. -1.
</event>
<event>
 5   0  0.1708578E-04  0.2013355E+04  0.7818609E-02  0.8600402E-01
       -1   -1    0    0    0  501  0.00000000000E+00  0.00000000000E+00  0.72411020555E+03  0.72411020557E+03  0.50400001928E-02 0. -1.
        1   -1    0    0  501    0  0.00000000000E+00  0.00000000000E+00 -0.13995095028E+04  0.13995095029E+04  0.50400001928E-02 0.  1.
    10030    2    1    2    0    0  0.00000000000E+00  0.00000000000E+00 -0.67539929729E+03  0.21236197084E+04  0.20133545279E+04 0.  0.
        3    1    3    3  502    0  0.40637626653E+03  0.53974968216E+03  0.44944746352E+03  0.81146436894E+03  0.10100000352E+00 0. -1.
       -3    1    3    3    0  502 -0.40637626653E+03 -0.53974968216E+03 -0.11248467608E+04  0.13121553395E+04  0.10100000352E+00 0.  1.
</event>
<event>
 5   0  0.3395569E-04  0.1949681E+04  0.7818609E-02  0.8630515E-01
        2   -1    0    0  501    0  0.00000000000E+00  0.00000000000E+00  0.11783711333E+04  0.11783711333E+04  0.25500000920E-02 0. -1.
       -2   -1    0    0    0  501  0.00000000000E+00  0.00000000000E+00 -0.80646381368E+03  0.80646381368E+03  0.25500000920E-02 0.  1.
    10030    2    1    2    0    0  0.00000000000E+00  0.00000000000E+00  0.37190731965E+03  0.19848349470E+04  0.19496806694E+04 0.  0.
        4    1    3    3  502    0  0.90203301427E+03 -0.19406502485E+03  0.50624897844E+03  0.10524326267E+04  0.12699999809E+01 0. -1.
       -4    1    3    3    0  502 -0.90203301427E+03  0.19406502485E+03 -0.13434165879E+03  0.93240232030E+03  0.12699999809E+01 0.  1.
</event>
<event>
 5   0  0.3387881E-04  0.1989374E+04  0.7818609E-02  0.8611605E-01
        2   -1    0    0  501    0  0.00000000000E+00  0.00000000000E+00  0.80556317067E+03  0.80556317067E+03  0.25500000920E-02 0. -1.
       -2   -1    0    0    0  501  0.00000000000E+00  0.00000000000E+00 -0.12282114274E+04  0.12282114274E+04  0.25500000920E-02 0.  1.
    10030    2    1    2    0    0  0.00000000000E+00  0.00000000000E+00 -0.42264825675E+03  0.20337745981E+04  0.19893736620E+04 0.  0.
        1    1    3    3  502    0 -0.24325501694E+03 -0.46182072967E+02  0.77355499045E+03  0.81221494102E+03  0.50400001928E-02 0. -1.
       -1    1    3    3    0  502  0.24325501694E+03  0.46182072967E+02 -0.11962032472E+04  0.12215596571E+04  0.50400001928E-02 0.  1.
</event>
<event>
 5   0  0.1222488E-04  0.2154985E+04  0.7818609E-02  0.8537401E-01
        4   -1    0    0  501    0  0.00000000000E+00  0.00000000000E+00  0.13550045050E+04  0.13550051001E+04  0.12699999809E+01 0.  1.
       -4   -1    0    0    0  501  0.00000000000E+00  0.00000000000E+00 -0.85681522740E+03  0.85681616861E+03  0.12699999809E+01 0. -1.
    10030    2    1    2    0    0  0.00000000000E+00  0.00000000000E+00  0.49818927759E+03  0.22118212688E+04  0.21549850971E+04 0.  0.
        3    1    3    3  502    0 -0.86593389840E+03  0.42403044332E+03 -0.24457628946E+03  0.99471649470E+03  0.10100000352E+00 0. -1.
       -3    1    3    3    0  502  0.86593389840E+03 -0.42403044332E+03  0.74276556704E+03  0.12171047741E+04  0.10100000352E+00 0.  1.
</event>
<event>
 5   0  0.1643565E-04  0.1580908E+04  0.7818609E-02  0.8832364E-01
        1   -1    0    0  501    0  0.00000000000E+00  0.00000000000E+00  0.64269490191E+03  0.64269490193E+03  0.50400001928E-02 0.  1.
       -1   -1    0    0    0  501  0.00000000000E+00  0.00000000000E+00 -0.97218315864E+03  0.97218315866E+03  0.50400001928E-02 0. -1.
    10030    2    1    2    0    0  0.00000000000E+00  0.00000000000E+00 -0.32948825673E+03  0.16148780606E+04  0.15809075366E+04 0.  0.
        2    1    3    3  502    0  0.32086208671E+01 -0.45664382123E+03 -0.82380837298E+03  0.94190982059E+03  0.25500000920E-02 0. -1.
       -2    1    3    3    0  502 -0.32086208671E+01  0.45664382123E+03  0.49432011625E+03  0.67296824000E+03  0.25500000920E-02 0.  1.
</event>
<event>
 5   0  0.1222488E-04  0.1727247E+04  0.7818609E-02  0.8745975E-01
       -3   -1    0    0    0  501  0.00000000000E+00  0.00000000000E+00  0.96734058433E+03  0.96734058960E+03  0.10100000352E+00 0. -1.
        3   -1    0    0  501    0  0.00000000000E+00  0.00000000000E+00 -0.77102717148E+03  0.77102717809E+03  0.10100000352E+00 0.  1.
    10030    2    1    2    0    0  0.00000000000E+00  0.00000000000E+00  0.19631341285E+03  0.17383677677E+04  0.17272473881E+04 0.  0.
        4    1    3    3  502    0  0.74594230904E+03  0.37771958611E+03  0.31574822329E+03  0.89375643637E+03  0.12699999809E+01 0. -1.
       -4    1    3    3    0  502 -0.74594230904E+03 -0.37771958611E+03 -0.11943481044E+03  0.84461133132E+03  0.12699999809E+01 0.  1.
</event>
<event>
 5   0  0.3395569E-04  0.1984764E+04  0.7818609E-02  0.8613777E-01
       -2   -1    0    0    0  501  0.00000000000E+00  0.00000000000E+00  0.94681369246E+03  0.94681369247E+03  0.25500000920E-02 0. -1.
        2   -1    0    0  501    0  0.00000000000E+00  0.00000000000E+00 -0.10401436672E+04  0.10401436672E+04  0.25500000920E-02 0.  1.
    10030    2    1    2    0    0  0.00000000000E+00  0.00000000000E+00 -0.93329974736E+02  0.19869573597E+04  0.19847642341E+04 0.  0.
        4    1    3    3  502    0  0.71349629458E+03  0.20825176536E+03 -0.70494376772E+03  0.10243988914E+04  0.12699999809E+01 0.  1.
       -4    1    3    3    0  502 -0.71349629458E+03 -0.20825176536E+03  0.61161379299E+03  0.96255846826E+03  0.12699999809E+01 0. -1.
</event>
<event>
 5   0  0.1708578E-04  0.2036814E+04  0.7818609E-02  0.8589600E-01
        1   -1    0    0  501    0  0.00000000000E+00  0.00000000000E+00  0.62108212273E+03  0.62108212275E+03  0.50400001928E-02 0.  1.
       -1   -1    0    0    0  501  0.00000000000E+00  0.00000000000E+00 -0.16699133372E+04  0.16699133373E+04  0.50400001928E-02 0. -1.
    10030    2    1    2    0    0  0.00000000000E+00  0.00000000000E+00 -0.10488312145E+04  0.22909954600E+04  0.20368144936E+04 0.  0.
        3    1    3    3  502    0 -0.39456445136E+03 -0.45133695409E+03  0.40158871150E+03  0.72156749913E+03  0.10100000352E+00 0.  1.
       -3    1    3    3    0  502  0.39456445136E+03  0.45133695409E+03 -0.14504199260E+04  0.15694279609E+04  0.10100000352E+00 0. -1.
</event>
<event>
 5   0  0.3395569E-04  0.1906873E+04  0.7818609E-02  0.8651443E-01
       -2   -1    0    0    0  501  0.00000000000E+00  0.00000000000E+00  0.62038167303E+03  0.62038167304E+03  0.25500000920E-02 0. -1.
        2   -1    0    0  501    0  0.00000000000E+00  0.00000000000E+00 -0.14652928540E+04  0.14652928540E+04  0.25500000920E-02 0.  1.
    10030    2    1    2    0    0  0.00000000000E+00  0.00000000000E+00 -0.84491118093E+03  0.20856745270E+04  0.19068726567E+04 0.  0.
        4    1    3    3  502    0 -0.26545193644E+03  0.58319772311E+03  0.34975860781E+03  0.73001165157E+03  0.12699999809E+01 0. -1.
       -4    1    3    3    0  502  0.26545193644E+03 -0.58319772311E+03 -0.11946697887E+04  0.13556628754E+04  0.12699999809E+01 0.  1.
</event>
<event>
 5   0  0.1708578E-04  0.2017388E+04  0.7818609E-02  0.8598534E-01
       -1   -1    0    0    0  501  0.00000000000E+00  0.00000000000E+00  0.76807040070E+03  0.76807040072E+03  0.50400001928E-02 0.  1.
        1   -1    0    0  501    0  0.00000000000E+00  0.00000000000E+00 -0.13247015335E+04  0.13247015335E+04  0.50400001928E-02 0. -1.
    10030    2    1    2    0    0  0.00000000000E+00  0.00000000000E+00 -0.55663113279E+03  0.20927719342E+04  0.20173884481E+04 0.  0.
        3    1    3    3  502    0 -0.79939909800E+03  0.59866570981E+03 -0.42511114289E+03  0.10854303497E+04  0.10100000352E+00 0.  1.
       -3    1    3    3    0  502  0.79939909800E+03 -0.59866570981E+03 -0.13151998990E+03  0.10073415845E+04  0.10100000352E+00 0. -1.
</event>
<event>
 5   0  0.1708578E-04  0.2025269E+04  0.7818609E-02  0.8594897E-01
        1   -1    0    0  501    0  0.00000000000E+00  0.00000000000E+00  0.84567866175E+03  0.84567866177E+03  0.50400001928E-02 0. -1.
       -1   -1    0    0    0  501  0.00000000000E+00  0.00000000000E+00 -0.12125515994E+04  0.12125515994E+04  0.50400001928E-02 0.  1.
    10030    2    1    2    0    0  0.00000000000E+00  0.00000000000E+00 -0.36687293764E+03  0.20582302612E+04  0.20252693785E+04 0.  0.
        3    1    3    3  502    0 -0.98905126384E+03 -0.17853472219E+03 -0.30927392175E+03  0.10515452527E+04  0.10100000352E+00 0.  1.
       -3    1    3    3    0  502  0.98905126384E+03  0.17853472219E+03 -0.57599015897E+02  0.10066850085E+04  0.10100000352E+00 0. -1.
</event>
<event>
 5   0  0.3395569E-04  0.1966439E+04  0.7818609E-02  0.8622474E-01
        2   -1    0    0  501    0  0.00000000000E+00  0.00000000000E+00  0.20583248483E+04  0.20583248483E+04  0.25500000920E-02 0.  1.
       -2   -1    0    0    0  501  0.00000000000E+00  0.00000000000E+00 -0.46966381945E+03  0.46966381945E+03  0.25500000920E-02 0. -1.
    10030    2    1    2    0    0  0.00000000000E+00  0.00000000000E+00  0.15886610288E+04  0.25279886677E+04  0.19664391269E+04 0.  0.
        4    1    3    3  502    0 -0.89828364001E+03  0.27967966507E+03  0.11615278034E+04  0.14947517065E+04  0.12699999809E+01 0.  1.
       -4    1    3    3    0  502  0.89828364001E+03 -0.27967966507E+03  0.42713322540E+03  0.10332369613E+04  0.12699999809E+01 0. -1.
</event>
<event>
 5   0  0.3387881E-04  0.1973250E+04  0.7818609E-02  0.8619230E-01
       -2   -1    0    0    0  501  0.00000000000E+00  0.00000000000E+00  0.11227303971E+04  0.11227303971E+04  0.25500000920E-02 0.  1.
        2   -1    0    0  501    0  0.00000000000E+00  0.00000000000E+00 -0.86701895946E+03  0.86701895946E+03  0.25500000920E-02 0. -1.
    10030    2    1    2    0    0  0.00000000000E+00  0.00000000000E+00  0.25571143759E+03  0.19897493565E+04  0.19732496452E+04 0.  0.
        1    1    3    3  502    0 -0.79295668174E+03 -0.50094436457E+03 -0.18081330803E+03  0.95520626458E+03  0.50400001928E-02 0. -1.
       -1    1    3    3    0  502  0.79295668174E+03  0.50094436457E+03  0.43652474562E+03  0.10345430919E+04  0.50400001928E-02 0.  1.
</event>
<event>
 5   0  0.3371947E-04  0.1924741E+04  0.7818609E-02  0.8642638E-01
        2   -1    0    0  501    0  0.00000000000E+00  0.00000000000E+00  0.10656876059E+04  0.10656876059E+04  0.25500000920E-02 0.  1.
       -2   -1    0    0    0  501  0.00000000000E+00  0.00000000000E+00 -0.86907022008E+03  0.86907022008E+03  0.25500000920E-02 0. -1.
    10030    2    1    2    0    0  0.00000000000E+00  0.00000000000E+00  0.19661738585E+03  0.19347578260E+04  0.19247413979E+04 0.  0.
        2    1    3    3  502    0  0.24480765369E+00 -0.47886651218E+03 -0.74080741662E+03  0.88210476982E+03  0.25500000920E-02 0. -1.
       -2    1    3    3    0  502 -0.24480765369E+00  0.47886651218E+03  0.93742480247E+03  0.10526530562E+04  0.25500000920E-02 0.  1.
</event>
<event>
 5   0  0.3395569E-04  0.1945016E+04  0.7818609E-02  0.8632768E-01
        2   -1    0    0  501    0  0.00000000000E+00  0.00000000000E+00  0.14708129858E+04  0.14708129858E+04  0.25500000920E-02 0.  1.
       -2   -1    0    0    0  501  0.00000000000E+00  0.00000000000E+00 -0.64302630762E+03  0.64302630762E+03  0.25500000920E-02 0. -1.
    10030    2    1    2    0    0  0.00000000000E+00  0.00000000000E+00  0.82778667821E+03  0.21138392934E+04  0.19450156230E+04 0.  0.
        4    1    3    3  502    0 -0.51228144928E+03  0.44847408796E+03  0.11685793870E+04  0.13524572775E+04  0.12699999809E+01 0.  1.
       -4    1    3    3    0  502  0.51228144928E+03 -0.44847408796E+03 -0.34079270884E+03  0.76138201591E+03  0.12699999809E+01 0. -1.
</event>
<event>
 5   0  0.1650221E-04  0.2010797E+04  0.7818609E-02  0.8601589E-01
       -1   -1    0    0    0  501  0.00000000000E+00  0.00000000000E+00  0.88343304273E+03  0.88343304274E+03  0.50400001928E-02 0. -1.
        1   -1    0    0  501    0  0.00000000000E+00  0.00000000000E+00 -0.11442026768E+04  0.11442026768E+04  0.50400001928E-02 0.  1.
    10030    2    1    2    0    0  0.00000000000E+00  0.00000000000E+00 -0.26076963403E+03  0.20276357195E+04  0.20107973068E+04 0.  0.
        1    1    3    3  502    0 -0.98171143194E+03 -0.11732999963E+03 -0.31440350648E+03  0.10374840863E+04  0.50400001928E-02 0.  1.
       -1    1    3    3    0  502  0.98171143194E+03  0.11732999963E+03  0.53633872449E+02  0.99015163320E+03  0.50400001928E-02 0. -1.
</event>
<event>
 5   0  0.1708578E-04  0.1962514E+04  0.7818609E-02  0.8624350E-01
       -1   -1    0    0    0  501  0.00000000000E+00  0.00000000000E+00  0.13289352048E+04  0.13289352048E+04  0.50400001928E-02 0. -1.
        1   -1    0    0  501    0  0.00000000000E+00  0.00000000000E+00 -0.72453865509E+03  0.72453865511E+03  0.50400001928E-02 0.  1.
    10030    2    1    2    0    0  0.00000000000E+00  0.00000000000E+00  0.60439654968E+03  0.20534738599E+04  0.19625136188E+04 0.  0.
        3    1    3    3  502    0  0.59445798915E+03  0.57644740890E+03  0.85309175021E+03  0.11888807596E+04  0.10100000352E+00 0.  1.
       -3    1    3    3    0  502 -0.59445798915E+03 -0.57644740890E+03 -0.24869520053E+03  0.86459310028E+03  0.10100000352E+00 0. -1.
</event>
<event>
 5   0  0.3371947E-04  0.1947551E+04  0.7818609E-02  0.8631542E-01
        2   -1    0    0  501    0  0.00000000000E+00  0.00000000000E+00  0.10361363238E+04  0.10361363238E+04  0.25500000920E-02 0.  1.
       -2   -1    0    0    0  501  0.00000000000E+00  0.00000000000E+00 -0.91516826833E+03  0.91516826833E+03  0.25500000920E-02 0. -1.
    10030    2    1    2    0    0  0.00000000000E+00  0.00000000000E+00  0.12096805550E+03  0.19513045922E+04  0.19475513706E+04 0.  0.
        2    1    3    3  502    0 -0.87908718071E+03  0.37036573859E+03  0.25649855604E+03  0.98780390810E+03  0.25500000920E-02 0. -1.
       -2    1    3    3    0  502  0.87908718071E+03 -0.37036573859E+03 -0.13553050054E+03  0.96350068406E+03  0.25500000920E-02 0.  1.
</event>
<event>
 5   0  0.1643565E-04  0.2004547E+04  0.7818609E-02  0.8604498E-01
       -1   -1    0    0    0  501  0.00000000000E+00  0.00000000000E+00  0.97553759924E+03  0.97553759925E+03  0.50400001928E-02 0.  1.
        1   -1    0    0  501    0  0.00000000000E+00  0.00000000000E+00 -0.10297421598E+04  0.10297421598E+04  0.50400001928E-02 0. -1.
    10030    2    1    2    0    0  0.00000000000E+00  0.00000000000E+00 -0.54204560535E+02  0.20052797590E+04  0.20045470255E+04 0.  0.
        2    1    3    3  502    0  0.91737057183E+03 -0.84314535857E+02 -0.42205602893E+03  0.10133158435E+04  0.25500000920E-02 0.  1.
       -2    1    3    3    0  502 -0.91737057183E+03  0.84314535857E+02  0.36785146839E+03  0.99196391559E+03  0.25500000920E-02 0. -1.
</event>
<event>
 5   0  0.1696052E-04  0.1751691E+04  0.7818609E-02  0.8732420E-01
       -1   -1    0    0    0  501  0.00000000000E+00  0.00000000000E+00  0.60462374765E+03  0.60462374767E+03  0.50400001928E-02 0.  1.
        1   -1    0    0  501    0  0.00000000000E+00  0.00000000000E+00 -0.12687319953E+04  0.12687319954E+04  0.50400001928E-02 0. -1.
    10030    2    1    2    0    0  0.00000000000E+00  0.00000000000E+00 -0.66410824770E+03  0.18733557430E+04  0.17516911758E+04 0.  0.
        4    1    3    3  502    0  0.48028569915E+03  0.27282367024E+03 -0.10589667040E+04  0.11943697923E+04  0.12699999809E+01 0. -1.
       -4    1    3    3    0  502 -0.48028569915E+03 -0.27282367024E+03  0.39485845626E+03  0.67898595069E+03  0.12699999809E+01 0.  1.
</event>
<event>
 5   0  0.1696052E-04  0.1957094E+04  0.7818609E-02  0.8626947E-01
       -1   -1    0    0    0  501  0.00000000000E+00  0.00000000000E+00  0.68728224014E+03  0.68728224016E+03  0.50400001928E-02 0. -1.
        1   -1    0    0  501    0  0.00000000000E+00  0.00000000000E+00 -0.13932476107E+04  0.13932476107E+04  0.50400001928E-02 0.  1.
    10030    2    1    2    0    0  0.00000000000E+00  0.00000000000E+00 -0.70596537059E+03  0.20805298509E+04  0.19570941102E+04 0.  0.
        4    1    3    3  502    0 -0.85984879879E+03 -0.30491200079E+03  0.23232455251E+02  0.91260760729E+03  0.12699999809E+01 0. -1.
       -4    1    3    3    0  502  0.85984879879E+03  0.30491200079E+03 -0.72919782584E+03  0.11679222436E+04  0.12699999809E+01 0.  1.
</event>
<event>
 5   0  0.3371947E-04  0.1996958E+04  0.7818609E-02  0.8608044E-01
       -2   -1    0    0    0  501  0.00000000000E+00  0.00000000000E+00  0.52564571747E+03  0.52564571747E+03  0.25500000920E-02 0.  1.
        2   -1    0    0  501    0  0.00000000000E+00  0.00000000000E+00 -0.18966386517E+04  0.18966386517E+04  0.25500000920E-02 0. -1.
    10030    2    1    2    0    0  0.00000000000E+00  0.00000000000E+00 -0.13709929343E+04  0.24222843692E+04  0.19969576709E+04 0.  0.
        2    1    3    3  502    0 -0.27152786932E+02  0.55282212781E+03  0.32253206834E+03  0.64060636427E+03  0.25500000920E-02 0.  1.
       -2    1    3    3    0  502  0.27152786932E+02 -0.55282212781E+03 -0.16935250026E+04  0.17816780049E+04  0.25500000920E-02 0. -1.
</event>
<event>
 5   0  0.1650221E-04  0.2035695E+04  0.7818609E-02  0.8590111E-01
       -1   -1    0    0    0  501  0.00000000000E+00  0.00000000000E+00  0.65554088711E+03  0.65554088713E+03  0.50400001928E-02 0. -1.
        1   -1    0    0  501    0  0.00000000000E+00  0.00000000000E+00 -0.15803953339E+04  0.15803953339E+04  0.50400001928E-02 0.  1.
    10030    2    1    2    0    0  0.00000000000E+00  0.00000000000E+00 -0.92485444680E+03  0.22359362210E+04  0.20356952220E+04 0.  0.
        1    1    3    3  502    0 -0.57589432458E+03  0.11159081832E+03 -0.13760575534E+04  0.14958747187E+04  0.50400001928E-02 0.  1.
       -1    1    3    3    0  502  0.57589432458E+03 -0.11159081832E+03  0.45120310659E+03  0.74006150234E+03  0.50400001928E-02 0. -1.
</event>
<event>
 5   0  0.3371947E-04  0.1898787E+04  0.7818609E-02  0.8655460E-01
       -2   -1    0    0    0  501  0.00000000000E+00  0.00000000000E+00  0.52669894442E+03  0.52669894442E+03  0.25500000920E-02 0. -1.
        2   -1    0    0  501    0  0.00000000000E+00  0.00000000000E+00 -0.17113155710E+04  0.17113155710E+04  0.25500000920E-02 0.  1.
    10030    2    1    2    0    0  0.00000000000E+00  0.00000000000E+00 -0.11846166266E+04  0.22380145155E+04  0.18987870916E+04 0.  0.
        2    1    3    3  502    0 -0.47889710008E+03 -0.36858267633E+03  0.27073141724E+03  0.66218662177E+03  0.25500000920E-02 0. -1.
       -2    1    3    3    0  502  0.47889710008E+03  0.36858267633E+03 -0.14553480439E+04  0.15758278937E+04  0.25500000920E-02 0.  1.
</event>
<event>
 5   0  0.3371947E-04  0.1901998E+04  0.7818609E-02  0.8653863E-01
        2   -1    0    0  501    0  0.00000000000E+00  0.00000000000E+00  0.67207820728E+03  0.67207820728E+03  0.25500000920E-02 0. -1.
       -2   -1    0    0    0  501  0.00000000000E+00  0.00000000000E+00 -0.13456752918E+04  0.13456752919E+04  0.25500000920E-02 0.  1.
    10030    2    1    2    0    0  0.00000000000E+00  0.00000000000E+00 -0.67359708457E+03  0.20177534991E+04  0.19019979366E+04 0.  0.
        2    1    3    3  502    0 -0.43978394934E+03 -0.21786415508E+03 -0.12009432853E+04  0.12973586577E+04  0.25500000920E-02 0.  1.
       -2    1    3    3    0  502  0.43978394934E+03  0.21786415508E+03  0.52734620073E+03  0.72039484145E+03  0.25500000920E-02 0. -1.
</event>
<event>
 5   0  0.3371947E-04  0.2016246E+04  0.7818609E-02  0.8599063E-01
       -2   -1    0    0    0  501  0.00000000000E+00  0.00000000000E+00  0.16871078759E+04  0.16871078759E+04  0.25500000920E-02 0. -1.
        2   -1    0    0  501    0  0.00000000000E+00  0.00000000000E+00 -0.60239904950E+03  0.60239904951E+03  0.25500000920E-02 0.  1.
    10030    2    1    2    0    0  0.00000000000E+00  0.00000000000E+00  0.10847088264E+04  0.22895069254E+04  0.20162461961E+04 0.  0.
        2    1    3    3  502    0 -0.50751559050E+03 -0.44842457801E+03  0.13903261885E+04  0.15465004323E+04  0.25500000920E-02 0. -1.
       -2    1    3    3    0  502  0.50751559050E+03  0.44842457801E+03 -0.30561736209E+03  0.74300649309E+03  0.25500000920E-02 0.  1.
</event>
<event>
 5   0  0.3387881E-04  0.1296178E+04  0.7818609E-02  0.9032601E-01
        2   -1    0    0  501    0  0.00000000000E+00  0.00000000000E+00  0.59713459790E+03  0.59713459791E+03  0.25500000920E-02 0. -1.
       -2   -1    0    0    0  501  0.00000000000E+00  0.00000000000E+00 -0.70339191652E+03  0.70339191652E+03  0.25500000920E-02 0.  1.
    10030    2    1    2    0    0  0.00000000000E+00  0.00000000000E+00 -0.10625731862E+03  0.13005265144E+04  0.12961784588E+04 0.  0.
        1    1    3    3  502    0 -0.89022477078E+02 -0.22819897156E+03  0.54890067192E+03  0.60107546923E+03  0.50400001928E-02 0. -1.
       -1    1    3    3    0  502  0.89022477078E+02  0.22819897156E+03 -0.65515799054E+03  0.69945104520E+03  0.50400001928E-02 0.  1.
</event>
<event>
 5   0  0.1643565E-04  0.1592711E+04  0.7818609E-02  0.8825039E-01
        1   -1    0    0  501    0  0.00000000000E+00  0.00000000000E+00  0.68164133175E+03  0.68164133177E+03  0.50400001928E-02 0.  1.
       -1   -1    0    0    0  501  0.00000000000E+00  0.00000000000E+00 -0.93037449491E+03  0.93037449492E+03  0.50400001928E-02 0. -1.
    10030    2    1    2    0    0  0.00000000000E+00  0.00000000000E+00 -0.24873316316E+03  0.16120158267E+04  0.15927105321E+04 0.  0.
        2    1    3    3  502    0  0.74826860638E+03  0.16708703997E+03 -0.34228478009E+03  0.83963257256E+03  0.25500000920E-02 0. -1.
       -2    1    3    3    0  502 -0.74826860638E+03 -0.16708703997E+03  0.93551616930E+02  0.77238325413E+03  0.25500000920E-02 0.  1.
</event>
<event>
 5   0  0.3395569E-04  0.2204448E+04  0.7818609E-02  0.8516579E-01
       -2   -1    0    0    0  501  0.00000000000E+00  0.00000000000E+00  0.73694131580E+03  0.73694131580E+03  0.25500000920E-02 0.  1.
        2   -1    0    0  501    0  0.00000000000E+00  0.00000000000E+00 -0.16485684754E+04  0.16485684754E+04  0.25500000920E-02 0. -1.
    10030    2    1    2    0    0  0.00000000000E+00  0.00000000000E+00 -0.91162715963E+03  0.23855097912E+04  0.22044484312E+04 0.  0.
        4    1    3    3  502    0 -0.56076035462E+03 -0.86856890945E+03 -0.42284557976E+02  0.10347239837E+04  0.12699999809E+01 0.  1.
       -4    1    3    3    0  502  0.56076035462E+03  0.86856890945E+03 -0.86934260166E+03  0.13507858075E+04  0.12699999809E+01 0. -1.
</event>
<event>
 5   0  0.3460648E-04  0.1301586E+04  0.7818609E-02  0.9028309E-01
        2   -1    0    0  501    0  0.00000000000E+00  0.00000000000E+00  0.89614667363E+03  0.89614667363E+03  0.25500000920E-02 0.  1.
       -2   -1    0    0    0  501  0.00000000000E+00  0.00000000000E+00 -0.47261397099E+03  0.47261397100E+03  0.25500000920E-02 0. -1.
    10030    2    1    2    0    0  0.00000000000E+00  0.00000000000E+00  0.42353270264E+03  0.13687606446E+04  0.13015858604E+04 0.  0.
        5    1    3    3  502    0  0.25529982536E+03  0.58337137788E+03  0.35289061506E+03  0.72804810387E+03  0.46999998093E+01 0.  1.
       -5    1    3    3    0  502 -0.25529982536E+03 -0.58337137788E+03  0.70642087575E+02  0.64071254076E+03  0.46999998093E+01 0. -1.
</event>
<event>
 5   0  0.1708578E-04  0.1956012E+04  0.7818609E-02  0.8627467E-01
        1   -1    0    0  501    0  0.00000000000E+00  0.00000000000E+00  0.96534721417E+03  0.96534721419E+03  0.50400001928E-02 0. -1.
       -1   -1    0    0    0  501  0.00000000000E+00  0.00000000000E+00 -0.99083093627E+03  0.99083093628E+03  0.50400001928E-02 0.  1.
    10030    2    1    2    0    0  0.00000000000E+00  0.00000000000E+00 -0.25483722097E+02  0.19561781505E+04  0.19560121514E+04 0.  0.
        3    1    3    3  502    0  0.48408125023E+03 -0.83438002038E+03  0.14842763658E+03  0.97598947164E+03  0.10100000352E+00 0.  1.
       -3    1    3    3    0  502 -0.48408125023E+03  0.83438002038E+03 -0.17391135867E+03  0.98018867884E+03  0.10100000352E+00 0. -1.
</event>
<event>
 5   0  0.3460648E-04  0.1732923E+04  0.7818609E-02  0.8742807E-01
        2   -1    0    0  501    0  0.00000000000E+00  0.00000000000E+00  0.10748145275E+04  0.10748145275E+04  0.25500000920E-02 0.  1.
       -2   -1    0    0    0  501  0.00000000000E+00  0.00000000000E+00 -0.69849793516E+03  0.69849793516E+03  0.25500000920E-02 0. -1.
    10030    2    1    2    0    0  0.00000000000E+00  0.00000000000E+00  0.37631659238E+03  0.17733124627E+04  0.17329232276E+04 0.  0.
        5    1    3    3  502    0 -0.20476617199E+03 -0.14425044948E+03 -0.66062921782E+03  0.70653409741E+03  0.46999998093E+01 0. -1.
       -5    1    3    3    0  502  0.20476617199E+03  0.14425044948E+03  0.10369458102E+04  0.10667783653E+04  0.46999998093E+01 0.  1.
</event>
<event>
 5   0  0.1664168E-04  0.1337925E+04  0.7818609E-02  0.9000019E-01
       -1   -1    0    0    0  501  0.00000000000E+00  0.00000000000E+00  0.97439784759E+03  0.97439784760E+03  0.50400001928E-02 0.  1.
        1   -1    0    0  501    0  0.00000000000E+00  0.00000000000E+00 -0.45926942147E+03  0.45926942150E+03  0.50400001928E-02 0. -1.
    10030    2    1    2    0    0  0.00000000000E+00  0.00000000000E+00  0.51512842611E+03  0.14336672691E+04  0.13379254625E+04 0.  0.
        5    1    3    3  502    0 -0.28559937831E+03 -0.11983770782E+01 -0.39063706627E+03  0.48392959048E+03  0.46999998093E+01 0. -1.
       -5    1    3    3    0  502  0.28559937831E+03  0.11983770782E+01  0.90576549238E+03  0.94973767862E+03  0.46999998093E+01 0.  1.
</event>
<event>
 5   0  0.3460648E-04  0.1872183E+04  0.7818609E-02  0.8668828E-01
        2   -1    0    0  501    0  0.00000000000E+00  0.00000000000E+00  0.17844233326E+04  0.17844233326E+04  0.25500000920E-02 0.  1.
       -2   -1    0    0    0  501  0.00000000000E+00  0.00000000000E+00 -0.49106488080E+03  0.49106488081E+03  0.25500000920E-02 0. -1.
    10030    2    1    2    0    0  0.00000000000E+00  0.00000000000E+00  0.12933584517E+04  0.22754882134E+04  0.18721833576E+04 0.  0.
        5    1    3    3  502    0 -0.20620565414E+03  0.57881766941E+03  0.15049882179E+04  0.16255959806E+04  0.46999998093E+01 0.  1.
       -5    1    3    3    0  502  0.20620565414E+03 -0.57881766941E+03 -0.21162976617E+03  0.64989223272E+03  0.46999998093E+01 0. -1.
</event>
<event>
 5   0  0.3371947E-04  0.1996766E+04  0.7818609E-02  0.8608134E-01
        2   -1    0    0  501    0  0.00000000000E+00  0.00000000000E+00  0.11754925204E+04  0.11754925205E+04  0.25500000920E-02 0. -1.
       -2   -1    0    0    0  501  0.00000000000E+00  0.00000000000E+00 -0.84795802846E+03  0.84795802847E+03  0.25500000920E-02 0.  1.
    10030    2    1    2    0    0  0.00000000000E+00  0.00000000000E+00  0.32753449199E+03  0.20234505489E+04  0.19967657050E+04 0.  0.
        2    1    3    3  502    0 -0.20979230199E+03  0.32837543466E+03 -0.76771501357E+03  0.86094690785E+03  0.25500000920E-02 0.  1.
       -2    1    3    3    0  502  0.20979230199E+03 -0.32837543466E+03  0.10952495056E+04  0.11625036411E+04  0.25500000920E-02 0. -1.
</event>
<event>
 5   0  0.1650221E-04  0.2015654E+04  0.7818609E-02  0.8599337E-01
        1   -1    0    0  501    0  0.00000000000E+00  0.00000000000E+00  0.14840977566E+04  0.14840977566E+04  0.50400001928E-02 0.  1.
       -1   -1    0    0    0  501  0.00000000000E+00  0.00000000000E+00 -0.68439916513E+03  0.68439916515E+03  0.50400001928E-02 0. -1.
    10030    2    1    2    0    0  0.00000000000E+00  0.00000000000E+00  0.79969859143E+03  0.21684969217E+04  0.20156540036E+04 0.  0.
        1    1    3    3  502    0 -0.57052891298E+03  0.70981132608E+03  0.86430293383E+03  0.12555297371E+04  0.50400001928E-02 0. -1.
       -1    1    3    3    0  502  0.57052891298E+03 -0.70981132608E+03 -0.64604342405E+02  0.91296718465E+03  0.50400001928E-02 0.  1.
</event>
<event>
 5   0  0.1708578E-04  0.1680601E+04  0.7818609E-02  0.8772506E-01
       -1   -1    0    0    0  501  0.00000000000E+00  0.00000000000E+00  0.49435761409E+03  0.49435761412E+03  0.50400001928E-02 0.  1.
        1   -1    0    0  501    0  0.00000000000E+00  0.00000000000E+00 -0.14283280707E+04  0.14283280707E+04  0.50400001928E-02 0. -1.
    10030    2    1    2    0    0  0.00000000000E+00  0.00000000000E+00 -0.93397045657E+03  0.19226856848E+04  0.16806009130E+04 0.  0.
        3    1    3    3  502    0  0.91837482640E+02  0.13410220162E+03  0.47620280651E+03  0.50317655632E+03  0.10100000352E+00 0.  1.
       -3    1    3    3    0  502 -0.91837482640E+02 -0.13410220162E+03 -0.14101732631E+04  0.14195091285E+04  0.10100000352E+00 0. -1.
</event>
<event>
 5   0  0.3395569E-04  0.1976473E+04  0.7818609E-02  0.8617700E-01
       -2   -1    0    0    0  501  0.00000000000E+00  0.00000000000E+00  0.65821336603E+03  0.65821336604E+03  0.25500000920E-02 0. -1.
        2   -1    0    0  501    0  0.00000000000E+00  0.00000000000E+00 -0.14837303111E+04  0.14837303111E+04  0.25500000920E-02 0.  1.
    10030    2    1    2    0    0  0.00000000000E+00  0.00000000000E+00 -0.82551694507E+03  0.21419436771E+04  0.19764727394E+04 0.  0.
        4    1    3    3  502    0 -0.96014473815E+03  0.23327532962E+03 -0.43196852308E+03  0.10783754983E+04  0.12699999809E+01 0.  1.
       -4    1    3    3    0  502  0.96014473815E+03 -0.23327532962E+03 -0.39354842199E+03  0.10635681788E+04  0.12699999809E+01 0. -1.
</event>
<event>
 5   0  0.3395569E-04  0.1608896E+04  0.7818609E-02  0.8815101E-01
        2   -1    0    0  501    0  0.00000000000E+00  0.00000000000E+00  0.16331941816E+04  0.16331941816E+04  0.25500000920E-02 0. -1.
       -2   -1    0    0    0  501  0.00000000000E+00  0.00000000000E+00 -0.39623981183E+03  0.39623981183E+03  0.25500000920E-02 0.  1.
    10030    2    1    2    0    0  0.00000000000E+00  0.00000000000E+00  0.12369543698E+04  0.20294339935E+04  0.16088959633E+04 0.  0.
        4    1    3    3  502    0  0.78178700031E+03  0.16402854007E+03  0.49855510561E+03  0.94162364140E+03  0.12699999809E+01 0.  1.
       -4    1    3    3    0  502 -0.78178700031E+03 -0.16402854007E+03  0.73839926420E+03  0.10878103521E+04  0.12699999809E+01 0. -1.
</event>
<event>
 5   0  0.3387881E-04  0.2022061E+04  0.7818609E-02  0.8596375E-01
        2   -1    0    0  501    0  0.00000000000E+00  0.00000000000E+00  0.10246973342E+04  0.10246973342E+04  0.25500000920E-02 0. -1.
       -2   -1    0    0    0  501  0.00000000000E+00  0.00000000000E+00 -0.99754568734E+03  0.99754568735E+03  0.25500000920E-02 0.  1.
    10030    2    1    2    0    0  0.00000000000E+00  0.00000000000E+00  0.27151646868E+02  0.20222430216E+04  0.20220607375E+04 0.  0.
        1    1    3    3  502    0  0.26162057664E+03  0.20505653366E+03 -0.94133426608E+03  0.99830041002E+03  0.50400001928E-02 0.  1.
       -1    1    3    3    0  502 -0.26162057664E+03 -0.20505653366E+03  0.96848591295E+03  0.10239426115E+04  0.50400001928E-02 0. -1.
</event>
<event>
 5   0  0.3460648E-04  0.1951023E+04  0.7818609E-02  0.8629868E-01
       -2   -1    0    0    0  501  0.00000000000E+00  0.00000000000E+00  0.11372147084E+04  0.11372147084E+04  0.25500000920E-02 0.  1.
        2   -1    0    0  501    0  0.00000000000E+00  0.00000000000E+00 -0.83680108136E+03  0.83680108137E+03  0.25500000920E-02 0. -1.
    10030    2    1    2    0    0  0.00000000000E+00  0.00000000000E+00  0.30041362702E+03  0.19740157898E+04  0.19510228064E+04 0.  0.
        5    1    3    3  502    0  0.62417754984E+03  0.73437090290E+03  0.30265489780E+03  0.10102080548E+04  0.46999998093E+01 0.  1.
       -5    1    3    3    0  502 -0.62417754984E+03 -0.73437090290E+03 -0.22412707794E+01  0.96380773499E+03  0.46999998093E+01 0. -1.
</event>
<event>
 5   0  0.1708578E-04  0.1319967E+04  0.7818609E-02  0.9013879E-01
        1   -1    0    0  501    0  0.00000000000E+00  0.00000000000E+00  0.12217973744E+04  0.12217973744E+04  0.50400001928E-02 0.  1.
       -1   -1    0    0    0  501  0.00000000000E+00  0.00000000000E+00 -0.35650634961E+03  0.35650634965E+03  0.50400001928E-02 0. -1.
    10030    2    1    2    0    0  0.00000000000E+00  0.00000000000E+00  0.86529102482E+03  0.15783037241E+04  0.13199674571E+04 0.  0.
        3    1    3    3  502    0 -0.40837717827E+03 -0.48570102993E+03  0.64953204042E+03  0.90805797829E+03  0.10100000352E+00 0.  1.
       -3    1    3    3    0  502  0.40837717827E+03  0.48570102993E+03  0.21575898440E+03  0.67024574580E+03  0.10100000352E+00 0. -1.
</event>
<event>
 5   0  0.1650221E-04  0.1959010E+04  0.7818609E-02  0.8626028E-01
       -1   -1    0    0    0  501  0.00000000000E+00  0.00000000000E+00  0.73027905087E+03  0.73027905089E+03  0.50400001928E-02 0. -1.
        1   -1    0    0  501    0  0.00000000000E+00  0.00000000000E+00 -0.13137855011E+04  0.13137855011E+04  0.50400001928E-02 0.  1.
    10030    2    1    2    0    0  0.00000000000E+00  0.00000000000E+00 -0.58350645020E+03  0.20440645520E+04  0.19590099834E+04 0.  0.
        1    1    3    3  502    0  0.25036744520E+03  0.86371178685E+03  0.11336698618E+03  0.90638511790E+03  0.50400001928E-02 0.  1.
       -1    1    3    3    0  502 -0.25036744520E+03 -0.86371178685E+03 -0.69687343639E+03  0.11376794341E+04  0.50400001928E-02 0. -1.
</event>
<event>
 5   0  0.3371947E-04  0.1899189E+04  0.7818609E-02  0.8655260E-01
        2   -1    0    0  501    0  0.00000000000E+00  0.00000000000E+00  0.16866641595E+04  0.16866641595E+04  0.25500000920E-02 0.  1.
       -2   -1    0    0    0  501  0.00000000000E+00  0.00000000000E+00 -0.53462338718E+03  0.53462338718E+03  0.25500000920E-02 0. -1.
    10030    2    1    2    0    0  0.00000000000E+00  0.00000000000E+00  0.11520407724E+04  0.22212875467E+04  0.18991894124E+04 0.  0.
        2    1    3    3  502    0 -0.27873208987E+03  0.56395468782E+03 -0.25595222531E+03  0.67915241992E+03  0.25500000920E-02 0. -1.
       -2    1    3    3    0  502  0.27873208987E+03 -0.56395468782E+03  0.14079929977E+04  0.15421351268E+04  0.25500000920E-02 0.  1.
</event>
<event>
 5   0  0.1664168E-04  0.1910215E+04  0.7818609E-02  0.8649788E-01
       -1   -1    0    0    0  501  0.00000000000E+00  0.00000000000E+00  0.70215360979E+03  0.70215360981E+03  0.50400001928E-02 0. -1.
        1   -1    0    0  501    0  0.00000000000E+00  0.00000000000E+00 -0.12991889223E+04  0.12991889223E+04  0.50400001928E-02 0.  1.
    10030    2    1    2    0    0  0.00000000000E+00  0.00000000000E+00 -0.59703531255E+03  0.20013425321E+04  0.19102148483E+04 0.  0.
        5    1    3    3  502    0  0.72887132560E+02  0.28957318430E+01 -0.12962541106E+04  0.12983134169E+04  0.46999998093E+01 0.  1.
       -5    1    3    3    0  502 -0.72887132560E+02 -0.28957318430E+01  0.69921879803E+03  0.70302911524E+03  0.46999998093E+01 0. -1.
</event>
<event>
 5   0  0.1708578E-04  0.1354189E+04  0.7818609E-02  0.8987663E-01
        1   -1    0    0  501    0  0.00000000000E+00  0.00000000000E+00  0.65741603654E+03  0.65741603656E+03  0.50400001928E-02 0. -1.
       -1   -1    0    0    0  501  0.00000000000E+00  0.00000000000E+00 -0.69736208116E+03  0.69736208118E+03  0.50400001928E-02 0.  1.
    10030    2    1    2    0    0  0.00000000000E+00  0.00000000000E+00 -0.39946044620E+02  0.13547781177E+04  0.13541890791E+04 0.  0.
        3    1    3    3  502    0 -0.16731888864E+03 -0.64839057020E+03 -0.12027162182E+03  0.68034639357E+03  0.10100000352E+00 0.  1.
       -3    1    3    3    0  502  0.16731888864E+03  0.64839057020E+03  0.80325577197E+02  0.67443172418E+03  0.10100000352E+00 0. -1.
</event>
<event>
 5   0  0.1643565E-04  0.2047595E+04  0.7818609E-02  0.8584686E-01
       -1   -1    0    0    0  501  0.00000000000E+00  0.00000000000E+00  0.11051257343E+04  0.11051257343E+04  0.50400001928E-02 0. -1.
        1   -1    0    0  501    0  0.00000000000E+00  0.00000000000E+00 -0.94845479173E+03  0.94845479174E+03  0.50400001928E-02 0.  1.
    10030    2    1    2    0    0  0.00000000000E+00  0.00000000000E+00  0.15667094254E+03  0.20535805260E+04  0.20475954661E+04 0.  0.
        2    1    3    3  502    0 -0.80715898604E+03  0.12885691876E+03 -0.53995012008E+03  0.97962026645E+03  0.25500000920E-02 0.  1.
       -2    1    3    3    0  502  0.80715898604E+03 -0.12885691876E+03  0.69662106262E+03  0.10739602596E+04  0.25500000920E-02 0. -1.
</event>
<event>
 5   0  0.3371947E-04  0.1988298E+04  0.7818609E-02  0.8612112E-01
       -2   -1    0    0    0  501  0.00000000000E+00  0.00000000000E+00  0.82641538027E+03  0.82641538027E+03  0.25500000920E-02 0. -1.
        2   -1    0    0  501    0  0.00000000000E+00  0.00000000000E+00 -0.11959262216E+04  0.11959262216E+04  0.25500000920E-02 0.  1.
    10030    2    1    2    0    0  0.00000000000E+00  0.00000000000E+00 -0.36951084128E+03  0.20223416018E+04  0.19882975865E+04 0.  0.
        2    1    3    3  502    0 -0.23795304764E+03 -0.33680653970E+03 -0.11048274958E+04  0.11792811766E+04  0.25500000920E-02 0.  1.
       -2    1    3    3    0  502  0.23795304764E+03  0.33680653970E+03  0.73531665453E+03  0.84306042518E+03  0.25500000920E-02 0. -1.
</event>
<event>
 5   0  0.3431030E-04  0.1981185E+04  0.7818609E-02  0.8615468E-01
       -2   -1    0    0    0  501  0.00000000000E+00  0.00000000000E+00  0.70709578979E+03  0.70709578979E+03  0.25500000920E-02 0.  1.
        2   -1    0    0  501    0  0.00000000000E+00  0.00000000000E+00 -0.13877518624E+04  0.13877518625E+04  0.25500000920E-02 0. -1.
    10030    2    1    2    0    0  0.00000000000E+00  0.00000000000E+00 -0.68065607266E+03  0.20948476522E+04  0.19811849981E+04 0.  0.
        3    1    3    3  502    0 -0.60768848388E+03 -0.12693838676E+03  0.47588765261E+03  0.78221973613E+03  0.10100000352E+00 0.  1.
       -3    1    3    3    0  502  0.60768848388E+03  0.12693838676E+03 -0.11565437253E+04  0.13126279161E+04  0.10100000352E+00 0. -1.
</event>
<event>
 5   0  0.1664168E-04  0.1322145E+04  0.7818609E-02  0.9012186E-01
       -1   -1    0    0    0  501  0.00000000000E+00  0.00000000000E+00  0.10169317061E+04  0.10169317061E+04  0.50400001928E-02 0.  1.
        1   -1    0    0  501    0  0.00000000000E+00  0.00000000000E+00 -0.42974086074E+03  0.42974086077E+03  0.50400001928E-02 0. -1.
    10030    2    1    2    0    0  0.00000000000E+00  0.00000000000E+00  0.58719084538E+03  0.14466725669E+04  0.13221453880E+04 0.  0.
        5    1    3    3  502    0 -0.48273060702E+03  0.38676250990E+02  0.78594290573E+03  0.92317551549E+03  0.46999998093E+01 0.  1.
       -5    1    3    3    0  502  0.48273060702E+03 -0.38676250990E+02 -0.19875206035E+03  0.52349705141E+03  0.46999998093E+01 0. -1.
</event>
<event>
 5   0  0.1650221E-04  0.1761901E+04  0.7818609E-02  0.8726827E-01
       -1   -1    0    0    0  501  0.00000000000E+00  0.00000000000E+00  0.14070333568E+04  0.14070333568E+04  0.50400001928E-02 0.  1.
        1   -1    0    0  501    0  0.00000000000E+00  0.00000000000E+00 -0.55156730482E+03  0.55156730484E+03  0.50400001928E-02 0. -1.
    10030    2    1    2    0    0  0.00000000000E+00  0.00000000000E+00  0.85546605196E+03  0.19586006616E+04  0.17619007877E+04 0.  0.
        1    1    3    3  502    0  0.43117138722E+03 -0.18851722221E+03 -0.40014164233E+03  0.61770611312E+03  0.50400001928E-02 0. -1.
       -1    1    3    3    0  502 -0.43117138722E+03  0.18851722221E+03  0.12556076943E+04  0.13408945485E+04  0.50400001928E-02 0.  1.
</event>
<event>
 5   0  0.1664168E-04  0.1792850E+04  0.7818609E-02  0.8710111E-01
       -1   -1    0    0    0  501  0.00000000000E+00  0.00000000000E+00  0.67443806027E+03  0.67443806029E+03  0.50400001928E-02 0.  1.
        1   -1    0    0  501    0  0.00000000000E+00  0.00000000000E+00 -0.11914775463E+04  0.11914775463E+04  0.50400001928E-02 0. -1.
    10030    2    1    2    0    0  0.00000000000E+00  0.00000000000E+00 -0.51703948605E+03  0.18659156066E+04  0.17928500274E+04 0.  0.
        5    1    3    3  502    0 -0.12814834804E+03  0.57227350525E+03  0.44707511655E+03  0.73743963397E+03  0.46999998093E+01 0.  1.
       -5    1    3    3    0  502  0.12814834804E+03 -0.57227350525E+03 -0.96411460259E+03  0.11284759726E+04  0.46999998093E+01 0. -1.
</event>
<event>
 5   0  0.3460648E-04  0.1417905E+04  0.7818609E-02  0.8940959E-01
       -2   -1    0    0    0  501  0.00000000000E+00  0.00000000000E+00  0.75572532018E+03  0.75572532018E+03  0.25500000920E-02 0. -1.
        2   -1    0    0  501    0  0.00000000000E+00  0.00000000000E+00 -0.66507431967E+03  0.66507431967E+03  0.25500000920E-02 0.  1.
    10030    2    1    2    0    0  0.00000000000E+00  0.00000000000E+00  0.90651000508E+02  0.14207996399E+04  0.14179047968E+04 0.  0.
        5    1    3    3  502    0 -0.20745460982E+03 -0.51081299911E+03  0.49190801376E+03  0.73889303637E+03  0.46999998093E+01 0. -1.
       -5    1    3    3    0  502  0.20745460982E+03  0.51081299911E+03 -0.40125701325E+03  0.68190660349E+03  0.46999998093E+01 0.  1.
</event>
<event>
 5   0  0.1222488E-04  0.1806141E+04  0.7818609E-02  0.8703041E-01
       -3   -1    0    0    0  501  0.00000000000E+00  0.00000000000E+00  0.13916855497E+04  0.13916855534E+04  0.10100000352E+00 0. -1.
        3   -1    0    0  501    0  0.00000000000E+00  0.00000000000E+00 -0.58600603282E+03  0.58600604152E+03  0.10100000352E+00 0.  1.
    10030    2    1    2    0    0  0.00000000000E+00  0.00000000000E+00  0.80567951689E+03  0.19776915949E+04  0.18061407920E+04 0.  0.
        3    1    3    3  502    0  0.27667802615E+03  0.43061954902E+03  0.12175182649E+04  0.13207326231E+04  0.10100000352E+00 0. -1.
       -3    1    3    3    0  502 -0.27667802615E+03 -0.43061954902E+03 -0.41183874797E+03  0.65695897184E+03  0.10100000352E+00 0.  1.
</event>
<event>
 5   0  0.3371947E-04  0.2020116E+04  0.7818609E-02  0.8597273E-01
       -2   -1    0    0    0  501  0.00000000000E+00  0.00000000000E+00  0.41085985860E+03  0.41085985861E+03  0.25500000920E-02 0. -1.
        2   -1    0    0  501    0  0.00000000000E+00  0.00000000000E+00 -0.24831268514E+04  0.24831268514E+04  0.25500000920E-02 0.  1.
    10030    2    1    2    0    0  0.00000000000E+00  0.00000000000E+00 -0.20722669928E+04  0.28939867100E+04  0.20201159839E+04 0.  0.
        2    1    3    3  502    0 -0.57862153526E+03 -0.74568084492E+03 -0.15514147076E+04  0.18159654177E+04  0.25500000920E-02 0.  1.
       -2    1    3    3    0  502  0.57862153526E+03  0.74568084492E+03 -0.52085228524E+03  0.10780212923E+04  0.25500000920E-02 0. -1.
</event>
<event>
 5   0  0.3371947E-04  0.1948141E+04  0.7818609E-02  0.8631258E-01
       -2   -1    0    0    0  501  0.00000000000E+00  0.00000000000E+00  0.10480479371E+04  0.10480479371E+04  0.25500000920E-02 0.  1.
        2   -1    0    0  501    0  0.00000000000E+00  0.00000000000E+00 -0.90531494627E+03  0.90531494627E+03  0.25500000920E-02 0. -1.
    10030    2    1    2    0    0  0.00000000000E+00  0.00000000000E+00  0.14273299081E+03  0.19533628834E+04  0.19481411262E+04 0.  0.
        2    1    3    3  502    0  0.42581616709E+00 -0.56704676853E+03 -0.72276094975E+03  0.91865423829E+03  0.25500000920E-02 0. -1.
       -2    1    3    3    0  502 -0.42581616709E+00  0.56704676853E+03  0.86549394056E+03  0.10347086451E+04  0.25500000920E-02 0.  1.
</event>
<event>
 5   0  0.3460648E-04  0.1970977E+04  0.7818609E-02  0.8620311E-01
       -2   -1    0    0    0  501  0.00000000000E+00  0.00000000000E+00  0.84571786507E+03  0.84571786507E+03  0.25500000920E-02 0. -1.
        2   -1    0    0  501    0  0.00000000000E+00  0.00000000000E+00 -0.11483593691E+04  0.11483593691E+04  0.25500000920E-02 0.  1.
    10030    2    1    2    0    0  0.00000000000E+00  0.00000000000E+00 -0.30264150399E+03  0.19940772341E+04  0.19709774569E+04 0.  0.
        5    1    3    3  502    0  0.76410669039E+03 -0.11705100249E+03 -0.76971753741E+03  0.10908928219E+04  0.46999998093E+01 0.  1.
       -5    1    3    3    0  502 -0.76410669039E+03  0.11705100249E+03  0.46707603342E+03  0.90318441222E+03  0.46999998093E+01 0. -1.
</event>
<event>
 5   0  0.3387881E-04  0.9855516E+03  0.7818609E-02  0.9324535E-01
        2   -1    0    0  501    0  0.00000000000E+00  0.00000000000E+00  0.13881702839E+04  0.13881702839E+04  0.25500000920E-02 0.  1.
       -2   -1    0    0    0  501  0.00000000000E+00  0.00000000000E+00 -0.17492667033E+03  0.17492667034E+03  0.25500000920E-02 0. -1.
    10030    2    1    2    0    0  0.00000000000E+00  0.00000000000E+00  0.12132436136E+04  0.15630969542E+04  0.98555163360E+03 0.  0.
        1    1    3    3  502    0  0.67302138894E+02  0.37627868490E+03  0.10998506506E+04  0.11643825318E+04  0.50400001928E-02 0.  1.
       -1    1    3    3    0  502 -0.67302138894E+02 -0.37627868490E+03  0.11339296294E+03  0.39871442246E+03  0.50400001928E-02 0. -1.
</event>
<event>
 5   0  0.3371947E-04  0.2119293E+04  0.7818609E-02  0.8552792E-01
       -2   -1    0    0    0  501  0.00000000000E+00  0.00000000000E+00  0.80686205949E+03  0.80686205949E+03  0.25500000920E-02 0.  1.
        2   -1    0    0  501    0  0.00000000000E+00  0.00000000000E+00 -0.13916263559E+04  0.13916263559E+04  0.25500000920E-02 0. -1.
    10030    2    1    2    0    0  0.00000000000E+00  0.00000000000E+00 -0.58476429639E+03  0.21984884154E+04  0.21192928137E+04 0.  0.
        2    1    3    3  502    0  0.55333592169E+03  0.65384099445E+03  0.35475797689E+03  0.92711483131E+03  0.25500000920E-02 0.  1.
       -2    1    3    3    0  502 -0.55333592169E+03 -0.65384099445E+03 -0.93952227327E+03  0.12713735841E+04  0.25500000920E-02 0. -1.
</event>
<event>
 5   0  0.3387881E-04  0.1576244E+04  0.7818609E-02  0.8835277E-01
        2   -1    0    0  501    0  0.00000000000E+00  0.00000000000E+00  0.28240230225E+04  0.28240230225E+04  0.25500000920E-02 0. -1.
       -2   -1    0    0    0  501  0.00000000000E+00  0.00000000000E+00 -0.21994733434E+03  0.21994733436E+03  0.25500000920E-02 0.  1.
    10030    2    1    2    0    0  0.00000000000E+00  0.00000000000E+00  0.26040756881E+04  0.30439703568E+04  0.15762440622E+04 0.  0.
        1    1    3    3  502    0  0.27948395452E+01  0.83443070589E+02  0.28154588661E+04  0.28166965019E+04  0.50400001928E-02 0. -1.
       -1    1    3    3    0  502 -0.27948395452E+01 -0.83443070589E+02 -0.21138317799E+03  0.22727385490E+03  0.50400001928E-02 0.  1.
</event>
<event>
 5   0  0.1696052E-04  0.2037887E+04  0.7818609E-02  0.8589109E-01
        1   -1    0    0  501    0  0.00000000000E+00  0.00000000000E+00  0.13891867280E+04  0.13891867280E+04  0.50400001928E-02 0. -1.
       -1   -1    0    0    0  501  0.00000000000E+00  0.00000000000E+00 -0.74737644932E+03  0.74737644933E+03  0.50400001928E-02 0.  1.
    10030    2    1    2    0    0  0.00000000000E+00  0.00000000000E+00  0.64181027869E+03  0.21365631773E+04  0.20378865957E+04 0.  0.
        4    1    3    3  502    0  0.13590320226E+02  0.66114171764E+03 -0.49184148104E+03  0.82413756314E+03  0.12699999809E+01 0.  1.
       -4    1    3    3    0  502 -0.13590320226E+02 -0.66114171764E+03  0.11336517597E+04  0.13124256142E+04  0.12699999809E+01 0. -1.
</event>
<event>
 5   0  0.1696052E-04  0.1324478E+04  0.7818609E-02  0.9010376E-01
        1   -1    0    0  501    0  0.00000000000E+00  0.00000000000E+00  0.40131590431E+03  0.40131590434E+03  0.50400001928E-02 0. -1.
       -1   -1    0    0    0  501  0.00000000000E+00  0.00000000000E+00 -0.10928058195E+04  0.10928058195E+04  0.50400001928E-02 0.  1.
    10030    2    1    2    0    0  0.00000000000E+00  0.00000000000E+00 -0.69148991521E+03  0.14941217239E+04  0.13244777925E+04 0.  0.
        4    1    3    3  502    0 -0.35684597102E+03 -0.51309440115E+03 -0.59277680994E+03  0.86138891961E+03  0.12699999809E+01 0.  1.
       -4    1    3    3    0  502  0.35684597102E+03  0.51309440115E+03 -0.98713105268E+02  0.63273280426E+03  0.12699999809E+01 0. -1.
</event>
<event>
 5   0  0.1696052E-04  0.2002193E+04  0.7818609E-02  0.8605596E-01
        1   -1    0    0  501    0  0.00000000000E+00  0.00000000000E+00  0.95527710432E+03  0.95527710433E+03  0.50400001928E-02 0.  1.
       -1   -1    0    0    0  501  0.00000000000E+00  0.00000000000E+00 -0.10491140936E+04  0.10491140937E+04  0.50400001928E-02 0. -1.
    10030    2    1    2    0    0  0.00000000000E+00  0.00000000000E+00 -0.93836989323E+02  0.20043911980E+04  0.20021934707E+04 0.  0.
        4    1    3    3  502    0  0.30898852653E+03  0.70998929071E+03 -0.68214975521E+03  0.10319343990E+04  0.12699999809E+01 0. -1.
       -4    1    3    3    0  502 -0.30898852653E+03 -0.70998929071E+03  0.58831276588E+03  0.97245679896E+03  0.12699999809E+01 0.  1.
</event>
<event>
 5   0  0.3395569E-04  0.1953613E+04  0.7818609E-02  0.8628621E-01
        2   -1    0    0  501    0  0.00000000000E+00  0.00000000000E+00  0.11917444690E+04  0.11917444690E+04  0.25500000920E-02 0. -1.
       -2   -1    0    0    0  501  0.00000000000E+00  0.00000000000E+00 -0.80063374224E+03  0.80063374224E+03  0.25500000920E-02 0.  1.
    10030    2    1    2    0    0  0.00000000000E+00  0.00000000000E+00  0.39111072675E+03  0.19923782112E+04  0.19536128931E+04 0.  0.
        4    1    3    3  502    0 -0.41831312595E+03  0.87323407418E+03  0.32705421295E+03  0.10220027841E+04  0.12699999809E+01 0.  1.
       -4    1    3    3    0  502  0.41831312595E+03 -0.87323407418E+03  0.64056513799E+02  0.97037542710E+03  0.12699999809E+01 0. -1.
</event>
<event>
 5   0  0.1664168E-04  0.1967670E+04  0.7818609E-02  0.8621887E-01
        1   -1    0    0  501    0  0.00000000000E+00  0.00000000000E+00  0.16254274928E+04  0.16254274928E+04  0.50400001928E-02 0.  1.
       -1   -1    0    0    0  501  0.00000000000E+00  0.00000000000E+00 -0.59549313770E+03  0.59549313772E+03  0.50400001928E-02 0. -1.
    10030    2    1    2    0    0  0.00000000000E+00  0.00000000000E+00  0.10299343551E+04  0.22209206306E+04  0.19676696042E+04 0.  0.
        5    1    3    3  502    0 -0.49678423832E+02  0.46735884030E+03 -0.46057485614E+03  0.65806042239E+03  0.46999998093E+01 0. -1.
       -5    1    3    3    0  502  0.49678423832E+02 -0.46735884030E+03  0.14905092113E+04  0.15628602082E+04  0.46999998093E+01 0.  1.
</event>
<event>
 5   0  0.1643565E-04  0.1994007E+04  0.7818609E-02  0.8609428E-01
        1   -1    0    0  501    0  0.00000000000E+00  0.00000000000E+00  0.29301003640E+04  0.29301003640E+04  0.50400001928E-02 0.  1.
       -1   -1    0    0    0  501  0.00000000000E+00  0.00000000000E+00 -0.33924305272E+03  0.33924305275E+03  0.50400001928E-02 0. -1.
    10030    2    1    2    0    0  0.00000000000E+00  0.00000000000E+00  0.25908573113E+04  0.32693434168E+04  0.19940072140E+04 0.  0.
        2    1    3    3  502    0 -0.19969764382E+03 -0.78816108227E+03  0.34937394804E+03  0.88495152191E+03  0.25500000920E-02 0. -1.
       -2    1    3    3    0  502  0.19969764382E+03  0.78816108227E+03  0.22414833633E+04  0.23843918949E+04  0.25500000920E-02 0.  1.
</event>
<event>
 5   0  0.1696052E-04  0.2055962E+04  0.7818609E-02  0.8580894E-01
       -1   -1    0    0    0  501  0.00000000000E+00  0.00000000000E+00  0.67521585009E+03  0.67521585011E+03  0.50400001928E-02 0.  1.
        1   -1    0    0  501    0  0.00000000000E+00  0.00000000000E+00 -0.15650482976E+04  0.15650482976E+04  0.50400001928E-02 0. -1.
    10030    2    1    2    0    0  0.00000000000E+00  0.00000000000E+00 -0.88983244749E+03  0.22402641477E+04  0.20559624673E+04 0.  0.
        4    1    3    3  502    0  0.41237873484E+03 -0.82410629129E+03  0.51483109807E+02  0.92296236315E+03  0.12699999809E+01 0.  1.
       -4    1    3    3    0  502 -0.41237873484E+03  0.82410629129E+03 -0.94131555729E+03  0.13173017846E+04  0.12699999809E+01 0. -1.
</event>
<event>
 5   0  0.1696052E-04  0.2002910E+04  0.7818609E-02  0.8605261E-01
        1   -1    0    0  501    0  0.00000000000E+00  0.00000000000E+00  0.78789714807E+03  0.78789714808E+03  0.50400001928E-02 0. -1.
       -1   -1    0    0    0  501  0.00000000000E+00  0.00000000000E+00 -0.12728971672E+04  0.12728971673E+04  0.50400001928E-02 0.  1.
    10030    2    1    2    0    0  0.00000000000E+00  0.00000000000E+00 -0.48500001917E+03  0.20607943153E+04  0.20029099310E+04 0.  0.
        4    1    3    3  502    0  0.74663863328E+03 -0.51492904288E+03  0.19437596748E+03  0.92758007608E+03  0.12699999809E+01 0. -1.
       -4    1    3    3    0  502 -0.74663863328E+03  0.51492904288E+03 -0.67937598665E+03  0.11332142393E+04  0.12699999809E+01 0.  1.
</event>
<event>
 5   0  0.3431030E-04  0.1986791E+04  0.7818609E-02  0.8612821E-01
       -2   -1    0    0    0  501  0.00000000000E+00  0.00000000000E+00  0.94461076362E+03  0.94461076362E+03  0.25500000920E-02 0. -1.
        2   -1    0    0  501    0  0.00000000000E+00  0.00000000000E+00 -0.10447002524E+04  0.10447002524E+04  0.25500000920E-02 0.  1.
    10030    2    1    2    0    0  0.00000000000E+00  0.00000000000E+00 -0.10008948878E+03  0.19893110160E+04  0.19867914870E+04 0.  0.
        3    1    3    3  502    0 -0.32939878482E+02  0.66114783601E+02  0.94185722756E+03  0.94474930405E+03  0.10100000352E+00 0. -1.
       -3    1    3    3    0  502  0.32939878482E+02 -0.66114783601E+02 -0.10419467163E+04  0.10445617120E+04  0.10100000352E+00 0.  1.
</event>
<event>
 5   0  0.1643565E-04  0.2020857E+04  0.7818609E-02  0.8596931E-01
        1   -1    0    0  501    0  0.00000000000E+00  0.00000000000E+00  0.24371517801E+04  0.24371517801E+04  0.50400001928E-02 0. -1.
       -1   -1    0    0    0  501  0.00000000000E+00  0.00000000000E+00 -0.41891775447E+03  0.41891775450E+03  0.50400001928E-02 0.  1.
    10030    2    1    2    0    0  0.00000000000E+00  0.00000000000E+00  0.20182340257E+04  0.28560695346E+04  0.20208573934E+04 0.  0.
        2    1    3    3  502    0 -0.40174789470E+03  0.30378034725E+03 -0.22885462092E+03  0.55322536800E+03  0.25500000920E-02 0.  1.
       -2    1    3    3    0  502  0.40174789470E+03 -0.30378034725E+03  0.22470886466E+04  0.23028441666E+04  0.25500000920E-02 0. -1.
</event>
<event>
 5   0  0.3431030E-04  0.2067231E+04  0.7818609E-02  0.8575817E-01
       -2   -1    0    0    0  501  0.00000000000E+00  0.00000000000E+00  0.96342792163E+03  0.96342792163E+03  0.25500000920E-02 0. -1.
        2   -1    0    0  501    0  0.00000000000E+00  0.00000000000E+00 -0.11089167385E+04  0.11089167385E+04  0.25500000920E-02 0.  1.
    10030    2    1    2    0    0  0.00000000000E+00  0.00000000000E+00 -0.14548881683E+03  0.20723446601E+04  0.20672313355E+04 0.  0.
        3    1    3    3  502    0 -0.41496232401E+03  0.91029935199E+03 -0.33323845353E+03  0.10544602969E+04  0.10100000352E+00 0. -1.
       -3    1    3    3    0  502  0.41496232401E+03 -0.91029935199E+03  0.18774963670E+03  0.10178843632E+04  0.10100000352E+00 0.  1.
</event>
<event>
 5   0  0.1664168E-04  0.2002291E+04  0.7818609E-02  0.8605550E-01
        1   -1    0    0  501    0  0.00000000000E+00  0.00000000000E+00  0.76423928661E+03  0.76423928663E+03  0.50400001928E-02 0. -1.
       -1   -1    0    0    0  501  0.00000000000E+00  0.00000000000E+00 -0.13114904995E+04  0.13114904995E+04  0.50400001928E-02 0.  1.
    10030    2    1    2    0    0  0.00000000000E+00  0.00000000000E+00 -0.54725121285E+03  0.20757297861E+04  0.20022912513E+04 0.  0.
        5    1    3    3  502    0 -0.31433340470E+03  0.94728568524E+03 -0.19256026281E+03  0.10164925989E+04  0.46999998093E+01 0.  1.
       -5    1    3    3    0  502  0.31433340470E+03 -0.94728568524E+03 -0.35469095004E+03  0.10592371872E+04  0.46999998093E+01 0. -1.
</event>
<event>
 5   0  0.3431030E-04  0.1825302E+04  0.7818609E-02  0.8692959E-01
        2   -1    0    0  501    0  0.00000000000E+00  0.00000000000E+00  0.10044683071E+04  0.10044683071E+04  0.25500000920E-02 0.  1.
       -2   -1    0    0    0  501  0.00000000000E+00  0.00000000000E+00 -0.82922656437E+03  0.82922656437E+03  0.25500000920E-02 0. -1.
    10030    2    1    2    0    0  0.00000000000E+00  0.00000000000E+00  0.17524174273E+03  0.18336948715E+04  0.18253019513E+04 0.  0.
        3    1    3    3  502    0 -0.89628295259E+03  0.85322523187E+02 -0.62494219751E+02  0.90250130291E+03  0.10100000352E+00 0. -1.
       -3    1    3    3    0  502  0.89628295259E+03 -0.85322523187E+02  0.23773596248E+03  0.93119356855E+03  0.10100000352E+00 0.  1.
</event>
<event>
 5   0  0.1708578E-04  0.1768837E+04  0.7818609E-02  0.8723050E-01
       -1   -1    0    0    0  501  0.00000000000E+00  0.00000000000E+00  0.59794938041E+03  0.59794938043E+03  0.50400001928E-02 0.  1.
        1   -1    0    0  501    0  0.00000000000E+00  0.00000000000E+00 -0.13081304814E+04  0.13081304815E+04  0.50400001928E-02 0. -1.
    10030    2    1    2    0    0  0.00000000000E+00  0.00000000000E+00 -0.71018110104E+03  0.19060798619E+04  0.17688366922E+04 0.  0.
        3    1    3    3  502    0  0.56537469908E+03  0.15120097880E+03  0.35944597415E+03  0.68681271457E+03  0.10100000352E+00 0.  1.
       -3    1    3    3    0  502 -0.56537469908E+03 -0.15120097880E+03 -0.10696270752E+04  0.12192671473E+04  0.10100000352E+00 0. -1.
</event>
<event>
 5   0  0.1664168E-04  0.1943759E+04  0.7818609E-02  0.8633376E-01
        1   -1    0    0  501    0  0.00000000000E+00  0.00000000000E+00  0.54680335249E+03  0.54680335251E+03  0.50400001928E-02 0. -1.
       -1   -1    0    0    0  501  0.00000000000E+00  0.00000000000E+00 -0.17274031219E+04  0.17274031219E+04  0.50400001928E-02 0.  1.
    10030    2    1    2    0    0  0.00000000000E+00  0.00000000000E+00 -0.11805997694E+04  0.22742064744E+04  0.19437590573E+04 0.  0.
        5    1    3    3  502    0  0.29471667315E+03 -0.44708694635E+03 -0.15392181545E+04  0.16297114076E+04  0.46999998093E+01 0.  1.
       -5    1    3    3    0  502 -0.29471667315E+03  0.44708694635E+03  0.35861838507E+03  0.64449506681E+03  0.46999998093E+01 0. -1.
</event>
<event>
 5   0  0.3460648E-04  0.1965621E+04  0.7818609E-02  0.8622865E-01
        2   -1    0    0  501    0  0.00000000000E+00  0.00000000000E+00  0.12165627493E+04  0.12165627493E+04  0.25500000920E-02 0. -1.
       -2   -1    0    0    0  501  0.00000000000E+00  0.00000000000E+00 -0.79397145453E+03  0.79397145453E+03  0.25500000920E-02 0.  1.
    10030    2    1    2    0    0  0.00000000000E+00  0.00000000000E+00  0.42259129479E+03  0.20105342039E+04  0.19656206100E+04 0.  0.
        5    1    3    3  502    0 -0.82936674166E+03  0.36754438997E+03 -0.17543880546E+03  0.92397994309E+03  0.46999998093E+01 0.  1.
       -5    1    3    3    0  502  0.82936674166E+03 -0.36754438997E+03  0.59803010025E+03  0.10865542608E+04  0.46999998093E+01 0. -1.
</event>
<event>
 5   0  0.1708578E-04  0.1499444E+04  0.7818609E-02  0.8884823E-01
       -1   -1    0    0    0  501  0.00000000000E+00  0.00000000000E+00  0.82171623176E+03  0.82171623178E+03  0.50400001928E-02 0. -1.
        1   -1    0    0  501    0  0.00000000000E+00  0.00000000000E+00 -0.68403559680E+03  0.68403559682E+03  0.50400001928E-02 0.  1.
    10030    2    1    2    0    0  0.00000000000E+00  0.00000000000E+00  0.13768063496E+03  0.15057518286E+04  0.14994441010E+04 0.  0.
        3    1    3    3  502    0  0.55842520425E+03 -0.28953165192E+03  0.47849740372E+03  0.79033351301E+03  0.10100000352E+00 0. -1.
       -3    1    3    3    0  502 -0.55842520425E+03  0.28953165192E+03 -0.34081676876E+03  0.71541831559E+03  0.10100000352E+00 0.  1.
</event>
<event>
 5   0  0.1643565E-04  0.1398280E+04  0.7818609E-02  0.8955064E-01
        1   -1    0    0  501    0  0.00000000000E+00  0.00000000000E+00  0.75573022615E+03  0.75573022617E+03  0.50400001928E-02 0.  1.
       -1   -1    0    0    0  501  0.00000000000E+00  0.00000000000E+00 -0.64678736133E+03  0.64678736135E+03  0.50400001928E-02 0. -1.
    10030    2    1    2    0    0  0.00000000000E+00  0.00000000000E+00  0.10894286481E+03  0.14025175875E+04  0.13982800276E+04 0.  0.
        2    1    3    3  502    0 -0.21404937862E+03  0.45949702727E+03 -0.42848762651E+03  0.66374415299E+03  0.25500000920E-02 0. -1.
       -2    1    3    3    0  502  0.21404937862E+03 -0.45949702727E+03  0.53743049132E+03  0.73877343453E+03  0.25500000920E-02 0.  1.
</event>
<event>
 5   0  0.3371947E-04  0.2252808E+04  0.7818609E-02  0.8496764E-01
        2   -1    0    0  501    0  0.00000000000E+00  0.00000000000E+00  0.16178306078E+04  0.16178306078E+04  0.25500000920E-02 0. -1.
       -2   -1    0    0    0  501  0.00000000000E+00  0.00000000000E+00 -0.78425119505E+03  0.78425119506E+03  0.25500000920E-02 0.  1.
    10030    2    1    2    0    0  0.00000000000E+00  0.00000000000E+00  0.83357941270E+03  0.24020818028E+04  0.22528076594E+04 0.  0.
        2    1    3    3  502    0 -0.11161036177E+04  0.15112465507E+03  0.39960863871E+03  0.11950786630E+04  0.25500000920E-02 0. -1.
       -2    1    3    3    0  502  0.11161036177E+04 -0.15112465507E+03  0.43397077400E+03  0.12070031398E+04  0.25500000920E-02 0.  1.
</event>
<event>
 5   0  0.3371947E-04  0.2009664E+04  0.7818609E-02  0.8602116E-01
       -2   -1    0    0    0  501  0.00000000000E+00  0.00000000000E+00  0.84456129087E+03  0.84456129087E+03  0.25500000920E-02 0. -1.
        2   -1    0    0  501    0  0.00000000000E+00  0.00000000000E+00 -0.11955164132E+04  0.11955164132E+04  0.25500000920E-02 0.  1.
    10030    2    1    2    0    0  0.00000000000E+00  0.00000000000E+00 -0.35095512229E+03  0.20400777040E+04  0.20096635392E+04 0.  0.
        2    1    3    3  502    0 -0.23983736295E+03 -0.92325123502E+03 -0.49612507183E+03  0.10751999305E+04  0.25500000920E-02 0. -1.
       -2    1    3    3    0  502  0.23983736295E+03  0.92325123502E+03  0.14516994954E+03  0.96487777354E+03  0.25500000920E-02 0.  1.
</event>
<event>
 5   0  0.3395569E-04  0.2003179E+04  0.7818609E-02  0.8605136E-01
        2   -1    0    0  501    0  0.00000000000E+00  0.00000000000E+00  0.15845169760E+04  0.15845169760E+04  0.25500000920E-02 0.  1.
       -2   -1    0    0    0  501  0.00000000000E+00  0.00000000000E+00 -0.63311514365E+03  0.63311514366E+03  0.25500000920E-02 0. -1.
    10030    2    1    2    0    0  0.00000000000E+00  0.00000000000E+00  0.95140183235E+03  0.22176321197E+04  0.20031791661E+04 0.  0.
        4    1    3    3  502    0 -0.16058492958E+03  0.23708158764E+03  0.15382355849E+04  0.15646614734E+04  0.12699999809E+01 0.  1.
       -4    1    3    3    0  502  0.16058492958E+03 -0.23708158764E+03 -0.58683375257E+03  0.65297064624E+03  0.12699999809E+01 0. -1.
</event>
<event>
 5   0  0.3387881E-04  0.1830029E+04  0.7818609E-02  0.8690492E-01
        2   -1    0    0  501    0  0.00000000000E+00  0.00000000000E+00  0.10882266118E+04  0.10882266118E+04  0.25500000920E-02 0.  1.
       -2   -1    0    0    0  501  0.00000000000E+00  0.00000000000E+00 -0.76937218157E+03  0.76937218158E+03  0.25500000920E-02 0. -1.
    10030    2    1    2    0    0  0.00000000000E+00  0.00000000000E+00  0.31885443019E+03  0.18575987933E+04  0.18300287236E+04 0.  0.
        1    1    3    3  502    0  0.84265256778E+03  0.34780558810E+03  0.23947723745E+03  0.94253987947E+03  0.50400001928E-02 0. -1.
       -1    1    3    3    0  502 -0.84265256778E+03 -0.34780558810E+03  0.79377192738E+02  0.91505891387E+03  0.50400001928E-02 0.  1.
</event>
<event>
 5   0  0.1222488E-04  0.1790498E+04  0.7818609E-02  0.8711369E-01
       -4   -1    0    0    0  501  0.00000000000E+00  0.00000000000E+00  0.54322665466E+03  0.54322813921E+03  0.12699999809E+01 0.  1.
        4   -1    0    0  501    0  0.00000000000E+00  0.00000000000E+00 -0.14753850197E+04  0.14753855663E+04  0.12699999809E+01 0. -1.
    10030    2    1    2    0    0  0.00000000000E+00  0.00000000000E+00 -0.93215836501E+03  0.20186137055E+04  0.17904977170E+04 0.  0.
        3    1    3    3  502    0 -0.17756902049E+03 -0.68166769926E+03 -0.10889826182E+04  0.12969521048E+04  0.10100000352E+00 0. -1.
       -3    1    3    3    0  502  0.17756902049E+03  0.68166769926E+03  0.15682425321E+03  0.72166160064E+03  0.10100000352E+00 0.  1.
</event>
<event>
 5   0  0.3371947E-04  0.1978937E+04  0.7818609E-02  0.8616532E-01
       -2   -1    0    0    0  501  0.00000000000E+00  0.00000000000E+00  0.45413891775E+03  0.45413891776E+03  0.25500000920E-02 0.  1.
        2   -1    0    0  501    0  0.00000000000E+00  0.00000000000E+00 -0.21558326599E+04  0.21558326599E+04  0.25500000920E-02 0. -1.
    10030    2    1    2    0    0  0.00000000000E+00  0.00000000000E+00 -0.17016937421E+04  0.26099715776E+04  0.19789365943E+04 0.  0.
        2    1    3    3  502    0  0.84423421285E+03  0.16907935578E+03 -0.20779749800E+03  0.88571950124E+03  0.25500000920E-02 0.  1.
       -2    1    3    3    0  502 -0.84423421285E+03 -0.16907935578E+03 -0.14938962441E+04  0.17242520764E+04  0.25500000920E-02 0. -1.
</event>
<event>
 5   0  0.3431030E-04  0.1980371E+04  0.7818609E-02  0.8615853E-01
        2   -1    0    0  501    0  0.00000000000E+00  0.00000000000E+00  0.69845776873E+03  0.69845776873E+03  0.25500000920E-02 0. -1.
       -2   -1    0    0    0  501  0.00000000000E+00  0.00000000000E+00 -0.14037605013E+04  0.14037605013E+04  0.25500000920E-02 0.  1.
    10030    2    1    2    0    0  0.00000000000E+00  0.00000000000E+00 -0.70530273252E+03  0.21022182700E+04  0.19803711042E+04 0.  0.
        3    1    3    3  502    0 -0.43377872355E+03  0.64134919658E+03  0.30255673934E+03  0.83128416541E+03  0.10100000352E+00 0. -1.
       -3    1    3    3    0  502  0.43377872355E+03 -0.64134919658E+03 -0.10078594719E+04  0.12709341046E+04  0.10100000352E+00 0.  1.
</event>
<event>
 5   0  0.1222488E-04  0.2039166E+04  0.7818609E-02  0.8588525E-01
        3   -1    0    0  501    0  0.00000000000E+00  0.00000000000E+00  0.95955372926E+03  0.95955373457E+03  0.10100000352E+00 0.  1.
       -3   -1    0    0    0  501  0.00000000000E+00  0.00000000000E+00 -0.10833680276E+04  0.10833680323E+04  0.10100000352E+00 0. -1.
    10030    2    1    2    0    0  0.00000000000E+00  0.00000000000E+00 -0.12381429836E+03  0.20429217669E+04  0.20391663407E+04 0.  0.
        5    1    3    3  502    0 -0.63671674366E+03 -0.54533204576E+03 -0.64326239937E+03  0.10566947791E+04  0.46999998093E+01 0. -1.
       -5    1    3    3    0  502  0.63671674366E+03  0.54533204576E+03  0.51944810100E+03  0.98622698778E+03  0.46999998093E+01 0.  1.
</event>
<event>
 5   0  0.1708578E-04  0.1634956E+04  0.7818609E-02  0.8799357E-01
        1   -1    0    0  501    0  0.00000000000E+00  0.00000000000E+00  0.15704303918E+04  0.15704303918E+04  0.50400001928E-02 0. -1.
       -1   -1    0    0    0  501  0.00000000000E+00  0.00000000000E+00 -0.42553305851E+03  0.42553305854E+03  0.50400001928E-02 0.  1.
    10030    2    1    2    0    0  0.00000000000E+00  0.00000000000E+00  0.11448973333E+04  0.19959634503E+04  0.16349557154E+04 0.  0.
        3    1    3    3  502    0 -0.66325609653E+03  0.21618279190E+03  0.52169945266E+02  0.69954654061E+03  0.10100000352E+00 0.  1.
       -3    1    3    3    0  502  0.66325609653E+03 -0.21618279190E+03  0.10927273880E+04  0.12964169097E+04  0.10100000352E+00 0. -1.
</event>
<event>
 5   0  0.3460648E-04  0.1989031E+04  0.7818609E-02  0.8611766E-01
        2   -1    0    0  501    0  0.00000000000E+00  0.00000000000E+00  0.10660370680E+04  0.10660370680E+04  0.25500000920E-02 0.  1.
       -2   -1    0    0    0  501  0.00000000000E+00  0.00000000000E+00 -0.92779218414E+03  0.92779218414E+03  0.25500000920E-02 0. -1.
    10030    2    1    2    0    0  0.00000000000E+00  0.00000000000E+00  0.13824488385E+03  0.19938292521E+04  0.19890307787E+04 0.  0.
        5    1    3    3  502    0  0.77380248220E+03 -0.50812395419E+03 -0.29518041919E+03  0.97165518789E+03  0.46999998093E+01 0. -1.
       -5    1    3    3    0  502 -0.77380248220E+03  0.50812395419E+03  0.43342530304E+03  0.10221740642E+04  0.46999998093E+01 0.  1.
</event>
<event>
 5   0  0.1696052E-04  0.2187715E+04  0.7818609E-02  0.8523559E-01
       -1   -1    0    0    0  501  0.00000000000E+00  0.00000000000E+00  0.72410061550E+03  0.72410061552E+03  0.50400001928E-02 0.  1.
        1   -1    0    0  501    0  0.00000000000E+00  0.00000000000E+00 -0.16524285325E+04  0.16524285325E+04  0.50400001928E-02 0. -1.
    10030    2    1    2    0    0  0.00000000000E+00  0.00000000000E+00 -0.92832791700E+03  0.23765291480E+04  0.21877152625E+04 0.  0.
        4    1    3    3  502    0 -0.16988237025E+03  0.30823438886E+03  0.66091309541E+03  0.74878314002E+03  0.12699999809E+01 0.  1.
       -4    1    3    3    0  502  0.16988237025E+03 -0.30823438886E+03 -0.15892410124E+04  0.16277460080E+04  0.12699999809E+01 0. -1.
</event>
<event>
 5   0  0.3387881E-04  0.1993017E+04  0.7818609E-02  0.8609892E-01
       -2   -1    0    0    0  501  0.00000000000E+00  0.00000000000E+00  0.42950453944E+03  0.42950453945E+03  0.25500000920E-02 0.  1.
        2   -1    0    0  501    0  0.00000000000E+00  0.00000000000E+00 -0.23120339179E+04  0.23120339179E+04  0.25500000920E-02 0. -1.
    10030    2    1    2    0    0  0.00000000000E+00  0.00000000000E+00 -0.18825293784E+04  0.27415384573E+04  0.19930168721E+04 0.  0.
        1    1    3    3  502    0 -0.87087183576E+03  0.15751230893E+03 -0.15713325565E+04  0.18034172797E+04  0.50400001928E-02 0. -1.
       -1    1    3    3    0  502  0.87087183576E+03 -0.15751230893E+03 -0.31119682193E+03  0.93812117756E+03  0.50400001928E-02 0.  1.
</event>
<event>
 5   0  0.3371947E-04  0.1970677E+04  0.7818609E-02  0.8620454E-01
        2   -1    0    0  501    0  0.00000000000E+00  0.00000000000E+00  0.88895149423E+03  0.88895149424E+03  0.25500000920E-02 0. -1.
       -2   -1    0    0    0  501  0.00000000000E+00  0.00000000000E+00 -0.10921763004E+04  0.10921763004E+04  0.25500000920E-02 0.  1.
    10030    2    1    2    0    0  0.00000000000E+00  0.00000000000E+00 -0.20322480620E+03  0.19811277947E+04  0.19706767916E+04 0.  0.
        2    1    3    3  502    0  0.68819698886E+03 -0.13224474924E+03  0.59472828627E+03  0.91913301740E+03  0.25500000920E-02 0. -1.
       -2    1    3    3    0  502 -0.68819698886E+03  0.13224474924E+03 -0.79795309247E+03  0.10619947773E+04  0.25500000920E-02 0.  1.
</event>
<event>
 5   0  0.1664168E-04  0.1631507E+04  0.7818609E-02  0.8801422E-01
       -1   -1    0    0    0  501  0.00000000000E+00  0.00000000000E+00  0.74193188414E+03  0.74193188416E+03  0.50400001928E-02 0. -1.
        1   -1    0    0  501    0  0.00000000000E+00  0.00000000000E+00 -0.89692080311E+03  0.89692080313E+03  0.50400001928E-02 0.  1.
    10030    2    1    2    0    0  0.00000000000E+00  0.00000000000E+00 -0.15498891897E+03  0.16388526873E+04  0.16315074519E+04 0.  0.
        5    1    3    3  502    0  0.48443799306E+03 -0.64810326022E+03  0.26480226302E+02  0.80959329136E+03  0.46999998093E+01 0. -1.
       -5    1    3    3    0  502 -0.48443799306E+03  0.64810326022E+03 -0.18146914527E+03  0.82925939592E+03  0.46999998093E+01 0.  1.
</event>
<event>
 5   0  0.3395569E-04  0.1480435E+04  0.7818609E-02  0.8897569E-01
        2   -1    0    0  501    0  0.00000000000E+00  0.00000000000E+00  0.16923826463E+04  0.16923826463E+04  0.25500000920E-02 0. -1.
       -2   -1    0    0    0  501  0.00000000000E+00  0.00000000000E+00 -0.32375752183E+03  0.32375752184E+03  0.25500000920E-02 0.  1.
    10030    2    1    2    0    0  0.00000000000E+00  0.00000000000E+00  0.13686251245E+04  0.20161401682E+04  0.14804345464E+04 0.  0.
        4    1    3    3  502    0 -0.57971637684E+03  0.45841526913E+03  0.74053535966E+03  0.10462360481E+04  0.12699999809E+01 0.  1.
       -4    1    3    3    0  502  0.57971637684E+03 -0.45841526913E+03  0.62808976483E+03  0.96990412006E+03  0.12699999809E+01 0. -1.
</event>
<event>
 5   0  0.3460648E-04  0.1928950E+04  0.7818609E-02  0.8640579E-01
        2   -1    0    0  501    0  0.00000000000E+00  0.00000000000E+00  0.11595584623E+04  0.11595584624E+04  0.25500000920E-02 0. -1.
       -2   -1    0    0    0  501  0.00000000000E+00  0.00000000000E+00 -0.80221228971E+03  0.80221228971E+03  0.25500000920E-02 0.  1.
    10030    2    1    2    0    0  0.00000000000E+00  0.00000000000E+00  0.35734617264E+03  0.19617707521E+04  0.19289500244E+04 0.  0.
        5    1    3    3  502    0  0.48436873731E+03 -0.75038944618E+03 -0.19151550691E+03  0.91345370656E+03  0.46999998093E+01 0.  1.
       -5    1    3    3    0  502 -0.48436873731E+03  0.75038944618E+03  0.54886167955E+03  0.10483170455E+04  0.46999998093E+01 0. -1.
</event>
<event>
 5   0  0.1696052E-04  0.1998901E+04  0.7818609E-02  0.8607134E-01
       -1   -1    0    0    0  501  0.00000000000E+00  0.00000000000E+00  0.81395387844E+03  0.81395387845E+03  0.50400001928E-02 0. -1.
        1   -1    0    0  501    0  0.00000000000E+00  0.00000000000E+00 -0.12272214223E+04  0.12272214223E+04  0.50400001928E-02 0.  1.
    10030    2    1    2    0    0  0.00000000000E+00  0.00000000000E+00 -0.41326754389E+03  0.20411753008E+04  0.19989013347E+04 0.  0.
        4    1    3    3  502    0 -0.22433959497E+03  0.13637322228E+03 -0.11913801147E+04  0.12199647947E+04  0.12699999809E+01 0.  1.
       -4    1    3    3    0  502  0.22433959497E+03 -0.13637322228E+03  0.77811257081E+03  0.82121050613E+03  0.12699999809E+01 0. -1.
</event>
<event>
 5   0  0.3431030E-04  0.1959061E+04  0.7818609E-02  0.8626004E-01
       -2   -1    0    0    0  501  0.00000000000E+00  0.00000000000E+00  0.11639463159E+04  0.11639463159E+04  0.25500000920E-02 0.  1.
        2   -1    0    0  501    0  0.00000000000E+00  0.00000000000E+00 -0.82433373425E+03  0.82433373426E+03  0.25500000920E-02 0. -1.
    10030    2    1    2    0    0  0.00000000000E+00  0.00000000000E+00  0.33961258166E+03  0.19882800502E+04  0.19590612171E+04 0.  0.
        3    1    3    3  502    0 -0.57124152839E+03  0.14985827752E+03  0.96293847950E+03  0.11296127268E+04  0.10100000352E+00 0.  1.
       -3    1    3    3    0  502  0.57124152839E+03 -0.14985827752E+03 -0.62332589783E+03  0.85866732336E+03  0.10100000352E+00 0. -1.
</event>
<event>
 5   0  0.1222488E-04  0.1989749E+04  0.7818609E-02  0.8611428E-01
       -3   -1    0    0    0  501  0.00000000000E+00  0.00000000000E+00  0.21866402638E+04  0.21866402661E+04  0.10100000352E+00 0. -1.
        3   -1    0    0  501    0  0.00000000000E+00  0.00000000000E+00 -0.45264656662E+03  0.45264657789E+03  0.10100000352E+00 0.  1.
    10030    2    1    2    0    0  0.00000000000E+00  0.00000000000E+00  0.17339936972E+04  0.26392868440E+04  0.19897489548E+04 0.  0.
        2    1    3    3  502    0 -0.27452422113E+03  0.55751035739E+03  0.18975270434E+04  0.19966948257E+04  0.25500000920E-02 0. -1.
       -2    1    3    3    0  502  0.27452422113E+03 -0.55751035739E+03 -0.16353334627E+03  0.64259201826E+03  0.25500000920E-02 0.  1.
</event>
<event>
 5   0  0.1708578E-04  0.2084088E+04  0.7818609E-02  0.8568285E-01
        1   -1    0    0  501    0  0.00000000000E+00  0.00000000000E+00  0.17811814881E+04  0.17811814881E+04  0.50400001928E-02 0. -1.
       -1   -1    0    0    0  501  0.00000000000E+00  0.00000000000E+00 -0.60962674428E+03  0.60962674430E+03  0.50400001928E-02 0.  1.
    10030    2    1    2    0    0  0.00000000000E+00  0.00000000000E+00  0.11715547438E+04  0.23908082324E+04  0.20840881667E+04 0.  0.
        3    1    3    3  502    0  0.79511594041E+03 -0.20297115886E+03  0.13225167679E+04  0.15564245120E+04  0.10100000352E+00 0. -1.
       -3    1    3    3    0  502 -0.79511594041E+03  0.20297115886E+03 -0.15096202402E+03  0.83438372044E+03  0.10100000352E+00 0.  1.
</event>
<event>
 5   0  0.1708578E-04  0.1984701E+04  0.7818609E-02  0.8613807E-01
        1   -1    0    0  501    0  0.00000000000E+00  0.00000000000E+00  0.12989216361E+04  0.12989216361E+04  0.50400001928E-02 0. -1.
       -1   -1    0    0    0  501  0.00000000000E+00  0.00000000000E+00 -0.75813649882E+03  0.75813649884E+03  0.50400001928E-02 0.  1.
    10030    2    1    2    0    0  0.00000000000E+00  0.00000000000E+00  0.54078513731E+03  0.20570581350E+04  0.19847013896E+04 0.  0.
        3    1    3    3  502    0 -0.31498988268E+03  0.94102786892E+03  0.27329002231E+03  0.10292907863E+04  0.10100000352E+00 0. -1.
       -3    1    3    3    0  502  0.31498988268E+03 -0.94102786892E+03  0.26749511499E+03  0.10277673487E+04  0.10100000352E+00 0.  1.
</event>
<event>
 5   0  0.1650221E-04  0.2098247E+04  0.7818609E-02  0.8562016E-01
        1   -1    0    0  501    0  0.00000000000E+00  0.00000000000E+00  0.92082336050E+03  0.92082336051E+03  0.50400001928E-02 0.  1.
       -1   -1    0    0    0  501  0.00000000000E+00  0.00000000000E+00 -0.11952996508E+04  0.11952996508E+04  0.50400001928E-02 0. -1.
    10030    2    1    2    0    0  0.00000000000E+00  0.00000000000E+00 -0.27447629033E+03  0.21161230114E+04  0.20982467360E+04 0.  0.
        1    1    3    3  502    0  0.73872356475E+03 -0.29550674890E+03  0.55241755614E+03  0.96860822839E+03  0.50400001928E-02 0.  1.
       -1    1    3    3    0  502 -0.73872356475E+03  0.29550674890E+03 -0.82689384646E+03  0.11475147830E+04  0.50400001928E-02 0. -1.
</event>
<event>
 5   0  0.3431030E-04  0.2033681E+04  0.7818609E-02  0.8591034E-01
        2   -1    0    0  501    0  0.00000000000E+00  0.00000000000E+00  0.11516513167E+04  0.11516513167E+04  0.25500000920E-02 0.  1.
       -2   -1    0    0    0  501  0.00000000000E+00  0.00000000000E+00 -0.89781038672E+03  0.89781038672E+03  0.25500000920E-02 0. -1.
    10030    2    1    2    0    0  0.00000000000E+00  0.00000000000E+00  0.25384092997E+03  0.20494617034E+04  0.20336809130E+04 0.  0.
        3    1    3    3  502    0 -0.58658833618E+03 -0.54112324877E+03  0.76194044826E+03  0.11033827547E+04  0.10100000352E+00 0.  1.
       -3    1    3    3    0  502  0.58658833618E+03  0.54112324877E+03 -0.50809951829E+03  0.94607894871E+03  0.10100000352E+00 0. -1.
</event>
<event>
 5   0  0.1222488E-04  0.1940054E+04  0.7818609E-02  0.8635172E-01
        3   -1    0    0  501    0  0.00000000000E+00  0.00000000000E+00  0.95497402699E+03  0.95497403233E+03  0.10100000352E+00 0. -1.
       -3   -1    0    0    0  501  0.00000000000E+00  0.00000000000E+00 -0.98531710669E+03  0.98531711187E+03  0.10100000352E+00 0.  1.
    10030    2    1    2    0    0  0.00000000000E+00  0.00000000000E+00 -0.30343079700E+02  0.19402911442E+04  0.19400538708E+04 0.  0.
        3    1    3    3  502    0 -0.18191784440E+03 -0.74220091133E+03  0.58239291580E+03  0.96080061067E+03  0.10100000352E+00 0. -1.
       -3    1    3    3    0  502  0.18191784440E+03  0.74220091133E+03 -0.61273599550E+03  0.97949053353E+03  0.10100000352E+00 0.  1.
</event>
<event>
 5   0  0.3431030E-04  0.1929895E+04  0.7818609E-02  0.8640117E-01
        2   -1    0    0  501    0  0.00000000000E+00  0.00000000000E+00  0.14304731462E+04  0.14304731462E+04  0.25500000920E-02 0. -1.
       -2   -1    0    0    0  501  0.00000000000E+00  0.00000000000E+00 -0.65092005278E+03  0.65092005279E+03  0.25500000920E-02 0.  1.
    10030    2    1    2    0    0  0.00000000000E+00  0.00000000000E+00  0.77955309346E+03  0.20813931990E+04  0.19298949773E+04 0.  0.
        3    1    3    3  502    0  0.83251774645E+02  0.41811874498E+03 -0.54383983315E+03  0.69102526525E+03  0.10100000352E+00 0.  1.
       -3    1    3    3    0  502 -0.83251774645E+02 -0.41811874498E+03  0.13233929266E+04  0.13903679338E+04  0.10100000352E+00 0. -1.
</event>
<event>
 5   0  0.3460648E-04  0.2052036E+04  0.7818609E-02  0.8582671E-01
       -2   -1    0    0    0  501  0.00000000000E+00  0.00000000000E+00  0.59847636700E+03  0.59847636701E+03  0.25500000920E-02 0. -1.
        2   -1    0    0  501    0  0.00000000000E+00  0.00000000000E+00 -0.17589890758E+04  0.17589890758E+04  0.25500000920E-02 0.  1.
    10030    2    1    2    0    0  0.00000000000E+00  0.00000000000E+00 -0.11605127088E+04  0.23574654428E+04  0.20520364438E+04 0.  0.
        5    1    3    3  502    0 -0.33529816181E+03  0.34636108221E+03 -0.16207675067E+04  0.16909465566E+04  0.46999998093E+01 0.  1.
       -5    1    3    3    0  502  0.33529816181E+03 -0.34636108221E+03  0.46025479793E+03  0.66651888616E+03  0.46999998093E+01 0. -1.
</event>
<event>
 5   0  0.1643565E-04  0.1136201E+04  0.7818609E-02  0.9170609E-01
       -1   -1    0    0    0  501  0.00000000000E+00  0.00000000000E+00  0.36742494068E+03  0.36742494072E+03  0.50400001928E-02 0. -1.
        1   -1    0    0  501    0  0.00000000000E+00  0.00000000000E+00 -0.87837775952E+03  0.87837775953E+03  0.50400001928E-02 0.  1.
    10030    2    1    2    0    0  0.00000000000E+00  0.00000000000E+00 -0.51095281883E+03  0.12458027002E+04  0.11362005038E+04 0.  0.
        2    1    3    3  502    0 -0.86387736835E+02  0.45310678887E+02  0.35817313733E+03  0.37121947014E+03  0.25500000920E-02 0. -1.
       -2    1    3    3    0  502  0.86387736835E+02 -0.45310678887E+02 -0.86912595617E+03  0.87458323011E+03  0.25500000920E-02 0.  1.
</event>
<event>
 5   0  0.1696052E-04  0.2019920E+04  0.7818609E-02  0.8597364E-01
       -1   -1    0    0    0  501  0.00000000000E+00  0.00000000000E+00  0.11492421149E+04  0.11492421149E+04  0.50400001928E-02 0.  1.
        1   -1    0    0  501    0  0.00000000000E+00  0.00000000000E+00 -0.88755774667E+03  0.88755774669E+03  0.50400001928E-02 0. -1.
    10030    2    1    2    0    0  0.00000000000E+00  0.00000000000E+00  0.26168436826E+03  0.20367998616E+04  0.20199195449E+04 0.  0.
        4    1    3    3  502    0  0.75318946062E+03  0.65959820694E+03 -0.31326374453E+01  0.10011870877E+04  0.12699999809E+01 0.  1.
       -4    1    3    3    0  502 -0.75318946062E+03 -0.65959820694E+03  0.26481700571E+03  0.10356127740E+04  0.12699999809E+01 0. -1.
</event>
<event>
 5   0  0.3371947E-04  0.1969790E+04  0.7818609E-02  0.8620877E-01
       -2   -1    0    0    0  501  0.00000000000E+00  0.00000000000E+00  0.10835234839E+04  0.10835234839E+04  0.25500000920E-02 0. -1.
        2   -1    0    0  501    0  0.00000000000E+00  0.00000000000E+00 -0.89524397700E+03  0.89524397701E+03  0.25500000920E-02 0.  1.
    10030    2    1    2    0    0  0.00000000000E+00  0.00000000000E+00  0.18827950686E+03  0.19787674609E+04  0.19697897074E+04 0.  0.
        2    1    3    3  502    0  0.78378384998E+03  0.58713510487E+03 -0.11090331536E+02  0.97937109939E+03  0.25500000920E-02 0. -1.
       -2    1    3    3    0  502 -0.78378384998E+03 -0.58713510487E+03  0.19936983839E+03  0.99939636148E+03  0.25500000920E-02 0.  1.
</event>
<event>
 5   0  0.3431030E-04  0.9890638E+03  0.7818609E-02  0.9320621E-01
       -2   -1    0    0    0  501  0.00000000000E+00  0.00000000000E+00  0.36676146032E+03  0.36676146033E+03  0.25500000920E-02 0.  1.
        2   -1    0    0  501    0  0.00000000000E+00  0.00000000000E+00 -0.66681438519E+03  0.66681438519E+03  0.25500000920E-02 0. -1.
    10030    2    1    2    0    0  0.00000000000E+00  0.00000000000E+00 -0.30005292487E+03  0.10335758455E+04  0.98906383552E+03 0.  0.
        3    1    3    3  502    0 -0.17089258780E+03  0.28144500139E+03 -0.53561210835E+03  0.62872562075E+03  0.10100000352E+00 0. -1.
       -3    1    3    3    0  502  0.17089258780E+03 -0.28144500139E+03  0.23555918348E+03  0.40485022477E+03  0.10100000352E+00 0.  1.
</event>
<event>
 5   0  0.1650221E-04  0.1197886E+04  0.7818609E-02  0.9114709E-01
        1   -1    0    0  501    0  0.00000000000E+00  0.00000000000E+00  0.13325250978E+04  0.13325250978E+04  0.50400001928E-02 0.  1.
       -1   -1    0    0    0  501  0.00000000000E+00  0.00000000000E+00 -0.26921264436E+03  0.26921264441E+03  0.50400001928E-02 0. -1.
    10030    2    1    2    0    0  0.00000000000E+00  0.00000000000E+00  0.10633124534E+04  0.16017377422E+04  0.11978858131E+04 0.  0.
        1    1    3    3  502    0 -0.30766227380E+03  0.40529334686E+03  0.95410237583E+03  0.10813094448E+04  0.50400001928E-02 0.  1.
       -1    1    3    3    0  502  0.30766227380E+03 -0.40529334686E+03  0.10921007761E+03  0.52042829747E+03  0.50400001928E-02 0. -1.
</event>
<event>
 5   0  0.3460648E-04  0.1038150E+04  0.7818609E-02  0.9267664E-01
       -2   -1    0    0    0  501  0.00000000000E+00  0.00000000000E+00  0.53506218980E+03  0.53506218981E+03  0.25500000920E-02 0.  1.
        2   -1    0    0  501    0  0.00000000000E+00  0.00000000000E+00 -0.50356584147E+03  0.50356584148E+03  0.25500000920E-02 0. -1.
    10030    2    1    2    0    0  0.00000000000E+00  0.00000000000E+00  0.31496348330E+02  0.10386280313E+04  0.10381503588E+04 0.  0.
        5    1    3    3  502    0  0.35112566803E+03 -0.93202758093E+01 -0.36658057543E+03  0.50771991351E+03  0.46999998093E+01 0. -1.
       -5    1    3    3    0  502 -0.35112566803E+03  0.93202758093E+01  0.39807692376E+03  0.53090811778E+03  0.46999998093E+01 0.  1.
</event>
<event>
 5   0  0.1696052E-04  0.1452421E+04  0.7818609E-02  0.8916724E-01
        1   -1    0    0  501    0  0.00000000000E+00  0.00000000000E+00  0.35252750354E+03  0.35252750358E+03  0.50400001928E-02 0. -1.
       -1   -1    0    0    0  501  0.00000000000E+00  0.00000000000E+00 -0.14960023805E+04  0.14960023805E+04  0.50400001928E-02 0.  1.
    10030    2    1    2    0    0  0.00000000000E+00  0.00000000000E+00 -0.11434748770E+04  0.18485298841E+04  0.14524214052E+04 0.  0.
        4    1    3    3  502    0  0.19400963584E+02 -0.70079356019E+03 -0.81285833196E+03  0.10734189732E+04  0.12699999809E+01 0. -1.
       -4    1    3    3    0  502 -0.19400963584E+02  0.70079356019E+03 -0.33061654501E+03  0.77511091086E+03  0.12699999809E+01 0.  1.
</event>
<event>
 5   0  0.1664168E-04  0.1967770E+04  0.7818609E-02  0.8621839E-01
        1   -1    0    0  501    0  0.00000000000E+00  0.00000000000E+00  0.12691254645E+04  0.12691254645E+04  0.50400001928E-02 0.  1.
       -1   -1    0    0    0  501  0.00000000000E+00  0.00000000000E+00 -0.76275364800E+03  0.76275364802E+03  0.50400001928E-02 0. -1.
    10030    2    1    2    0    0  0.00000000000E+00  0.00000000000E+00  0.50637181648E+03  0.20318791125E+04  0.19677703909E+04 0.  0.
        5    1    3    3  502    0 -0.85397105792E+02 -0.33489319988E+03  0.12043713619E+04  0.12529878644E+04  0.46999998093E+01 0.  1.
       -5    1    3    3    0  502  0.85397105792E+02  0.33489319988E+03 -0.69799954540E+03  0.77889124811E+03  0.46999998093E+01 0. -1.
</event>
<event>
 5   0  0.3371947E-04  0.1989365E+04  0.7818609E-02  0.8611609E-01
       -2   -1    0    0    0  501  0.00000000000E+00  0.00000000000E+00  0.99621491998E+03  0.99621491998E+03  0.25500000920E-02 0. -1.
        2   -1    0    0  501    0  0.00000000000E+00  0.00000000000E+00 -0.99315213086E+03  0.99315213086E+03  0.25500000920E-02 0.  1.
    10030    2    1    2    0    0  0.00000000000E+00  0.00000000000E+00  0.30627891231E+01  0.19893670508E+04  0.19893646931E+04 0.  0.
        2    1    3    3  502    0 -0.93909474056E+02 -0.82925046251E+03  0.54275070868E+03  0.99551677569E+03  0.25500000920E-02 0. -1.
       -2    1    3    3    0  502  0.93909474056E+02  0.82925046251E+03 -0.53968791956E+03  0.99385027515E+03  0.25500000920E-02 0.  1.
</event>
<event>
 5   0  0.1650221E-04  0.1973359E+04  0.7818609E-02  0.8619178E-01
       -1   -1    0    0    0  501  0.00000000000E+00  0.00000000000E+00  0.16627081383E+04  0.16627081383E+04  0.50400001928E-02 0.  1.
        1   -1    0    0  501    0  0.00000000000E+00  0.00000000000E+00 -0.58551273289E+03  0.58551273291E+03  0.50400001928E-02 0. -1.
    10030    2    1    2    0    0  0.00000000000E+00  0.00000000000E+00  0.10771954054E+04  0.22482208712E+04  0.19733593551E+04 0.  0.
        1    1    3    3  502    0 -0.17817494617E+03  0.92787972597E+03  0.86250314833E+03  0.12793040210E+04  0.50400001928E-02 0.  1.
       -1    1    3    3    0  502  0.17817494617E+03 -0.92787972597E+03  0.21469225709E+03  0.96891685020E+03  0.50400001928E-02 0. -1.
</event>
<event>
 5   0  0.1643565E-04  0.2030044E+04  0.7818609E-02  0.8592701E-01
       -1   -1    0    0    0  501  0.00000000000E+00  0.00000000000E+00  0.10106132976E+04  0.10106132976E+04  0.50400001928E-02 0.  1.
        1   -1    0    0  501    0  0.00000000000E+00  0.00000000000E+00 -0.10194501217E+04  0.10194501217E+04  0.50400001928E-02 0. -1.
    10030    2    1    2    0    0  0.00000000000E+00  0.00000000000E+00 -0.88368241290E+01  0.20300634193E+04  0.20300441859E+04 0.  0.
        2    1    3    3  502    0 -0.33805486075E+03  0.37176716408E+03  0.87750713694E+03  0.10111927059E+04  0.25500000920E-02 0.  1.
       -2    1    3    3    0  502  0.33805486075E+03 -0.37176716408E+03 -0.88634396107E+03  0.10188707133E+04  0.25500000920E-02 0. -1.
</event>
<event>
 5   0  0.3460648E-04  0.2013028E+04  0.7818609E-02  0.8600554E-01
        2   -1    0    0  501    0  0.00000000000E+00  0.00000000000E+00  0.16921520599E+04  0.16921520599E+04  0.25500000920E-02 0.  1.
       -2   -1    0    0    0  501  0.00000000000E+00  0.00000000000E+00 -0.59868769007E+03  0.59868769008E+03  0.25500000920E-02 0. -1.
    10030    2    1    2    0    0  0.00000000000E+00  0.00000000000E+00  0.10934643698E+04  0.22908397500E+04  0.20130281747E+04 0.  0.
        5    1    3    3  502    0  0.17540422250E+03 -0.87283693606E+03  0.12429133741E+02  0.89038616992E+03  0.46999998093E+01 0. -1.
       -5    1    3    3    0  502 -0.17540422250E+03  0.87283693606E+03  0.10810352361E+04  0.14004535800E+04  0.46999998093E+01 0.  1.
</event>
<event>
 5   0  0.3395569E-04  0.2005293E+04  0.7818609E-02  0.8604150E-01
        2   -1    0    0  501    0  0.00000000000E+00  0.00000000000E+00  0.13120617907E+04  0.13120617907E+04  0.25500000920E-02 0. -1.
       -2   -1    0    0    0  501  0.00000000000E+00  0.00000000000E+00 -0.76619835508E+03  0.76619835508E+03  0.25500000920E-02 0.  1.
    10030    2    1    2    0    0  0.00000000000E+00  0.00000000000E+00  0.54586343560E+03  0.20782601458E+04  0.20052925829E+04 0.  0.
        4    1    3    3  502    0  0.98936308603E+03 -0.94563562087E+02  0.13576635384E+03  0.10031030351E+04  0.12699999809E+01 0.  1.
       -4    1    3    3    0  502 -0.98936308603E+03  0.94563562087E+02  0.41009708176E+03  0.10751571107E+04  0.12699999809E+01 0. -1.
</event>
<event>
 5   0  0.1643565E-04  0.1985543E+04  0.7818609E-02  0.8613410E-01
        1   -1    0    0  501    0  0.00000000000E+00  0.00000000000E+00  0.22580158483E+04  0.22580158484E+04  0.50400001928E-02 0.  1.
       -1   -1    0    0    0  501  0.00000000000E+00  0.00000000000E+00 -0.43648718655E+03  0.43648718657E+03  0.50400001928E-02 0. -1.
    10030    2    1    2    0    0  0.00000000000E+00  0.00000000000E+00  0.18215286618E+04  0.26945030349E+04  0.19855427317E+04 0.  0.
        2    1    3    3  502    0  0.15028615278E+03 -0.85160119368E+03  0.24901855620E+03  0.89990041790E+03  0.25500000920E-02 0.  1.
       -2    1    3    3    0  502 -0.15028615278E+03  0.85160119368E+03  0.15725101056E+04  0.17946026170E+04  0.25500000920E-02 0. -1.
</event>
<event>
 5   0  0.1708578E-04  0.1964211E+04  0.7818609E-02  0.8623538E-01
        1   -1    0    0  501    0  0.00000000000E+00  0.00000000000E+00  0.95669351966E+03  0.95669351967E+03  0.50400001928E-02 0.  1.
       -1   -1    0    0    0  501  0.00000000000E+00  0.00000000000E+00 -0.10081924801E+04  0.10081924801E+04  0.50400001928E-02 0. -1.
    10030    2    1    2    0    0  0.00000000000E+00  0.00000000000E+00 -0.51498960473E+02  0.19648859998E+04  0.19642109992E+04 0.  0.
        3    1    3    3  502    0 -0.90070496348E+03  0.38758072493E+03 -0.80931400632E+02  0.98388929834E+03  0.10100000352E+00 0. -1.
       -3    1    3    3    0  502  0.90070496348E+03 -0.38758072493E+03  0.29432440159E+02  0.98099670148E+03  0.10100000352E+00 0.  1.
</event>
<event>
 5   0  0.1643565E-04  0.1935105E+04  0.7818609E-02  0.8637577E-01
       -1   -1    0    0    0  501  0.00000000000E+00  0.00000000000E+00  0.68813961748E+03  0.68813961750E+03  0.50400001928E-02 0.  1.
        1   -1    0    0  501    0  0.00000000000E+00  0.00000000000E+00 -0.13604181408E+04  0.13604181408E+04  0.50400001928E-02 0. -1.
    10030    2    1    2    0    0  0.00000000000E+00  0.00000000000E+00 -0.67227852331E+03  0.20485577583E+04  0.19351047714E+04 0.  0.
        2    1    3    3  502    0 -0.26427250217E+03 -0.91294459482E+03 -0.14426783908E+03  0.96131212309E+03  0.25500000920E-02 0.  1.
       -2    1    3    3    0  502  0.26427250217E+03  0.91294459482E+03 -0.52801068423E+03  0.10872456352E+04  0.25500000920E-02 0. -1.
</event>
<event>
 5   0  0.3431030E-04  0.1970964E+04  0.7818609E-02  0.8620317E-01
       -2   -1    0    0    0  501  0.00000000000E+00  0.00000000000E+00  0.81879835744E+03  0.81879835744E+03  0.25500000920E-02 0.  1.
        2   -1    0    0  501    0  0.00000000000E+00  0.00000000000E+00 -0.11860982033E+04  0.11860982033E+04  0.25500000920E-02 0. -1.
    10030    2    1    2    0    0  0.00000000000E+00  0.00000000000E+00 -0.36729984586E+03  0.20048965607E+04  0.19709644955E+04 0.  0.
        3    1    3    3  502    0 -0.14133330810E+03 -0.45012499646E+02 -0.11746783026E+04  0.11840060616E+04  0.10100000352E+00 0. -1.
       -3    1    3    3    0  502  0.14133330810E+03  0.45012499646E+02  0.80737845670E+03  0.82089049919E+03  0.10100000352E+00 0.  1.
</event>
<event>
 5   0  0.1222488E-04  0.2070954E+04  0.7818609E-02  0.8574148E-01
        3   -1    0    0  501    0  0.00000000000E+00  0.00000000000E+00  0.10014377729E+04  0.10014377779E+04  0.10100000352E+00 0. -1.
       -3   -1    0    0    0  501  0.00000000000E+00  0.00000000000E+00 -0.10706727733E+04  0.10706727781E+04  0.10100000352E+00 0.  1.
    10030    2    1    2    0    0  0.00000000000E+00  0.00000000000E+00 -0.69235000441E+02  0.20721105560E+04  0.20709535656E+04 0.  0.
        4    1    3    3  502    0  0.25045941182E+03  0.24187643601E+03 -0.10103425118E+04  0.10686569755E+04  0.12699999809E+01 0.  1.
       -4    1    3    3    0  502 -0.25045941182E+03 -0.24187643601E+03  0.94110751139E+03  0.10034535805E+04  0.12699999809E+01 0. -1.
</event>
<event>
 5   0  0.1696052E-04  0.2073274E+04  0.7818609E-02  0.8573109E-01
        1   -1    0    0  501    0  0.00000000000E+00  0.00000000000E+00  0.13405099549E+04  0.13405099550E+04  0.50400001928E-02 0.  1.
       -1   -1    0    0    0  501  0.00000000000E+00  0.00000000000E+00 -0.80164729392E+03  0.80164729394E+03  0.50400001928E-02 0. -1.
    10030    2    1    2    0    0  0.00000000000E+00  0.00000000000E+00  0.53886266102E+03  0.21421572489E+04  0.20732739114E+04 0.  0.
        4    1    3    3  502    0  0.53966490829E+03 -0.54415879157E+03  0.99066902273E+03  0.12525069777E+04  0.12699999809E+01 0.  1.
       -4    1    3    3    0  502 -0.53966490829E+03  0.54415879157E+03 -0.45180636170E+03  0.88965027121E+03  0.12699999809E+01 0. -1.
</event>
<event>
 5   0  0.1708578E-04  0.1994197E+04  0.7818609E-02  0.8609338E-01
       -1   -1    0    0    0  501  0.00000000000E+00  0.00000000000E+00  0.54340724033E+03  0.54340724035E+03  0.50400001928E-02 0.  1.
        1   -1    0    0  501    0  0.00000000000E+00  0.00000000000E+00 -0.18295776187E+04  0.18295776188E+04  0.50400001928E-02 0. -1.
    10030    2    1    2    0    0  0.00000000000E+00  0.00000000000E+00 -0.12861703784E+04  0.23729848591E+04  0.19941973070E+04 0.  0.
        3    1    3    3  502    0  0.47871641864E+02 -0.56307148940E+03  0.33445616594E+03  0.65665983081E+03  0.10100000352E+00 0.  1.
       -3    1    3    3    0  502 -0.47871641864E+02  0.56307148940E+03 -0.16206265444E+04  0.17163250283E+04  0.10100000352E+00 0. -1.
</event>
<event>
 5   0  0.3387881E-04  0.1975371E+04  0.7818609E-02  0.8618223E-01
        2   -1    0    0  501    0  0.00000000000E+00  0.00000000000E+00  0.12871074941E+04  0.12871074941E+04  0.25500000920E-02 0. -1.
       -2   -1    0    0    0  501  0.00000000000E+00  0.00000000000E+00 -0.75791874484E+03  0.75791874485E+03  0.25500000920E-02 0.  1.
    10030    2    1    2    0    0  0.00000000000E+00  0.00000000000E+00  0.52918874921E+03  0.20450262389E+04  0.19753712526E+04 0.  0.
        1    1    3    3  502    0 -0.71812967034E+03  0.53257351015E+03  0.69913076498E+03  0.11349575295E+04  0.50400001928E-02 0. -1.
       -1    1    3    3    0  502  0.71812967034E+03 -0.53257351015E+03 -0.16994201577E+03  0.91006870943E+03  0.50400001928E-02 0.  1.
</event>
<event>
 5   0  0.1650221E-04  0.2006354E+04  0.7818609E-02  0.8603656E-01
       -1   -1    0    0    0  501  0.00000000000E+00  0.00000000000E+00  0.49541010820E+03  0.49541010822E+03  0.50400001928E-02 0. -1.
        1   -1    0    0  501    0  0.00000000000E+00  0.00000000000E+00 -0.20313764218E+04  0.20313764218E+04  0.50400001928E-02 0.  1.
    10030    2    1    2    0    0  0.00000000000E+00  0.00000000000E+00 -0.15359663136E+04  0.25267865300E+04  0.20063543186E+04 0.  0.
        1    1    3    3  502    0  0.29199029650E+03  0.85164865457E+03 -0.21071017812E+03  0.92464184594E+03  0.50400001928E-02 0. -1.
       -1    1    3    3    0  502 -0.29199029650E+03 -0.85164865457E+03 -0.13252561355E+04  0.16021446841E+04  0.50400001928E-02 0.  1.
</event>
<event>
 5   0  0.3431030E-04  0.2076052E+04  0.7818609E-02  0.8571867E-01
        2   -1    0    0  501    0  0.00000000000E+00  0.00000000000E+00  0.20372227005E+04  0.20372227005E+04  0.25500000920E-02 0. -1.
       -2   -1    0    0    0  501  0.00000000000E+00  0.00000000000E+00 -0.52890544089E+03  0.52890544090E+03  0.25500000920E-02 0.  1.
    10030    2    1    2    0    0  0.00000000000E+00  0.00000000000E+00  0.15083172596E+04  0.25661281414E+04  0.20760521868E+04 0.  0.
        3    1    3    3  502    0 -0.47898447437E+02  0.31996401386E+03  0.19733106564E+04  0.19996565175E+04  0.10100000352E+00 0. -1.
       -3    1    3    3    0  502  0.47898447437E+02 -0.31996401386E+03 -0.46499339675E+03  0.56647162387E+03  0.10100000352E+00 0.  1.
</event>
<event>
 5   0  0.3431030E-04  0.1971171E+04  0.7818609E-02  0.8620219E-01
       -2   -1    0    0    0  501  0.00000000000E+00  0.00000000000E+00  0.43534949839E+03  0.43534949840E+03  0.25500000920E-02 0. -1.
        2   -1    0    0  501    0  0.00000000000E+00  0.00000000000E+00 -0.22312611016E+04  0.22312611016E+04  0.25500000920E-02 0.  1.
    10030    2    1    2    0    0  0.00000000000E+00  0.00000000000E+00 -0.17959116032E+04  0.26666106000E+04  0.19711706180E+04 0.  0.
        3    1    3    3  502    0  0.71505785359E+03  0.38835017561E+03 -0.16502602113E+04  0.18399680345E+04  0.10100000352E+00 0.  1.
       -3    1    3    3    0  502 -0.71505785359E+03 -0.38835017561E+03 -0.14565139190E+03  0.82664256546E+03  0.10100000352E+00 0. -1.
</event>
<event>
 5   0  0.3395569E-04  0.1898827E+04  0.7818609E-02  0.8655441E-01
       -2   -1    0    0    0  501  0.00000000000E+00  0.00000000000E+00  0.10449471445E+04  0.10449471445E+04  0.25500000920E-02 0.  1.
        2   -1    0    0  501    0  0.00000000000E+00  0.00000000000E+00 -0.86261388729E+03  0.86261388730E+03  0.25500000920E-02 0. -1.
    10030    2    1    2    0    0  0.00000000000E+00  0.00000000000E+00  0.18233325725E+03  0.19075610318E+04  0.18988269204E+04 0.  0.
        4    1    3    3  502    0 -0.49021277694E+03 -0.51820978211E+03  0.72057411045E+03  0.10139421120E+04  0.12699999809E+01 0.  1.
       -4    1    3    3    0  502  0.49021277694E+03  0.51820978211E+03 -0.53824085319E+03  0.89361891984E+03  0.12699999809E+01 0. -1.
</event>
<event>
 5   0  0.1708578E-04  0.2041391E+04  0.7818609E-02  0.8587510E-01
        1   -1    0    0  501    0  0.00000000000E+00  0.00000000000E+00  0.24034526226E+04  0.24034526226E+04  0.50400001928E-02 0. -1.
       -1   -1    0    0    0  501  0.00000000000E+00  0.00000000000E+00 -0.43346792076E+03  0.43346792079E+03  0.50400001928E-02 0.  1.
    10030    2    1    2    0    0  0.00000000000E+00  0.00000000000E+00  0.19699847018E+04  0.28369205434E+04  0.20413913011E+04 0.  0.
        3    1    3    3  502    0 -0.68316738645E+03  0.67388583504E+03  0.50162495711E+03  0.10828053400E+04  0.10100000352E+00 0.  1.
       -3    1    3    3    0  502  0.68316738645E+03 -0.67388583504E+03  0.14683597447E+04  0.17541152034E+04  0.10100000352E+00 0. -1.
</event>
<event>
 5   0  0.3395569E-04  0.1958702E+04  0.7818609E-02  0.8626176E-01
        2   -1    0    0  501    0  0.00000000000E+00  0.00000000000E+00  0.12432854290E+04  0.12432854290E+04  0.25500000920E-02 0.  1.
       -2   -1    0    0    0  501  0.00000000000E+00  0.00000000000E+00 -0.77144676392E+03  0.77144676393E+03  0.25500000920E-02 0. -1.
    10030    2    1    2    0    0  0.00000000000E+00  0.00000000000E+00  0.47183866509E+03  0.20147321929E+04  0.19587021426E+04 0.  0.
        4    1    3    3  502    0  0.74623764073E+03 -0.36458712635E+03  0.76973746786E+03  0.11323832264E+04  0.12699999809E+01 0.  1.
       -4    1    3    3    0  502 -0.74623764073E+03  0.36458712635E+03 -0.29789880276E+03  0.88234896653E+03  0.12699999809E+01 0. -1.
</event>
<event>
 5   0  0.1664168E-04  0.1758588E+04  0.7818609E-02  0.8728637E-01
        1   -1    0    0  501    0  0.00000000000E+00  0.00000000000E+00  0.85918209531E+03  0.85918209533E+03  0.50400001928E-02 0. -1.
       -1   -1    0    0    0  501  0.00000000000E+00  0.00000000000E+00 -0.89987708345E+03  0.89987708346E+03  0.50400001928E-02 0.  1.
    10030    2    1    2    0    0  0.00000000000E+00  0.00000000000E+00 -0.40694988137E+02  0.17590591788E+04  0.17585883863E+04 0.  0.
        5    1    3    3  502    0  0.13563053403E+03 -0.44977436369E+03 -0.76381195021E+03  0.89672928204E+03  0.46999998093E+01 0.  1.
       -5    1    3    3    0  502 -0.13563053403E+03  0.44977436369E+03  0.72311696207E+03  0.86232989675E+03  0.46999998093E+01 0. -1.
</event>
<event>
 5   0  0.3387881E-04  0.2014907E+04  0.7818609E-02  0.8599683E-01
        2   -1    0    0  501    0  0.00000000000E+00  0.00000000000E+00  0.12056005881E+04  0.12056005881E+04  0.25500000920E-02 0. -1.
       -2   -1    0    0    0  501  0.00000000000E+00  0.00000000000E+00 -0.84187325532E+03  0.84187325532E+03  0.25500000920E-02 0.  1.
    10030    2    1    2    0    0  0.00000000000E+00  0.00000000000E+00  0.36372733282E+03  0.20474738435E+04  0.20149073346E+04 0.  0.
        1    1    3    3  502    0  0.76007232127E+02 -0.91642614026E+03  0.60003523570E+03  0.10980237948E+04  0.50400001928E-02 0. -1.
       -1    1    3    3    0  502 -0.76007232127E+02  0.91642614026E+03 -0.23630790288E+03  0.94945004864E+03  0.50400001928E-02 0.  1.
</event>
<event>
 5   0  0.1643565E-04  0.1208854E+04  0.7818609E-02  0.9105141E-01
       -1   -1    0    0    0  501  0.00000000000E+00  0.00000000000E+00  0.14888311369E+04  0.14888311369E+04  0.50400001928E-02 0. -1.
        1   -1    0    0  501    0  0.00000000000E+00  0.00000000000E+00 -0.24538194777E+03  0.24538194782E+03  0.50400001928E-02 0.  1.
    10030    2    1    2    0    0  0.00000000000E+00  0.00000000000E+00  0.12434491891E+04  0.17342130847E+04  0.12088544732E+04 0.  0.
        2    1    3    3  502    0 -0.20931952991E+02 -0.13752286664E+03 -0.22210535880E+03  0.26207150917E+03  0.25500000920E-02 0.  1.
       -2    1    3    3    0  502  0.20931952991E+02  0.13752286664E+03  0.14655545479E+04  0.14721415755E+04  0.25500000920E-02 0. -1.
</event>
<event>
 5   0  0.3460648E-04  0.1963049E+04  0.7818609E-02  0.8624094E-01
       -2   -1    0    0    0  501  0.00000000000E+00  0.00000000000E+00  0.37527684901E+03  0.37527684902E+03  0.25500000920E-02 0. -1.
        2   -1    0    0  501    0  0.00000000000E+00  0.00000000000E+00 -0.25671445252E+04  0.25671445252E+04  0.25500000920E-02 0.  1.
    10030    2    1    2    0    0  0.00000000000E+00  0.00000000000E+00 -0.21918676762E+04  0.29424213742E+04  0.19630485561E+04 0.  0.
        5    1    3    3  502    0  0.71721392365E+03 -0.66988964449E+03 -0.10737080524E+04  0.14546542613E+04  0.46999998093E+01 0. -1.
       -5    1    3    3    0  502 -0.71721392365E+03  0.66988964449E+03 -0.11181596238E+04  0.14877671129E+04  0.46999998093E+01 0.  1.
</event>
<event>
 5   0  0.1708578E-04  0.1997903E+04  0.7818609E-02  0.8607602E-01
        1   -1    0    0  501    0  0.00000000000E+00  0.00000000000E+00  0.61401431582E+03  0.61401431584E+03  0.50400001928E-02 0.  1.
       -1   -1    0    0    0  501  0.00000000000E+00  0.00000000000E+00 -0.16252126570E+04  0.16252126570E+04  0.50400001928E-02 0. -1.
    10030    2    1    2    0    0  0.00000000000E+00  0.00000000000E+00 -0.10111983412E+04  0.22392269728E+04  0.19979027380E+04 0.  0.
        3    1    3    3  502    0  0.63495408409E+03 -0.72157942664E+03 -0.81061081463E+03  0.12573517650E+04  0.10100000352E+00 0. -1.
       -3    1    3    3    0  502 -0.63495408409E+03  0.72157942664E+03 -0.20058752654E+03  0.98187520788E+03  0.10100000352E+00 0.  1.
</event>
<event>
 5   0  0.1708578E-04  0.1776891E+04  0.7818609E-02  0.8718686E-01
        1   -1    0    0  501    0  0.00000000000E+00  0.00000000000E+00  0.19451864488E+04  0.19451864488E+04  0.50400001928E-02 0. -1.
       -1   -1    0    0    0  501  0.00000000000E+00  0.00000000000E+00 -0.40578927551E+03  0.40578927555E+03  0.50400001928E-02 0.  1.
    10030    2    1    2    0    0  0.00000000000E+00  0.00000000000E+00  0.15393971733E+04  0.23509757243E+04  0.17768914428E+04 0.  0.
        3    1    3    3  502    0 -0.43862712122E+03 -0.59494368544E+03  0.11750558920E+03  0.74843791594E+03  0.10100000352E+00 0.  1.
       -3    1    3    3    0  502  0.43862712122E+03  0.59494368544E+03  0.14218915841E+04  0.16025378084E+04  0.10100000352E+00 0. -1.
</event>
<event>
 5   0  0.1222488E-04  0.1957360E+04  0.7818609E-02  0.8626820E-01
       -3   -1    0    0    0  501  0.00000000000E+00  0.00000000000E+00  0.11317428670E+04  0.11317428715E+04  0.10100000352E+00 0. -1.
        3   -1    0    0  501    0  0.00000000000E+00  0.00000000000E+00 -0.84631818837E+03  0.84631819440E+03  0.10100000352E+00 0.  1.
    10030    2    1    2    0    0  0.00000000000E+00  0.00000000000E+00  0.28542467863E+03  0.19780610659E+04  0.19573600418E+04 0.  0.
        5    1    3    3  502    0 -0.55088347135E+03 -0.69189533925E+03  0.56619159378E+03  0.10501365484E+04  0.46999998093E+01 0. -1.
       -5    1    3    3    0  502  0.55088347135E+03  0.69189533925E+03 -0.28076691515E+03  0.92792451747E+03  0.46999998093E+01 0.  1.
</event>
<event>
 5   0  0.1708578E-04  0.1342623E+04  0.7818609E-02  0.8996432E-01
       -1   -1    0    0    0  501  0.00000000000E+00  0.00000000000E+00  0.66793401332E+03  0.66793401334E+03  0.50400001928E-02 0.  1.
        1   -1    0    0  501    0  0.00000000000E+00  0.00000000000E+00 -0.67470558422E+03  0.67470558424E+03  0.50400001928E-02 0. -1.
    10030    2    1    2    0    0  0.00000000000E+00  0.00000000000E+00 -0.67715708965E+01  0.13426395976E+04  0.13426225213E+04 0.  0.
        3    1    3    3  502    0  0.11499742092E+03  0.21229935193E+03 -0.62978290990E+03  0.67447901780E+03  0.10100000352E+00 0. -1.
       -3    1    3    3    0  502 -0.11499742092E+03 -0.21229935193E+03  0.62301133900E+03  0.66816057978E+03  0.10100000352E+00 0.  1.
</event>
<event>
 5   0  0.1643565E-04  0.1968663E+04  0.7818609E-02  0.8621413E-01
        1   -1    0    0  501    0  0.00000000000E+00  0.00000000000E+00  0.13553375511E+04  0.13553375511E+04  0.50400001928E-02 0. -1.
       -1   -1    0    0    0  501  0.00000000000E+00  0.00000000000E+00 -0.71488353801E+03  0.71488353803E+03  0.50400001928E-02 0.  1.
    10030    2    1    2    0    0  0.00000000000E+00  0.00000000000E+00  0.64045401313E+03  0.20702210892E+04  0.19686630019E+04 0.  0.
        2    1    3    3  502    0 -0.22066992933E+03  0.25678615348E+03  0.12921771391E+04  0.13357979283E+04  0.25500000920E-02 0. -1.
       -2    1    3    3    0  502  0.22066992933E+03 -0.25678615348E+03 -0.65172312598E+03  0.73442316090E+03  0.25500000920E-02 0.  1.
</event>
<event>
 5   0  0.1664168E-04  0.1953618E+04  0.7818609E-02  0.8628618E-01
        1   -1    0    0  501    0  0.00000000000E+00  0.00000000000E+00  0.10359422827E+04  0.10359422827E+04  0.50400001928E-02 0. -1.
       -1   -1    0    0    0  501  0.00000000000E+00  0.00000000000E+00 -0.92105137028E+03  0.92105137029E+03  0.50400001928E-02 0.  1.
    10030    2    1    2    0    0  0.00000000000E+00  0.00000000000E+00  0.11489091242E+03  0.19569936530E+04  0.19536182422E+04 0.  0.
        5    1    3    3  502    0 -0.33305409944E+03  0.17196989965E+03 -0.84613037026E+03  0.92544982199E+03  0.46999998093E+01 0.  1.
       -5    1    3    3    0  502  0.33305409944E+03 -0.17196989965E+03  0.96102128268E+03  0.10315438310E+04  0.46999998093E+01 0. -1.
</event>
<event>
 5   0  0.3460648E-04  0.1942819E+04  0.7818609E-02  0.8633832E-01
       -2   -1    0    0    0  501  0.00000000000E+00  0.00000000000E+00  0.73231212094E+03  0.73231212094E+03  0.25500000920E-02 0.  1.
        2   -1    0    0  501    0  0.00000000000E+00  0.00000000000E+00 -0.12885706909E+04  0.12885706909E+04  0.25500000920E-02 0. -1.
    10030    2    1    2    0    0  0.00000000000E+00  0.00000000000E+00 -0.55625857001E+03  0.20208828119E+04  0.19428185048E+04 0.  0.
        5    1    3    3  502    0  0.83291618107E+03 -0.37250598469E+03 -0.62484482009E+03  0.11058766715E+04  0.46999998093E+01 0. -1.
       -5    1    3    3    0  502 -0.83291618107E+03  0.37250598469E+03  0.68586250078E+02  0.91500614042E+03  0.46999998093E+01 0.  1.
</event>
<event>
 5   0  0.1222488E-04  0.1973978E+04  0.7818609E-02  0.8618884E-01
        3   -1    0    0  501    0  0.00000000000E+00  0.00000000000E+00  0.12931155599E+04  0.12931155638E+04  0.10100000352E+00 0. -1.
       -3   -1    0    0    0  501  0.00000000000E+00  0.00000000000E+00 -0.75333332179E+03  0.75333332856E+03  0.10100000352E+00 0.  1.
    10030    2    1    2    0    0  0.00000000000E+00  0.00000000000E+00  0.53978223807E+03  0.20464488924E+04  0.19739777619E+04 0.  0.
        2    1    3    3  502    0  0.13896476034E+03 -0.40190601528E+03  0.11932688584E+04  0.12667794671E+04  0.25500000920E-02 0. -1.
       -2    1    3    3    0  502 -0.13896476034E+03  0.40190601528E+03 -0.65348662035E+03  0.77966942528E+03  0.25500000920E-02 0.  1.
</event>
<event>
 5   0  0.3387881E-04  0.2004013E+04  0.7818609E-02  0.8604747E-01
       -2   -1    0    0    0  501  0.00000000000E+00  0.00000000000E+00  0.61665501471E+03  0.61665501471E+03  0.25500000920E-02 0. -1.
        2   -1    0    0  501    0  0.00000000000E+00  0.00000000000E+00 -0.16281670951E+04  0.16281670951E+04  0.25500000920E-02 0.  1.
    10030    2    1    2    0    0  0.00000000000E+00  0.00000000000E+00 -0.10115120804E+04  0.22448221098E+04  0.20040133772E+04 0.  0.
        1    1    3    3  502    0 -0.73009730802E+03  0.19048794111E+03 -0.12442908574E+04  0.14551932768E+04  0.50400001928E-02 0.  1.
       -1    1    3    3    0  502  0.73009730802E+03 -0.19048794111E+03  0.23277877704E+03  0.78962883303E+03  0.50400001928E-02 0. -1.
</event>
<event>
 5   0  0.1650221E-04  0.2007817E+04  0.7818609E-02  0.8602975E-01
       -1   -1    0    0    0  501  0.00000000000E+00  0.00000000000E+00  0.41378493122E+03  0.41378493125E+03  0.50400001928E-02 0. -1.
        1   -1    0    0  501    0  0.00000000000E+00  0.00000000000E+00 -0.24356432001E+04  0.24356432001E+04  0.50400001928E-02 0.  1.
    10030    2    1    2    0    0  0.00000000000E+00  0.00000000000E+00 -0.20218582689E+04  0.28494281314E+04  0.20078171770E+04 0.  0.
        1    1    3    3  502    0 -0.72437405874E+03 -0.71101444362E+02 -0.19921672517E+04  0.21209675978E+04  0.50400001928E-02 0.  1.
       -1    1    3    3    0  502  0.72437405874E+03  0.71101444362E+02 -0.29691017205E+02  0.72846053352E+03  0.50400001928E-02 0. -1.
</event>
<event>
 5   0  0.3395569E-04  0.1957835E+04  0.7818609E-02  0.8626592E-01
        2   -1    0    0  501    0  0.00000000000E+00  0.00000000000E+00  0.62800164014E+03  0.62800164015E+03  0.25500000920E-02 0.  1.
       -2   -1    0    0    0  501  0.00000000000E+00  0.00000000000E+00 -0.15259184814E+04  0.15259184814E+04  0.25500000920E-02 0. -1.
    10030    2    1    2    0    0  0.00000000000E+00  0.00000000000E+00 -0.89791684125E+03  0.21539201215E+04  0.19578348337E+04 0.  0.
        4    1    3    3  502    0  0.93593138256E+03 -0.28689722139E+03 -0.44935147533E+03  0.10771239157E+04  0.12699999809E+01 0. -1.
       -4    1    3    3    0  502 -0.93593138256E+03  0.28689722139E+03 -0.44856536592E+03  0.10767962058E+04  0.12699999809E+01 0.  1.
</event>
<event>
 5   0  0.3431030E-04  0.2083967E+04  0.7818609E-02  0.8568339E-01
       -2   -1    0    0    0  501  0.00000000000E+00  0.00000000000E+00  0.50008626866E+03  0.50008626867E+03  0.25500000920E-02 0. -1.
        2   -1    0    0  501    0  0.00000000000E+00  0.00000000000E+00 -0.21710848319E+04  0.21710848319E+04  0.25500000920E-02 0.  1.
    10030    2    1    2    0    0  0.00000000000E+00  0.00000000000E+00 -0.16709985633E+04  0.26711711006E+04  0.20839670943E+04 0.  0.
        3    1    3    3  502    0 -0.68439603391E+03 -0.59449726874E+03 -0.17703159250E+03  0.92366938279E+03  0.10100000352E+00 0. -1.
       -3    1    3    3    0  502  0.68439603391E+03  0.59449726874E+03 -0.14939669708E+04  0.17475017178E+04  0.10100000352E+00 0.  1.
</event>
<event>
 5   0  0.1708578E-04  0.2071499E+04  0.7818609E-02  0.8573903E-01
        1   -1    0    0  501    0  0.00000000000E+00  0.00000000000E+00  0.22559681862E+04  0.22559681862E+04  0.50400001928E-02 0. -1.
       -1   -1    0    0    0  501  0.00000000000E+00  0.00000000000E+00 -0.47552821767E+03  0.47552821770E+03  0.50400001928E-02 0.  1.
    10030    2    1    2    0    0  0.00000000000E+00  0.00000000000E+00  0.17804399686E+04  0.27314964039E+04  0.20714985211E+04 0.  0.
        3    1    3    3  502    0  0.25504079397E+03  0.98311502461E+03  0.11579189052E+04  0.15402393188E+04  0.10100000352E+00 0.  1.
       -3    1    3    3    0  502 -0.25504079397E+03 -0.98311502461E+03  0.62252106340E+03  0.11912570851E+04  0.10100000352E+00 0. -1.
</event>
<event>
 5   0  0.1664168E-04  0.1942138E+04  0.7818609E-02  0.8634161E-01
       -1   -1    0    0    0  501  0.00000000000E+00  0.00000000000E+00  0.11993831410E+04  0.11993831410E+04  0.50400001928E-02 0. -1.
        1   -1    0    0  501    0  0.00000000000E+00  0.00000000000E+00 -0.78621647342E+03  0.78621647344E+03  0.50400001928E-02 0.  1.
    10030    2    1    2    0    0  0.00000000000E+00  0.00000000000E+00  0.41316666761E+03  0.19855996145E+04  0.19421377742E+04 0.  0.
        5    1    3    3  502    0  0.46036369950E+03  0.54948812007E+03  0.87628467231E+03  0.11321523073E+04  0.46999998093E+01 0. -1.
       -5    1    3    3    0  502 -0.46036369950E+03 -0.54948812007E+03 -0.46311800471E+03  0.85344730722E+03  0.46999998093E+01 0.  1.
</event>
<event>
 5   0  0.1696052E-04  0.1993728E+04  0.7818609E-02  0.8609559E-01
       -1   -1    0    0    0  501  0.00000000000E+00  0.00000000000E+00  0.79262143579E+03  0.79262143581E+03  0.50400001928E-02 0. -1.
        1   -1    0    0  501    0  0.00000000000E+00  0.00000000000E+00 -0.12537360620E+04  0.12537360620E+04  0.50400001928E-02 0.  1.
    10030    2    1    2    0    0  0.00000000000E+00  0.00000000000E+00 -0.46111462618E+03  0.20463574978E+04  0.19937282438E+04 0.  0.
        4    1    3    3  502    0  0.43677651359E+03  0.59354129533E+03  0.45848450461E+03  0.86791396230E+03  0.12699999809E+01 0. -1.
       -4    1    3    3    0  502 -0.43677651359E+03 -0.59354129533E+03 -0.91959913079E+03  0.11784435355E+04  0.12699999809E+01 0.  1.
</event>
<event>
 5   0  0.3460648E-04  0.1985629E+04  0.7818609E-02  0.8613369E-01
       -2   -1    0    0    0  501  0.00000000000E+00  0.00000000000E+00  0.82675175007E+03  0.82675175007E+03  0.25500000920E-02 0.  1.
        2   -1    0    0  501    0  0.00000000000E+00  0.00000000000E+00 -0.11922332224E+04  0.11922332224E+04  0.25500000920E-02 0. -1.
    10030    2    1    2    0    0  0.00000000000E+00  0.00000000000E+00 -0.36548147234E+03  0.20189849725E+04  0.19856292737E+04 0.  0.
        5    1    3    3  502    0 -0.75469871928E+03  0.15620741098E+03  0.45362237713E+03  0.89429651859E+03  0.46999998093E+01 0. -1.
       -5    1    3    3    0  502  0.75469871928E+03 -0.15620741098E+03 -0.81910384947E+03  0.11246884539E+04  0.46999998093E+01 0.  1.
</event>
<event>
 5   0  0.3371947E-04  0.2021893E+04  0.7818609E-02  0.8596453E-01
        2   -1    0    0  501    0  0.00000000000E+00  0.00000000000E+00  0.55601150667E+03  0.55601150668E+03  0.25500000920E-02 0.  1.
       -2   -1    0    0    0  501  0.00000000000E+00  0.00000000000E+00 -0.18381153865E+04  0.18381153865E+04  0.25500000920E-02 0. -1.
    10030    2    1    2    0    0  0.00000000000E+00  0.00000000000E+00 -0.12821038799E+04  0.23941268932E+04  0.20218934745E+04 0.  0.
        2    1    3    3  502    0  0.66411675571E+03  0.68950547566E+03 -0.10257381099E+04  0.14030707524E+04  0.25500000920E-02 0. -1.
       -2    1    3    3    0  502 -0.66411675571E+03 -0.68950547566E+03 -0.25636576994E+03  0.99105614078E+03  0.25500000920E-02 0.  1.
</event>
<event>
 5   0  0.3431030E-04  0.2029653E+04  0.7818609E-02  0.8592881E-01
        2   -1    0    0  501    0  0.00000000000E+00  0.00000000000E+00  0.14825889119E+04  0.14825889119E+04  0.25500000920E-02 0.  1.
       -2   -1    0    0    0  501  0.00000000000E+00  0.00000000000E+00 -0.69464523467E+03  0.69464523467E+03  0.25500000920E-02 0. -1.
    10030    2    1    2    0    0  0.00000000000E+00  0.00000000000E+00  0.78794367728E+03  0.21772341466E+04  0.20296534903E+04 0.  0.
        3    1    3    3  502    0 -0.97230096229E+03 -0.18136238654E+03  0.15027051331E+03  0.10004212682E+04  0.10100000352E+00 0. -1.
       -3    1    3    3    0  502  0.97230096229E+03  0.18136238654E+03  0.63767316397E+03  0.11768128784E+04  0.10100000352E+00 0.  1.
</event>
<event>
 5   0  0.3371947E-04  0.2026485E+04  0.7818609E-02  0.8594337E-01
       -2   -1    0    0    0  501  0.00000000000E+00  0.00000000000E+00  0.40526670720E+03  0.40526670721E+03  0.25500000920E-02 0.  1.
        2   -1    0    0  501    0  0.00000000000E+00  0.00000000000E+00 -0.25332946338E+04  0.25332946338E+04  0.25500000920E-02 0. -1.
    10030    2    1    2    0    0  0.00000000000E+00  0.00000000000E+00 -0.21280279266E+04  0.29385613410E+04  0.20264846159E+04 0.  0.
        2    1    3    3  502    0 -0.85759724294E+03 -0.44583202623E+03 -0.15048490863E+04  0.17885217357E+04  0.25500000920E-02 0. -1.
       -2    1    3    3    0  502  0.85759724294E+03  0.44583202623E+03 -0.62317884036E+03  0.11500396053E+04  0.25500000920E-02 0.  1.
</event>
<event>
 5   0  0.3431030E-04  0.1991675E+04  0.7818609E-02  0.8610523E-01
       -2   -1    0    0    0  501  0.00000000000E+00  0.00000000000E+00  0.13228111954E+04  0.13228111954E+04  0.25500000920E-02 0.  1.
        2   -1    0    0  501    0  0.00000000000E+00  0.00000000000E+00 -0.74968578145E+03  0.74968578146E+03  0.25500000920E-02 0. -1.
    10030    2    1    2    0    0  0.00000000000E+00  0.00000000000E+00  0.57312541394E+03  0.20724969769E+04  0.19916754201E+04 0.  0.
        3    1    3    3  502    0  0.26848642914E+03 -0.55721918360E+03  0.10986913541E+04  0.12608334081E+04  0.10100000352E+00 0. -1.
       -3    1    3    3    0  502 -0.26848642914E+03  0.55721918360E+03 -0.52556594016E+03  0.81166356876E+03  0.10100000352E+00 0.  1.
</event>
<event>
 5   0  0.3460648E-04  0.2047367E+04  0.7818609E-02  0.8584790E-01
       -2   -1    0    0    0  501  0.00000000000E+00  0.00000000000E+00  0.97837434627E+03  0.97837434627E+03  0.25500000920E-02 0.  1.
        2   -1    0    0  501    0  0.00000000000E+00  0.00000000000E+00 -0.10710906897E+04  0.10710906897E+04  0.25500000920E-02 0. -1.
    10030    2    1    2    0    0  0.00000000000E+00  0.00000000000E+00 -0.92716343437E+02  0.20494650360E+04  0.20473667511E+04 0.  0.
        5    1    3    3  502    0 -0.82444521003E+03  0.59741360590E+03 -0.15273392716E+03  0.10295448817E+04  0.46999998093E+01 0. -1.
       -5    1    3    3    0  502  0.82444521003E+03 -0.59741360590E+03  0.60017583718E+02  0.10199201543E+04  0.46999998093E+01 0.  1.
</event>
<event>
 5   0  0.3395569E-04  0.1529376E+04  0.7818609E-02  0.8865150E-01
       -2   -1    0    0    0  501  0.00000000000E+00  0.00000000000E+00  0.39358205768E+03  0.39358205769E+03  0.25500000920E-02 0. -1.
        2   -1    0    0  501    0  0.00000000000E+00  0.00000000000E+00 -0.14857072324E+04  0.14857072324E+04  0.25500000920E-02 0.  1.
    10030    2    1    2    0    0  0.00000000000E+00  0.00000000000E+00 -0.10921251747E+04  0.18792892901E+04  0.15293759638E+04 0.  0.
        4    1    3    3  502    0 -0.30821691633E+02 -0.59016054764E+03 -0.11423847686E+04  0.12861897299E+04  0.12699999809E+01 0.  1.
       -4    1    3    3    0  502  0.30821691633E+02  0.59016054764E+03  0.50259593918E+02  0.59309956023E+03  0.12699999809E+01 0. -1.
</event>
<event>
 5   0  0.3395569E-04  0.1929006E+04  0.7818609E-02  0.8640551E-01
        2   -1    0    0  501    0  0.00000000000E+00  0.00000000000E+00  0.10186375846E+04  0.10186375846E+04  0.25500000920E-02 0. -1.
       -2   -1    0    0    0  501  0.00000000000E+00  0.00000000000E+00 -0.91324559589E+03  0.91324559589E+03  0.25500000920E-02 0.  1.
    10030    2    1    2    0    0  0.00000000000E+00  0.00000000000E+00  0.10539198868E+03  0.19318831805E+04  0.19290062601E+04 0.  0.
        4    1    3    3  502    0  0.12577056507E+03  0.75507050750E+03  0.64035470257E+03  0.99800073364E+03  0.12699999809E+01 0. -1.
       -4    1    3    3    0  502 -0.12577056507E+03 -0.75507050750E+03 -0.53496271389E+03  0.93388244682E+03  0.12699999809E+01 0.  1.
</event>
<event>
 5   0  0.1650221E-04  0.2045080E+04  0.7818609E-02  0.8585829E-01
        1   -1    0    0  501    0  0.00000000000E+00  0.00000000000E+00  0.99855978144E+03  0.99855978145E+03  0.50400001928E-02 0. -1.
       -1   -1    0    0    0  501  0.00000000000E+00  0.00000000000E+00 -0.10470965199E+04  0.10470965199E+04  0.50400001928E-02 0.  1.
    10030    2    1    2    0    0  0.00000000000E+00  0.00000000000E+00 -0.48536738474E+02  0.20456563014E+04  0.20450804112E+04 0.  0.
        1    1    3    3  502    0  0.36206493366E+03 -0.13081084259E+03 -0.97183971449E+03  0.10453109219E+04  0.50400001928E-02 0.  1.
       -1    1    3    3    0  502 -0.36206493366E+03  0.13081084259E+03  0.92330297602E+03  0.10003453795E+04  0.50400001928E-02 0. -1.
</event>
<event>
 5   0  0.3371947E-04  0.1915654E+04  0.7818609E-02  0.8647103E-01
       -2   -1    0    0    0  501  0.00000000000E+00  0.00000000000E+00  0.60856006201E+03  0.60856006202E+03  0.25500000920E-02 0. -1.
        2   -1    0    0  501    0  0.00000000000E+00  0.00000000000E+00 -0.15075461849E+04  0.15075461849E+04  0.25500000920E-02 0.  1.
    10030    2    1    2    0    0  0.00000000000E+00  0.00000000000E+00 -0.89898612286E+03  0.21161062469E+04  0.19156538307E+04 0.  0.
        2    1    3    3  502    0 -0.54372505225E+03 -0.76637892692E+03 -0.65454815420E+03  0.11451667469E+04  0.25500000920E-02 0. -1.
       -2    1    3    3    0  502  0.54372505225E+03  0.76637892692E+03 -0.24443796867E+03  0.97093949998E+03  0.25500000920E-02 0.  1.
</event>
<event>
 5   0  0.1664168E-04  0.1936153E+04  0.7818609E-02  0.8637067E-01
       -1   -1    0    0    0  501  0.00000000000E+00  0.00000000000E+00  0.63551308182E+03  0.63551308184E+03  0.50400001928E-02 0.  1.
        1   -1    0    0  501    0  0.00000000000E+00  0.00000000000E+00 -0.14746694440E+04  0.14746694440E+04  0.50400001928E-02 0. -1.
    10030    2    1    2    0    0  0.00000000000E+00  0.00000000000E+00 -0.83915636217E+03  0.21101825258E+04  0.19361526004E+04 0.  0.
        5    1    3    3  502    0 -0.16510351000E+03 -0.64957921227E+03 -0.11808897910E+04  0.13578420787E+04  0.46999998093E+01 0. -1.
       -5    1    3    3    0  502  0.16510351000E+03  0.64957921227E+03  0.34173342888E+03  0.75234044716E+03  0.46999998093E+01 0.  1.
</event>
<event>
 5   0  0.1650221E-04  0.1979626E+04  0.7818609E-02  0.8616206E-01
       -1   -1    0    0    0  501  0.00000000000E+00  0.00000000000E+00  0.40541969881E+03  0.40541969884E+03  0.50400001928E-02 0.  1.
        1   -1    0    0  501    0  0.00000000000E+00  0.00000000000E+00 -0.24165827625E+04  0.24165827625E+04  0.50400001928E-02 0. -1.
    10030    2    1    2    0    0  0.00000000000E+00  0.00000000000E+00 -0.20111630637E+04  0.28220024614E+04  0.19796264858E+04 0.  0.
        1    1    3    3  502    0  0.91106441023E+02  0.12702222871E+03  0.38771301112E+03  0.41803876519E+03  0.50400001928E-02 0.  1.
       -1    1    3    3    0  502 -0.91106441023E+02 -0.12702222871E+03 -0.23988760748E+04  0.24039636962E+04  0.50400001928E-02 0. -1.
</event>
<event>
 5   0  0.1664168E-04  0.1985323E+04  0.7818609E-02  0.8613513E-01
       -1   -1    0    0    0  501  0.00000000000E+00  0.00000000000E+00  0.52736776675E+03  0.52736776677E+03  0.50400001928E-02 0. -1.
        1   -1    0    0  501    0  0.00000000000E+00  0.00000000000E+00 -0.18684820895E+04  0.18684820895E+04  0.50400001928E-02 0.  1.
    10030    2    1    2    0    0  0.00000000000E+00  0.00000000000E+00 -0.13411143228E+04  0.23958498563E+04  0.19853233760E+04 0.  0.
        5    1    3    3  502    0  0.26457910789E+03  0.95460061530E+03 -0.74774111795E+03  0.12411298516E+04  0.46999998093E+01 0. -1.
       -5    1    3    3    0  502 -0.26457910789E+03 -0.95460061530E+03 -0.59337320484E+03  0.11547200047E+04  0.46999998093E+01 0.  1.
</event>
<event>
 5   0  0.3387881E-04  0.1941367E+04  0.7818609E-02  0.8634535E-01
       -2   -1    0    0    0  501  0.00000000000E+00  0.00000000000E+00  0.18122273824E+04  0.18122273824E+04  0.25500000920E-02 0.  1.
        2   -1    0    0  501    0  0.00000000000E+00  0.00000000000E+00 -0.51992734135E+03  0.51992734135E+03  0.25500000920E-02 0. -1.
    10030    2    1    2    0    0  0.00000000000E+00  0.00000000000E+00  0.12923000411E+04  0.23321547238E+04  0.19413671109E+04 0.  0.
        1    1    3    3  502    0  0.15656504540E+03 -0.88890169579E+02 -0.49969435928E+03  0.53113889747E+03  0.50400001928E-02 0. -1.
       -1    1    3    3    0  502 -0.15656504540E+03  0.88890169579E+02  0.17919944003E+04  0.18010158263E+04  0.50400001928E-02 0.  1.
</event>
<event>
 5   0  0.3431030E-04  0.1919464E+04  0.7818609E-02  0.8645228E-01
        2   -1    0    0  501    0  0.00000000000E+00  0.00000000000E+00  0.12193413571E+04  0.12193413571E+04  0.25500000920E-02 0.  1.
       -2   -1    0    0    0  501  0.00000000000E+00  0.00000000000E+00 -0.75539580074E+03  0.75539580074E+03  0.25500000920E-02 0. -1.
    10030    2    1    2    0    0  0.00000000000E+00  0.00000000000E+00  0.46394555641E+03  0.19747371579E+04  0.19194638219E+04 0.  0.
        3    1    3    3  502    0  0.86921373505E+03 -0.39307002021E+03  0.12383277293E+03  0.96196212183E+03  0.10100000352E+00 0. -1.
       -3    1    3    3    0  502 -0.86921373505E+03  0.39307002021E+03  0.34011278348E+03  0.10127750361E+04  0.10100000352E+00 0.  1.
</event>
<event>
 5   0  0.3460648E-04  0.1948614E+04  0.7818609E-02  0.8631029E-01
        2   -1    0    0  501    0  0.00000000000E+00  0.00000000000E+00  0.14199200475E+04  0.14199200475E+04  0.25500000920E-02 0. -1.
       -2   -1    0    0    0  501  0.00000000000E+00  0.00000000000E+00 -0.66854079410E+03  0.66854079411E+03  0.25500000920E-02 0.  1.
    10030    2    1    2    0    0  0.00000000000E+00  0.00000000000E+00  0.75137925337E+03  0.20884608416E+04  0.19486143550E+04 0.  0.
        5    1    3    3  502    0  0.55224489781E+03 -0.38913164780E+03  0.11281087256E+04  0.13149331745E+04  0.46999998093E+01 0. -1.
       -5    1    3    3    0  502 -0.55224489781E+03  0.38913164780E+03 -0.37672947228E+03  0.77352766709E+03  0.46999998093E+01 0.  1.
</event>
<event>
 5   0  0.1664168E-04  0.1649130E+04  0.7818609E-02  0.8790921E-01
       -1   -1    0    0    0  501  0.00000000000E+00  0.00000000000E+00  0.56359138771E+03  0.56359138773E+03  0.50400001928E-02 0. -1.
        1   -1    0    0  501    0  0.00000000000E+00  0.00000000000E+00 -0.12063832456E+04  0.12063832456E+04  0.50400001928E-02 0.  1.
    10030    2    1    2    0    0  0.00000000000E+00  0.00000000000E+00 -0.64279185784E+03  0.17699746333E+04  0.16491297190E+04 0.  0.
        5    1    3    3  502    0  0.11135307762E+02 -0.77445322419E+01  0.56345726881E+03  0.56364009495E+03  0.46999998093E+01 0. -1.
       -5    1    3    3    0  502 -0.11135307762E+02  0.77445322419E+01 -0.12062491267E+04  0.12063345384E+04  0.46999998093E+01 0.  1.
</event>
<event>
 5   0  0.3431030E-04  0.1935401E+04  0.7818609E-02  0.8637433E-01
        2   -1    0    0  501    0  0.00000000000E+00  0.00000000000E+00  0.14789550725E+04  0.14789550725E+04  0.25500000920E-02 0. -1.
       -2   -1    0    0    0  501  0.00000000000E+00  0.00000000000E+00 -0.63317940067E+03  0.63317940068E+03  0.25500000920E-02 0.  1.
    10030    2    1    2    0    0  0.00000000000E+00  0.00000000000E+00  0.84577567179E+03  0.21121344731E+04  0.19354006163E+04 0.  0.
        3    1    3    3  502    0 -0.36830808983E+03  0.22773765445E+03 -0.52154460013E+03  0.67788204609E+03  0.10100000352E+00 0.  1.
       -3    1    3    3    0  502  0.36830808983E+03 -0.22773765445E+03  0.13673202719E+04  0.14342524270E+04  0.10100000352E+00 0. -1.
</event>
<event>
 5   0  0.3395569E-04  0.2003429E+04  0.7818609E-02  0.8605019E-01
        2   -1    0    0  501    0  0.00000000000E+00  0.00000000000E+00  0.19760094401E+04  0.19760094401E+04  0.25500000920E-02 0. -1.
       -2   -1    0    0    0  501  0.00000000000E+00  0.00000000000E+00 -0.50780742376E+03  0.50780742376E+03  0.25500000920E-02 0.  1.
    10030    2    1    2    0    0  0.00000000000E+00  0.00000000000E+00  0.14682020163E+04  0.24838168638E+04  0.20034293230E+04 0.  0.
        4    1    3    3  502    0  0.30783212250E+02 -0.99217458373E+03  0.56743142949E+03  0.11433888450E+04  0.12699999809E+01 0. -1.
       -4    1    3    3    0  502 -0.30783212250E+02  0.99217458373E+03  0.90077058681E+03  0.13404280188E+04  0.12699999809E+01 0.  1.
</event>
<event>
 5   0  0.3460648E-04  0.2020790E+04  0.7818609E-02  0.8596962E-01
       -2   -1    0    0    0  501  0.00000000000E+00  0.00000000000E+00  0.91653846894E+03  0.91653846894E+03  0.25500000920E-02 0.  1.
        2   -1    0    0  501    0  0.00000000000E+00  0.00000000000E+00 -0.11138624807E+04  0.11138624807E+04  0.25500000920E-02 0. -1.
    10030    2    1    2    0    0  0.00000000000E+00  0.00000000000E+00 -0.19732401176E+03  0.20304009497E+04  0.20207897592E+04 0.  0.
        5    1    3    3  502    0 -0.88282567122E+03  0.19471138924E+03  0.35468463046E+03  0.97114209462E+03  0.46999998093E+01 0.  1.
       -5    1    3    3    0  502  0.88282567122E+03 -0.19471138924E+03 -0.55200864222E+03  0.10592588550E+04  0.46999998093E+01 0. -1.
</event>
<event>
 5   0  0.1664168E-04  0.1975584E+04  0.7818609E-02  0.8618122E-01
       -1   -1    0    0    0  501  0.00000000000E+00  0.00000000000E+00  0.38341565476E+03  0.38341565479E+03  0.50400001928E-02 0. -1.
        1   -1    0    0  501    0  0.00000000000E+00  0.00000000000E+00 -0.25448445948E+04  0.25448445948E+04  0.50400001928E-02 0.  1.
    10030    2    1    2    0    0  0.00000000000E+00  0.00000000000E+00 -0.21614289401E+04  0.29282602496E+04  0.19755842241E+04 0.  0.
        5    1    3    3  502    0 -0.41211964462E+03 -0.77199860486E+03 -0.17597720512E+04  0.19653610889E+04  0.46999998093E+01 0.  1.
       -5    1    3    3    0  502  0.41211964462E+03  0.77199860486E+03 -0.40165688881E+03  0.96289916072E+03  0.46999998093E+01 0. -1.
</event>
<event>
 5   0  0.3431030E-04  0.2035203E+04  0.7818609E-02  0.8590337E-01
        2   -1    0    0  501    0  0.00000000000E+00  0.00000000000E+00  0.24872944758E+04  0.24872944758E+04  0.25500000920E-02 0.  1.
       -2   -1    0    0    0  501  0.00000000000E+00  0.00000000000E+00 -0.41632098506E+03  0.41632098507E+03  0.25500000920E-02 0. -1.
    10030    2    1    2    0    0  0.00000000000E+00  0.00000000000E+00  0.20709734907E+04  0.29036154609E+04  0.20352030723E+04 0.  0.
        3    1    3    3  502    0  0.43471216239E+03  0.90297835914E+03  0.78361011602E+03  0.12721593475E+04  0.10100000352E+00 0. -1.
       -3    1    3    3    0  502 -0.43471216239E+03 -0.90297835914E+03  0.12873633747E+04  0.16314561134E+04  0.10100000352E+00 0.  1.
</event>
<event>
 5   0  0.3387881E-04  0.1898122E+04  0.7818609E-02  0.8655792E-01
       -2   -1    0    0    0  501  0.00000000000E+00  0.00000000000E+00  0.12608985410E+04  0.12608985410E+04  0.25500000920E-02 0.  1.
        2   -1    0    0  501    0  0.00000000000E+00  0.00000000000E+00 -0.71434511997E+03  0.71434511997E+03  0.25500000920E-02 0. -1.
    10030    2    1    2    0    0  0.00000000000E+00  0.00000000000E+00  0.54655342104E+03  0.19752436610E+04  0.18981219345E+04 0.  0.
        1    1    3    3  502    0  0.17488963011E+03  0.43111213753E+03 -0.58754094025E+03  0.74943206119E+03  0.50400001928E-02 0. -1.
       -1    1    3    3    0  502 -0.17488963011E+03 -0.43111213753E+03  0.11340943613E+04  0.12258115998E+04  0.50400001928E-02 0.  1.
</event>
<event>
 5   0  0.3395569E-04  0.1916347E+04  0.7818609E-02  0.8646762E-01
       -2   -1    0    0    0  501  0.00000000000E+00  0.00000000000E+00  0.97940715202E+03  0.97940715202E+03  0.25500000920E-02 0. -1.
        2   -1    0    0  501    0  0.00000000000E+00  0.00000000000E+00 -0.93740027228E+03  0.93740027228E+03  0.25500000920E-02 0.  1.
    10030    2    1    2    0    0  0.00000000000E+00  0.00000000000E+00  0.42006879737E+02  0.19168074243E+04  0.19163470781E+04 0.  0.
        4    1    3    3  502    0 -0.61192115365E+03  0.25814909920E+03 -0.66981901453E+03  0.94326432183E+03  0.12699999809E+01 0.  1.
       -4    1    3    3    0  502  0.61192115365E+03 -0.25814909920E+03  0.71182589427E+03  0.97354310247E+03  0.12699999809E+01 0. -1.
</event>
<event>
 5   0  0.3387881E-04  0.1993630E+04  0.7818609E-02  0.8609605E-01
        2   -1    0    0  501    0  0.00000000000E+00  0.00000000000E+00  0.20459192701E+04  0.20459192701E+04  0.25500000920E-02 0. -1.
       -2   -1    0    0    0  501  0.00000000000E+00  0.00000000000E+00 -0.48566940751E+03  0.48566940752E+03  0.25500000920E-02 0.  1.
    10030    2    1    2    0    0  0.00000000000E+00  0.00000000000E+00  0.15602498626E+04  0.25315886777E+04  0.19936302563E+04 0.  0.
        1    1    3    3  502    0  0.16665003756E+02  0.99652391173E+03  0.80222051479E+03  0.12794121241E+04  0.50400001928E-02 0. -1.
       -1    1    3    3    0  502 -0.16665003756E+02 -0.99652391173E+03  0.75802934784E+03  0.12521765535E+04  0.50400001928E-02 0.  1.
</event>
<event>
 5   0  0.3431030E-04  0.1912998E+04  0.7818609E-02  0.8648413E-01
        2   -1    0    0  501    0  0.00000000000E+00  0.00000000000E+00  0.17111438193E+04  0.17111438193E+04  0.25500000920E-02 0. -1.
       -2   -1    0    0    0  501  0.00000000000E+00  0.00000000000E+00 -0.53466618743E+03  0.53466618744E+03  0.25500000920E-02 0.  1.
    10030    2    1    2    0    0  0.00000000000E+00  0.00000000000E+00  0.11764776319E+04  0.22458100067E+04  0.19129984234E+04 0.  0.
        3    1    3    3  502    0 -0.32373285377E+03  0.52773448832E+03  0.14441809082E+04  0.15712941025E+04  0.10100000352E+00 0. -1.
       -3    1    3    3    0  502  0.32373285377E+03 -0.52773448832E+03 -0.26770327630E+03  0.67451590427E+03  0.10100000352E+00 0.  1.
</event>
<event>
 5   0  0.3371947E-04  0.1895074E+04  0.7818609E-02  0.8657312E-01
       -2   -1    0    0    0  501  0.00000000000E+00  0.00000000000E+00  0.65774838865E+03  0.65774838866E+03  0.25500000920E-02 0.  1.
        2   -1    0    0  501    0  0.00000000000E+00  0.00000000000E+00 -0.13650001611E+04  0.13650001611E+04  0.25500000920E-02 0. -1.
    10030    2    1    2    0    0  0.00000000000E+00  0.00000000000E+00 -0.70725177241E+03  0.20227485497E+04  0.18950743061E+04 0.  0.
        2    1    3    3  502    0 -0.74952752396E+03  0.44872526318E+03  0.38087556094E+02  0.87441210703E+03  0.25500000920E-02 0.  1.
       -2    1    3    3    0  502  0.74952752396E+03 -0.44872526318E+03 -0.74533932850E+03  0.11483364427E+04  0.25500000920E-02 0. -1.
</event>
<event>
 5   0  0.3387881E-04  0.2057540E+04  0.7818609E-02  0.8580181E-01
        2   -1    0    0  501    0  0.00000000000E+00  0.00000000000E+00  0.10272496658E+04  0.10272496658E+04  0.25500000920E-02 0.  1.
       -2   -1    0    0    0  501  0.00000000000E+00  0.00000000000E+00 -0.10302929314E+04  0.10302929314E+04  0.25500000920E-02 0. -1.
    10030    2    1    2    0    0  0.00000000000E+00  0.00000000000E+00 -0.30432656817E+01  0.20575425972E+04  0.20575403466E+04 0.  0.
        1    1    3    3  502    0  0.37204273314E+01 -0.97962276979E+03  0.31263385841E+03  0.10283066382E+04  0.50400001928E-02 0.  1.
       -1    1    3    3    0  502 -0.37204273314E+01  0.97962276979E+03 -0.31567712409E+03  0.10292359590E+04  0.50400001928E-02 0. -1.
</event>
<event>
 5   0  0.3371947E-04  0.1187778E+04  0.7818609E-02  0.9123623E-01
        2   -1    0    0  501    0  0.00000000000E+00  0.00000000000E+00  0.57608649789E+03  0.57608649790E+03  0.25500000920E-02 0.  1.
       -2   -1    0    0    0  501  0.00000000000E+00  0.00000000000E+00 -0.61224121292E+03  0.61224121293E+03  0.25500000920E-02 0. -1.
    10030    2    1    2    0    0  0.00000000000E+00  0.00000000000E+00 -0.36154715027E+02  0.11883277108E+04  0.11877775823E+04 0.  0.
        2    1    3    3  502    0  0.56508546273E+03  0.14133440972E+03 -0.13391915721E+03  0.59768832700E+03  0.25500000920E-02 0. -1.
       -2    1    3    3    0  502 -0.56508546273E+03 -0.14133440972E+03  0.97764442179E+02  0.59063938382E+03  0.25500000920E-02 0.  1.
</event>
<event>
 5   0  0.1650221E-04  0.1213751E+04  0.7818609E-02  0.9100905E-01
        1   -1    0    0  501    0  0.00000000000E+00  0.00000000000E+00  0.81521303940E+03  0.81521303941E+03  0.50400001928E-02 0. -1.
       -1   -1    0    0    0  501  0.00000000000E+00  0.00000000000E+00 -0.45178077783E+03  0.45178077785E+03  0.50400001928E-02 0.  1.
    10030    2    1    2    0    0  0.00000000000E+00  0.00000000000E+00  0.36343226157E+03  0.12669938173E+04  0.12137505198E+04 0.  0.
        1    1    3    3  502    0 -0.12272034396E+03  0.43403805319E+03  0.60554180262E+03  0.75506965850E+03  0.50400001928E-02 0. -1.
       -1    1    3    3    0  502  0.12272034396E+03 -0.43403805319E+03 -0.24210954104E+03  0.51192415877E+03  0.50400001928E-02 0.  1.
</event>
<event>
 5   0  0.1643565E-04  0.1998665E+04  0.7818609E-02  0.8607245E-01
        1   -1    0    0  501    0  0.00000000000E+00  0.00000000000E+00  0.22254523944E+04  0.22254523945E+04  0.50400001928E-02 0. -1.
       -1   -1    0    0    0  501  0.00000000000E+00  0.00000000000E+00 -0.44874729023E+03  0.44874729026E+03  0.50400001928E-02 0.  1.
    10030    2    1    2    0    0  0.00000000000E+00  0.00000000000E+00  0.17767051042E+04  0.26741996847E+04  0.19986652862E+04 0.  0.
        2    1    3    3  502    0  0.28855522985E+03  0.89320785384E+03  0.42955301845E+03  0.10322791224E+04  0.25500000920E-02 0.  1.
       -2    1    3    3    0  502 -0.28855522985E+03 -0.89320785384E+03  0.13471520858E+04  0.16419205623E+04  0.25500000920E-02 0. -1.
</event>
<event>
 5   0  0.1696052E-04  0.2142660E+04  0.7818609E-02  0.8542681E-01
       -1   -1    0    0    0  501  0.00000000000E+00  0.00000000000E+00  0.52183856450E+03  0.52183856453E+03  0.50400001928E-02 0. -1.
        1   -1    0    0  501    0  0.00000000000E+00  0.00000000000E+00 -0.21994308223E+04  0.21994308223E+04  0.50400001928E-02 0.  1.
    10030    2    1    2    0    0  0.00000000000E+00  0.00000000000E+00 -0.16775922578E+04  0.27212693868E+04  0.21426598639E+04 0.  0.
        4    1    3    3  502    0 -0.63959133441E+03  0.83367705790E+03 -0.57344626225E+03  0.11970533574E+04  0.12699999809E+01 0.  1.
       -4    1    3    3    0  502  0.63959133441E+03 -0.83367705790E+03 -0.11041459955E+04  0.15242160294E+04  0.12699999809E+01 0. -1.
</event>
<event>
 5   0  0.1664168E-04  0.2116359E+04  0.7818609E-02  0.8554071E-01
        1   -1    0    0  501    0  0.00000000000E+00  0.00000000000E+00  0.15595720235E+04  0.15595720236E+04  0.50400001928E-02 0.  1.
       -1   -1    0    0    0  501  0.00000000000E+00  0.00000000000E+00 -0.71798133690E+03  0.71798133691E+03  0.50400001928E-02 0. -1.
    10030    2    1    2    0    0  0.00000000000E+00  0.00000000000E+00  0.84159068665E+03  0.22775533605E+04  0.21163587659E+04 0.  0.
        5    1    3    3  502    0 -0.72667534653E+03  0.21279839200E+03 -0.37468084418E+03  0.84483610238E+03  0.46999998093E+01 0. -1.
       -5    1    3    3    0  502  0.72667534653E+03 -0.21279839200E+03  0.12162715308E+04  0.14327172581E+04  0.46999998093E+01 0.  1.
</event>
<event>
 5   0  0.3431030E-04  0.1979406E+04  0.7818609E-02  0.8616310E-01
       -2   -1    0    0    0  501  0.00000000000E+00  0.00000000000E+00  0.14841325278E+04  0.14841325278E+04  0.25500000920E-02 0.  1.
        2   -1    0    0  501    0  0.00000000000E+00  0.00000000000E+00 -0.65998985663E+03  0.65998985663E+03  0.25500000920E-02 0. -1.
    10030    2    1    2    0    0  0.00000000000E+00  0.00000000000E+00  0.82414267120E+03  0.21441223845E+04  0.19794063901E+04 0.  0.
        3    1    3    3  502    0 -0.66431767373E+03 -0.41904914068E+03 -0.24019334353E+03  0.82134828569E+03  0.10100000352E+00 0.  1.
       -3    1    3    3    0  502  0.66431767373E+03  0.41904914068E+03  0.10643360147E+04  0.13227740988E+04  0.10100000352E+00 0. -1.
</event>
<event>
 5   0  0.3431030E-04  0.1921359E+04  0.7818609E-02  0.8644297E-01
        2   -1    0    0  501    0  0.00000000000E+00  0.00000000000E+00  0.19715803276E+04  0.19715803276E+04  0.25500000920E-02 0.  1.
       -2   -1    0    0    0  501  0.00000000000E+00  0.00000000000E+00 -0.46810441036E+03  0.46810441037E+03  0.25500000920E-02 0. -1.
    10030    2    1    2    0    0  0.00000000000E+00  0.00000000000E+00  0.15034759172E+04  0.24396847380E+04  0.19213593591E+04 0.  0.
        3    1    3    3  502    0 -0.69665709310E+03  0.65237079461E+03  0.61271884352E+03  0.11341706884E+04  0.10100000352E+00 0. -1.
       -3    1    3    3    0  502  0.69665709310E+03 -0.65237079461E+03  0.89075707371E+03  0.13055140496E+04  0.10100000352E+00 0.  1.
</event>
<event>
 5   0  0.1708578E-04  0.1905445E+04  0.7818609E-02  0.8652151E-01
        1   -1    0    0  501    0  0.00000000000E+00  0.00000000000E+00  0.14693183134E+04  0.14693183134E+04  0.50400001928E-02 0. -1.
       -1   -1    0    0    0  501  0.00000000000E+00  0.00000000000E+00 -0.61775626797E+03  0.61775626799E+03  0.50400001928E-02 0.  1.
    10030    2    1    2    0    0  0.00000000000E+00  0.00000000000E+00  0.85156204544E+03  0.20870745814E+04  0.19054454574E+04 0.  0.
        3    1    3    3  502    0 -0.29052509878E+03  0.88408914882E+03  0.20221171102E+03  0.95231719629E+03  0.10100000352E+00 0. -1.
       -3    1    3    3    0  502  0.29052509878E+03 -0.88408914882E+03  0.64935033442E+03  0.11347573851E+04  0.10100000352E+00 0.  1.
</event>
<event>
 5   0  0.1696052E-04  0.1993176E+04  0.7818609E-02  0.8609818E-01
        1   -1    0    0  501    0  0.00000000000E+00  0.00000000000E+00  0.16172816449E+04  0.16172816449E+04  0.50400001928E-02 0.  1.
       -1   -1    0    0    0  501  0.00000000000E+00  0.00000000000E+00 -0.61410934865E+03  0.61410934867E+03  0.50400001928E-02 0. -1.
    10030    2    1    2    0    0  0.00000000000E+00  0.00000000000E+00  0.10031722963E+04  0.22313909936E+04  0.19931761363E+04 0.  0.
        4    1    3    3  502    0  0.40567746828E+03 -0.46472843012E+03 -0.37467281619E+03  0.72175345800E+03  0.12699999809E+01 0. -1.
       -4    1    3    3    0  502 -0.40567746828E+03  0.46472843012E+03  0.13778451124E+04  0.15096375356E+04  0.12699999809E+01 0.  1.
</event>
<event>
 5   0  0.1664168E-04  0.2056371E+04  0.7818609E-02  0.8580710E-01
       -1   -1    0    0    0  501  0.00000000000E+00  0.00000000000E+00  0.95010208938E+03  0.95010208939E+03  0.50400001928E-02 0. -1.
        1   -1    0    0  501    0  0.00000000000E+00  0.00000000000E+00 -0.11126862947E+04  0.11126862947E+04  0.50400001928E-02 0.  1.
    10030    2    1    2    0    0  0.00000000000E+00  0.00000000000E+00 -0.16258420529E+03  0.20627883841E+04  0.20563711469E+04 0.  0.
        5    1    3    3  502    0 -0.10183839392E+04 -0.12303060077E+03 -0.15151848120E+03  0.10369292726E+04  0.46999998093E+01 0. -1.
       -5    1    3    3    0  502  0.10183839392E+04  0.12303060077E+03 -0.11065724087E+02  0.10258591114E+04  0.46999998093E+01 0.  1.
</event>
<event>
 5   0  0.3395569E-04  0.1996474E+04  0.7818609E-02  0.8608271E-01
        2   -1    0    0  501    0  0.00000000000E+00  0.00000000000E+00  0.26343937158E+04  0.26343937158E+04  0.25500000920E-02 0.  1.
       -2   -1    0    0    0  501  0.00000000000E+00  0.00000000000E+00 -0.37825681844E+03  0.37825681845E+03  0.25500000920E-02 0. -1.
    10030    2    1    2    0    0  0.00000000000E+00  0.00000000000E+00  0.22561368974E+04  0.30126505343E+04  0.19964742778E+04 0.  0.
        4    1    3    3  502    0 -0.52898001758E+03  0.60910844188E+02  0.24021971231E+04  0.24605045460E+04  0.12699999809E+01 0.  1.
       -4    1    3    3    0  502  0.52898001758E+03 -0.60910844188E+02 -0.14606022568E+03  0.55214598827E+03  0.12699999809E+01 0. -1.
</event>
<event>
 5   0  0.3395569E-04  0.1985826E+04  0.7818609E-02  0.8613276E-01
       -2   -1    0    0    0  501  0.00000000000E+00  0.00000000000E+00  0.59548080356E+03  0.59548080356E+03  0.25500000920E-02 0.  1.
        2   -1    0    0  501    0  0.00000000000E+00  0.00000000000E+00 -0.16555969191E+04  0.16555969191E+04  0.25500000920E-02 0. -1.
    10030    2    1    2    0    0  0.00000000000E+00  0.00000000000E+00 -0.10601161155E+04  0.22510777226E+04  0.19858259579E+04 0.  0.
        4    1    3    3  502    0 -0.67292069144E+03  0.25955082048E+03 -0.13036211682E+04  0.14898384639E+04  0.12699999809E+01 0. -1.
       -4    1    3    3    0  502  0.67292069144E+03 -0.25955082048E+03  0.24350505273E+03  0.76123925871E+03  0.12699999809E+01 0.  1.
</event>
<event>
 5   0  0.3431030E-04  0.1977826E+04  0.7818609E-02  0.8617058E-01
       -2   -1    0    0    0  501  0.00000000000E+00  0.00000000000E+00  0.84774722584E+03  0.84774722585E+03  0.25500000920E-02 0. -1.
        2   -1    0    0  501    0  0.00000000000E+00  0.00000000000E+00 -0.11535858695E+04  0.11535858695E+04  0.25500000920E-02 0.  1.
    10030    2    1    2    0    0  0.00000000000E+00  0.00000000000E+00 -0.30583864369E+03  0.20013330954E+04  0.19778263025E+04 0.  0.
        3    1    3    3  502    0  0.38151985295E+03 -0.63902030293E+03  0.50600741982E+03  0.89997103557E+03  0.10100000352E+00 0. -1.
       -3    1    3    3    0  502 -0.38151985295E+03  0.63902030293E+03 -0.81184606352E+03  0.11013620598E+04  0.10100000352E+00 0.  1.
</event>
<event>
 5   0  0.1650221E-04  0.2002407E+04  0.7818609E-02  0.8605496E-01
       -1   -1    0    0    0  501  0.00000000000E+00  0.00000000000E+00  0.40940893051E+03  0.40940893054E+03  0.50400001928E-02 0. -1.
        1   -1    0    0  501    0  0.00000000000E+00  0.00000000000E+00 -0.24484278169E+04  0.24484278169E+04  0.50400001928E-02 0.  1.
    10030    2    1    2    0    0  0.00000000000E+00  0.00000000000E+00 -0.20390188863E+04  0.28578367474E+04  0.20024067659E+04 0.  0.
        1    1    3    3  502    0  0.42268683557E+03 -0.85886193533E+03 -0.60072815774E+03  0.11301249066E+04  0.50400001928E-02 0.  1.
       -1    1    3    3    0  502 -0.42268683557E+03  0.85886193533E+03 -0.14382907286E+04  0.17277118408E+04  0.50400001928E-02 0. -1.
</event>
<event>
 5   0  0.3395569E-04  0.1976155E+04  0.7818609E-02  0.8617851E-01
        2   -1    0    0  501    0  0.00000000000E+00  0.00000000000E+00  0.62120451423E+03  0.62120451423E+03  0.25500000920E-02 0. -1.
       -2   -1    0    0    0  501  0.00000000000E+00  0.00000000000E+00 -0.15716195602E+04  0.15716195602E+04  0.25500000920E-02 0.  1.
    10030    2    1    2    0    0  0.00000000000E+00  0.00000000000E+00 -0.95041504595E+03  0.21928240744E+04  0.19761550197E+04 0.  0.
        4    1    3    3  502    0  0.63106948385E+03 -0.30198356590E+03  0.29904318306E+03  0.76083585992E+03  0.12699999809E+01 0. -1.
       -4    1    3    3    0  502 -0.63106948385E+03  0.30198356590E+03 -0.12494582290E+04  0.14319882145E+04  0.12699999809E+01 0.  1.
</event>
<event>
 5   0  0.1696052E-04  0.1991471E+04  0.7818609E-02  0.8610619E-01
        1   -1    0    0  501    0  0.00000000000E+00  0.00000000000E+00  0.89348027139E+03  0.89348027140E+03  0.50400001928E-02 0.  1.
       -1   -1    0    0    0  501  0.00000000000E+00  0.00000000000E+00 -0.11096928937E+04  0.11096928937E+04  0.50400001928E-02 0. -1.
    10030    2    1    2    0    0  0.00000000000E+00  0.00000000000E+00 -0.21621262235E+03  0.20031731651E+04  0.19914705199E+04 0.  0.
        4    1    3    3  502    0 -0.56882174971E+03 -0.55265468626E+03  0.49751289763E+03  0.93621903495E+03  0.12699999809E+01 0.  1.
       -4    1    3    3    0  502  0.56882174971E+03  0.55265468626E+03 -0.71372551997E+03  0.10669541302E+04  0.12699999809E+01 0. -1.
</event>
<event>
 5   0  0.3387881E-04  0.1993934E+04  0.7818609E-02  0.8609462E-01
        2   -1    0    0  501    0  0.00000000000E+00  0.00000000000E+00  0.11850279714E+04  0.11850279714E+04  0.25500000920E-02 0.  1.
       -2   -1    0    0    0  501  0.00000000000E+00  0.00000000000E+00 -0.83875090038E+03  0.83875090039E+03  0.25500000920E-02 0. -1.
    10030    2    1    2    0    0  0.00000000000E+00  0.00000000000E+00  0.34627707099E+03  0.20237788718E+04  0.19939340791E+04 0.  0.
        1    1    3    3  502    0  0.16784513009E+03 -0.57118181840E+03 -0.63853281449E+03  0.87300905641E+03  0.50400001928E-02 0. -1.
       -1    1    3    3    0  502 -0.16784513009E+03  0.57118181840E+03  0.98480988548E+03  0.11507698154E+04  0.50400001928E-02 0.  1.
</event>
<event>
 5   0  0.3460648E-04  0.2017891E+04  0.7818609E-02  0.8598302E-01
       -2   -1    0    0    0  501  0.00000000000E+00  0.00000000000E+00  0.74049904821E+03  0.74049904822E+03  0.25500000920E-02 0. -1.
        2   -1    0    0  501    0  0.00000000000E+00  0.00000000000E+00 -0.13747088339E+04  0.13747088339E+04  0.25500000920E-02 0.  1.
    10030    2    1    2    0    0  0.00000000000E+00  0.00000000000E+00 -0.63420978569E+03  0.21152078821E+04  0.20178905650E+04 0.  0.
        5    1    3    3  502    0  0.86550667204E+03  0.19321382809E+03  0.18726031129E+03  0.90637845125E+03  0.46999998093E+01 0.  1.
       -5    1    3    3    0  502 -0.86550667204E+03 -0.19321382809E+03 -0.82147009699E+03  0.12088294309E+04  0.46999998093E+01 0. -1.
</event>
<event>
 5   0  0.1650221E-04  0.1905738E+04  0.7818609E-02  0.8652005E-01
        1   -1    0    0  501    0  0.00000000000E+00  0.00000000000E+00  0.11536744877E+04  0.11536744877E+04  0.50400001928E-02 0.  1.
       -1   -1    0    0    0  501  0.00000000000E+00  0.00000000000E+00 -0.78701542727E+03  0.78701542728E+03  0.50400001928E-02 0. -1.
    10030    2    1    2    0    0  0.00000000000E+00  0.00000000000E+00  0.36665906040E+03  0.19406899150E+04  0.19057383030E+04 0.  0.
        1    1    3    3  502    0  0.71646202733E+01  0.43635518714E+03  0.10459198437E+04  0.11333161521E+04  0.50400001928E-02 0.  1.
       -1    1    3    3    0  502 -0.71646202733E+01 -0.43635518714E+03 -0.67926078333E+03  0.80737376284E+03  0.50400001928E-02 0. -1.
</event>
<event>
 5   0  0.1650221E-04  0.1764202E+04  0.7818609E-02  0.8725571E-01
        1   -1    0    0  501    0  0.00000000000E+00  0.00000000000E+00  0.10105199431E+04  0.10105199431E+04  0.50400001928E-02 0.  1.
       -1   -1    0    0    0  501  0.00000000000E+00  0.00000000000E+00 -0.77000188907E+03  0.77000188908E+03  0.50400001928E-02 0. -1.
    10030    2    1    2    0    0  0.00000000000E+00  0.00000000000E+00  0.24051805399E+03  0.17805218322E+04  0.17642021031E+04 0.  0.
        1    1    3    3  502    0 -0.41509239640E+03  0.76533472181E+03  0.26321440169E+03  0.90957174277E+03  0.50400001928E-02 0.  1.
       -1    1    3    3    0  502  0.41509239640E+03 -0.76533472181E+03 -0.22696347703E+02  0.87095008938E+03  0.50400001928E-02 0. -1.
</event>
<event>
 5   0  0.1696052E-04  0.1983715E+04  0.7818609E-02  0.8614272E-01
       -1   -1    0    0    0  501  0.00000000000E+00  0.00000000000E+00  0.10247647495E+04  0.10247647495E+04  0.50400001928E-02 0.  1.
        1   -1    0    0  501    0  0.00000000000E+00  0.00000000000E+00 -0.96000715323E+03  0.96000715324E+03  0.50400001928E-02 0. -1.
    10030    2    1    2    0    0  0.00000000000E+00  0.00000000000E+00  0.64757596286E+02  0.19847719028E+04  0.19837151912E+04 0.  0.
        4    1    3    3  502    0  0.67140748943E+03 -0.63365871662E+03  0.39515778468E+03  0.10042224224E+04  0.12699999809E+01 0.  1.
       -4    1    3    3    0  502 -0.67140748943E+03  0.63365871662E+03 -0.33040018839E+03  0.98054948035E+03  0.12699999809E+01 0. -1.
</event>
<event>
 5   0  0.3395569E-04  0.1979459E+04  0.7818609E-02  0.8616285E-01
       -2   -1    0    0    0  501  0.00000000000E+00  0.00000000000E+00  0.37995391039E+03  0.37995391040E+03  0.25500000920E-02 0. -1.
        2   -1    0    0  501    0  0.00000000000E+00  0.00000000000E+00 -0.25781135448E+04  0.25781135448E+04  0.25500000920E-02 0.  1.
    10030    2    1    2    0    0  0.00000000000E+00  0.00000000000E+00 -0.21981596344E+04  0.29580674552E+04  0.19794588380E+04 0.  0.
        4    1    3    3  502    0  0.47618869575E+03  0.86763808567E+03 -0.10940812863E+04  0.14753192860E+04  0.12699999809E+01 0. -1.
       -4    1    3    3    0  502 -0.47618869575E+03 -0.86763808567E+03 -0.11040783481E+04  0.14827481692E+04  0.12699999809E+01 0.  1.
</event>
<event>
 5   0  0.1650221E-04  0.2133951E+04  0.7818609E-02  0.8546433E-01
       -1   -1    0    0    0  501  0.00000000000E+00  0.00000000000E+00  0.86562461814E+03  0.86562461815E+03  0.50400001928E-02 0. -1.
        1   -1    0    0  501    0  0.00000000000E+00  0.00000000000E+00 -0.13151623091E+04  0.13151623091E+04  0.50400001928E-02 0.  1.
    10030    2    1    2    0    0  0.00000000000E+00  0.00000000000E+00 -0.44953769097E+03  0.21807869273E+04  0.21339511444E+04 0.  0.
        1    1    3    3  502    0  0.18529499076E+03 -0.98380887739E+03  0.15241540816E+03  0.10126423838E+04  0.50400001928E-02 0. -1.
       -1    1    3    3    0  502 -0.18529499076E+03  0.98380887739E+03 -0.60195309913E+03  0.11681445435E+04  0.50400001928E-02 0.  1.
</event>
<event>
 5   0  0.3387881E-04  0.1972003E+04  0.7818609E-02  0.8619823E-01
       -2   -1    0    0    0  501  0.00000000000E+00  0.00000000000E+00  0.51067323951E+03  0.51067323951E+03  0.25500000920E-02 0.  1.
        2   -1    0    0  501    0  0.00000000000E+00  0.00000000000E+00 -0.19037601183E+04  0.19037601183E+04  0.25500000920E-02 0. -1.
    10030    2    1    2    0    0  0.00000000000E+00  0.00000000000E+00 -0.13930868788E+04  0.24144333578E+04  0.19720033944E+04 0.  0.
        1    1    3    3  502    0 -0.80308689700E+03  0.52923325611E+03 -0.96243711941E+03  0.13606327985E+04  0.50400001928E-02 0.  1.
       -1    1    3    3    0  502  0.80308689700E+03 -0.52923325611E+03 -0.43064975937E+03  0.10538005593E+04  0.50400001928E-02 0. -1.
</event>
<event>
 5   0  0.1222488E-04  0.1269168E+04  0.7818609E-02  0.9054379E-01
        3   -1    0    0  501    0  0.00000000000E+00  0.00000000000E+00  0.87918790949E+03  0.87918791529E+03  0.10100000352E+00 0. -1.
       -3   -1    0    0    0  501  0.00000000000E+00  0.00000000000E+00 -0.45803239556E+03  0.45803240669E+03  0.10100000352E+00 0.  1.
    10030    2    1    2    0    0  0.00000000000E+00  0.00000000000E+00  0.42115551394E+03  0.13372203220E+04  0.12691675313E+04 0.  0.
        2    1    3    3  502    0  0.57963340055E+03  0.18983348982E+03  0.39514156065E+03  0.72673825127E+03  0.25500000920E-02 0. -1.
       -2    1    3    3    0  502 -0.57963340055E+03 -0.18983348982E+03  0.26013953287E+02  0.61048207072E+03  0.25500000920E-02 0.  1.
</event>
<event>
 5   0  0.3431030E-04  0.2017171E+04  0.7818609E-02  0.8598634E-01
       -2   -1    0    0    0  501  0.00000000000E+00  0.00000000000E+00  0.69438774737E+03  0.69438774737E+03  0.25500000920E-02 0.  1.
        2   -1    0    0  501    0  0.00000000000E+00  0.00000000000E+00 -0.14649519743E+04  0.14649519744E+04  0.25500000920E-02 0. -1.
    10030    2    1    2    0    0  0.00000000000E+00  0.00000000000E+00 -0.77056422698E+03  0.21593397217E+04  0.20171709907E+04 0.  0.
        3    1    3    3  502    0 -0.11905313307E+03 -0.17738608337E+03  0.66988969559E+03  0.70312992080E+03  0.10100000352E+00 0.  1.
       -3    1    3    3    0  502  0.11905313307E+03  0.17738608337E+03 -0.14404539226E+04  0.14562098009E+04  0.10100000352E+00 0. -1.
</event>
<event>
 5   0  0.1650221E-04  0.1530160E+04  0.7818609E-02  0.8864641E-01
        1   -1    0    0  501    0  0.00000000000E+00  0.00000000000E+00  0.65276767056E+03  0.65276767058E+03  0.50400001928E-02 0. -1.
       -1   -1    0    0    0  501  0.00000000000E+00  0.00000000000E+00 -0.89671680349E+03  0.89671680350E+03  0.50400001928E-02 0.  1.
    10030    2    1    2    0    0  0.00000000000E+00  0.00000000000E+00 -0.24394913293E+03  0.15494844741E+04  0.15301604347E+04 0.  0.
        1    1    3    3  502    0  0.38874891445E+03 -0.29129206781E+03  0.47656609213E+03  0.68050865347E+03  0.50400001928E-02 0. -1.
       -1    1    3    3    0  502 -0.38874891445E+03  0.29129206781E+03 -0.72051522506E+03  0.86897582062E+03  0.50400001928E-02 0.  1.
</event>
<event>
 5   0  0.1222488E-04  0.1508493E+04  0.7818609E-02  0.8878825E-01
       -3   -1    0    0    0  501  0.00000000000E+00  0.00000000000E+00  0.14361992918E+04  0.14361992953E+04  0.10100000352E+00 0.  1.
        3   -1    0    0  501    0  0.00000000000E+00  0.00000000000E+00 -0.39610632283E+03  0.39610633570E+03  0.10100000352E+00 0. -1.
    10030    2    1    2    0    0  0.00000000000E+00  0.00000000000E+00  0.10400929689E+04  0.18323056310E+04  0.15084928046E+04 0.  0.
        2    1    3    3  502    0 -0.19661007160E+03 -0.25742407449E+03 -0.30731874427E+03  0.44650586219E+03  0.25500000920E-02 0. -1.
       -2    1    3    3    0  502  0.19661007160E+03  0.25742407449E+03  0.13474117132E+04  0.13857997688E+04  0.25500000920E-02 0.  1.
</event>
<event>
 5   0  0.3460648E-04  0.1985807E+04  0.7818609E-02  0.8613285E-01
        2   -1    0    0  501    0  0.00000000000E+00  0.00000000000E+00  0.12772166019E+04  0.12772166019E+04  0.25500000920E-02 0. -1.
       -2   -1    0    0    0  501  0.00000000000E+00  0.00000000000E+00 -0.77187973004E+03  0.77187973005E+03  0.25500000920E-02 0.  1.
    10030    2    1    2    0    0  0.00000000000E+00  0.00000000000E+00  0.50533687183E+03  0.20490963319E+04  0.19858072473E+04 0.  0.
        5    1    3    3  502    0  0.88725763900E+03  0.20366572840E+03  0.66169770145E+03  0.11254207147E+04  0.46999998093E+01 0. -1.
       -5    1    3    3    0  502 -0.88725763900E+03 -0.20366572840E+03 -0.15636082962E+03  0.92367561726E+03  0.46999998093E+01 0.  1.
</event>
<event>
 5   0  0.1650221E-04  0.1943140E+04  0.7818609E-02  0.8633676E-01
       -1   -1    0    0    0  501  0.00000000000E+00  0.00000000000E+00  0.82990754293E+03  0.82990754294E+03  0.50400001928E-02 0. -1.
        1   -1    0    0  501    0  0.00000000000E+00  0.00000000000E+00 -0.11374136560E+04  0.11374136560E+04  0.50400001928E-02 0.  1.
    10030    2    1    2    0    0  0.00000000000E+00  0.00000000000E+00 -0.30750611306E+03  0.19673211989E+04  0.19431399050E+04 0.  0.
        1    1    3    3  502    0  0.69208676808E+03  0.24761352571E+02 -0.84366612552E+03  0.10914988550E+04  0.50400001928E-02 0.  1.
       -1    1    3    3    0  502 -0.69208676808E+03 -0.24761352571E+02  0.53616001246E+03  0.87582234392E+03  0.50400001928E-02 0. -1.
</event>
<event>
 5   0  0.1664168E-04  0.1949662E+04  0.7818609E-02  0.8630524E-01
       -1   -1    0    0    0  501  0.00000000000E+00  0.00000000000E+00  0.86214729714E+03  0.86214729716E+03  0.50400001928E-02 0.  1.
        1   -1    0    0  501    0  0.00000000000E+00  0.00000000000E+00 -0.11022427373E+04  0.11022427373E+04  0.50400001928E-02 0. -1.
    10030    2    1    2    0    0  0.00000000000E+00  0.00000000000E+00 -0.24009544015E+03  0.19643900345E+04  0.19496621213E+04 0.  0.
        5    1    3    3  502    0 -0.25311864181E+03  0.58356054977E+03  0.62422147162E+03  0.89122752298E+03  0.46999998093E+01 0.  1.
       -5    1    3    3    0  502  0.25311864181E+03 -0.58356054977E+03 -0.86431691177E+03  0.10731625115E+04  0.46999998093E+01 0. -1.
</event>
<event>
 5   0  0.1708578E-04  0.2078265E+04  0.7818609E-02  0.8570879E-01
        1   -1    0    0  501    0  0.00000000000E+00  0.00000000000E+00  0.58470622837E+03  0.58470622839E+03  0.50400001928E-02 0.  1.
       -1   -1    0    0    0  501  0.00000000000E+00  0.00000000000E+00 -0.18467333145E+04  0.18467333145E+04  0.50400001928E-02 0. -1.
    10030    2    1    2    0    0  0.00000000000E+00  0.00000000000E+00 -0.12620270861E+04  0.24314395429E+04  0.20782651141E+04 0.  0.
        3    1    3    3  502    0 -0.27534266693E+03  0.70832573099E+03  0.19812243108E+03  0.78536070268E+03  0.10100000352E+00 0.  1.
       -3    1    3    3    0  502  0.27534266693E+03 -0.70832573099E+03 -0.14601495172E+04  0.16460788402E+04  0.10100000352E+00 0. -1.
</event>
<event>
 5   0  0.3395569E-04  0.2028779E+04  0.7818609E-02  0.8593283E-01
        2   -1    0    0  501    0  0.00000000000E+00  0.00000000000E+00  0.19418753109E+04  0.19418753109E+04  0.25500000920E-02 0. -1.
       -2   -1    0    0    0  501  0.00000000000E+00  0.00000000000E+00 -0.52989274974E+03  0.52989274974E+03  0.25500000920E-02 0.  1.
    10030    2    1    2    0    0  0.00000000000E+00  0.00000000000E+00  0.14119825612E+04  0.24717680607E+04  0.20287785963E+04 0.  0.
        4    1    3    3  502    0 -0.70385241390E+03 -0.63190434605E+03  0.11524352310E+04  0.14909124379E+04  0.12699999809E+01 0.  1.
       -4    1    3    3    0  502  0.70385241390E+03  0.63190434605E+03  0.25954733020E+03  0.98085562272E+03  0.12699999809E+01 0. -1.
</event>
<event>
 5   0  0.1643565E-04  0.2071894E+04  0.7818609E-02  0.8573726E-01
       -1   -1    0    0    0  501  0.00000000000E+00  0.00000000000E+00  0.45576601649E+03  0.45576601652E+03  0.50400001928E-02 0. -1.
        1   -1    0    0  501    0  0.00000000000E+00  0.00000000000E+00 -0.23546866242E+04  0.23546866242E+04  0.50400001928E-02 0.  1.
    10030    2    1    2    0    0  0.00000000000E+00  0.00000000000E+00 -0.18989206077E+04  0.28104526407E+04  0.20718939576E+04 0.  0.
        2    1    3    3  502    0  0.52002022691E+03  0.25308050560E+03  0.21640214232E+03  0.61749547846E+03  0.25500000920E-02 0. -1.
       -2    1    3    3    0  502 -0.52002022691E+03 -0.25308050560E+03 -0.21153227500E+04  0.21929571622E+04  0.25500000920E-02 0.  1.
</event>
<event>
 5   0  0.1222488E-04  0.1936076E+04  0.7818609E-02  0.8637105E-01
        3   -1    0    0  501    0  0.00000000000E+00  0.00000000000E+00  0.11310578514E+04  0.11310578559E+04  0.10100000352E+00 0.  1.
       -3   -1    0    0    0  501  0.00000000000E+00  0.00000000000E+00 -0.82851401397E+03  0.82851402013E+03  0.10100000352E+00 0. -1.
    10030    2    1    2    0    0  0.00000000000E+00  0.00000000000E+00  0.30254383745E+03  0.19595718761E+04  0.19360757123E+04 0.  0.
        3    1    3    3  502    0 -0.29133442898E+02 -0.61228115603E+03 -0.60706065687E+03  0.86270482950E+03  0.10100000352E+00 0. -1.
       -3    1    3    3    0  502  0.29133442898E+02  0.61228115603E+03  0.90960449433E+03  0.10968670466E+04  0.10100000352E+00 0.  1.
</event>
<event>
 5   0  0.3387881E-04  0.2022260E+04  0.7818609E-02  0.8596284E-01
       -2   -1    0    0    0  501  0.00000000000E+00  0.00000000000E+00  0.99764957305E+03  0.99764957306E+03  0.25500000920E-02 0. -1.
        2   -1    0    0  501    0  0.00000000000E+00  0.00000000000E+00 -0.10247922534E+04  0.10247922534E+04  0.25500000920E-02 0.  1.
    10030    2    1    2    0    0  0.00000000000E+00  0.00000000000E+00 -0.27142680329E+02  0.20224418264E+04  0.20222596807E+04 0.  0.
        1    1    3    3  502    0 -0.36010934572E+03 -0.30955907700E+03 -0.90633197309E+03  0.10232024279E+04  0.50400001928E-02 0.  1.
       -1    1    3    3    0  502  0.36010934572E+03  0.30955907700E+03  0.87918929276E+03  0.99923939852E+03  0.50400001928E-02 0. -1.
</event>
<event>
 5   0  0.3395569E-04  0.1966810E+04  0.7818609E-02  0.8622297E-01
        2   -1    0    0  501    0  0.00000000000E+00  0.00000000000E+00  0.91283130184E+03  0.91283130184E+03  0.25500000920E-02 0. -1.
       -2   -1    0    0    0  501  0.00000000000E+00  0.00000000000E+00 -0.10594345242E+04  0.10594345242E+04  0.25500000920E-02 0.  1.
    10030    2    1    2    0    0  0.00000000000E+00  0.00000000000E+00 -0.14660322238E+03  0.19722658261E+04  0.19668095952E+04 0.  0.
        4    1    3    3  502    0  0.49826207788E+03 -0.81248166015E+03 -0.31623767004E+03  0.10041909296E+04  0.12699999809E+01 0.  1.
       -4    1    3    3    0  502 -0.49826207788E+03  0.81248166015E+03  0.16963444766E+03  0.96807489641E+03  0.12699999809E+01 0. -1.
</event>
<event>
 5   0  0.3395569E-04  0.1993997E+04  0.7818609E-02  0.8609432E-01
       -2   -1    0    0    0  501  0.00000000000E+00  0.00000000000E+00  0.15604682926E+04  0.15604682926E+04  0.25500000920E-02 0. -1.
        2   -1    0    0  501    0  0.00000000000E+00  0.00000000000E+00 -0.63699205437E+03  0.63699205438E+03  0.25500000920E-02 0.  1.
    10030    2    1    2    0    0  0.00000000000E+00  0.00000000000E+00  0.92347623819E+03  0.21974603469E+04  0.19939968942E+04 0.  0.
        4    1    3    3  502    0 -0.44192759386E+03 -0.13406257893E+03  0.14354880174E+04  0.15079457001E+04  0.12699999809E+01 0. -1.
       -4    1    3    3    0  502  0.44192759386E+03  0.13406257893E+03 -0.51201177923E+03  0.68951464688E+03  0.12699999809E+01 0.  1.
</event>
<event>
 5   0  0.3371947E-04  0.2009922E+04  0.7818609E-02  0.8601996E-01
       -2   -1    0    0    0  501  0.00000000000E+00  0.00000000000E+00  0.11826942737E+04  0.11826942737E+04  0.25500000920E-02 0.  1.
        2   -1    0    0  501    0  0.00000000000E+00  0.00000000000E+00 -0.85393715365E+03  0.85393715366E+03  0.25500000920E-02 0. -1.
    10030    2    1    2    0    0  0.00000000000E+00  0.00000000000E+00  0.32875712002E+03  0.20366314273E+04  0.20099219703E+04 0.  0.
        2    1    3    3  502    0  0.25141197851E+03  0.53836308870E+03 -0.65688797255E+03  0.88574522674E+03  0.25500000920E-02 0. -1.
       -2    1    3    3    0  502 -0.25141197851E+03 -0.53836308870E+03  0.98564509256E+03  0.11508862006E+04  0.25500000920E-02 0.  1.
</event>
<event>
 5   0  0.3431030E-04  0.1971252E+04  0.7818609E-02  0.8620181E-01
       -2   -1    0    0    0  501  0.00000000000E+00  0.00000000000E+00  0.12417886567E+04  0.12417886567E+04  0.25500000920E-02 0. -1.
        2   -1    0    0  501    0  0.00000000000E+00  0.00000000000E+00 -0.78230558878E+03  0.78230558879E+03  0.25500000920E-02 0.  1.
    10030    2    1    2    0    0  0.00000000000E+00  0.00000000000E+00  0.45948306787E+03  0.20240942454E+04  0.19712515884E+04 0.  0.
        3    1    3    3  502    0  0.37870704652E+03  0.90639178260E+03  0.14700165167E+03  0.99326461048E+03  0.10100000352E+00 0.  1.
       -3    1    3    3    0  502 -0.37870704652E+03 -0.90639178260E+03  0.31248141620E+03  0.10308296350E+04  0.10100000352E+00 0. -1.
</event>
<event>
 5   0  0.1708578E-04  0.1516999E+04  0.7818609E-02  0.8873227E-01
        1   -1    0    0  501    0  0.00000000000E+00  0.00000000000E+00  0.77354063569E+03  0.77354063571E+03  0.50400001928E-02 0. -1.
       -1   -1    0    0    0  501  0.00000000000E+00  0.00000000000E+00 -0.74375071183E+03  0.74375071185E+03  0.50400001928E-02 0.  1.
    10030    2    1    2    0    0  0.00000000000E+00  0.00000000000E+00  0.29789923858E+02  0.15172913476E+04  0.15169988773E+04 0.  0.
        3    1    3    3  502    0 -0.45503997782E+03  0.60654763352E+03  0.33871629847E+02  0.75901825449E+03  0.10100000352E+00 0.  1.
       -3    1    3    3    0  502  0.45503997782E+03 -0.60654763352E+03 -0.40817059890E+01  0.75827309307E+03  0.10100000352E+00 0. -1.
</event>
<event>
 5   0  0.1696052E-04  0.2006005E+04  0.7818609E-02  0.8603818E-01
        1   -1    0    0  501    0  0.00000000000E+00  0.00000000000E+00  0.11481193215E+04  0.11481193215E+04  0.50400001928E-02 0.  1.
       -1   -1    0    0    0  501  0.00000000000E+00  0.00000000000E+00 -0.87622807158E+03  0.87622807159E+03  0.50400001928E-02 0. -1.
    10030    2    1    2    0    0  0.00000000000E+00  0.00000000000E+00  0.27189124994E+03  0.20243473931E+04  0.20060053630E+04 0.  0.
        4    1    3    3  502    0 -0.20637613548E+03 -0.69539065301E+03  0.83499408747E+03  0.11060632932E+04  0.12699999809E+01 0.  1.
       -4    1    3    3    0  502  0.20637613548E+03  0.69539065301E+03 -0.56310283753E+03  0.91828409990E+03  0.12699999809E+01 0. -1.
</event>
<event>
 5   0  0.3431030E-04  0.2053567E+04  0.7818609E-02  0.8581978E-01
        2   -1    0    0  501    0  0.00000000000E+00  0.00000000000E+00  0.21417196290E+04  0.21417196290E+04  0.25500000920E-02 0.  1.
       -2   -1    0    0    0  501  0.00000000000E+00  0.00000000000E+00 -0.49226089643E+03  0.49226089643E+03  0.25500000920E-02 0. -1.
    10030    2    1    2    0    0  0.00000000000E+00  0.00000000000E+00  0.16494587325E+04  0.26339805254E+04  0.20535674564E+04 0.  0.
        3    1    3    3  502    0 -0.97432089397E+02 -0.21775128676E+03 -0.45622330042E+03  0.51482846170E+03  0.10100000352E+00 0. -1.
       -3    1    3    3    0  502  0.97432089397E+02  0.21775128676E+03  0.21056820330E+04  0.21191520637E+04  0.10100000352E+00 0.  1.
</event>
<event>
 5   0  0.3371947E-04  0.2049343E+04  0.7818609E-02  0.8583893E-01
        2   -1    0    0  501    0  0.00000000000E+00  0.00000000000E+00  0.14094451833E+04  0.14094451833E+04  0.25500000920E-02 0. -1.
       -2   -1    0    0    0  501  0.00000000000E+00  0.00000000000E+00 -0.74493954224E+03  0.74493954224E+03  0.25500000920E-02 0.  1.
    10030    2    1    2    0    0  0.00000000000E+00  0.00000000000E+00  0.66450564102E+03  0.21543847255E+04  0.20493427723E+04 0.  0.
        2    1    3    3  502    0 -0.23668521746E+03  0.97710158638E+03  0.12410392564E+03  0.10129902204E+04  0.25500000920E-02 0.  1.
       -2    1    3    3    0  502  0.23668521746E+03 -0.97710158638E+03  0.54040171538E+03  0.11413945051E+04  0.25500000920E-02 0. -1.
</event>
<event>
 5   0  0.1650221E-04  0.2034807E+04  0.7818609E-02  0.8590518E-01
        1   -1    0    0  501    0  0.00000000000E+00  0.00000000000E+00  0.12264448146E+04  0.12264448146E+04  0.50400001928E-02 0.  1.
       -1   -1    0    0    0  501  0.00000000000E+00  0.00000000000E+00 -0.84399222968E+03  0.84399222970E+03  0.50400001928E-02 0. -1.
    10030    2    1    2    0    0  0.00000000000E+00  0.00000000000E+00  0.38245258488E+03  0.20704370443E+04  0.20348070116E+04 0.  0.
        1    1    3    3  502    0  0.99553976408E+03 -0.12460731812E+03  0.19500555174E+02  0.10034972233E+04  0.50400001928E-02 0.  1.
       -1    1    3    3    0  502 -0.99553976408E+03  0.12460731812E+03  0.36295202971E+03  0.10669398209E+04  0.50400001928E-02 0. -1.
</event>
<event>
 5   0  0.3387881E-04  0.2009644E+04  0.7818609E-02  0.8602125E-01
        2   -1    0    0  501    0  0.00000000000E+00  0.00000000000E+00  0.74348145799E+03  0.74348145800E+03  0.25500000920E-02 0.  1.
       -2   -1    0    0    0  501  0.00000000000E+00  0.00000000000E+00 -0.13580262591E+04  0.13580262591E+04  0.25500000920E-02 0. -1.
    10030    2    1    2    0    0  0.00000000000E+00  0.00000000000E+00 -0.61454480106E+03  0.21015077171E+04  0.20096440910E+04 0.  0.
        1    1    3    3  502    0  0.91643812462E+03 -0.88101368239E+02 -0.72822371984E+03  0.11738528330E+04  0.50400001928E-02 0. -1.
       -1    1    3    3    0  502 -0.91643812462E+03  0.88101368239E+02  0.11367891878E+03  0.92765488407E+03  0.50400001928E-02 0.  1.
</event>
<event>
 5   0  0.1643565E-04  0.1849849E+04  0.7818609E-02  0.8680230E-01
       -1   -1    0    0    0  501  0.00000000000E+00  0.00000000000E+00  0.91086998034E+03  0.91086998035E+03  0.50400001928E-02 0. -1.
        1   -1    0    0  501    0  0.00000000000E+00  0.00000000000E+00 -0.93919588699E+03  0.93919588700E+03  0.50400001928E-02 0.  1.
    10030    2    1    2    0    0  0.00000000000E+00  0.00000000000E+00 -0.28325906648E+02  0.18500658673E+04  0.18498490091E+04 0.  0.
        2    1    3    3  502    0 -0.85475774681E+03 -0.16920508894E+03  0.29610586245E+03  0.92028248361E+03  0.25500000920E-02 0. -1.
       -2    1    3    3    0  502  0.85475774681E+03  0.16920508894E+03 -0.32443176910E+03  0.92978338374E+03  0.25500000920E-02 0.  1.
</event>
<event>
 5   0  0.3460648E-04  0.1997104E+04  0.7818609E-02  0.8607976E-01
        2   -1    0    0  501    0  0.00000000000E+00  0.00000000000E+00  0.13682302089E+04  0.13682302089E+04  0.25500000920E-02 0.  1.
       -2   -1    0    0    0  501  0.00000000000E+00  0.00000000000E+00 -0.72875627961E+03  0.72875627962E+03  0.25500000920E-02 0. -1.
    10030    2    1    2    0    0  0.00000000000E+00  0.00000000000E+00  0.63947392928E+03  0.20969864885E+04  0.19971042604E+04 0.  0.
        5    1    3    3  502    0  0.68742924783E+03 -0.56661866243E+03 -0.15389780761E+03  0.90405879486E+03  0.46999998093E+01 0. -1.
       -5    1    3    3    0  502 -0.68742924783E+03  0.56661866243E+03  0.79337173689E+03  0.11929276937E+04  0.46999998093E+01 0.  1.
</event>
<event>
 5   0  0.1643565E-04  0.1945606E+04  0.7818609E-02  0.8632483E-01
       -1   -1    0    0    0  501  0.00000000000E+00  0.00000000000E+00  0.96984003379E+03  0.96984003381E+03  0.50400001928E-02 0. -1.
        1   -1    0    0  501    0  0.00000000000E+00  0.00000000000E+00 -0.97577470633E+03  0.97577470635E+03  0.50400001928E-02 0.  1.
    10030    2    1    2    0    0  0.00000000000E+00  0.00000000000E+00 -0.59346725406E+01  0.19456147402E+04  0.19456056889E+04 0.  0.
        2    1    3    3  502    0  0.62821995933E+01 -0.70587245560E+03  0.66640113728E+03  0.97076560784E+03  0.25500000920E-02 0. -1.
       -2    1    3    3    0  502 -0.62821995933E+01  0.70587245560E+03 -0.67233580982E+03  0.97484913231E+03  0.25500000920E-02 0.  1.
</event>
<event>
 5   0  0.1708578E-04  0.1394614E+04  0.7818609E-02  0.8957726E-01
       -1   -1    0    0    0  501  0.00000000000E+00  0.00000000000E+00  0.40146955134E+03  0.40146955137E+03  0.50400001928E-02 0.  1.
        1   -1    0    0  501    0  0.00000000000E+00  0.00000000000E+00 -0.12111431097E+04  0.12111431097E+04  0.50400001928E-02 0. -1.
    10030    2    1    2    0    0  0.00000000000E+00  0.00000000000E+00 -0.80967355834E+03  0.16126126611E+04  0.13946140411E+04 0.  0.
        3    1    3    3  502    0  0.24687876332E+03  0.18100011529E+03  0.31961710781E+03  0.44256668574E+03  0.10100000352E+00 0.  1.
       -3    1    3    3    0  502 -0.24687876332E+03 -0.18100011529E+03 -0.11292906662E+04  0.11700459753E+04  0.10100000352E+00 0. -1.
</event>
<event>
 5   0  0.1664168E-04  0.2040050E+04  0.7818609E-02  0.8588122E-01
       -1   -1    0    0    0  501  0.00000000000E+00  0.00000000000E+00  0.58569170120E+03  0.58569170122E+03  0.50400001928E-02 0. -1.
        1   -1    0    0  501    0  0.00000000000E+00  0.00000000000E+00 -0.17764476526E+04  0.17764476526E+04  0.50400001928E-02 0.  1.
    10030    2    1    2    0    0  0.00000000000E+00  0.00000000000E+00 -0.11907559514E+04  0.23621393538E+04  0.20400496541E+04 0.  0.
        5    1    3    3  502    0  0.87042111888E+03 -0.11808557883E+03 -0.11957506981E+04  0.14837179483E+04  0.46999998093E+01 0.  1.
       -5    1    3    3    0  502 -0.87042111888E+03  0.11808557883E+03  0.49947467434E+01  0.87842140548E+03  0.46999998093E+01 0. -1.
</event>
<event>
 5   0  0.3387881E-04  0.2050575E+04  0.7818609E-02  0.8583334E-01
        2   -1    0    0  501    0  0.00000000000E+00  0.00000000000E+00  0.10130513489E+04  0.10130513489E+04  0.25500000920E-02 0. -1.
       -2   -1    0    0    0  501  0.00000000000E+00  0.00000000000E+00 -0.10376711235E+04  0.10376711235E+04  0.25500000920E-02 0.  1.
    10030    2    1    2    0    0  0.00000000000E+00  0.00000000000E+00 -0.24619774565E+02  0.20507224724E+04  0.20505746818E+04 0.  0.
        1    1    3    3  502    0 -0.51935258142E+02 -0.10136885962E+04  0.13244960506E+03  0.10236233384E+04  0.50400001928E-02 0.  1.
       -1    1    3    3    0  502  0.51935258142E+02  0.10136885962E+04 -0.15706937963E+03  0.10270991340E+04  0.50400001928E-02 0. -1.
</event>
<event>
 5   0  0.1708578E-04  0.2176679E+04  0.7818609E-02  0.8528198E-01
       -1   -1    0    0    0  501  0.00000000000E+00  0.00000000000E+00  0.12222219729E+04  0.12222219729E+04  0.50400001928E-02 0.  1.
        1   -1    0    0  501    0  0.00000000000E+00  0.00000000000E+00 -0.96912226836E+03  0.96912226837E+03  0.50400001928E-02 0. -1.
    10030    2    1    2    0    0  0.00000000000E+00  0.00000000000E+00  0.25309970449E+03  0.21913442412E+04  0.21766786908E+04 0.  0.
        3    1    3    3  502    0  0.31795824282E+03 -0.51034409197E+03  0.10398189862E+04  0.12011544741E+04  0.10100000352E+00 0.  1.
       -3    1    3    3    0  502 -0.31795824282E+03  0.51034409197E+03 -0.78671928175E+03  0.99018976710E+03  0.10100000352E+00 0. -1.
</event>
<event>
 5   0  0.3371947E-04  0.2029242E+04  0.7818609E-02  0.8593070E-01
        2   -1    0    0  501    0  0.00000000000E+00  0.00000000000E+00  0.95920554373E+03  0.95920554374E+03  0.25500000920E-02 0.  1.
       -2   -1    0    0    0  501  0.00000000000E+00  0.00000000000E+00 -0.10732378814E+04  0.10732378814E+04  0.25500000920E-02 0. -1.
    10030    2    1    2    0    0  0.00000000000E+00  0.00000000000E+00 -0.11403233768E+03  0.20324434252E+04  0.20292419527E+04 0.  0.
        2    1    3    3  502    0 -0.60591276009E+03 -0.16996048129E+03 -0.85416055867E+03  0.10609463219E+04  0.25500000920E-02 0. -1.
       -2    1    3    3    0  502  0.60591276009E+03  0.16996048129E+03  0.74012822099E+03  0.97149710321E+03  0.25500000920E-02 0.  1.
</event>
<event>
 5   0  0.1696052E-04  0.2002983E+04  0.7818609E-02  0.8605227E-01
        1   -1    0    0  501    0  0.00000000000E+00  0.00000000000E+00  0.15527688114E+04  0.15527688114E+04  0.50400001928E-02 0. -1.
       -1   -1    0    0    0  501  0.00000000000E+00  0.00000000000E+00 -0.64593330680E+03  0.64593330682E+03  0.50400001928E-02 0.  1.
    10030    2    1    2    0    0  0.00000000000E+00  0.00000000000E+00  0.90683550462E+03  0.21987021182E+04  0.20029828687E+04 0.  0.
        4    1    3    3  502    0 -0.23295615502E+03  0.78511365997E+03  0.10862109665E+04  0.13603410991E+04  0.12699999809E+01 0. -1.
       -4    1    3    3    0  502  0.23295615502E+03 -0.78511365997E+03 -0.17937546187E+03  0.83836101916E+03  0.12699999809E+01 0.  1.
</event>
<event>
 5   0  0.1664168E-04  0.1298319E+04  0.7818609E-02  0.9030899E-01
        1   -1    0    0  501    0  0.00000000000E+00  0.00000000000E+00  0.31698975194E+03  0.31698975198E+03  0.50400001928E-02 0.  1.
       -1   -1    0    0    0  501  0.00000000000E+00  0.00000000000E+00 -0.13294066849E+04  0.13294066849E+04  0.50400001928E-02 0. -1.
    10030    2    1    2    0    0  0.00000000000E+00  0.00000000000E+00 -0.10124169329E+04  0.16463964369E+04  0.12983193680E+04 0.  0.
        5    1    3    3  502    0  0.43813650545E+03 -0.41163290690E+03 -0.19563841063E+03  0.63221968110E+03  0.46999998093E+01 0.  1.
       -5    1    3    3    0  502 -0.43813650545E+03  0.41163290690E+03 -0.81677852231E+03  0.10141767558E+04  0.46999998093E+01 0. -1.
</event>
<event>
 5   0  0.3460648E-04  0.2108297E+04  0.7818609E-02  0.8557597E-01
       -2   -1    0    0    0  501  0.00000000000E+00  0.00000000000E+00  0.48107295556E+03  0.48107295557E+03  0.25500000920E-02 0. -1.
        2   -1    0    0  501    0  0.00000000000E+00  0.00000000000E+00 -0.23098977723E+04  0.23098977723E+04  0.25500000920E-02 0.  1.
    10030    2    1    2    0    0  0.00000000000E+00  0.00000000000E+00 -0.18288248167E+04  0.27909707279E+04  0.21082972735E+04 0.  0.
        5    1    3    3  502    0  0.77649878797E+03  0.35711456242E+03 -0.17312387750E+04  0.19307229124E+04  0.46999998093E+01 0. -1.
       -5    1    3    3    0  502 -0.77649878797E+03 -0.35711456242E+03 -0.97586041679E+02  0.86024781542E+03  0.46999998093E+01 0.  1.
</event>
<event>
 5   0  0.1664168E-04  0.1612332E+04  0.7818609E-02  0.8813008E-01
       -1   -1    0    0    0  501  0.00000000000E+00  0.00000000000E+00  0.12860843012E+04  0.12860843012E+04  0.50400001928E-02 0. -1.
        1   -1    0    0  501    0  0.00000000000E+00  0.00000000000E+00 -0.50533492040E+03  0.50533492042E+03  0.50400001928E-02 0.  1.
    10030    2    1    2    0    0  0.00000000000E+00  0.00000000000E+00  0.78074938079E+03  0.17914192216E+04  0.16123316135E+04 0.  0.
        5    1    3    3  502    0 -0.78040150984E+03 -0.10441033612E+02  0.16609823753E+03  0.79796381262E+03  0.46999998093E+01 0.  1.
       -5    1    3    3    0  502  0.78040150984E+03  0.10441033612E+02  0.61465114326E+03  0.99345540900E+03  0.46999998093E+01 0. -1.
</event>
<event>
 5   0  0.1643565E-04  0.1967180E+04  0.7818609E-02  0.8622121E-01
        1   -1    0    0  501    0  0.00000000000E+00  0.00000000000E+00  0.65568205549E+03  0.65568205551E+03  0.50400001928E-02 0.  1.
       -1   -1    0    0    0  501  0.00000000000E+00  0.00000000000E+00 -0.14754848946E+04  0.14754848946E+04  0.50400001928E-02 0. -1.
    10030    2    1    2    0    0  0.00000000000E+00  0.00000000000E+00 -0.81980283915E+03  0.21311669502E+04  0.19671796752E+04 0.  0.
        2    1    3    3  502    0 -0.77984497689E+03 -0.32622156594E+03 -0.95468289370E+03  0.12751463154E+04  0.25500000920E-02 0.  1.
       -2    1    3    3    0  502  0.77984497689E+03  0.32622156594E+03  0.13488005455E+03  0.85602063479E+03  0.25500000920E-02 0. -1.
</event>
<event>
 5   0  0.3387881E-04  0.1498580E+04  0.7818609E-02  0.8885398E-01
       -2   -1    0    0    0  501  0.00000000000E+00  0.00000000000E+00  0.38998222167E+03  0.38998222168E+03  0.25500000920E-02 0. -1.
        2   -1    0    0  501    0  0.00000000000E+00  0.00000000000E+00 -0.14396434874E+04  0.14396434874E+04  0.25500000920E-02 0.  1.
    10030    2    1    2    0    0  0.00000000000E+00  0.00000000000E+00 -0.10496612658E+04  0.18296257091E+04  0.14985798152E+04 0.  0.
        1    1    3    3  502    0  0.14172043081E+03 -0.30935645700E+03  0.29020946241E+03  0.44722212613E+03  0.50400001928E-02 0. -1.
       -1    1    3    3    0  502 -0.14172043081E+03  0.30935645700E+03 -0.13398707282E+04  0.13824035830E+04  0.50400001928E-02 0.  1.
</event>
<event>
 5   0  0.1696052E-04  0.1959737E+04  0.7818609E-02  0.8625680E-01
        1   -1    0    0  501    0  0.00000000000E+00  0.00000000000E+00  0.12304083666E+04  0.12304083666E+04  0.50400001928E-02 0. -1.
       -1   -1    0    0    0  501  0.00000000000E+00  0.00000000000E+00 -0.78034457302E+03  0.78034457304E+03  0.50400001928E-02 0.  1.
    10030    2    1    2    0    0  0.00000000000E+00  0.00000000000E+00  0.45006379357E+03  0.20107529396E+04  0.19597372186E+04 0.  0.
        4    1    3    3  502    0  0.68306516072E+03  0.64342287064E+03  0.51445634084E+03  0.10701579060E+04  0.12699999809E+01 0. -1.
       -4    1    3    3    0  502 -0.68306516072E+03 -0.64342287064E+03 -0.64392547271E+02  0.94059503364E+03  0.12699999809E+01 0.  1.
</event>
<event>
 5   0  0.3387881E-04  0.2024088E+04  0.7818609E-02  0.8595441E-01
       -2   -1    0    0    0  501  0.00000000000E+00  0.00000000000E+00  0.86830838483E+03  0.86830838483E+03  0.25500000920E-02 0. -1.
        2   -1    0    0  501    0  0.00000000000E+00  0.00000000000E+00 -0.11795724520E+04  0.11795724520E+04  0.25500000920E-02 0.  1.
    10030    2    1    2    0    0  0.00000000000E+00  0.00000000000E+00 -0.31126406715E+03  0.20478808368E+04  0.20240875975E+04 0.  0.
        1    1    3    3  502    0  0.41694693678E+02 -0.78058316966E+03  0.49471803196E+03  0.92509159731E+03  0.50400001928E-02 0. -1.
       -1    1    3    3    0  502 -0.41694693678E+02  0.78058316966E+03 -0.80598209911E+03  0.11227892395E+04  0.50400001928E-02 0.  1.
</event>
<event>
 5   0  0.3387881E-04  0.1978237E+04  0.7818609E-02  0.8616864E-01
        2   -1    0    0  501    0  0.00000000000E+00  0.00000000000E+00  0.13522865933E+04  0.13522865933E+04  0.25500000920E-02 0.  1.
       -2   -1    0    0    0  501  0.00000000000E+00  0.00000000000E+00 -0.72348244618E+03  0.72348244618E+03  0.25500000920E-02 0. -1.
    10030    2    1    2    0    0  0.00000000000E+00  0.00000000000E+00  0.62880414710E+03  0.20757690395E+04  0.19782372077E+04 0.  0.
        1    1    3    3  502    0 -0.43672946286E+03  0.65255417602E+03  0.94555204395E+03  0.12290761751E+04  0.50400001928E-02 0.  1.
       -1    1    3    3    0  502  0.43672946286E+03 -0.65255417602E+03 -0.31674789685E+03  0.84669286436E+03  0.50400001928E-02 0. -1.
</event>
<event>
 5   0  0.1696052E-04  0.1999152E+04  0.7818609E-02  0.8607017E-01
        1   -1    0    0  501    0  0.00000000000E+00  0.00000000000E+00  0.19400299485E+04  0.19400299485E+04  0.50400001928E-02 0.  1.
       -1   -1    0    0    0  501  0.00000000000E+00  0.00000000000E+00 -0.51501877746E+03  0.51501877749E+03  0.50400001928E-02 0. -1.
    10030    2    1    2    0    0  0.00000000000E+00  0.00000000000E+00  0.14250111710E+04  0.24550487260E+04  0.19991516724E+04 0.  0.
        4    1    3    3  502    0  0.44707935368E+03 -0.21882683579E+03 -0.35199440736E+03  0.60964482140E+03  0.12699999809E+01 0. -1.
       -4    1    3    3    0  502 -0.44707935368E+03  0.21882683579E+03  0.17770055784E+04  0.18454039046E+04  0.12699999809E+01 0.  1.
</event>
<event>
 5   0  0.1708578E-04  0.1988859E+04  0.7818609E-02  0.8611847E-01
        1   -1    0    0  501    0  0.00000000000E+00  0.00000000000E+00  0.77910445951E+03  0.77910445953E+03  0.50400001928E-02 0.  1.
       -1   -1    0    0    0  501  0.00000000000E+00  0.00000000000E+00 -0.12692645596E+04  0.12692645596E+04  0.50400001928E-02 0. -1.
    10030    2    1    2    0    0  0.00000000000E+00  0.00000000000E+00 -0.49016010009E+03  0.20483690191E+04  0.19888586463E+04 0.  0.
        3    1    3    3  502    0 -0.52366308562E+03  0.81952473173E+03 -0.31397060093E+02  0.97305169377E+03  0.10100000352E+00 0.  1.
       -3    1    3    3    0  502  0.52366308562E+03 -0.81952473173E+03 -0.45876304000E+03  0.10753173254E+04  0.10100000352E+00 0. -1.
</event>
<event>
 5   0  0.3395569E-04  0.2042019E+04  0.7818609E-02  0.8587224E-01
       -2   -1    0    0    0  501  0.00000000000E+00  0.00000000000E+00  0.12931936753E+04  0.12931936753E+04  0.25500000920E-02 0.  1.
        2   -1    0    0  501    0  0.00000000000E+00  0.00000000000E+00 -0.80611309295E+03  0.80611309296E+03  0.25500000920E-02 0. -1.
    10030    2    1    2    0    0  0.00000000000E+00  0.00000000000E+00  0.48708058236E+03  0.20993067683E+04  0.20420189553E+04 0.  0.
        4    1    3    3  502    0  0.36439451511E+02  0.33432753028E+02  0.12919609108E+04  0.12929076496E+04  0.12699999809E+01 0.  1.
       -4    1    3    3    0  502 -0.36439451511E+02 -0.33432753028E+02 -0.80488032841E+03  0.80639911865E+03  0.12699999809E+01 0. -1.
</event>
<event>
 5   0  0.1696052E-04  0.1971834E+04  0.7818609E-02  0.8619904E-01
       -1   -1    0    0    0  501  0.00000000000E+00  0.00000000000E+00  0.12575275533E+04  0.12575275533E+04  0.50400001928E-02 0. -1.
        1   -1    0    0  501    0  0.00000000000E+00  0.00000000000E+00 -0.77297089972E+03  0.77297089973E+03  0.50400001928E-02 0.  1.
    10030    2    1    2    0    0  0.00000000000E+00  0.00000000000E+00  0.48455665360E+03  0.20304984531E+04  0.19718338716E+04 0.  0.
        4    1    3    3  502    0  0.12874750730E+02  0.28051010974E+03 -0.73092048602E+03  0.78300577945E+03  0.12699999809E+01 0.  1.
       -4    1    3    3    0  502 -0.12874750730E+02 -0.28051010974E+03  0.12154771396E+04  0.12474926736E+04  0.12699999809E+01 0. -1.
</event>
<event>
 5   0  0.1650221E-04  0.1208655E+04  0.7818609E-02  0.9105314E-01
        1   -1    0    0  501    0  0.00000000000E+00  0.00000000000E+00  0.94047879685E+03  0.94047879686E+03  0.50400001928E-02 0.  1.
       -1   -1    0    0    0  501  0.00000000000E+00  0.00000000000E+00 -0.38832541642E+03  0.38832541645E+03  0.50400001928E-02 0. -1.
    10030    2    1    2    0    0  0.00000000000E+00  0.00000000000E+00  0.55215338043E+03  0.13288042133E+04  0.12086551542E+04 0.  0.
        1    1    3    3  502    0 -0.50811648510E+03 -0.12303447691E+03 -0.57194200433E+02  0.52591921578E+03  0.50400001928E-02 0. -1.
       -1    1    3    3    0  502  0.50811648510E+03  0.12303447691E+03  0.60934758086E+03  0.80288499754E+03  0.50400001928E-02 0.  1.
</event>
<event>
 5   0  0.1664168E-04  0.2028036E+04  0.7818609E-02  0.8593624E-01
        1   -1    0    0  501    0  0.00000000000E+00  0.00000000000E+00  0.19457718939E+04  0.19457718939E+04  0.50400001928E-02 0. -1.
       -1   -1    0    0    0  501  0.00000000000E+00  0.00000000000E+00 -0.52844449474E+03  0.52844449477E+03  0.50400001928E-02 0.  1.
    10030    2    1    2    0    0  0.00000000000E+00  0.00000000000E+00  0.14173273992E+04  0.24742163887E+04  0.20280359419E+04 0.  0.
        5    1    3    3  502    0  0.18870990277E+03  0.80203419288E+03 -0.12420933231E+02  0.82404286510E+03  0.46999998093E+01 0.  1.
       -5    1    3    3    0  502 -0.18870990277E+03 -0.80203419288E+03  0.14297483324E+04  0.16501735236E+04  0.46999998093E+01 0. -1.
</event>
<event>
 5   0  0.3395569E-04  0.2032205E+04  0.7818609E-02  0.8591710E-01
        2   -1    0    0  501    0  0.00000000000E+00  0.00000000000E+00  0.10205975915E+04  0.10205975915E+04  0.25500000920E-02 0. -1.
       -2   -1    0    0    0  501  0.00000000000E+00  0.00000000000E+00 -0.10116269817E+04  0.10116269818E+04  0.25500000920E-02 0.  1.
    10030    2    1    2    0    0  0.00000000000E+00  0.00000000000E+00  0.89706097757E+01  0.20322245733E+04  0.20322047742E+04 0.  0.
        4    1    3    3  502    0  0.67422769794E+03  0.23150070293E+03  0.72856893265E+03  0.10193085238E+04  0.12699999809E+01 0. -1.
       -4    1    3    3    0  502 -0.67422769794E+03 -0.23150070293E+03 -0.71959832288E+03  0.10129160495E+04  0.12699999809E+01 0.  1.
</event>
<event>
 5   0  0.3371947E-04  0.1981096E+04  0.7818609E-02  0.8615510E-01
       -2   -1    0    0    0  501  0.00000000000E+00  0.00000000000E+00  0.54987130484E+03  0.54987130485E+03  0.25500000920E-02 0. -1.
        2   -1    0    0  501    0  0.00000000000E+00  0.00000000000E+00 -0.17843916214E+04  0.17843916214E+04  0.25500000920E-02 0.  1.
    10030    2    1    2    0    0  0.00000000000E+00  0.00000000000E+00 -0.12345203165E+04  0.23342629262E+04  0.19810964128E+04 0.  0.
        2    1    3    3  502    0 -0.10863935311E+03 -0.97730188319E+03 -0.47653591402E+03  0.10927067115E+04  0.25500000920E-02 0. -1.
       -2    1    3    3    0  502  0.10863935311E+03  0.97730188319E+03 -0.75798440252E+03  0.12415562148E+04  0.25500000920E-02 0.  1.
</event>
<event>
 5   0  0.1664168E-04  0.2020902E+04  0.7818609E-02  0.8596910E-01
       -1   -1    0    0    0  501  0.00000000000E+00  0.00000000000E+00  0.71670030889E+03  0.71670030890E+03  0.50400001928E-02 0.  1.
        1   -1    0    0  501    0  0.00000000000E+00  0.00000000000E+00 -0.14246001838E+04  0.14246001838E+04  0.50400001928E-02 0. -1.
    10030    2    1    2    0    0  0.00000000000E+00  0.00000000000E+00 -0.70789987489E+03  0.21413004927E+04  0.20209021666E+04 0.  0.
        5    1    3    3  502    0 -0.64052392051E+03  0.80018988748E+02  0.46974073430E+03  0.79834352178E+03  0.46999998093E+01 0.  1.
       -5    1    3    3    0  502  0.64052392051E+03 -0.80018988748E+02 -0.11776406092E+04  0.13429569709E+04  0.46999998093E+01 0. -1.
</event>
<event>
 5   0  0.1650221E-04  0.1424090E+04  0.7818609E-02  0.8936563E-01
        1   -1    0    0  501    0  0.00000000000E+00  0.00000000000E+00  0.16995492154E+04  0.16995492154E+04  0.50400001928E-02 0. -1.
       -1   -1    0    0    0  501  0.00000000000E+00  0.00000000000E+00 -0.29831915136E+03  0.29831915141E+03  0.50400001928E-02 0.  1.
    10030    2    1    2    0    0  0.00000000000E+00  0.00000000000E+00  0.14012300640E+04  0.19978683668E+04  0.14240899967E+04 0.  0.
        1    1    3    3  502    0 -0.57296796529E+03 -0.29703354314E+03  0.27860555410E+03  0.70295253737E+03  0.50400001928E-02 0.  1.
       -1    1    3    3    0  502  0.57296796529E+03  0.29703354314E+03  0.11226245099E+04  0.12949158294E+04  0.50400001928E-02 0. -1.
</event>
<event>
 5   0  0.3431030E-04  0.1942072E+04  0.7818609E-02  0.8634193E-01
        2   -1    0    0  501    0  0.00000000000E+00  0.00000000000E+00  0.18680808209E+04  0.18680808209E+04  0.25500000920E-02 0.  1.
       -2   -1    0    0    0  501  0.00000000000E+00  0.00000000000E+00 -0.50474870584E+03  0.50474870585E+03  0.25500000920E-02 0. -1.
    10030    2    1    2    0    0  0.00000000000E+00  0.00000000000E+00  0.13633321151E+04  0.23728295268E+04  0.19420724773E+04 0.  0.
        3    1    3    3  502    0  0.77218859535E+03  0.27285232494E+02 -0.36907359930E+02  0.77355146831E+03  0.10100000352E+00 0. -1.
       -3    1    3    3    0  502 -0.77218859535E+03 -0.27285232494E+02  0.14002394750E+04  0.15992780584E+04  0.10100000352E+00 0.  1.
</event>
<event>
 5   0  0.3395569E-04  0.1957248E+04  0.7818609E-02  0.8626874E-01
        2   -1    0    0  501    0  0.00000000000E+00  0.00000000000E+00  0.12408007013E+04  0.12408007013E+04  0.25500000920E-02 0. -1.
       -2   -1    0    0    0  501  0.00000000000E+00  0.00000000000E+00 -0.77184430490E+03  0.77184430491E+03  0.25500000920E-02 0.  1.
    10030    2    1    2    0    0  0.00000000000E+00  0.00000000000E+00  0.46895639641E+03  0.20126450062E+04  0.19572480219E+04 0.  0.
        4    1    3    3  502    0  0.73429899401E+03  0.23223807650E+03  0.85536731552E+03  0.11509927863E+04  0.12699999809E+01 0. -1.
       -4    1    3    3    0  502 -0.73429899401E+03 -0.23223807650E+03 -0.38641091911E+03  0.86165221992E+03  0.12699999809E+01 0.  1.
</event>
<event>
 5   0  0.3395569E-04  0.1805920E+04  0.7818609E-02  0.8703158E-01
        2   -1    0    0  501    0  0.00000000000E+00  0.00000000000E+00  0.25316209472E+04  0.25316209472E+04  0.25500000920E-02 0. -1.
       -2   -1    0    0    0  501  0.00000000000E+00  0.00000000000E+00 -0.32206120204E+03  0.32206120205E+03  0.25500000920E-02 0.  1.
    10030    2    1    2    0    0  0.00000000000E+00  0.00000000000E+00  0.22095597452E+04  0.28536821493E+04  0.18059201371E+04 0.  0.
        4    1    3    3  502    0  0.15011606773E+03 -0.61463432222E+03  0.86788181143E+02  0.63862663985E+03  0.12699999809E+01 0.  1.
       -4    1    3    3    0  502 -0.15011606773E+03  0.61463432222E+03  0.21227715640E+04  0.22150555094E+04  0.12699999809E+01 0. -1.
</event>
<event>
 5   0  0.1708578E-04  0.1325215E+04  0.7818609E-02  0.9009805E-01
        1   -1    0    0  501    0  0.00000000000E+00  0.00000000000E+00  0.41889350734E+03  0.41889350737E+03  0.50400001928E-02 0.  1.
       -1   -1    0    0    0  501  0.00000000000E+00  0.00000000000E+00 -0.10481153481E+04  0.10481153481E+04  0.50400001928E-02 0. -1.
    10030    2    1    2    0    0  0.00000000000E+00  0.00000000000E+00 -0.62922184077E+03  0.14670088555E+04  0.13252150230E+04 0.  0.
        3    1    3    3  502    0  0.19540997388E+03  0.63239579922E+03 -0.28068549747E+03  0.71895331104E+03  0.10100000352E+00 0.  1.
       -3    1    3    3    0  502 -0.19540997388E+03 -0.63239579922E+03 -0.34853634330E+03  0.74805554444E+03  0.10100000352E+00 0. -1.
</event>
<event>
 5   0  0.1708578E-04  0.1983229E+04  0.7818609E-02  0.8614502E-01
        1   -1    0    0  501    0  0.00000000000E+00  0.00000000000E+00  0.22184045365E+04  0.22184045365E+04  0.50400001928E-02 0. -1.
       -1   -1    0    0    0  501  0.00000000000E+00  0.00000000000E+00 -0.44324624525E+03  0.44324624528E+03  0.50400001928E-02 0.  1.
    10030    2    1    2    0    0  0.00000000000E+00  0.00000000000E+00  0.17751582912E+04  0.26616507817E+04  0.19832291661E+04 0.  0.
        3    1    3    3  502    0 -0.35982843776E+03  0.86383131549E+03  0.44730671754E+03  0.10371906074E+04  0.10100000352E+00 0.  1.
       -3    1    3    3    0  502  0.35982843776E+03 -0.86383131549E+03  0.13278515737E+04  0.16244601744E+04  0.10100000352E+00 0. -1.
</event>
<event>
 5   0  0.1650221E-04  0.1225292E+04  0.7818609E-02  0.9091002E-01
       -1   -1    0    0    0  501  0.00000000000E+00  0.00000000000E+00  0.20139842079E+03  0.20139842086E+03  0.50400001928E-02 0.  1.
        1   -1    0    0  501    0  0.00000000000E+00  0.00000000000E+00 -0.18636452049E+04  0.18636452049E+04  0.50400001928E-02 0. -1.
    10030    2    1    2    0    0  0.00000000000E+00  0.00000000000E+00 -0.16622467841E+04  0.20650436258E+04  0.12252921305E+04 0.  0.
        1    1    3    3  502    0  0.54934961765E+03  0.26441979512E+03 -0.72954889668E+03  0.95075991876E+03  0.50400001928E-02 0.  1.
       -1    1    3    3    0  502 -0.54934961765E+03 -0.26441979512E+03 -0.93269788745E+03  0.11142837070E+04  0.50400001928E-02 0. -1.
</event>
<event>
 5   0  0.1643565E-04  0.1970706E+04  0.7818609E-02  0.8620440E-01
        1   -1    0    0  501    0  0.00000000000E+00  0.00000000000E+00  0.73371751150E+03  0.73371751152E+03  0.50400001928E-02 0.  1.
       -1   -1    0    0    0  501  0.00000000000E+00  0.00000000000E+00 -0.13232888871E+04  0.13232888871E+04  0.50400001928E-02 0. -1.
    10030    2    1    2    0    0  0.00000000000E+00  0.00000000000E+00 -0.58957137561E+03  0.20570063986E+04  0.19707056901E+04 0.  0.
        2    1    3    3  502    0 -0.54830857880E+02  0.83857832175E+03 -0.83180636831E+03  0.11824220309E+04  0.25500000920E-02 0. -1.
       -2    1    3    3    0  502  0.54830857880E+02 -0.83857832175E+03  0.24223499270E+03  0.87458436779E+03  0.25500000920E-02 0.  1.
</event>
<event>
 5   0  0.3431030E-04  0.2028468E+04  0.7818609E-02  0.8593425E-01
        2   -1    0    0  501    0  0.00000000000E+00  0.00000000000E+00  0.12753454950E+04  0.12753454950E+04  0.25500000920E-02 0.  1.
       -2   -1    0    0    0  501  0.00000000000E+00  0.00000000000E+00 -0.80658195221E+03  0.80658195221E+03  0.25500000920E-02 0. -1.
    10030    2    1    2    0    0  0.00000000000E+00  0.00000000000E+00  0.46876354281E+03  0.20819274472E+04  0.20284680516E+04 0.  0.
        3    1    3    3  502    0  0.66489514454E+03 -0.11674536910E+03  0.10112688686E+04  0.12158864129E+04  0.10100000352E+00 0.  1.
       -3    1    3    3    0  502 -0.66489514454E+03  0.11674536910E+03 -0.54250532574E+03  0.86604103430E+03  0.10100000352E+00 0. -1.
</event>
<event>
 5   0  0.3431030E-04  0.2008297E+04  0.7818609E-02  0.8602752E-01
        2   -1    0    0  501    0  0.00000000000E+00  0.00000000000E+00  0.17633079999E+04  0.17633079999E+04  0.25500000920E-02 0.  1.
       -2   -1    0    0    0  501  0.00000000000E+00  0.00000000000E+00 -0.57183074513E+03  0.57183074513E+03  0.25500000920E-02 0. -1.
    10030    2    1    2    0    0  0.00000000000E+00  0.00000000000E+00  0.11914772548E+04  0.23351387450E+04  0.20082965194E+04 0.  0.
        3    1    3    3  502    0 -0.24958945577E+03  0.30853634409E+03  0.16682570413E+04  0.17148093591E+04  0.10100000352E+00 0.  1.
       -3    1    3    3    0  502  0.24958945577E+03 -0.30853634409E+03 -0.47677978650E+03  0.62032938595E+03  0.10100000352E+00 0. -1.
</event>
<event>
 5   0  0.1708578E-04  0.1993222E+04  0.7818609E-02  0.8609796E-01
       -1   -1    0    0    0  501  0.00000000000E+00  0.00000000000E+00  0.12832505588E+04  0.12832505588E+04  0.50400001928E-02 0. -1.
        1   -1    0    0  501    0  0.00000000000E+00  0.00000000000E+00 -0.77399832057E+03  0.77399832059E+03  0.50400001928E-02 0.  1.
    10030    2    1    2    0    0  0.00000000000E+00  0.00000000000E+00  0.50925223819E+03  0.20572488794E+04  0.19932222931E+04 0.  0.
        3    1    3    3  502    0 -0.63479612709E+03 -0.76374862611E+03  0.34070585091E+03  0.10499326521E+04  0.10100000352E+00 0.  1.
       -3    1    3    3    0  502  0.63479612709E+03  0.76374862611E+03  0.16854638728E+03  0.10073162273E+04  0.10100000352E+00 0. -1.
</event>
<event>
 5   0  0.3371947E-04  0.2010612E+04  0.7818609E-02  0.8601675E-01
       -2   -1    0    0    0  501  0.00000000000E+00  0.00000000000E+00  0.68854281342E+03  0.68854281343E+03  0.25500000920E-02 0. -1.
        2   -1    0    0  501    0  0.00000000000E+00  0.00000000000E+00 -0.14677961085E+04  0.14677961085E+04  0.25500000920E-02 0.  1.
    10030    2    1    2    0    0  0.00000000000E+00  0.00000000000E+00 -0.77925329504E+03  0.21563389219E+04  0.20106123068E+04 0.  0.
        2    1    3    3  502    0  0.76650079246E+03 -0.31362275344E+03 -0.10008056959E+04  0.12990360800E+04  0.25500000920E-02 0.  1.
       -2    1    3    3    0  502 -0.76650079246E+03  0.31362275344E+03  0.22155240085E+03  0.85730284185E+03  0.25500000920E-02 0. -1.
</event>
<event>
 5   0  0.3387881E-04  0.1593699E+04  0.7818609E-02  0.8824429E-01
       -2   -1    0    0    0  501  0.00000000000E+00  0.00000000000E+00  0.44969381291E+03  0.44969381292E+03  0.25500000920E-02 0.  1.
        2   -1    0    0  501    0  0.00000000000E+00  0.00000000000E+00 -0.14120026448E+04  0.14120026448E+04  0.25500000920E-02 0. -1.
    10030    2    1    2    0    0  0.00000000000E+00  0.00000000000E+00 -0.96230883191E+03  0.18616964577E+04  0.15936986581E+04 0.  0.
        1    1    3    3  502    0 -0.18964916876E+02 -0.79662321435E+03 -0.48208854745E+03  0.93133108041E+03  0.50400001928E-02 0.  1.
       -1    1    3    3    0  502  0.18964916876E+02  0.79662321435E+03 -0.48022028446E+03  0.93036537734E+03  0.50400001928E-02 0. -1.
</event>
<event>
 5   0  0.3395569E-04  0.2058317E+04  0.7818609E-02  0.8579831E-01
        2   -1    0    0  501    0  0.00000000000E+00  0.00000000000E+00  0.69707270860E+03  0.69707270861E+03  0.25500000920E-02 0. -1.
       -2   -1    0    0    0  501  0.00000000000E+00  0.00000000000E+00 -0.15194502478E+04  0.15194502478E+04  0.25500000920E-02 0.  1.
    10030    2    1    2    0    0  0.00000000000E+00  0.00000000000E+00 -0.82237753923E+03  0.22165229564E+04  0.20583170794E+04 0.  0.
        4    1    3    3  502    0 -0.74223379718E+03 -0.87298501246E+02 -0.11731273670E+04  0.13909570339E+04  0.12699999809E+01 0.  1.
       -4    1    3    3    0  502  0.74223379718E+03  0.87298501246E+02  0.35074982774E+03  0.82556592259E+03  0.12699999809E+01 0. -1.
</event>
<event>
 5   0  0.1664168E-04  0.2059754E+04  0.7818609E-02  0.8579182E-01
        1   -1    0    0  501    0  0.00000000000E+00  0.00000000000E+00  0.75432394780E+03  0.75432394782E+03  0.50400001928E-02 0. -1.
       -1   -1    0    0    0  501  0.00000000000E+00  0.00000000000E+00 -0.14060894014E+04  0.14060894014E+04  0.50400001928E-02 0.  1.
    10030    2    1    2    0    0  0.00000000000E+00  0.00000000000E+00 -0.65176545361E+03  0.21604133492E+04  0.20597542652E+04 0.  0.
        5    1    3    3  502    0  0.10226986281E+04  0.18261377335E+01 -0.19867514159E+03  0.10418299864E+04  0.46999998093E+01 0. -1.
       -5    1    3    3    0  502 -0.10226986281E+04 -0.18261377335E+01 -0.45309031202E+03  0.11185833628E+04  0.46999998093E+01 0.  1.
</event>
<event>
 5   0  0.3387881E-04  0.1969567E+04  0.7818609E-02  0.8620983E-01
        2   -1    0    0  501    0  0.00000000000E+00  0.00000000000E+00  0.23391459676E+04  0.23391459676E+04  0.25500000920E-02 0.  1.
       -2   -1    0    0    0  501  0.00000000000E+00  0.00000000000E+00 -0.41459495215E+03  0.41459495216E+03  0.25500000920E-02 0. -1.
    10030    2    1    2    0    0  0.00000000000E+00  0.00000000000E+00  0.19245510155E+04  0.27537409198E+04  0.19695665620E+04 0.  0.
        1    1    3    3  502    0 -0.97897653953E+02  0.97963552194E+03  0.99441473800E+03  0.13993321184E+04  0.50400001928E-02 0.  1.
       -1    1    3    3    0  502  0.97897653953E+02 -0.97963552194E+03  0.93013627749E+03  0.13544088014E+04  0.50400001928E-02 0. -1.
</event>
<event>
 5   0  0.3431030E-04  0.2058927E+04  0.7818609E-02  0.8579555E-01
       -2   -1    0    0    0  501  0.00000000000E+00  0.00000000000E+00  0.10971178278E+04  0.10971178278E+04  0.25500000920E-02 0.  1.
        2   -1    0    0  501    0  0.00000000000E+00  0.00000000000E+00 -0.96598154655E+03  0.96598154655E+03  0.25500000920E-02 0. -1.
    10030    2    1    2    0    0  0.00000000000E+00  0.00000000000E+00  0.13113628122E+03  0.20630993743E+04  0.20589274645E+04 0.  0.
        3    1    3    3  502    0 -0.20421923206E+03 -0.10088774332E+04  0.49523332068E+02  0.10305298349E+04  0.10100000352E+00 0.  1.
       -3    1    3    3    0  502  0.20421923206E+03  0.10088774332E+04  0.81612949156E+02  0.10325695394E+04  0.10100000352E+00 0. -1.
</event>
<event>
 5   0  0.1696052E-04  0.1154708E+04  0.7818609E-02  0.9153451E-01
        1   -1    0    0  501    0  0.00000000000E+00  0.00000000000E+00  0.15643465853E+04  0.15643465853E+04  0.50400001928E-02 0.  1.
       -1   -1    0    0    0  501  0.00000000000E+00  0.00000000000E+00 -0.21308420753E+03  0.21308420759E+03  0.50400001928E-02 0. -1.
    10030    2    1    2    0    0  0.00000000000E+00  0.00000000000E+00  0.13512623777E+04  0.17774307929E+04  0.11547078461E+04 0.  0.
        4    1    3    3  502    0  0.34366543318E+03  0.45969510939E+03  0.77188813192E+03  0.96189314617E+03  0.12699999809E+01 0. -1.
       -4    1    3    3    0  502 -0.34366543318E+03 -0.45969510939E+03  0.57937424581E+03  0.81553764669E+03  0.12699999809E+01 0.  1.
</event>
<event>
 5   0  0.3460648E-04  0.1953177E+04  0.7818609E-02  0.8628830E-01
        2   -1    0    0  501    0  0.00000000000E+00  0.00000000000E+00  0.79395426660E+03  0.79395426661E+03  0.25500000920E-02 0.  1.
       -2   -1    0    0    0  501  0.00000000000E+00  0.00000000000E+00 -0.12012338188E+04  0.12012338188E+04  0.25500000920E-02 0. -1.
    10030    2    1    2    0    0  0.00000000000E+00  0.00000000000E+00 -0.40727955217E+03  0.19951880854E+04  0.19531766081E+04 0.  0.
        5    1    3    3  502    0  0.39973669856E+03  0.69456718122E+03  0.36647739758E+03  0.88121550732E+03  0.46999998093E+01 0.  1.
       -5    1    3    3    0  502 -0.39973669856E+03 -0.69456718122E+03 -0.77375694975E+03  0.11139725781E+04  0.46999998093E+01 0. -1.
</event>
<event>
 5   0  0.3371947E-04  0.1709915E+04  0.7818609E-02  0.8755730E-01
        2   -1    0    0  501    0  0.00000000000E+00  0.00000000000E+00  0.12382550020E+04  0.12382550020E+04  0.25500000920E-02 0.  1.
       -2   -1    0    0    0  501  0.00000000000E+00  0.00000000000E+00 -0.59030849885E+03  0.59030849886E+03  0.25500000920E-02 0. -1.
    10030    2    1    2    0    0  0.00000000000E+00  0.00000000000E+00  0.64794650312E+03  0.18285635008E+04  0.17099151457E+04 0.  0.
        2    1    3    3  502    0  0.13683422340E+03  0.54645716560E+03 -0.36378022522E+03  0.67057817650E+03  0.25500000920E-02 0. -1.
       -2    1    3    3    0  502 -0.13683422340E+03 -0.54645716560E+03  0.10117267283E+04  0.11579853243E+04  0.25500000920E-02 0.  1.
</event>
<event>
 5   0  0.3371947E-04  0.1971553E+04  0.7818609E-02  0.8620037E-01
        2   -1    0    0  501    0  0.00000000000E+00  0.00000000000E+00  0.76650003567E+03  0.76650003567E+03  0.25500000920E-02 0. -1.
       -2   -1    0    0    0  501  0.00000000000E+00  0.00000000000E+00 -0.12677829088E+04  0.12677829088E+04  0.25500000920E-02 0.  1.
    10030    2    1    2    0    0  0.00000000000E+00  0.00000000000E+00 -0.50128287314E+03  0.20342829445E+04  0.19715533417E+04 0.  0.
        2    1    3    3  502    0 -0.96922861579E+03  0.17985279840E+03 -0.24845114596E+03  0.10166017464E+04  0.25500000920E-02 0.  1.
       -2    1    3    3    0  502  0.96922861579E+03 -0.17985279840E+03 -0.25283172719E+03  0.10176811981E+04  0.25500000920E-02 0. -1.
</event>
<event>
 5   0  0.1708578E-04  0.1924614E+04  0.7818609E-02  0.8642700E-01
        1   -1    0    0  501    0  0.00000000000E+00  0.00000000000E+00  0.14252555065E+04  0.14252555065E+04  0.50400001928E-02 0. -1.
       -1   -1    0    0    0  501  0.00000000000E+00  0.00000000000E+00 -0.64973257019E+03  0.64973257021E+03  0.50400001928E-02 0.  1.
    10030    2    1    2    0    0  0.00000000000E+00  0.00000000000E+00  0.77552293633E+03  0.20749880767E+04  0.19246141675E+04 0.  0.
        3    1    3    3  502    0  0.10602931711E+03  0.95488482369E+03  0.44669171874E+03  0.10595191100E+04  0.10100000352E+00 0.  1.
       -3    1    3    3    0  502 -0.10602931711E+03 -0.95488482369E+03  0.32883121759E+03  0.10154689668E+04  0.10100000352E+00 0. -1.
</event>
<event>
 5   0  0.1643565E-04  0.1923145E+04  0.7818609E-02  0.8643421E-01
        1   -1    0    0  501    0  0.00000000000E+00  0.00000000000E+00  0.12672841880E+04  0.12672841880E+04  0.50400001928E-02 0.  1.
       -1   -1    0    0    0  501  0.00000000000E+00  0.00000000000E+00 -0.72960900041E+03  0.72960900043E+03  0.50400001928E-02 0. -1.
    10030    2    1    2    0    0  0.00000000000E+00  0.00000000000E+00  0.53767518761E+03  0.19968931885E+04  0.19231452880E+04 0.  0.
        2    1    3    3  502    0  0.40584705716E+02  0.66739664391E+01  0.12663704061E+04  0.12670381469E+04  0.25500000920E-02 0.  1.
       -2    1    3    3    0  502 -0.40584705716E+02 -0.66739664391E+01 -0.72869521853E+03  0.72985504155E+03  0.25500000920E-02 0. -1.
</event>
<event>
 5   0  0.3387881E-04  0.1905032E+04  0.7818609E-02  0.8652356E-01
        2   -1    0    0  501    0  0.00000000000E+00  0.00000000000E+00  0.78329604062E+03  0.78329604062E+03  0.25500000920E-02 0.  1.
       -2   -1    0    0    0  501  0.00000000000E+00  0.00000000000E+00 -0.11582933761E+04  0.11582933761E+04  0.25500000920E-02 0. -1.
    10030    2    1    2    0    0  0.00000000000E+00  0.00000000000E+00 -0.37499733544E+03  0.19415894167E+04  0.19050318794E+04 0.  0.
        1    1    3    3  502    0 -0.57646268887E+03  0.75546626599E+03 -0.25392690837E+03  0.98362461616E+03  0.50400001928E-02 0.  1.
       -1    1    3    3    0  502  0.57646268887E+03 -0.75546626599E+03 -0.12107042707E+03  0.95796480052E+03  0.50400001928E-02 0. -1.
</event>
<event>
 5   0  0.1643565E-04  0.2108764E+04  0.7818609E-02  0.8557393E-01
       -1   -1    0    0    0  501  0.00000000000E+00  0.00000000000E+00  0.10734099604E+04  0.10734099604E+04  0.50400001928E-02 0.  1.
        1   -1    0    0  501    0  0.00000000000E+00  0.00000000000E+00 -0.10356911938E+04  0.10356911938E+04  0.50400001928E-02 0. -1.
    10030    2    1    2    0    0  0.00000000000E+00  0.00000000000E+00  0.37718766639E+02  0.21091011542E+04  0.21087638496E+04 0.  0.
        2    1    3    3  502    0  0.60612749809E+03  0.86057174207E+03  0.80081723092E+02  0.10556454658E+04  0.25500000920E-02 0. -1.
       -2    1    3    3    0  502 -0.60612749809E+03 -0.86057174207E+03 -0.42362956453E+02  0.10534556883E+04  0.25500000920E-02 0.  1.
</event>
<event>
 5   0  0.1664168E-04  0.1363965E+04  0.7818609E-02  0.8980323E-01
       -1   -1    0    0    0  501  0.00000000000E+00  0.00000000000E+00  0.74113605026E+03  0.74113605028E+03  0.50400001928E-02 0.  1.
        1   -1    0    0  501    0  0.00000000000E+00  0.00000000000E+00 -0.62755045808E+03  0.62755045810E+03  0.50400001928E-02 0. -1.
    10030    2    1    2    0    0  0.00000000000E+00  0.00000000000E+00  0.11358559218E+03  0.13686865084E+04  0.13639652017E+04 0.  0.
        5    1    3    3  502    0 -0.65212592128E+03  0.19023239557E+03 -0.35952136911E+01  0.67933172831E+03  0.46999998093E+01 0.  1.
       -5    1    3    3    0  502  0.65212592128E+03 -0.19023239557E+03  0.11718080587E+03  0.68935478006E+03  0.46999998093E+01 0. -1.
</event>
<event>
 5   0  0.3460648E-04  0.1968532E+04  0.7818609E-02  0.8621476E-01
       -2   -1    0    0    0  501  0.00000000000E+00  0.00000000000E+00  0.81662950393E+03  0.81662950394E+03  0.25500000920E-02 0. -1.
        2   -1    0    0  501    0  0.00000000000E+00  0.00000000000E+00 -0.11863142502E+04  0.11863142502E+04  0.25500000920E-02 0.  1.
    10030    2    1    2    0    0  0.00000000000E+00  0.00000000000E+00 -0.36968474625E+03  0.20029437541E+04  0.19685316534E+04 0.  0.
        5    1    3    3  502    0 -0.13622867218E+02  0.56208120480E+03 -0.10068237012E+04  0.11531855525E+04  0.46999998093E+01 0.  1.
       -5    1    3    3    0  502  0.13622867218E+02 -0.56208120480E+03  0.63713895493E+03  0.84975820160E+03  0.46999998093E+01 0. -1.
</event>
<event>
 5   0  0.1643565E-04  0.2023636E+04  0.7818609E-02  0.8595649E-01
       -1   -1    0    0    0  501  0.00000000000E+00  0.00000000000E+00  0.74855601790E+03  0.74855601791E+03  0.50400001928E-02 0.  1.
        1   -1    0    0  501    0  0.00000000000E+00  0.00000000000E+00 -0.13676678888E+04  0.13676678888E+04  0.50400001928E-02 0. -1.
    10030    2    1    2    0    0  0.00000000000E+00  0.00000000000E+00 -0.61911187087E+03  0.21162239067E+04  0.20236363593E+04 0.  0.
        2    1    3    3  502    0 -0.33125795175E+02 -0.83080733199E+03 -0.91251023898E+03  0.12345092456E+04  0.25500000920E-02 0. -1.
       -2    1    3    3    0  502  0.33125795175E+02  0.83080733199E+03  0.29339836811E+03  0.88171466111E+03  0.25500000920E-02 0.  1.
</event>
<event>
 5   0  0.1708578E-04  0.1489446E+04  0.7818609E-02  0.8891502E-01
        1   -1    0    0  501    0  0.00000000000E+00  0.00000000000E+00  0.85863248385E+03  0.85863248387E+03  0.50400001928E-02 0. -1.
       -1   -1    0    0    0  501  0.00000000000E+00  0.00000000000E+00 -0.64592512283E+03  0.64592512285E+03  0.50400001928E-02 0.  1.
    10030    2    1    2    0    0  0.00000000000E+00  0.00000000000E+00  0.21270736102E+03  0.15045576067E+04  0.14894459273E+04 0.  0.
        3    1    3    3  502    0  0.34622601357E+03 -0.22222228782E+03  0.73342328984E+03  0.84093099001E+03  0.10100000352E+00 0. -1.
       -3    1    3    3    0  502 -0.34622601357E+03  0.22222228782E+03 -0.52071592882E+03  0.66362661671E+03  0.10100000352E+00 0.  1.
</event>
<event>
 5   0  0.1664168E-04  0.1988938E+04  0.7818609E-02  0.8611810E-01
        1   -1    0    0  501    0  0.00000000000E+00  0.00000000000E+00  0.86953871804E+03  0.86953871805E+03  0.50400001928E-02 0.  1.
       -1   -1    0    0    0  501  0.00000000000E+00  0.00000000000E+00 -0.11373491033E+04  0.11373491033E+04  0.50400001928E-02 0. -1.
    10030    2    1    2    0    0  0.00000000000E+00  0.00000000000E+00 -0.26781038526E+03  0.20068878214E+04  0.19889384920E+04 0.  0.
        5    1    3    3  502    0  0.50406564946E+03 -0.67239382493E+02 -0.99621908281E+03  0.11185159205E+04  0.46999998093E+01 0. -1.
       -5    1    3    3    0  502 -0.50406564946E+03  0.67239382493E+02  0.72840869755E+03  0.88837190083E+03  0.46999998093E+01 0.  1.
</event>
<event>
 5   0  0.3371947E-04  0.1983490E+04  0.7818609E-02  0.8614379E-01
        2   -1    0    0  501    0  0.00000000000E+00  0.00000000000E+00  0.18462352834E+04  0.18462352834E+04  0.25500000920E-02 0.  1.
       -2   -1    0    0    0  501  0.00000000000E+00  0.00000000000E+00 -0.53273705652E+03  0.53273705653E+03  0.25500000920E-02 0. -1.
    10030    2    1    2    0    0  0.00000000000E+00  0.00000000000E+00  0.13134982269E+04  0.23789723400E+04  0.19834898039E+04 0.  0.
        2    1    3    3  502    0  0.86998517298E+03  0.47530510988E+03  0.62349337200E+03  0.11711247302E+04  0.25500000920E-02 0. -1.
       -2    1    3    3    0  502 -0.86998517298E+03 -0.47530510988E+03  0.69000485492E+03  0.12078476098E+04  0.25500000920E-02 0.  1.
</event>
<event>
 5   0  0.3387881E-04  0.2040377E+04  0.7818609E-02  0.8587973E-01
       -2   -1    0    0    0  501  0.00000000000E+00  0.00000000000E+00  0.10370248879E+04  0.10370248879E+04  0.25500000920E-02 0. -1.
        2   -1    0    0  501    0  0.00000000000E+00  0.00000000000E+00 -0.10036251520E+04  0.10036251520E+04  0.25500000920E-02 0.  1.
    10030    2    1    2    0    0  0.00000000000E+00  0.00000000000E+00  0.33399735888E+02  0.20406500398E+04  0.20403766914E+04 0.  0.
        1    1    3    3  502    0  0.71703153544E+02 -0.95500038231E+03 -0.33493959561E+03  0.10145696650E+04  0.50400001928E-02 0. -1.
       -1    1    3    3    0  502 -0.71703153544E+02  0.95500038231E+03  0.36833933150E+03  0.10260803748E+04  0.50400001928E-02 0.  1.
</event>
<event>
 5   0  0.1708578E-04  0.1759108E+04  0.7818609E-02  0.8728353E-01
       -1   -1    0    0    0  501  0.00000000000E+00  0.00000000000E+00  0.46149320727E+03  0.46149320730E+03  0.50400001928E-02 0.  1.
        1   -1    0    0  501    0  0.00000000000E+00  0.00000000000E+00 -0.16763306909E+04  0.16763306909E+04  0.50400001928E-02 0. -1.
    10030    2    1    2    0    0  0.00000000000E+00  0.00000000000E+00 -0.12148374836E+04  0.21378238982E+04  0.17591079865E+04 0.  0.
        3    1    3    3  502    0  0.78369750350E+03  0.19640593487E+03 -0.18492780616E+03  0.82882770944E+03  0.10100000352E+00 0.  1.
       -3    1    3    3    0  502 -0.78369750350E+03 -0.19640593487E+03 -0.10299096774E+04  0.13089961887E+04  0.10100000352E+00 0. -1.
</event>
<event>
 5   0  0.3387881E-04  0.1740628E+04  0.7818609E-02  0.8738526E-01
       -2   -1    0    0    0  501  0.00000000000E+00  0.00000000000E+00  0.30104259369E+03  0.30104259370E+03  0.25500000920E-02 0.  1.
        2   -1    0    0  501    0  0.00000000000E+00  0.00000000000E+00 -0.25160785882E+04  0.25160785882E+04  0.25500000920E-02 0. -1.
    10030    2    1    2    0    0  0.00000000000E+00  0.00000000000E+00 -0.22150359945E+04  0.28171211819E+04  0.17406284200E+04 0.  0.
        1    1    3    3  502    0  0.43208302704E+03 -0.32681555002E+03 -0.22098987488E+04  0.22753365962E+04  0.50400001928E-02 0. -1.
       -1    1    3    3    0  502 -0.43208302704E+03  0.32681555002E+03 -0.51372456961E+01  0.54178458570E+03  0.50400001928E-02 0.  1.
</event>
<event>
 5   0  0.3387881E-04  0.2068817E+04  0.7818609E-02  0.8575105E-01
        2   -1    0    0  501    0  0.00000000000E+00  0.00000000000E+00  0.20633898481E+04  0.20633898481E+04  0.25500000920E-02 0.  1.
       -2   -1    0    0    0  501  0.00000000000E+00  0.00000000000E+00 -0.51856460825E+03  0.51856460825E+03  0.25500000920E-02 0. -1.
    10030    2    1    2    0    0  0.00000000000E+00  0.00000000000E+00  0.15448252399E+04  0.25819544564E+04  0.20688170033E+04 0.  0.
        1    1    3    3  502    0 -0.38433752969E+03 -0.60660183518E+03  0.17016072816E+04  0.18469294692E+04  0.50400001928E-02 0.  1.
       -1    1    3    3    0  502  0.38433752969E+03  0.60660183518E+03 -0.15678204176E+03  0.73502498720E+03  0.50400001928E-02 0. -1.
</event>
<event>
 5   0  0.3460648E-04  0.1676294E+04  0.7818609E-02  0.8775001E-01
        2   -1    0    0  501    0  0.00000000000E+00  0.00000000000E+00  0.22270648790E+04  0.22270648790E+04  0.25500000920E-02 0. -1.
       -2   -1    0    0    0  501  0.00000000000E+00  0.00000000000E+00 -0.31543324543E+03  0.31543324544E+03  0.25500000920E-02 0.  1.
    10030    2    1    2    0    0  0.00000000000E+00  0.00000000000E+00  0.19116316336E+04  0.25424981245E+04  0.16762938914E+04 0.  0.
        5    1    3    3  502    0  0.21201931087E+03  0.46656121331E+03 -0.50087384869E+02  0.51493921007E+03  0.46999998093E+01 0.  1.
       -5    1    3    3    0  502 -0.21201931087E+03 -0.46656121331E+03  0.19617190185E+04  0.20275589144E+04  0.46999998093E+01 0. -1.
</event>
<event>
 5   0  0.3431030E-04  0.1437815E+04  0.7818609E-02  0.8926892E-01
       -2   -1    0    0    0  501  0.00000000000E+00  0.00000000000E+00  0.30631978220E+03  0.30631978221E+03  0.25500000920E-02 0.  1.
        2   -1    0    0  501    0  0.00000000000E+00  0.00000000000E+00 -0.16872179293E+04  0.16872179293E+04  0.25500000920E-02 0. -1.
    10030    2    1    2    0    0  0.00000000000E+00  0.00000000000E+00 -0.13808981471E+04  0.19935377115E+04  0.14378153270E+04 0.  0.
        3    1    3    3  502    0  0.26560404956E+03 -0.66420577103E+03 -0.78959531926E+03  0.10654461956E+04  0.10100000352E+00 0. -1.
       -3    1    3    3    0  502 -0.26560404956E+03  0.66420577103E+03 -0.59130282781E+03  0.92809151585E+03  0.10100000352E+00 0.  1.
</event>
<event>
 5   0  0.1650221E-04  0.1944706E+04  0.7818609E-02  0.8632918E-01
        1   -1    0    0  501    0  0.00000000000E+00  0.00000000000E+00  0.16623042347E+04  0.16623042347E+04  0.50400001928E-02 0. -1.
       -1   -1    0    0    0  501  0.00000000000E+00  0.00000000000E+00 -0.56877096389E+03  0.56877096391E+03  0.50400001928E-02 0.  1.
    10030    2    1    2    0    0  0.00000000000E+00  0.00000000000E+00  0.10935332708E+04  0.22310751986E+04  0.19447060260E+04 0.  0.
        1    1    3    3  502    0  0.78856779001E+03  0.47119570785E+03  0.18107118551E+03  0.93629660300E+03  0.50400001928E-02 0.  1.
       -1    1    3    3    0  502 -0.78856779001E+03 -0.47119570785E+03  0.91246208532E+03  0.12947785956E+04  0.50400001928E-02 0. -1.
</event>
<event>
 5   0  0.1650221E-04  0.2018597E+04  0.7818609E-02  0.8597975E-01
        1   -1    0    0  501    0  0.00000000000E+00  0.00000000000E+00  0.71200910080E+03  0.71200910082E+03  0.50400001928E-02 0.  1.
       -1   -1    0    0    0  501  0.00000000000E+00  0.00000000000E+00 -0.14307166314E+04  0.14307166315E+04  0.50400001928E-02 0. -1.
    10030    2    1    2    0    0  0.00000000000E+00  0.00000000000E+00 -0.71870753065E+03  0.21427257323E+04  0.20185968020E+04 0.  0.
        1    1    3    3  502    0  0.33606221734E+03  0.41733173065E+03  0.54856672984E+03  0.76683051873E+03  0.50400001928E-02 0.  1.
       -1    1    3    3    0  502 -0.33606221734E+03 -0.41733173065E+03 -0.12672742605E+04  0.13758952135E+04  0.50400001928E-02 0. -1.
</event>
<event>
 5   0  0.1650221E-04  0.1974907E+04  0.7818609E-02  0.8618443E-01
       -1   -1    0    0    0  501  0.00000000000E+00  0.00000000000E+00  0.50096698350E+03  0.50096698352E+03  0.50400001928E-02 0.  1.
        1   -1    0    0  501    0  0.00000000000E+00  0.00000000000E+00 -0.19463641954E+04  0.19463641954E+04  0.50400001928E-02 0. -1.
    10030    2    1    2    0    0  0.00000000000E+00  0.00000000000E+00 -0.14453972119E+04  0.24473311789E+04  0.19749067824E+04 0.  0.
        1    1    3    3  502    0 -0.75904517660E+03 -0.12559388139E+03 -0.14897515493E+04  0.16766881289E+04  0.50400001928E-02 0. -1.
       -1    1    3    3    0  502  0.75904517660E+03  0.12559388139E+03  0.44354337405E+02  0.77064304995E+03  0.50400001928E-02 0.  1.
</event>
<event>
 5   0  0.3460648E-04  0.1038879E+04  0.7818609E-02  0.9266901E-01
       -2   -1    0    0    0  501  0.00000000000E+00  0.00000000000E+00  0.53429446778E+03  0.53429446778E+03  0.25500000920E-02 0. -1.
        2   -1    0    0  501    0  0.00000000000E+00  0.00000000000E+00 -0.50499771100E+03  0.50499771101E+03  0.25500000920E-02 0.  1.
    10030    2    1    2    0    0  0.00000000000E+00  0.00000000000E+00  0.29296756771E+02  0.10392921788E+04  0.10388791715E+04 0.  0.
        5    1    3    3  502    0  0.16168530034E+03  0.15721461431E+03  0.48274124694E+03  0.53284122662E+03  0.46999998093E+01 0. -1.
       -5    1    3    3    0  502 -0.16168530034E+03 -0.15721461431E+03 -0.45344449017E+03  0.50645095217E+03  0.46999998093E+01 0.  1.
</event>
<event>
 5   0  0.3387881E-04  0.2014634E+04  0.7818609E-02  0.8599809E-01
        2   -1    0    0  501    0  0.00000000000E+00  0.00000000000E+00  0.28826802316E+04  0.28826802316E+04  0.25500000920E-02 0.  1.
       -2   -1    0    0    0  501  0.00000000000E+00  0.00000000000E+00 -0.35199439561E+03  0.35199439562E+03  0.25500000920E-02 0. -1.
    10030    2    1    2    0    0  0.00000000000E+00  0.00000000000E+00  0.25306858360E+04  0.32346746272E+04  0.20146337492E+04 0.  0.
        1    1    3    3  502    0  0.54603770630E+01  0.72491943470E+03  0.23882794421E+04  0.24958799443E+04  0.50400001928E-02 0.  1.
       -1    1    3    3    0  502 -0.54603770630E+01 -0.72491943470E+03  0.14240639387E+03  0.73879468295E+03  0.50400001928E-02 0. -1.
</event>
<event>
 5   0  0.1664168E-04  0.1923972E+04  0.7818609E-02  0.8643015E-01
        1   -1    0    0  501    0  0.00000000000E+00  0.00000000000E+00  0.14734661607E+04  0.14734661607E+04  0.50400001928E-02 0. -1.
       -1   -1    0    0    0  501  0.00000000000E+00  0.00000000000E+00 -0.62805427178E+03  0.62805427181E+03  0.50400001928E-02 0.  1.
    10030    2    1    2    0    0  0.00000000000E+00  0.00000000000E+00  0.84541188894E+03  0.21015204325E+04  0.19239716387E+04 0.  0.
        5    1    3    3  502    0  0.45294550085E+03  0.82018194169E+03  0.18455685318E+03  0.95495621170E+03  0.46999998093E+01 0.  1.
       -5    1    3    3    0  502 -0.45294550085E+03 -0.82018194169E+03  0.66085503575E+03  0.11465642208E+04  0.46999998093E+01 0. -1.
</event>
<event>
 5   0  0.1664168E-04  0.1913225E+04  0.7818609E-02  0.8648301E-01
       -1   -1    0    0    0  501  0.00000000000E+00  0.00000000000E+00  0.75765779700E+03  0.75765779702E+03  0.50400001928E-02 0.  1.
        1   -1    0    0  501    0  0.00000000000E+00  0.00000000000E+00 -0.12078114039E+04  0.12078114039E+04  0.50400001928E-02 0. -1.
    10030    2    1    2    0    0  0.00000000000E+00  0.00000000000E+00 -0.45015360686E+03  0.19654692009E+04  0.19132252638E+04 0.  0.
        5    1    3    3  502    0 -0.32152561113E+03 -0.20196157259E+03 -0.11270722669E+04  0.11893196291E+04  0.46999998093E+01 0. -1.
       -5    1    3    3    0  502  0.32152561113E+03  0.20196157259E+03  0.67691866005E+03  0.77614957176E+03  0.46999998093E+01 0.  1.
</event>
<event>
 5   0  0.3387881E-04  0.1980616E+04  0.7818609E-02  0.8615737E-01
       -2   -1    0    0    0  501  0.00000000000E+00  0.00000000000E+00  0.12834303255E+04  0.12834303255E+04  0.25500000920E-02 0. -1.
        2   -1    0    0  501    0  0.00000000000E+00  0.00000000000E+00 -0.76413212016E+03  0.76413212016E+03  0.25500000920E-02 0.  1.
    10030    2    1    2    0    0  0.00000000000E+00  0.00000000000E+00  0.51929820533E+03  0.20475624457E+04  0.19806164048E+04 0.  0.
        1    1    3    3  502    0  0.94770189143E+03  0.28588248851E+03  0.22963925077E+03  0.10161701913E+04  0.50400001928E-02 0.  1.
       -1    1    3    3    0  502 -0.94770189143E+03 -0.28588248851E+03  0.28965895456E+03  0.10313922543E+04  0.50400001928E-02 0. -1.
</event>
<event>
 5   0  0.1708578E-04  0.2072803E+04  0.7818609E-02  0.8573319E-01
        1   -1    0    0  501    0  0.00000000000E+00  0.00000000000E+00  0.12300786581E+04  0.12300786581E+04  0.50400001928E-02 0. -1.
       -1   -1    0    0    0  501  0.00000000000E+00  0.00000000000E+00 -0.87321925029E+03  0.87321925030E+03  0.50400001928E-02 0.  1.
    10030    2    1    2    0    0  0.00000000000E+00  0.00000000000E+00  0.35685940777E+03  0.21032979084E+04  0.20728032841E+04 0.  0.
        3    1    3    3  502    0  0.97040534467E+01 -0.85294361991E+02  0.12264649082E+04  0.12294655254E+04  0.10100000352E+00 0. -1.
       -3    1    3    3    0  502 -0.97040534467E+01  0.85294361991E+02 -0.86960550048E+03  0.87383238295E+03  0.10100000352E+00 0.  1.
</event>
<event>
 5   0  0.1643565E-04  0.1981551E+04  0.7818609E-02  0.8615295E-01
        1   -1    0    0  501    0  0.00000000000E+00  0.00000000000E+00  0.17367519537E+04  0.17367519537E+04  0.50400001928E-02 0. -1.
       -1   -1    0    0    0  501  0.00000000000E+00  0.00000000000E+00 -0.56521349435E+03  0.56521349437E+03  0.50400001928E-02 0.  1.
    10030    2    1    2    0    0  0.00000000000E+00  0.00000000000E+00  0.11715384594E+04  0.23019654481E+04  0.19815505450E+04 0.  0.
        2    1    3    3  502    0 -0.78131641732E+03  0.22543467790E+03  0.12432945043E+04  0.14856168289E+04  0.25500000920E-02 0. -1.
       -2    1    3    3    0  502  0.78131641732E+03 -0.22543467790E+03 -0.71756044952E+02  0.81634861914E+03  0.25500000920E-02 0.  1.
</event>
<event>
 5   0  0.1696052E-04  0.1034705E+04  0.7818609E-02  0.9271279E-01
        1   -1    0    0  501    0  0.00000000000E+00  0.00000000000E+00  0.81386997237E+03  0.81386997239E+03  0.50400001928E-02 0. -1.
       -1   -1    0    0    0  501  0.00000000000E+00  0.00000000000E+00 -0.32886537813E+03  0.32886537817E+03  0.50400001928E-02 0.  1.
    10030    2    1    2    0    0  0.00000000000E+00  0.00000000000E+00  0.48500459424E+03  0.11427353506E+04  0.10347050908E+04 0.  0.
        4    1    3    3  502    0  0.27843823820E+03 -0.52937034356E+02 -0.23549265341E+03  0.36849502684E+03  0.12699999809E+01 0.  1.
       -4    1    3    3    0  502 -0.27843823820E+03  0.52937034356E+02  0.72049724765E+03  0.77424032372E+03  0.12699999809E+01 0. -1.
</event>
<event>
 5   0  0.1696052E-04  0.1884229E+04  0.7818609E-02  0.8662747E-01
        1   -1    0    0  501    0  0.00000000000E+00  0.00000000000E+00  0.13805440171E+04  0.13805440171E+04  0.50400001928E-02 0. -1.
       -1   -1    0    0    0  501  0.00000000000E+00  0.00000000000E+00 -0.64292017590E+03  0.64292017592E+03  0.50400001928E-02 0.  1.
    10030    2    1    2    0    0  0.00000000000E+00  0.00000000000E+00  0.73762384121E+03  0.20234641930E+04  0.18842288633E+04 0.  0.
        4    1    3    3  502    0  0.65817480777E+02 -0.91808689710E+03  0.15306187815E+03  0.93308362050E+03  0.12699999809E+01 0.  1.
       -4    1    3    3    0  502 -0.65817480777E+02  0.91808689710E+03  0.58456196307E+03  0.10903805725E+04  0.12699999809E+01 0. -1.
</event>
<event>
 5   0  0.1650221E-04  0.1975362E+04  0.7818609E-02  0.8618227E-01
        1   -1    0    0  501    0  0.00000000000E+00  0.00000000000E+00  0.21250881237E+04  0.21250881237E+04  0.50400001928E-02 0.  1.
       -1   -1    0    0    0  501  0.00000000000E+00  0.00000000000E+00 -0.45904615833E+03  0.45904615836E+03  0.50400001928E-02 0. -1.
    10030    2    1    2    0    0  0.00000000000E+00  0.00000000000E+00  0.16660419653E+04  0.25841342820E+04  0.19753617788E+04 0.  0.
        1    1    3    3  502    0  0.19319167265E+03 -0.26416366612E+03  0.20520957932E+04  0.20780285392E+04  0.50400001928E-02 0.  1.
       -1    1    3    3    0  502 -0.19319167265E+03  0.26416366612E+03 -0.38605382792E+03  0.50610574286E+03  0.50400001928E-02 0. -1.
</event>
<event>
 5   0  0.1708578E-04  0.1939994E+04  0.7818609E-02  0.8635201E-01
        1   -1    0    0  501    0  0.00000000000E+00  0.00000000000E+00  0.12086680983E+04  0.12086680983E+04  0.50400001928E-02 0.  1.
       -1   -1    0    0    0  501  0.00000000000E+00  0.00000000000E+00 -0.77845555289E+03  0.77845555291E+03  0.50400001928E-02 0. -1.
    10030    2    1    2    0    0  0.00000000000E+00  0.00000000000E+00  0.43021254545E+03  0.19871236513E+04  0.19399942194E+04 0.  0.
        3    1    3    3  502    0 -0.29335442431E+03  0.76929880561E+03  0.74041702945E+03  0.11072916771E+04  0.10100000352E+00 0.  1.
       -3    1    3    3    0  502  0.29335442431E+03 -0.76929880561E+03 -0.31020448400E+03  0.87983197411E+03  0.10100000352E+00 0. -1.
</event>
<event>
 5   0  0.1696052E-04  0.1970573E+04  0.7818609E-02  0.8620503E-01
       -1   -1    0    0    0  501  0.00000000000E+00  0.00000000000E+00  0.55977690278E+03  0.55977690280E+03  0.50400001928E-02 0.  1.
        1   -1    0    0  501    0  0.00000000000E+00  0.00000000000E+00 -0.17342442085E+04  0.17342442085E+04  0.50400001928E-02 0. -1.
    10030    2    1    2    0    0  0.00000000000E+00  0.00000000000E+00 -0.11744673057E+04  0.22940211113E+04  0.19705733701E+04 0.  0.
        4    1    3    3  502    0 -0.97528777259E+03 -0.72612831829E+02 -0.72658733268E+03  0.12183552961E+04  0.12699999809E+01 0. -1.
       -4    1    3    3    0  502  0.97528777259E+03  0.72612831829E+02 -0.44787997300E+03  0.10756658151E+04  0.12699999809E+01 0.  1.
</event>
<event>
 5   0  0.3431030E-04  0.1747332E+04  0.7818609E-02  0.8734820E-01
       -2   -1    0    0    0  501  0.00000000000E+00  0.00000000000E+00  0.52754271956E+03  0.52754271957E+03  0.25500000920E-02 0.  1.
        2   -1    0    0  501    0  0.00000000000E+00  0.00000000000E+00 -0.14468826711E+04  0.14468826711E+04  0.25500000920E-02 0. -1.
    10030    2    1    2    0    0  0.00000000000E+00  0.00000000000E+00 -0.91933995157E+03  0.19744253907E+04  0.17473321599E+04 0.  0.
        3    1    3    3  502    0 -0.60967298861E+03 -0.14090547015E+02  0.24725223119E+03  0.65805271261E+03  0.10100000352E+00 0.  1.
       -3    1    3    3    0  502  0.60967298861E+03  0.14090547015E+02 -0.11665921828E+04  0.13163726781E+04  0.10100000352E+00 0. -1.
</event>
<event>
 5   0  0.1643565E-04  0.2022933E+04  0.7818609E-02  0.8595973E-01
       -1   -1    0    0    0  501  0.00000000000E+00  0.00000000000E+00  0.37366166972E+03  0.37366166975E+03  0.50400001928E-02 0. -1.
        1   -1    0    0  501    0  0.00000000000E+00  0.00000000000E+00 -0.27379422855E+04  0.27379422855E+04  0.50400001928E-02 0.  1.
    10030    2    1    2    0    0  0.00000000000E+00  0.00000000000E+00 -0.23642806157E+04  0.31116039552E+04  0.20229326099E+04 0.  0.
        2    1    3    3  502    0  0.14561334355E+03 -0.23071676825E+03 -0.26802770914E+04  0.26941267156E+04  0.25500000920E-02 0.  1.
       -2    1    3    3    0  502 -0.14561334355E+03  0.23071676825E+03  0.31599647566E+03  0.41747723962E+03  0.25500000920E-02 0. -1.
</event>
<event>
 5   0  0.1708578E-04  0.1890619E+04  0.7818609E-02  0.8659540E-01
       -1   -1    0    0    0  501  0.00000000000E+00  0.00000000000E+00  0.10348413876E+04  0.10348413877E+04  0.50400001928E-02 0. -1.
        1   -1    0    0  501    0  0.00000000000E+00  0.00000000000E+00 -0.86352352120E+03  0.86352352121E+03  0.50400001928E-02 0.  1.
    10030    2    1    2    0    0  0.00000000000E+00  0.00000000000E+00  0.17131786645E+03  0.18983649089E+04  0.18906188182E+04 0.  0.
        3    1    3    3  502    0  0.90171009689E+03  0.13407882277E+03 -0.16546902675E+03  0.92651942158E+03  0.10100000352E+00 0. -1.
       -3    1    3    3    0  502 -0.90171009689E+03 -0.13407882277E+03  0.33678689320E+03  0.97184548730E+03  0.10100000352E+00 0.  1.
</event>
<event>
 5   0  0.1643565E-04  0.2004891E+04  0.7818609E-02  0.8604337E-01
        1   -1    0    0  501    0  0.00000000000E+00  0.00000000000E+00  0.29729534434E+04  0.29729534434E+04  0.50400001928E-02 0.  1.
       -1   -1    0    0    0  501  0.00000000000E+00  0.00000000000E+00 -0.33801313022E+03  0.33801313026E+03  0.50400001928E-02 0. -1.
    10030    2    1    2    0    0  0.00000000000E+00  0.00000000000E+00  0.26349403132E+04  0.33109665737E+04  0.20048913182E+04 0.  0.
        2    1    3    3  502    0  0.26634473437E+03 -0.92116791805E+03  0.83484291085E+03  0.12713978671E+04  0.25500000920E-02 0. -1.
       -2    1    3    3    0  502 -0.26634473437E+03  0.92116791805E+03  0.18000974023E+04  0.20395687065E+04  0.25500000920E-02 0.  1.
</event>
<event>
 5   0  0.3387881E-04  0.1948929E+04  0.7818609E-02  0.8630878E-01
       -2   -1    0    0    0  501  0.00000000000E+00  0.00000000000E+00  0.57829539516E+03  0.57829539517E+03  0.25500000920E-02 0. -1.
        2   -1    0    0  501    0  0.00000000000E+00  0.00000000000E+00 -0.16420340057E+04  0.16420340057E+04  0.25500000920E-02 0.  1.
    10030    2    1    2    0    0  0.00000000000E+00  0.00000000000E+00 -0.10637386105E+04  0.22203294008E+04  0.19489286331E+04 0.  0.
        1    1    3    3  502    0  0.31370535945E+03  0.80812174631E+02 -0.15788943019E+04  0.16117843766E+04  0.50400001928E-02 0.  1.
       -1    1    3    3    0  502 -0.31370535945E+03 -0.80812174631E+02  0.51515569139E+03  0.60854502422E+03  0.50400001928E-02 0. -1.
</event>
<event>
 5   0  0.1650221E-04  0.1523098E+04  0.7818609E-02  0.8869237E-01
       -1   -1    0    0    0  501  0.00000000000E+00  0.00000000000E+00  0.90740026323E+03  0.90740026324E+03  0.50400001928E-02 0. -1.
        1   -1    0    0  501    0  0.00000000000E+00  0.00000000000E+00 -0.63914111340E+03  0.63914111342E+03  0.50400001928E-02 0.  1.
    10030    2    1    2    0    0  0.00000000000E+00  0.00000000000E+00  0.26825914982E+03  0.15465413767E+04  0.15230979149E+04 0.  0.
        1    1    3    3  502    0  0.35210135336E+03 -0.67407017186E+03  0.93376354498E+02  0.76620173795E+03  0.50400001928E-02 0. -1.
       -1    1    3    3    0  502 -0.35210135336E+03  0.67407017186E+03  0.17488279532E+03  0.78033963872E+03  0.50400001928E-02 0.  1.
</event>
<event>
 5   0  0.3371947E-04  0.1984881E+04  0.7818609E-02  0.8613722E-01
        2   -1    0    0  501    0  0.00000000000E+00  0.00000000000E+00  0.15633424396E+04  0.15633424396E+04  0.25500000920E-02 0. -1.
       -2   -1    0    0    0  501  0.00000000000E+00  0.00000000000E+00 -0.63002088512E+03  0.63002088512E+03  0.25500000920E-02 0.  1.
    10030    2    1    2    0    0  0.00000000000E+00  0.00000000000E+00  0.93332155450E+03  0.21933633247E+04  0.19848812434E+04 0.  0.
        2    1    3    3  502    0 -0.92029573067E+03  0.33010675819E+03  0.65491829021E+03  0.11767891360E+04  0.25500000920E-02 0. -1.
       -2    1    3    3    0  502  0.92029573067E+03 -0.33010675819E+03  0.27840326428E+03  0.10165741888E+04  0.25500000920E-02 0.  1.
</event>
<event>
 5   0  0.1222488E-04  0.1939518E+04  0.7818609E-02  0.8635432E-01
        3   -1    0    0  501    0  0.00000000000E+00  0.00000000000E+00  0.12132661611E+04  0.12132661653E+04  0.10100000352E+00 0. -1.
       -3   -1    0    0    0  501  0.00000000000E+00  0.00000000000E+00 -0.77512449817E+03  0.77512450475E+03  0.10100000352E+00 0.  1.
    10030    2    1    2    0    0  0.00000000000E+00  0.00000000000E+00  0.43814166295E+03  0.19883906701E+04  0.19395178112E+04 0.  0.
        4    1    3    3  502    0 -0.46221500267E+02 -0.49836355254E+03  0.10706202370E+04  0.11818341518E+04  0.12699999809E+01 0. -1.
       -4    1    3    3    0  502  0.46221500267E+02  0.49836355254E+03 -0.63247857407E+03  0.80655651826E+03  0.12699999809E+01 0.  1.
</event>
<event>
 5   0  0.1650221E-04  0.1993028E+04  0.7818609E-02  0.8609887E-01
       -1   -1    0    0    0  501  0.00000000000E+00  0.00000000000E+00  0.66587836849E+03  0.66587836851E+03  0.50400001928E-02 0. -1.
        1   -1    0    0  501    0  0.00000000000E+00  0.00000000000E+00 -0.14913237336E+04  0.14913237336E+04  0.50400001928E-02 0.  1.
    10030    2    1    2    0    0  0.00000000000E+00  0.00000000000E+00 -0.82544536509E+03  0.21572021021E+04  0.19930280627E+04 0.  0.
        1    1    3    3  502    0  0.86930332605E+03  0.51072341223E+02  0.11169129943E+03  0.87793599033E+03  0.50400001928E-02 0. -1.
       -1    1    3    3    0  502 -0.86930332605E+03 -0.51072341223E+02 -0.93713666452E+03  0.12792661118E+04  0.50400001928E-02 0.  1.
</event>
<event>
 5   0  0.1708578E-04  0.1990242E+04  0.7818609E-02  0.8611196E-01
        1   -1    0    0  501    0  0.00000000000E+00  0.00000000000E+00  0.13080055094E+04  0.13080055094E+04  0.50400001928E-02 0.  1.
       -1   -1    0    0    0  501  0.00000000000E+00  0.00000000000E+00 -0.75708076204E+03  0.75708076206E+03  0.50400001928E-02 0. -1.
    10030    2    1    2    0    0  0.00000000000E+00  0.00000000000E+00  0.55092474731E+03  0.20650862714E+04  0.19902420032E+04 0.  0.
        3    1    3    3  502    0 -0.57481683654E+03  0.30082695936E+03 -0.50746901886E+03  0.82367230762E+03  0.10100000352E+00 0. -1.
       -3    1    3    3    0  502  0.57481683654E+03 -0.30082695936E+03  0.10583937662E+04  0.12414139638E+04  0.10100000352E+00 0.  1.
</event>
<event>
 5   0  0.3431030E-04  0.2064221E+04  0.7818609E-02  0.8577170E-01
        2   -1    0    0  501    0  0.00000000000E+00  0.00000000000E+00  0.89030523098E+03  0.89030523099E+03  0.25500000920E-02 0. -1.
       -2   -1    0    0    0  501  0.00000000000E+00  0.00000000000E+00 -0.11965019627E+04  0.11965019627E+04  0.25500000920E-02 0.  1.
    10030    2    1    2    0    0  0.00000000000E+00  0.00000000000E+00 -0.30619673171E+03  0.20868071937E+04  0.20642208760E+04 0.  0.
        3    1    3    3  502    0 -0.52391010306E+03 -0.36701649055E+03  0.66574518529E+03  0.92325487400E+03  0.10100000352E+00 0. -1.
       -3    1    3    3    0  502  0.52391010306E+03  0.36701649055E+03 -0.97194191700E+03  0.11635523197E+04  0.10100000352E+00 0.  1.
</event>
<event>
 5   0  0.3395569E-04  0.2017215E+04  0.7818609E-02  0.8598614E-01
       -2   -1    0    0    0  501  0.00000000000E+00  0.00000000000E+00  0.44300739457E+03  0.44300739458E+03  0.25500000920E-02 0. -1.
        2   -1    0    0  501    0  0.00000000000E+00  0.00000000000E+00 -0.22963262051E+04  0.22963262051E+04  0.25500000920E-02 0.  1.
    10030    2    1    2    0    0  0.00000000000E+00  0.00000000000E+00 -0.18533188106E+04  0.27393335997E+04  0.20172153968E+04 0.  0.
        4    1    3    3  502    0  0.27747414972E+03 -0.44291435216E+03  0.24476689471E+03  0.57712864489E+03  0.12699999809E+01 0. -1.
       -4    1    3    3    0  502 -0.27747414972E+03  0.44291435216E+03 -0.20980857053E+04  0.21622049548E+04  0.12699999809E+01 0.  1.
</event>
<event>
 5   0  0.1650221E-04  0.2005298E+04  0.7818609E-02  0.8604148E-01
        1   -1    0    0  501    0  0.00000000000E+00  0.00000000000E+00  0.80466157727E+03  0.80466157728E+03  0.50400001928E-02 0. -1.
       -1   -1    0    0    0  501  0.00000000000E+00  0.00000000000E+00 -0.12493517264E+04  0.12493517264E+04  0.50400001928E-02 0.  1.
    10030    2    1    2    0    0  0.00000000000E+00  0.00000000000E+00 -0.44469014914E+03  0.20540133037E+04  0.20052983127E+04 0.  0.
        1    1    3    3  502    0  0.77723328792E+03 -0.63058180723E+03 -0.16105560400E+03  0.10137375928E+04  0.50400001928E-02 0. -1.
       -1    1    3    3    0  502 -0.77723328792E+03  0.63058180723E+03 -0.28363454514E+03  0.10402757109E+04  0.50400001928E-02 0.  1.
</event>
<event>
 5   0  0.1664168E-04  0.2468286E+04  0.7818609E-02  0.8414372E-01
       -1   -1    0    0    0  501  0.00000000000E+00  0.00000000000E+00  0.43062881156E+03  0.43062881159E+03  0.50400001928E-02 0.  1.
        1   -1    0    0  501    0  0.00000000000E+00  0.00000000000E+00 -0.35369427622E+04  0.35369427622E+04  0.50400001928E-02 0. -1.
    10030    2    1    2    0    0  0.00000000000E+00  0.00000000000E+00 -0.31063139506E+04  0.39675715738E+04  0.24682864164E+04 0.  0.
        5    1    3    3  502    0 -0.48304699793E+03  0.82642035743E+03 -0.28052762179E+04  0.29641021842E+04  0.46999998093E+01 0.  1.
       -5    1    3    3    0  502  0.48304699793E+03 -0.82642035743E+03 -0.30103773272E+03  0.10034693896E+04  0.46999998093E+01 0. -1.
</event>
<event>
 5   0  0.3431030E-04  0.1269727E+04  0.7818609E-02  0.9053923E-01
       -2   -1    0    0    0  501  0.00000000000E+00  0.00000000000E+00  0.63171110599E+03  0.63171110599E+03  0.25500000920E-02 0.  1.
        2   -1    0    0  501    0  0.00000000000E+00  0.00000000000E+00 -0.63803133291E+03  0.63803133292E+03  0.25500000920E-02 0. -1.
    10030    2    1    2    0    0  0.00000000000E+00  0.00000000000E+00 -0.63202269257E+01  0.12697424389E+04  0.12697267091E+04 0.  0.
        3    1    3    3  502    0 -0.26043976072E+03  0.48888652486E+03  0.30702523348E+03  0.63332725139E+03  0.10100000352E+00 0.  1.
       -3    1    3    3    0  502  0.26043976072E+03 -0.48888652486E+03 -0.31334546041E+03  0.63641518753E+03  0.10100000352E+00 0. -1.
</event>
<event>
 5   0  0.1696052E-04  0.2015594E+04  0.7818609E-02  0.8599365E-01
       -1   -1    0    0    0  501  0.00000000000E+00  0.00000000000E+00  0.48668530906E+03  0.48668530908E+03  0.50400001928E-02 0. -1.
        1   -1    0    0  501    0  0.00000000000E+00  0.00000000000E+00 -0.20868811089E+04  0.20868811089E+04  0.50400001928E-02 0.  1.
    10030    2    1    2    0    0  0.00000000000E+00  0.00000000000E+00 -0.16001957998E+04  0.25735664180E+04  0.20155935875E+04 0.  0.
        4    1    3    3  502    0  0.29999358737E+03 -0.25488925605E+03 -0.19846531089E+04  0.20233176372E+04  0.12699999809E+01 0.  1.
       -4    1    3    3    0  502 -0.29999358737E+03  0.25488925605E+03  0.38445730911E+03  0.55024878077E+03  0.12699999809E+01 0. -1.
</event>
<event>
 5   0  0.3431030E-04  0.1996510E+04  0.7818609E-02  0.8608254E-01
        2   -1    0    0  501    0  0.00000000000E+00  0.00000000000E+00  0.84254367170E+03  0.84254367171E+03  0.25500000920E-02 0. -1.
       -2   -1    0    0    0  501  0.00000000000E+00  0.00000000000E+00 -0.11827436572E+04  0.11827436572E+04  0.25500000920E-02 0.  1.
    10030    2    1    2    0    0  0.00000000000E+00  0.00000000000E+00 -0.34019998551E+03  0.20252873289E+04  0.19965101389E+04 0.  0.
        3    1    3    3  502    0 -0.19408466971E+03  0.97365012041E+03 -0.64436456762E+02  0.99489470958E+03  0.10100000352E+00 0.  1.
       -3    1    3    3    0  502  0.19408466971E+03 -0.97365012041E+03 -0.27576352875E+03  0.10303926193E+04  0.10100000352E+00 0. -1.
</event>
<event>
 5   0  0.1222488E-04  0.2046344E+04  0.7818609E-02  0.8585255E-01
       -3   -1    0    0    0  501  0.00000000000E+00  0.00000000000E+00  0.85246891178E+03  0.85246891776E+03  0.10100000352E+00 0.  1.
        3   -1    0    0  501    0  0.00000000000E+00  0.00000000000E+00 -0.12280574539E+04  0.12280574580E+04  0.10100000352E+00 0. -1.
    10030    2    1    2    0    0  0.00000000000E+00  0.00000000000E+00 -0.37558854209E+03  0.20805263758E+04  0.20463438732E+04 0.  0.
        2    1    3    3  502    0  0.24386635637E+03 -0.98704019520E+03 -0.71153594803E+02  0.10192065447E+04  0.25500000920E-02 0. -1.
       -2    1    3    3    0  502 -0.24386635637E+03  0.98704019520E+03 -0.30443494729E+03  0.10613198311E+04  0.25500000920E-02 0.  1.
</event>
<event>
 5   0  0.1643565E-04  0.2013215E+04  0.7818609E-02  0.8600467E-01
       -1   -1    0    0    0  501  0.00000000000E+00  0.00000000000E+00  0.97257392119E+03  0.97257392121E+03  0.50400001928E-02 0.  1.
        1   -1    0    0  501    0  0.00000000000E+00  0.00000000000E+00 -0.10418316275E+04  0.10418316275E+04  0.50400001928E-02 0. -1.
    10030    2    1    2    0    0  0.00000000000E+00  0.00000000000E+00 -0.69257706280E+02  0.20144055487E+04  0.20132146147E+04 0.  0.
        2    1    3    3  502    0  0.93107000041E+02 -0.91933225256E+03  0.36487863428E+03  0.99346722232E+03  0.25500000920E-02 0.  1.
       -2    1    3    3    0  502 -0.93107000041E+02  0.91933225256E+03 -0.43413634056E+03  0.10209383264E+04  0.25500000920E-02 0. -1.
</event>
<event>
 5   0  0.3460648E-04  0.1981676E+04  0.7818609E-02  0.8615236E-01
       -2   -1    0    0    0  501  0.00000000000E+00  0.00000000000E+00  0.51195582110E+03  0.51195582111E+03  0.25500000920E-02 0. -1.
        2   -1    0    0  501    0  0.00000000000E+00  0.00000000000E+00 -0.19176658702E+04  0.19176658702E+04  0.25500000920E-02 0.  1.
    10030    2    1    2    0    0  0.00000000000E+00  0.00000000000E+00 -0.14057100491E+04  0.24296216913E+04  0.19816762654E+04 0.  0.
        5    1    3    3  502    0  0.47899570628E+03 -0.70683041184E+03 -0.13191685413E+04  0.15713923279E+04  0.46999998093E+01 0.  1.
       -5    1    3    3    0  502 -0.47899570628E+03  0.70683041184E+03 -0.86541507833E+02  0.85822936347E+03  0.46999998093E+01 0. -1.
</event>
<event>
 5   0  0.1650221E-04  0.2030784E+04  0.7818609E-02  0.8592362E-01
        1   -1    0    0  501    0  0.00000000000E+00  0.00000000000E+00  0.18038283270E+04  0.18038283270E+04  0.50400001928E-02 0.  1.
       -1   -1    0    0    0  501  0.00000000000E+00  0.00000000000E+00 -0.57157375740E+03  0.57157375743E+03  0.50400001928E-02 0. -1.
    10030    2    1    2    0    0  0.00000000000E+00  0.00000000000E+00  0.12322545696E+04  0.23754020845E+04  0.20307840206E+04 0.  0.
        1    1    3    3  502    0 -0.69460147960E+03  0.54746693506E+03  0.32649290804E+02  0.88501821262E+03  0.50400001928E-02 0. -1.
       -1    1    3    3    0  502  0.69460147960E+03 -0.54746693506E+03  0.11996052788E+04  0.14903838718E+04  0.50400001928E-02 0.  1.
</event>
<event>
 5   0  0.1650221E-04  0.1967160E+04  0.7818609E-02  0.8622130E-01
        1   -1    0    0  501    0  0.00000000000E+00  0.00000000000E+00  0.97570338868E+03  0.97570338869E+03  0.50400001928E-02 0.  1.
       -1   -1    0    0    0  501  0.00000000000E+00  0.00000000000E+00 -0.99151978205E+03  0.99151978206E+03  0.50400001928E-02 0. -1.
    10030    2    1    2    0    0  0.00000000000E+00  0.00000000000E+00 -0.15816393370E+02  0.19672231707E+04  0.19671595881E+04 0.  0.
        1    1    3    3  502    0 -0.90564990692E+02 -0.48480662302E+03 -0.85892908206E+03  0.99045375828E+03  0.50400001928E-02 0. -1.
       -1    1    3    3    0  502  0.90564990692E+02  0.48480662302E+03  0.84311268870E+03  0.97676941246E+03  0.50400001928E-02 0.  1.
</event>
<event>
 5   0  0.3431030E-04  0.2002106E+04  0.7818609E-02  0.8605637E-01
        2   -1    0    0  501    0  0.00000000000E+00  0.00000000000E+00  0.10780517940E+04  0.10780517940E+04  0.25500000920E-02 0.  1.
       -2   -1    0    0    0  501  0.00000000000E+00  0.00000000000E+00 -0.92955404526E+03  0.92955404526E+03  0.25500000920E-02 0. -1.
    10030    2    1    2    0    0  0.00000000000E+00  0.00000000000E+00  0.14849774871E+03  0.20076058392E+04  0.20021062970E+04 0.  0.
        3    1    3    3  502    0  0.73402402022E+03  0.56486025330E+03  0.45509344281E+03  0.10319730713E+04  0.10100000352E+00 0.  1.
       -3    1    3    3    0  502 -0.73402402022E+03 -0.56486025330E+03 -0.30659569410E+03  0.97563276793E+03  0.10100000352E+00 0. -1.
</event>
<event>
 5   0  0.1696052E-04  0.1974195E+04  0.7818609E-02  0.8618781E-01
       -1   -1    0    0    0  501  0.00000000000E+00  0.00000000000E+00  0.42309553047E+03  0.42309553050E+03  0.50400001928E-02 0. -1.
        1   -1    0    0  501    0  0.00000000000E+00  0.00000000000E+00 -0.23029347805E+04  0.23029347805E+04  0.50400001928E-02 0.  1.
    10030    2    1    2    0    0  0.00000000000E+00  0.00000000000E+00 -0.18798392500E+04  0.27260303110E+04  0.19741949373E+04 0.  0.
        4    1    3    3  502    0 -0.27620750848E+03  0.81036013863E+03 -0.16183360872E+04  0.18308433701E+04  0.12699999809E+01 0.  1.
       -4    1    3    3    0  502  0.27620750848E+03 -0.81036013863E+03 -0.26150316284E+03  0.89518694086E+03  0.12699999809E+01 0. -1.
</event>
<event>
 5   0  0.1650221E-04  0.1106548E+04  0.7818609E-02  0.9198833E-01
        1   -1    0    0  501    0  0.00000000000E+00  0.00000000000E+00  0.32852548222E+03  0.32852548226E+03  0.50400001928E-02 0. -1.
       -1   -1    0    0    0  501  0.00000000000E+00  0.00000000000E+00 -0.93177575837E+03  0.93177575838E+03  0.50400001928E-02 0.  1.
    10030    2    1    2    0    0  0.00000000000E+00  0.00000000000E+00 -0.60325027615E+03  0.12603012406E+04  0.11065479301E+04 0.  0.
        1    1    3    3  502    0  0.30916672271E+03 -0.78426267077E+02 -0.81652230631E+03  0.87660904543E+03  0.50400001928E-02 0.  1.
       -1    1    3    3    0  502 -0.30916672271E+03  0.78426267077E+02  0.21327203016E+03  0.38369219522E+03  0.50400001928E-02 0. -1.
</event>
<event>
 5   0  0.3460648E-04  0.1980646E+04  0.7818609E-02  0.8615723E-01
        2   -1    0    0  501    0  0.00000000000E+00  0.00000000000E+00  0.17749136825E+04  0.17749136825E+04  0.25500000920E-02 0. -1.
       -2   -1    0    0    0  501  0.00000000000E+00  0.00000000000E+00 -0.55255648405E+03  0.55255648405E+03  0.25500000920E-02 0.  1.
    10030    2    1    2    0    0  0.00000000000E+00  0.00000000000E+00  0.12223571984E+04  0.23274701665E+04  0.19806464236E+04 0.  0.
        5    1    3    3  502    0  0.98335686672E+03  0.11641152860E+03  0.62675053438E+03  0.11719132620E+04  0.46999998093E+01 0. -1.
       -5    1    3    3    0  502 -0.98335686672E+03 -0.11641152860E+03  0.59560666404E+03  0.11555569045E+04  0.46999998093E+01 0.  1.
</event>
<event>
 5   0  0.1664168E-04  0.1643815E+04  0.7818609E-02  0.8794074E-01
       -1   -1    0    0    0  501  0.00000000000E+00  0.00000000000E+00  0.29461194449E+03  0.29461194454E+03  0.50400001928E-02 0.  1.
        1   -1    0    0  501    0  0.00000000000E+00  0.00000000000E+00 -0.22929561751E+04  0.22929561751E+04  0.50400001928E-02 0. -1.
    10030    2    1    2    0    0  0.00000000000E+00  0.00000000000E+00 -0.19983442306E+04  0.25875681196E+04  0.16438154123E+04 0.  0.
        5    1    3    3  502    0  0.26906815674E+03 -0.19874963324E+03 -0.21809300084E+04  0.22064398657E+04  0.46999998093E+01 0. -1.
       -5    1    3    3    0  502 -0.26906815674E+03  0.19874963324E+03  0.18258577777E+03  0.38112825391E+03  0.46999998093E+01 0.  1.
</event>
<event>
 5   0  0.3431030E-04  0.2067825E+04  0.7818609E-02  0.8575551E-01
       -2   -1    0    0    0  501  0.00000000000E+00  0.00000000000E+00  0.81720948690E+03  0.81720948691E+03  0.25500000920E-02 0. -1.
        2   -1    0    0  501    0  0.00000000000E+00  0.00000000000E+00 -0.13080796626E+04  0.13080796626E+04  0.25500000920E-02 0.  1.
    10030    2    1    2    0    0  0.00000000000E+00  0.00000000000E+00 -0.49087017574E+03  0.21252891496E+04  0.20678250506E+04 0.  0.
        3    1    3    3  502    0 -0.81405325379E+03  0.34837480309E+02  0.40870981717E+03  0.91155914503E+03  0.10100000352E+00 0. -1.
       -3    1    3    3    0  502  0.81405325379E+03 -0.34837480309E+02 -0.89957999290E+03  0.12137300045E+04  0.10100000352E+00 0.  1.
</event>
<event>
 5   0  0.1643565E-04  0.1969153E+04  0.7818609E-02  0.8621180E-01
       -1   -1    0    0    0  501  0.00000000000E+00  0.00000000000E+00  0.91892826134E+03  0.91892826135E+03  0.50400001928E-02 0. -1.
        1   -1    0    0  501    0  0.00000000000E+00  0.00000000000E+00 -0.10549148646E+04  0.10549148647E+04  0.50400001928E-02 0.  1.
    10030    2    1    2    0    0  0.00000000000E+00  0.00000000000E+00 -0.13598660331E+03  0.19738431260E+04  0.19691532012E+04 0.  0.
        2    1    3    3  502    0 -0.30454212309E+03  0.52727006620E+03  0.70756222010E+03  0.93349018354E+03  0.25500000920E-02 0. -1.
       -2    1    3    3    0  502  0.30454212309E+03 -0.52727006620E+03 -0.84354882341E+03  0.10403529425E+04  0.25500000920E-02 0.  1.
</event>
<event>
 5   0  0.1696052E-04  0.1959128E+04  0.7818609E-02  0.8625971E-01
        1   -1    0    0  501    0  0.00000000000E+00  0.00000000000E+00  0.61968639745E+03  0.61968639747E+03  0.50400001928E-02 0.  1.
       -1   -1    0    0    0  501  0.00000000000E+00  0.00000000000E+00 -0.15484381641E+04  0.15484381641E+04  0.50400001928E-02 0. -1.
    10030    2    1    2    0    0  0.00000000000E+00  0.00000000000E+00 -0.92875176660E+03  0.21681245615E+04  0.19591284466E+04 0.  0.
        4    1    3    3  502    0  0.56058334750E+03  0.61279812039E+03 -0.10391768951E+04  0.13302877351E+04  0.12699999809E+01 0. -1.
       -4    1    3    3    0  502 -0.56058334750E+03 -0.61279812039E+03  0.11042512852E+03  0.83783682645E+03  0.12699999809E+01 0.  1.
</event>
<event>
 5   0  0.1650221E-04  0.2009328E+04  0.7818609E-02  0.8602272E-01
        1   -1    0    0  501    0  0.00000000000E+00  0.00000000000E+00  0.20700346157E+04  0.20700346157E+04  0.50400001928E-02 0.  1.
       -1   -1    0    0    0  501  0.00000000000E+00  0.00000000000E+00 -0.48760061341E+03  0.48760061343E+03  0.50400001928E-02 0. -1.
    10030    2    1    2    0    0  0.00000000000E+00  0.00000000000E+00  0.15824340023E+04  0.25576352291E+04  0.20093283937E+04 0.  0.
        1    1    3    3  502    0  0.28089659107E+03  0.91691089191E+03  0.40994373229E+03  0.10429201035E+04  0.50400001928E-02 0. -1.
       -1    1    3    3    0  502 -0.28089659107E+03 -0.91691089191E+03  0.11724902700E+04  0.15147151256E+04  0.50400001928E-02 0.  1.
</event>
<event>
 5   0  0.1696052E-04  0.2002221E+04  0.7818609E-02  0.8605583E-01
        1   -1    0    0  501    0  0.00000000000E+00  0.00000000000E+00  0.12107697968E+04  0.12107697968E+04  0.50400001928E-02 0.  1.
       -1   -1    0    0    0  501  0.00000000000E+00  0.00000000000E+00 -0.82775646922E+03  0.82775646924E+03  0.50400001928E-02 0. -1.
    10030    2    1    2    0    0  0.00000000000E+00  0.00000000000E+00  0.38301332758E+03  0.20385262661E+04  0.20022212985E+04 0.  0.
        4    1    3    3  502    0 -0.11536477772E+03  0.78113855425E+03  0.81807960822E+03  0.11369882722E+04  0.12699999809E+01 0.  1.
       -4    1    3    3    0  502  0.11536477772E+03 -0.78113855425E+03 -0.43506628064E+03  0.90153799384E+03  0.12699999809E+01 0. -1.
</event>
<event>
 5   0  0.3371947E-04  0.1082893E+04  0.7818609E-02  0.9222027E-01
       -2   -1    0    0    0  501  0.00000000000E+00  0.00000000000E+00  0.35586349803E+03  0.35586349804E+03  0.25500000920E-02 0. -1.
        2   -1    0    0  501    0  0.00000000000E+00  0.00000000000E+00 -0.82381177896E+03  0.82381177897E+03  0.25500000920E-02 0.  1.
    10030    2    1    2    0    0  0.00000000000E+00  0.00000000000E+00 -0.46794828094E+03  0.11796752770E+04  0.10828934230E+04 0.  0.
        2    1    3    3  502    0 -0.92689250299E+02  0.45162157104E+03 -0.54327024989E+03  0.71252782751E+03  0.25500000920E-02 0.  1.
       -2    1    3    3    0  502  0.92689250299E+02 -0.45162157104E+03  0.75321968953E+02  0.46714744949E+03  0.25500000920E-02 0. -1.
</event>
<event>
 5   0  0.3387881E-04  0.2036958E+04  0.7818609E-02  0.8589534E-01
       -2   -1    0    0    0  501  0.00000000000E+00  0.00000000000E+00  0.70560454801E+03  0.70560454801E+03  0.25500000920E-02 0.  1.
        2   -1    0    0  501    0  0.00000000000E+00  0.00000000000E+00 -0.14700863022E+04  0.14700863022E+04  0.25500000920E-02 0. -1.
    10030    2    1    2    0    0  0.00000000000E+00  0.00000000000E+00 -0.76448175417E+03  0.21756908502E+04  0.20369581054E+04 0.  0.
        1    1    3    3  502    0  0.88921490882E+03 -0.26568779584E+03 -0.83034541856E+03  0.12452978250E+04  0.50400001928E-02 0. -1.
       -1    1    3    3    0  502 -0.88921490882E+03  0.26568779584E+03  0.65863664391E+02  0.93039302514E+03  0.50400001928E-02 0.  1.
</event>
<event>
 5   0  0.3431030E-04  0.1736426E+04  0.7818609E-02  0.8740857E-01
        2   -1    0    0  501    0  0.00000000000E+00  0.00000000000E+00  0.10566058528E+04  0.10566058528E+04  0.25500000920E-02 0.  1.
       -2   -1    0    0    0  501  0.00000000000E+00  0.00000000000E+00 -0.71341094951E+03  0.71341094952E+03  0.25500000920E-02 0. -1.
    10030    2    1    2    0    0  0.00000000000E+00  0.00000000000E+00  0.34319490326E+03  0.17700168023E+04  0.17364264277E+04 0.  0.
        3    1    3    3  502    0  0.28233616257E+03 -0.27227088366E+03  0.96114480192E+03  0.10380965674E+04  0.10100000352E+00 0.  1.
       -3    1    3    3    0  502 -0.28233616257E+03  0.27227088366E+03 -0.61794989866E+03  0.73192023489E+03  0.10100000352E+00 0. -1.
</event>
<event>
 5   0  0.3387881E-04  0.1936278E+04  0.7818609E-02  0.8637006E-01
        2   -1    0    0  501    0  0.00000000000E+00  0.00000000000E+00  0.47352161179E+03  0.47352161179E+03  0.25500000920E-02 0.  1.
       -2   -1    0    0    0  501  0.00000000000E+00  0.00000000000E+00 -0.19794102730E+04  0.19794102730E+04  0.25500000920E-02 0. -1.
    10030    2    1    2    0    0  0.00000000000E+00  0.00000000000E+00 -0.15058886612E+04  0.24529318848E+04  0.19362784334E+04 0.  0.
        1    1    3    3  502    0  0.86726355902E+03 -0.42566871999E+03 -0.67328911802E+03  0.11775645105E+04  0.50400001928E-02 0.  1.
       -1    1    3    3    0  502 -0.86726355902E+03  0.42566871999E+03 -0.83259954320E+03  0.12753673743E+04  0.50400001928E-02 0. -1.
</event>
<event>
 5   0  0.3395569E-04  0.1477650E+04  0.7818609E-02  0.8899453E-01
        2   -1    0    0  501    0  0.00000000000E+00  0.00000000000E+00  0.16986034933E+04  0.16986034933E+04  0.25500000920E-02 0. -1.
       -2   -1    0    0    0  501  0.00000000000E+00  0.00000000000E+00 -0.32135933966E+03  0.32135933967E+03  0.25500000920E-02 0.  1.
    10030    2    1    2    0    0  0.00000000000E+00  0.00000000000E+00  0.13772441536E+04  0.20199628330E+04  0.14776496161E+04 0.  0.
        4    1    3    3  502    0  0.47108198319E+03 -0.49991262218E+03  0.31668054831E+03  0.75638551498E+03  0.12699999809E+01 0.  1.
       -4    1    3    3    0  502 -0.47108198319E+03  0.49991262218E+03  0.10605636053E+04  0.12635773180E+04  0.12699999809E+01 0. -1.
</event>
<event>
 5   0  0.1708578E-04  0.2005436E+04  0.7818609E-02  0.8604084E-01
       -1   -1    0    0    0  501  0.00000000000E+00  0.00000000000E+00  0.71215383781E+03  0.71215383783E+03  0.50400001928E-02 0. -1.
        1   -1    0    0  501    0  0.00000000000E+00  0.00000000000E+00 -0.14118339642E+04  0.14118339642E+04  0.50400001928E-02 0.  1.
    10030    2    1    2    0    0  0.00000000000E+00  0.00000000000E+00 -0.69968012641E+03  0.21239878021E+04  0.20054355896E+04 0.  0.
        3    1    3    3  502    0 -0.15347635342E+03  0.98535781400E+03 -0.23897160208E+03  0.10254718180E+04  0.10100000352E+00 0. -1.
       -3    1    3    3    0  502  0.15347635342E+03 -0.98535781400E+03 -0.46070852433E+03  0.10985159841E+04  0.10100000352E+00 0.  1.
</event>
<event>
 5   0  0.1650221E-04  0.1974786E+04  0.7818609E-02  0.8618501E-01
       -1   -1    0    0    0  501  0.00000000000E+00  0.00000000000E+00  0.12273306499E+04  0.12273306500E+04  0.50400001928E-02 0.  1.
        1   -1    0    0  501    0  0.00000000000E+00  0.00000000000E+00 -0.79436198418E+03  0.79436198419E+03  0.50400001928E-02 0. -1.
    10030    2    1    2    0    0  0.00000000000E+00  0.00000000000E+00  0.43296866577E+03  0.20216926341E+04  0.19747858723E+04 0.  0.
        1    1    3    3  502    0  0.89990324149E+03 -0.24705193165E+03  0.54676849563E+03  0.10815804588E+04  0.50400001928E-02 0.  1.
       -1    1    3    3    0  502 -0.89990324149E+03  0.24705193165E+03 -0.11379982986E+03  0.94011217537E+03  0.50400001928E-02 0. -1.
</event>
<event>
 5   0  0.1222488E-04  0.1543500E+04  0.7818609E-02  0.8856030E-01
       -3   -1    0    0    0  501  0.00000000000E+00  0.00000000000E+00  0.39618043720E+03  0.39618045007E+03  0.10100000352E+00 0.  1.
        3   -1    0    0  501    0  0.00000000000E+00  0.00000000000E+00 -0.15033500383E+04  0.15033500417E+04  0.10100000352E+00 0. -1.
    10030    2    1    2    0    0  0.00000000000E+00  0.00000000000E+00 -0.11071696011E+04  0.18995304918E+04  0.15434997776E+04 0.  0.
        4    1    3    3  502    0 -0.19624020651E+03  0.25208001049E+03  0.31098813557E+03  0.44583605025E+03  0.12699999809E+01 0.  1.
       -4    1    3    3    0  502  0.19624020651E+03 -0.25208001049E+03 -0.14181577367E+04  0.14536944415E+04  0.12699999809E+01 0. -1.
</event>
<event>
 5   0  0.1650221E-04  0.1932676E+04  0.7818609E-02  0.8638760E-01
       -1   -1    0    0    0  501  0.00000000000E+00  0.00000000000E+00  0.14227419315E+04  0.14227419315E+04  0.50400001928E-02 0. -1.
        1   -1    0    0  501    0  0.00000000000E+00  0.00000000000E+00 -0.65634467646E+03  0.65634467648E+03  0.50400001928E-02 0.  1.
    10030    2    1    2    0    0  0.00000000000E+00  0.00000000000E+00  0.76639725504E+03  0.20790866080E+04  0.19326759612E+04 0.  0.
        1    1    3    3  502    0 -0.50918899653E+03  0.61176606587E+03  0.97268700851E+03  0.12568417442E+04  0.50400001928E-02 0. -1.
       -1    1    3    3    0  502  0.50918899653E+03 -0.61176606587E+03 -0.20628975347E+03  0.82224486374E+03  0.50400001928E-02 0.  1.
</event>
<event>
 5   0  0.1696052E-04  0.2080073E+04  0.7818609E-02  0.8570073E-01
        1   -1    0    0  501    0  0.00000000000E+00  0.00000000000E+00  0.10604728136E+04  0.10604728136E+04  0.50400001928E-02 0. -1.
       -1   -1    0    0    0  501  0.00000000000E+00  0.00000000000E+00 -0.10199937102E+04  0.10199937102E+04  0.50400001928E-02 0.  1.
    10030    2    1    2    0    0  0.00000000000E+00  0.00000000000E+00  0.40479103407E+02  0.20804665238E+04  0.20800726908E+04 0.  0.
        4    1    3    3  502    0 -0.13770062685E+03  0.57016049092E+03 -0.83877667933E+03  0.10235196035E+04  0.12699999809E+01 0.  1.
       -4    1    3    3    0  502  0.13770062685E+03 -0.57016049092E+03  0.87925578274E+03  0.10569469203E+04  0.12699999809E+01 0. -1.
</event>
<event>
 5   0  0.1708578E-04  0.2016555E+04  0.7818609E-02  0.8598920E-01
       -1   -1    0    0    0  501  0.00000000000E+00  0.00000000000E+00  0.10575670978E+04  0.10575670978E+04  0.50400001928E-02 0.  1.
        1   -1    0    0  501    0  0.00000000000E+00  0.00000000000E+00 -0.96128499955E+03  0.96128499956E+03  0.50400001928E-02 0. -1.
    10030    2    1    2    0    0  0.00000000000E+00  0.00000000000E+00  0.96282098232E+02  0.20188520974E+04  0.20165548712E+04 0.  0.
        3    1    3    3  502    0 -0.33632694271E+03 -0.40679123610E+03  0.90820553060E+03  0.10504438196E+04  0.10100000352E+00 0.  1.
       -3    1    3    3    0  502  0.33632694271E+03  0.40679123610E+03 -0.81192343237E+03  0.96840827774E+03  0.10100000352E+00 0. -1.
</event>
<event>
 5   0  0.3395569E-04  0.2036601E+04  0.7818609E-02  0.8589697E-01
        2   -1    0    0  501    0  0.00000000000E+00  0.00000000000E+00  0.91921266811E+03  0.91921266812E+03  0.25500000920E-02 0.  1.
       -2   -1    0    0    0  501  0.00000000000E+00  0.00000000000E+00 -0.11280694528E+04  0.11280694528E+04  0.25500000920E-02 0. -1.
    10030    2    1    2    0    0  0.00000000000E+00  0.00000000000E+00 -0.20885678472E+03  0.20472821210E+04  0.20366008264E+04 0.  0.
        4    1    3    3  502    0  0.73829526639E+03  0.27219869824E+03 -0.75416343435E+03  0.10899248278E+04  0.12699999809E+01 0. -1.
       -4    1    3    3    0  502 -0.73829526639E+03 -0.27219869824E+03  0.54530664962E+03  0.95735729314E+03  0.12699999809E+01 0.  1.
</event>
<event>
 5   0  0.1643565E-04  0.2055544E+04  0.7818609E-02  0.8581084E-01
       -1   -1    0    0    0  501  0.00000000000E+00  0.00000000000E+00  0.68487872791E+03  0.68487872793E+03  0.50400001928E-02 0. -1.
        1   -1    0    0  501    0  0.00000000000E+00  0.00000000000E+00 -0.15423385458E+04  0.15423385458E+04  0.50400001928E-02 0.  1.
    10030    2    1    2    0    0  0.00000000000E+00  0.00000000000E+00 -0.85745981790E+03  0.22272172738E+04  0.20555435887E+04 0.  0.
        2    1    3    3  502    0  0.44163425442E+03 -0.38520080279E+03 -0.13435769623E+04  0.14658170168E+04  0.25500000920E-02 0.  1.
       -2    1    3    3    0  502 -0.44163425442E+03  0.38520080279E+03  0.48611714442E+03  0.76140025693E+03  0.25500000920E-02 0. -1.
</event>
<event>
 5   0  0.1708578E-04  0.2235472E+04  0.7818609E-02  0.8503807E-01
       -1   -1    0    0    0  501  0.00000000000E+00  0.00000000000E+00  0.49159341281E+03  0.49159341284E+03  0.50400001928E-02 0.  1.
        1   -1    0    0  501    0  0.00000000000E+00  0.00000000000E+00 -0.25413974584E+04  0.25413974584E+04  0.50400001928E-02 0. -1.
    10030    2    1    2    0    0  0.00000000000E+00  0.00000000000E+00 -0.20498040456E+04  0.30329908712E+04  0.22354724332E+04 0.  0.
        3    1    3    3  502    0  0.67253080812E+03  0.89063577263E+03 -0.11085872887E+04  0.15730529407E+04  0.10100000352E+00 0.  1.
       -3    1    3    3    0  502 -0.67253080812E+03 -0.89063577263E+03 -0.94121675682E+03  0.14599379305E+04  0.10100000352E+00 0. -1.
</event>
<event>
 5   0  0.3460648E-04  0.1893625E+04  0.7818609E-02  0.8658036E-01
        2   -1    0    0  501    0  0.00000000000E+00  0.00000000000E+00  0.18881263838E+04  0.18881263838E+04  0.25500000920E-02 0.  1.
       -2   -1    0    0    0  501  0.00000000000E+00  0.00000000000E+00 -0.47478508424E+03  0.47478508425E+03  0.25500000920E-02 0. -1.
    10030    2    1    2    0    0  0.00000000000E+00  0.00000000000E+00  0.14133412996E+04  0.23629114680E+04  0.18936253528E+04 0.  0.
        5    1    3    3  502    0  0.88851480372E+03  0.94408550497E+02  0.31591909435E+03  0.94773334594E+03  0.46999998093E+01 0. -1.
       -5    1    3    3    0  502 -0.88851480372E+03 -0.94408550497E+02  0.10974222052E+04  0.14151781221E+04  0.46999998093E+01 0.  1.
</event>
<event>
 5   0  0.1643565E-04  0.2097517E+04  0.7818609E-02  0.8562338E-01
        1   -1    0    0  501    0  0.00000000000E+00  0.00000000000E+00  0.94356102938E+03  0.94356102939E+03  0.50400001928E-02 0. -1.
       -1   -1    0    0    0  501  0.00000000000E+00  0.00000000000E+00 -0.11656844678E+04  0.11656844678E+04  0.50400001928E-02 0.  1.
    10030    2    1    2    0    0  0.00000000000E+00  0.00000000000E+00 -0.22212343840E+03  0.21092454972E+04  0.20975170429E+04 0.  0.
        2    1    3    3  502    0  0.49065234604E+03  0.32690561131E+03  0.76113316664E+03  0.96277240340E+03  0.25500000920E-02 0. -1.
       -2    1    3    3    0  502 -0.49065234604E+03 -0.32690561131E+03 -0.98325660504E+03  0.11464730938E+04  0.25500000920E-02 0.  1.
</event>
<event>
 5   0  0.1664168E-04  0.1976370E+04  0.7818609E-02  0.8617749E-01
        1   -1    0    0  501    0  0.00000000000E+00  0.00000000000E+00  0.25320607948E+04  0.25320607948E+04  0.50400001928E-02 0.  1.
       -1   -1    0    0    0  501  0.00000000000E+00  0.00000000000E+00 -0.38565804310E+03  0.38565804313E+03  0.50400001928E-02 0. -1.
    10030    2    1    2    0    0  0.00000000000E+00  0.00000000000E+00  0.21464027517E+04  0.29177188380E+04  0.19763700172E+04 0.  0.
        5    1    3    3  502    0 -0.26738972079E+03  0.92393688450E+03  0.73872566325E+03  0.12128043226E+04  0.46999998093E+01 0. -1.
       -5    1    3    3    0  502  0.26738972079E+03 -0.92393688450E+03  0.14076770885E+04  0.17049145154E+04  0.46999998093E+01 0.  1.
</event>
<event>
 5   0  0.1664168E-04  0.1998483E+04  0.7818609E-02  0.8607330E-01
       -1   -1    0    0    0  501  0.00000000000E+00  0.00000000000E+00  0.14284479375E+04  0.14284479375E+04  0.50400001928E-02 0.  1.
        1   -1    0    0  501    0  0.00000000000E+00  0.00000000000E+00 -0.69899913272E+03  0.69899913274E+03  0.50400001928E-02 0. -1.
    10030    2    1    2    0    0  0.00000000000E+00  0.00000000000E+00  0.72944880481E+03  0.21274470703E+04  0.19984832944E+04 0.  0.
        5    1    3    3  502    0  0.13417106536E+02  0.56088454571E+03 -0.51548893855E+03  0.76192022425E+03  0.46999998093E+01 0. -1.
       -5    1    3    3    0  502 -0.13417106536E+02 -0.56088454571E+03  0.12449377434E+04  0.13655268460E+04  0.46999998093E+01 0.  1.
</event>
<event>
 5   0  0.3371947E-04  0.1969206E+04  0.7818609E-02  0.8621155E-01
        2   -1    0    0  501    0  0.00000000000E+00  0.00000000000E+00  0.15562417522E+04  0.15562417522E+04  0.25500000920E-02 0. -1.
       -2   -1    0    0    0  501  0.00000000000E+00  0.00000000000E+00 -0.62293861485E+03  0.62293861486E+03  0.25500000920E-02 0.  1.
    10030    2    1    2    0    0  0.00000000000E+00  0.00000000000E+00  0.93330313739E+03  0.21791803671E+04  0.19692060141E+04 0.  0.
        2    1    3    3  502    0  0.59510858617E+03  0.23463238643E+03 -0.36164854770E+03  0.73484437683E+03  0.25500000920E-02 0.  1.
       -2    1    3    3    0  502 -0.59510858617E+03 -0.23463238643E+03  0.12949516851E+04  0.14443359903E+04  0.25500000920E-02 0. -1.
</event>
<event>
 5   0  0.3371947E-04  0.2002603E+04  0.7818609E-02  0.8605405E-01
       -2   -1    0    0    0  501  0.00000000000E+00  0.00000000000E+00  0.56009673511E+03  0.56009673511E+03  0.25500000920E-02 0.  1.
        2   -1    0    0  501    0  0.00000000000E+00  0.00000000000E+00 -0.17900565052E+04  0.17900565052E+04  0.25500000920E-02 0. -1.
    10030    2    1    2    0    0  0.00000000000E+00  0.00000000000E+00 -0.12299597701E+04  0.23501532403E+04  0.20026031102E+04 0.  0.
        2    1    3    3  502    0  0.61874216430E+03 -0.49547055406E+03 -0.13329310217E+04  0.15508185079E+04  0.25500000920E-02 0. -1.
       -2    1    3    3    0  502 -0.61874216430E+03  0.49547055406E+03  0.10297125158E+03  0.79933473244E+03  0.25500000920E-02 0.  1.
</event>
<event>
 5   0  0.3460648E-04  0.2044616E+04  0.7818609E-02  0.8586041E-01
        2   -1    0    0  501    0  0.00000000000E+00  0.00000000000E+00  0.10487957831E+04  0.10487957831E+04  0.25500000920E-02 0. -1.
       -2   -1    0    0    0  501  0.00000000000E+00  0.00000000000E+00 -0.99648953780E+03  0.99648953781E+03  0.25500000920E-02 0.  1.
    10030    2    1    2    0    0  0.00000000000E+00  0.00000000000E+00  0.52306245318E+02  0.20452853209E+04  0.20446163701E+04 0.  0.
        5    1    3    3  502    0  0.52719237834E+03  0.85063801848E+03  0.23496789966E+03  0.10279829017E+04  0.46999998093E+01 0. -1.
       -5    1    3    3    0  502 -0.52719237834E+03 -0.85063801848E+03 -0.18266165434E+03  0.10173024193E+04  0.46999998093E+01 0.  1.
</event>
<event>
 5   0  0.3395569E-04  0.1920156E+04  0.7818609E-02  0.8644888E-01
       -2   -1    0    0    0  501  0.00000000000E+00  0.00000000000E+00  0.90266555589E+03  0.90266555590E+03  0.25500000920E-02 0. -1.
        2   -1    0    0  501    0  0.00000000000E+00  0.00000000000E+00 -0.10211423643E+04  0.10211423643E+04  0.25500000920E-02 0.  1.
    10030    2    1    2    0    0  0.00000000000E+00  0.00000000000E+00 -0.11847680844E+03  0.19238079202E+04  0.19201562853E+04 0.  0.
        4    1    3    3  502    0  0.87921303051E+03  0.30786063756E+03 -0.29196165716E+03  0.97623611249E+03  0.12699999809E+01 0.  1.
       -4    1    3    3    0  502 -0.87921303051E+03 -0.30786063756E+03  0.17348484872E+03  0.94757180774E+03  0.12699999809E+01 0. -1.
</event>
<event>
 5   0  0.1650221E-04  0.2006217E+04  0.7818609E-02  0.8603719E-01
       -1   -1    0    0    0  501  0.00000000000E+00  0.00000000000E+00  0.63757996390E+03  0.63757996392E+03  0.50400001928E-02 0. -1.
        1   -1    0    0  501    0  0.00000000000E+00  0.00000000000E+00 -0.15781975803E+04  0.15781975804E+04  0.50400001928E-02 0.  1.
    10030    2    1    2    0    0  0.00000000000E+00  0.00000000000E+00 -0.94061761645E+03  0.22157775443E+04  0.20062174920E+04 0.  0.
        1    1    3    3  502    0  0.63620443453E+03  0.68192938636E+03 -0.87827520048E+03  0.12810741970E+04  0.50400001928E-02 0.  1.
       -1    1    3    3    0  502 -0.63620443453E+03 -0.68192938636E+03 -0.62342415962E+02  0.93470334724E+03  0.50400001928E-02 0. -1.
</event>
<event>
 5   0  0.3395569E-04  0.1547304E+04  0.7818609E-02  0.8853592E-01
        2   -1    0    0  501    0  0.00000000000E+00  0.00000000000E+00  0.12006774173E+04  0.12006774173E+04  0.25500000920E-02 0. -1.
       -2   -1    0    0    0  501  0.00000000000E+00  0.00000000000E+00 -0.49849978259E+03  0.49849978260E+03  0.25500000920E-02 0.  1.
    10030    2    1    2    0    0  0.00000000000E+00  0.00000000000E+00  0.70217763470E+03  0.16991771999E+04  0.15473040186E+04 0.  0.
        4    1    3    3  502    0 -0.23235478596E+03  0.43282452526E+03  0.10074226987E+04  0.11208157400E+04  0.12699999809E+01 0. -1.
       -4    1    3    3    0  502  0.23235478596E+03 -0.43282452526E+03 -0.30524506405E+03  0.57836145986E+03  0.12699999809E+01 0.  1.
</event>
<event>
 5   0  0.1696052E-04  0.2009505E+04  0.7818609E-02  0.8602189E-01
        1   -1    0    0  501    0  0.00000000000E+00  0.00000000000E+00  0.16592025760E+04  0.16592025760E+04  0.50400001928E-02 0.  1.
       -1   -1    0    0    0  501  0.00000000000E+00  0.00000000000E+00 -0.60844160910E+03  0.60844160912E+03  0.50400001928E-02 0. -1.
    10030    2    1    2    0    0  0.00000000000E+00  0.00000000000E+00  0.10507609669E+04  0.22676441851E+04  0.20095052975E+04 0.  0.
        4    1    3    3  502    0 -0.85605110847E+03 -0.21284435963E+03 -0.17454064519E+02  0.88228820632E+03  0.12699999809E+01 0. -1.
       -4    1    3    3    0  502  0.85605110847E+03  0.21284435963E+03  0.10682150314E+04  0.13853559788E+04  0.12699999809E+01 0.  1.
</event>
<event>
 5   0  0.3387881E-04  0.1946820E+04  0.7818609E-02  0.8631896E-01
        2   -1    0    0  501    0  0.00000000000E+00  0.00000000000E+00  0.14529246485E+04  0.14529246485E+04  0.25500000920E-02 0.  1.
       -2   -1    0    0    0  501  0.00000000000E+00  0.00000000000E+00 -0.65215146165E+03  0.65215146166E+03  0.25500000920E-02 0. -1.
    10030    2    1    2    0    0  0.00000000000E+00  0.00000000000E+00  0.80077318685E+03  0.21050761102E+04  0.19468199025E+04 0.  0.
        1    1    3    3  502    0 -0.16382045056E+03  0.10885223402E+03 -0.63044086125E+03  0.66041019710E+03  0.50400001928E-02 0. -1.
       -1    1    3    3    0  502  0.16382045056E+03 -0.10885223402E+03  0.14312140481E+04  0.14446659131E+04  0.50400001928E-02 0.  1.
</event>
<event>
 5   0  0.1708578E-04  0.1943652E+04  0.7818609E-02  0.8633428E-01
        1   -1    0    0  501    0  0.00000000000E+00  0.00000000000E+00  0.15303669669E+04  0.15303669669E+04  0.50400001928E-02 0. -1.
       -1   -1    0    0    0  501  0.00000000000E+00  0.00000000000E+00 -0.61713691252E+03  0.61713691254E+03  0.50400001928E-02 0.  1.
    10030    2    1    2    0    0  0.00000000000E+00  0.00000000000E+00  0.91323005440E+03  0.21475038795E+04  0.19436521757E+04 0.  0.
        3    1    3    3  502    0 -0.47281384831E+03  0.51079502591E+03  0.12059664962E+04  0.13924150581E+04  0.10100000352E+00 0. -1.
       -3    1    3    3    0  502  0.47281384831E+03 -0.51079502591E+03 -0.29273644183E+03  0.75508882142E+03  0.10100000352E+00 0.  1.
</event>
<event>
 5   0  0.3431030E-04  0.1999463E+04  0.7818609E-02  0.8606872E-01
        2   -1    0    0  501    0  0.00000000000E+00  0.00000000000E+00  0.92726774428E+03  0.92726774428E+03  0.25500000920E-02 0. -1.
       -2   -1    0    0    0  501  0.00000000000E+00  0.00000000000E+00 -0.10778582571E+04  0.10778582571E+04  0.25500000920E-02 0.  1.
    10030    2    1    2    0    0  0.00000000000E+00  0.00000000000E+00 -0.15059051283E+03  0.20051260014E+04  0.19994631227E+04 0.  0.
        3    1    3    3  502    0 -0.67610577322E+03 -0.29229145610E+03  0.60257025946E+03  0.95165342414E+03  0.10100000352E+00 0. -1.
       -3    1    3    3    0  502  0.67610577322E+03  0.29229145610E+03 -0.75316077229E+03  0.10534725772E+04  0.10100000352E+00 0.  1.
</event>
<event>
 5   0  0.1664168E-04  0.1974070E+04  0.7818609E-02  0.8618841E-01
        1   -1    0    0  501    0  0.00000000000E+00  0.00000000000E+00  0.73687724723E+03  0.73687724724E+03  0.50400001928E-02 0. -1.
       -1   -1    0    0    0  501  0.00000000000E+00  0.00000000000E+00 -0.13221171453E+04  0.13221171453E+04  0.50400001928E-02 0.  1.
    10030    2    1    2    0    0  0.00000000000E+00  0.00000000000E+00 -0.58523989804E+03  0.20589943925E+04  0.19740699507E+04 0.  0.
        5    1    3    3  502    0  0.98196303086E+03  0.16542941956E+02 -0.39529725136E+03  0.10586817604E+04  0.46999998093E+01 0. -1.
       -5    1    3    3    0  502 -0.98196303086E+03 -0.16542941956E+02 -0.18994264668E+03  0.10003126321E+04  0.46999998093E+01 0.  1.
</event>
<event>
 5   0  0.3387881E-04  0.2006671E+04  0.7818609E-02  0.8603508E-01
        2   -1    0    0  501    0  0.00000000000E+00  0.00000000000E+00  0.28137106800E+04  0.28137106800E+04  0.25500000920E-02 0. -1.
       -2   -1    0    0    0  501  0.00000000000E+00  0.00000000000E+00 -0.35777736773E+03  0.35777736774E+03  0.25500000920E-02 0.  1.
    10030    2    1    2    0    0  0.00000000000E+00  0.00000000000E+00  0.24559333123E+04  0.31714880477E+04  0.20066708755E+04 0.  0.
        1    1    3    3  502    0 -0.29386148557E+03  0.56136322178E+03 -0.15543324160E+01  0.63362895723E+03  0.50400001928E-02 0.  1.
       -1    1    3    3    0  502  0.29386148557E+03 -0.56136322178E+03  0.24574876447E+04  0.25378590905E+04  0.50400001928E-02 0. -1.
</event>
<event>
 5   0  0.3431030E-04  0.1999653E+04  0.7818609E-02  0.8606783E-01
        2   -1    0    0  501    0  0.00000000000E+00  0.00000000000E+00  0.80164912919E+03  0.80164912919E+03  0.25500000920E-02 0.  1.
       -2   -1    0    0    0  501  0.00000000000E+00  0.00000000000E+00 -0.12469963399E+04  0.12469963399E+04  0.25500000920E-02 0. -1.
    10030    2    1    2    0    0  0.00000000000E+00  0.00000000000E+00 -0.44534721073E+03  0.20486454691E+04  0.19996535000E+04 0.  0.
        3    1    3    3  502    0 -0.67460386072E+03  0.13345625124E+03  0.52088532772E+03  0.86268329921E+03  0.10100000352E+00 0.  1.
       -3    1    3    3    0  502  0.67460386072E+03 -0.13345625124E+03 -0.96623253846E+03  0.11859621699E+04  0.10100000352E+00 0. -1.
</event>
<event>
 5   0  0.1222488E-04  0.1948295E+04  0.7818609E-02  0.8631183E-01
        3   -1    0    0  501    0  0.00000000000E+00  0.00000000000E+00  0.17835693893E+04  0.17835693922E+04  0.10100000352E+00 0.  1.
       -3   -1    0    0    0  501  0.00000000000E+00  0.00000000000E+00 -0.53205862703E+03  0.53205863662E+03  0.10100000352E+00 0. -1.
    10030    2    1    2    0    0  0.00000000000E+00  0.00000000000E+00  0.12515107623E+04  0.23156280288E+04  0.19482951469E+04 0.  0.
        4    1    3    3  502    0 -0.56222421086E+02 -0.91107795339E+03  0.22141062206E+03  0.93928072175E+03  0.12699999809E+01 0. -1.
       -4    1    3    3    0  502  0.56222421086E+02  0.91107795339E+03  0.10301001402E+04  0.13763473070E+04  0.12699999809E+01 0.  1.
</event>
<event>
 5   0  0.1696052E-04  0.2001230E+04  0.7818609E-02  0.8606046E-01
       -1   -1    0    0    0  501  0.00000000000E+00  0.00000000000E+00  0.45994397403E+03  0.45994397406E+03  0.50400001928E-02 0. -1.
        1   -1    0    0  501    0  0.00000000000E+00  0.00000000000E+00 -0.21768520390E+04  0.21768520390E+04  0.50400001928E-02 0.  1.
    10030    2    1    2    0    0  0.00000000000E+00  0.00000000000E+00 -0.17169080650E+04  0.26367960131E+04  0.20012295998E+04 0.  0.
        4    1    3    3  502    0 -0.92366160377E+03 -0.36141998086E+03 -0.10325213345E+04  0.14317391801E+04  0.12699999809E+01 0.  1.
       -4    1    3    3    0  502  0.92366160377E+03  0.36141998086E+03 -0.68438673046E+03  0.12050568329E+04  0.12699999809E+01 0. -1.
</event>
<event>
 5   0  0.1643565E-04  0.2023505E+04  0.7818609E-02  0.8595710E-01
       -1   -1    0    0    0  501  0.00000000000E+00  0.00000000000E+00  0.10427008563E+04  0.10427008563E+04  0.50400001928E-02 0.  1.
        1   -1    0    0  501    0  0.00000000000E+00  0.00000000000E+00 -0.98172227369E+03  0.98172227370E+03  0.50400001928E-02 0. -1.
    10030    2    1    2    0    0  0.00000000000E+00  0.00000000000E+00  0.60978582593E+02  0.20244231300E+04  0.20235045396E+04 0.  0.
        2    1    3    3  502    0  0.51951757470E+01  0.70458041907E+03  0.75689196653E+03  0.10340918749E+04  0.25500000920E-02 0.  1.
       -2    1    3    3    0  502 -0.51951757470E+01 -0.70458041907E+03 -0.69591338394E+03  0.99033125506E+03  0.25500000920E-02 0. -1.
</event>
<event>
 5   0  0.3395569E-04  0.1976095E+04  0.7818609E-02  0.8617879E-01
        2   -1    0    0  501    0  0.00000000000E+00  0.00000000000E+00  0.15180599747E+04  0.15180599747E+04  0.25500000920E-02 0. -1.
       -2   -1    0    0    0  501  0.00000000000E+00  0.00000000000E+00 -0.64308263190E+03  0.64308263191E+03  0.25500000920E-02 0.  1.
    10030    2    1    2    0    0  0.00000000000E+00  0.00000000000E+00  0.87497734283E+03  0.21611426066E+04  0.19760951434E+04 0.  0.
        4    1    3    3  502    0 -0.18746342041E+03 -0.97009984129E+03  0.43791922425E+03  0.10807456204E+04  0.12699999809E+01 0. -1.
       -4    1    3    3    0  502  0.18746342041E+03  0.97009984129E+03  0.43705811858E+03  0.10803969863E+04  0.12699999809E+01 0.  1.
</event>
<event>
 5   0  0.3387881E-04  0.1265904E+04  0.7818609E-02  0.9057049E-01
        2   -1    0    0  501    0  0.00000000000E+00  0.00000000000E+00  0.10945893264E+04  0.10945893264E+04  0.25500000920E-02 0.  1.
       -2   -1    0    0    0  501  0.00000000000E+00  0.00000000000E+00 -0.36600771033E+03  0.36600771034E+03  0.25500000920E-02 0. -1.
    10030    2    1    2    0    0  0.00000000000E+00  0.00000000000E+00  0.72858161606E+03  0.14605970367E+04  0.12659038401E+04 0.  0.
        1    1    3    3  502    0 -0.18881553248E+03  0.51001358583E+03  0.73791997789E+03  0.91667390975E+03  0.50400001928E-02 0. -1.
       -1    1    3    3    0  502  0.18881553248E+03 -0.51001358583E+03 -0.93383618222E+01  0.54392312698E+03  0.50400001928E-02 0.  1.
</event>
<event>
 5   0  0.1650221E-04  0.1974574E+04  0.7818609E-02  0.8618601E-01
        1   -1    0    0  501    0  0.00000000000E+00  0.00000000000E+00  0.89150083296E+03  0.89150083297E+03  0.50400001928E-02 0. -1.
       -1   -1    0    0    0  501  0.00000000000E+00  0.00000000000E+00 -0.10933649407E+04  0.10933649407E+04  0.50400001928E-02 0.  1.
    10030    2    1    2    0    0  0.00000000000E+00  0.00000000000E+00 -0.20186410772E+03  0.19848657737E+04  0.19745741367E+04 0.  0.
        1    1    3    3  502    0 -0.50776291814E+03  0.71373038864E+03  0.35696550257E+03  0.94586395362E+03  0.50400001928E-02 0. -1.
       -1    1    3    3    0  502  0.50776291814E+03 -0.71373038864E+03 -0.55882961029E+03  0.10390018201E+04  0.50400001928E-02 0.  1.
</event>
<event>
 5   0  0.3460648E-04  0.1985972E+04  0.7818609E-02  0.8613208E-01
       -2   -1    0    0    0  501  0.00000000000E+00  0.00000000000E+00  0.58424971007E+03  0.58424971007E+03  0.25500000920E-02 0. -1.
        2   -1    0    0  501    0  0.00000000000E+00  0.00000000000E+00 -0.16876703731E+04  0.16876703731E+04  0.25500000920E-02 0.  1.
    10030    2    1    2    0    0  0.00000000000E+00  0.00000000000E+00 -0.11034206630E+04  0.22719200832E+04  0.19859717281E+04 0.  0.
        5    1    3    3  502    0  0.35595568935E+03 -0.81051978933E+03 -0.37105572705E+02  0.88602804426E+03  0.46999998093E+01 0. -1.
       -5    1    3    3    0  502 -0.35595568935E+03  0.81051978933E+03 -0.10663150903E+04  0.13858920389E+04  0.46999998093E+01 0.  1.
</event>
<event>
 5   0  0.1696052E-04  0.1996262E+04  0.7818609E-02  0.8608370E-01
        1   -1    0    0  501    0  0.00000000000E+00  0.00000000000E+00  0.12897532613E+04  0.12897532614E+04  0.50400001928E-02 0. -1.
       -1   -1    0    0    0  501  0.00000000000E+00  0.00000000000E+00 -0.77244657981E+03  0.77244657982E+03  0.50400001928E-02 0.  1.
    10030    2    1    2    0    0  0.00000000000E+00  0.00000000000E+00  0.51730668154E+03  0.20621998412E+04  0.19962620024E+04 0.  0.
        4    1    3    3  502    0  0.48143431564E+03  0.18356388327E+03  0.11417520785E+04  0.12526268882E+04  0.12699999809E+01 0. -1.
       -4    1    3    3    0  502 -0.48143431564E+03 -0.18356388327E+03 -0.62444539693E+03  0.80957295296E+03  0.12699999809E+01 0.  1.
</event>
<event>
 5   0  0.1708578E-04  0.1959165E+04  0.7818609E-02  0.8625954E-01
        1   -1    0    0  501    0  0.00000000000E+00  0.00000000000E+00  0.14584980636E+04  0.14584980636E+04  0.50400001928E-02 0.  1.
       -1   -1    0    0    0  501  0.00000000000E+00  0.00000000000E+00 -0.65792480797E+03  0.65792480799E+03  0.50400001928E-02 0. -1.
    10030    2    1    2    0    0  0.00000000000E+00  0.00000000000E+00  0.80057325563E+03  0.21164228716E+04  0.19591651880E+04 0.  0.
        3    1    3    3  502    0  0.53155725359E+03 -0.19646339854E+03 -0.46286759023E+03  0.73170854655E+03  0.10100000352E+00 0. -1.
       -3    1    3    3    0  502 -0.53155725359E+03  0.19646339854E+03  0.12634408459E+04  0.13847143250E+04  0.10100000352E+00 0.  1.
</event>
<event>
 5   0  0.1643565E-04  0.1797038E+04  0.7818609E-02  0.8707876E-01
       -1   -1    0    0    0  501  0.00000000000E+00  0.00000000000E+00  0.88249525771E+03  0.88249525772E+03  0.50400001928E-02 0.  1.
        1   -1    0    0  501    0  0.00000000000E+00  0.00000000000E+00 -0.91483326300E+03  0.91483326301E+03  0.50400001928E-02 0. -1.
    10030    2    1    2    0    0  0.00000000000E+00  0.00000000000E+00 -0.32338005289E+02  0.17973285207E+04  0.17970375803E+04 0.  0.
        2    1    3    3  502    0 -0.84834990549E+03 -0.61363313313E+02  0.27348623748E+03  0.89345270745E+03  0.25500000920E-02 0. -1.
       -2    1    3    3    0  502  0.84834990549E+03  0.61363313313E+02 -0.30582424277E+03  0.90387581328E+03  0.25500000920E-02 0.  1.
</event>
<event>
 5   0  0.3395569E-04  0.1988009E+04  0.7818609E-02  0.8612247E-01
        2   -1    0    0  501    0  0.00000000000E+00  0.00000000000E+00  0.22099968507E+04  0.22099968507E+04  0.25500000920E-02 0. -1.
       -2   -1    0    0    0  501  0.00000000000E+00  0.00000000000E+00 -0.44707984605E+03  0.44707984606E+03  0.25500000920E-02 0.  1.
    10030    2    1    2    0    0  0.00000000000E+00  0.00000000000E+00  0.17629170046E+04  0.26570766967E+04  0.19880091064E+04 0.  0.
        4    1    3    3  502    0  0.56702870148E+03 -0.79121487520E+03  0.11504373457E+04  0.15070004068E+04  0.12699999809E+01 0.  1.
       -4    1    3    3    0  502 -0.56702870148E+03  0.79121487520E+03  0.61247965898E+03  0.11500762899E+04  0.12699999809E+01 0. -1.
</event>
<event>
 5   0  0.1650221E-04  0.2388154E+04  0.7818609E-02  0.8443952E-01
        1   -1    0    0  501    0  0.00000000000E+00  0.00000000000E+00  0.10279962902E+04  0.10279962902E+04  0.50400001928E-02 0.  1.
       -1   -1    0    0    0  501  0.00000000000E+00  0.00000000000E+00 -0.13869894451E+04  0.13869894451E+04  0.50400001928E-02 0. -1.
    10030    2    1    2    0    0  0.00000000000E+00  0.00000000000E+00 -0.35899315488E+03  0.24149857353E+04  0.23881541023E+04 0.  0.
        1    1    3    3  502    0 -0.30460136231E+03  0.11020397167E+04 -0.52767074709E+03  0.12592497546E+04  0.50400001928E-02 0. -1.
       -1    1    3    3    0  502  0.30460136231E+03 -0.11020397167E+04  0.16867759222E+03  0.11557359807E+04  0.50400001928E-02 0.  1.
</event>
<event>
 5   0  0.1708578E-04  0.1132222E+04  0.7818609E-02  0.9174343E-01
       -1   -1    0    0    0  501  0.00000000000E+00  0.00000000000E+00  0.41143308233E+03  0.41143308236E+03  0.50400001928E-02 0. -1.
        1   -1    0    0  501    0  0.00000000000E+00  0.00000000000E+00 -0.77894049038E+03  0.77894049040E+03  0.50400001928E-02 0.  1.
    10030    2    1    2    0    0  0.00000000000E+00  0.00000000000E+00 -0.36750740806E+03  0.11903735728E+04  0.11322223932E+04 0.  0.
        3    1    3    3  502    0  0.47617002941E+02 -0.54136785532E+03 -0.17069692319E+02  0.54372595886E+03  0.10100000352E+00 0. -1.
       -3    1    3    3    0  502 -0.47617002941E+02  0.54136785532E+03 -0.35043771574E+03  0.64664761389E+03  0.10100000352E+00 0.  1.
</event>
<event>
 5   0  0.3371947E-04  0.1840397E+04  0.7818609E-02  0.8685107E-01
        2   -1    0    0  501    0  0.00000000000E+00  0.00000000000E+00  0.11217464893E+04  0.11217464893E+04  0.25500000920E-02 0. -1.
       -2   -1    0    0    0  501  0.00000000000E+00  0.00000000000E+00 -0.75486350205E+03  0.75486350206E+03  0.25500000920E-02 0.  1.
    10030    2    1    2    0    0  0.00000000000E+00  0.00000000000E+00  0.36688298727E+03  0.18766099914E+04  0.18403972216E+04 0.  0.
        2    1    3    3  502    0  0.62432458371E+03 -0.23795605974E+03  0.82863271924E+03  0.10644418517E+04  0.25500000920E-02 0. -1.
       -2    1    3    3    0  502 -0.62432458371E+03  0.23795605974E+03 -0.46174973197E+03  0.81216813972E+03  0.25500000920E-02 0.  1.
</event>
<event>
 5   0  0.3395569E-04  0.1959119E+04  0.7818609E-02  0.8625976E-01
       -2   -1    0    0    0  501  0.00000000000E+00  0.00000000000E+00  0.19570685611E+04  0.19570685611E+04  0.25500000920E-02 0. -1.
        2   -1    0    0  501    0  0.00000000000E+00  0.00000000000E+00 -0.49029290707E+03  0.49029290708E+03  0.25500000920E-02 0.  1.
    10030    2    1    2    0    0  0.00000000000E+00  0.00000000000E+00  0.14667756540E+04  0.24473614682E+04  0.19591190205E+04 0.  0.
        4    1    3    3  502    0  0.62543432770E+03 -0.40473557609E+02  0.16738146782E+04  0.17873061844E+04  0.12699999809E+01 0. -1.
       -4    1    3    3    0  502 -0.62543432770E+03  0.40473557609E+02 -0.20703902418E+03  0.66005528372E+03  0.12699999809E+01 0.  1.
</event>
<event>
 5   0  0.1664168E-04  0.1988582E+04  0.7818609E-02  0.8611978E-01
        1   -1    0    0  501    0  0.00000000000E+00  0.00000000000E+00  0.65622042546E+03  0.65622042548E+03  0.50400001928E-02 0. -1.
       -1   -1    0    0    0  501  0.00000000000E+00  0.00000000000E+00 -0.15065275111E+04  0.15065275111E+04  0.50400001928E-02 0.  1.
    10030    2    1    2    0    0  0.00000000000E+00  0.00000000000E+00 -0.85030708559E+03  0.21627479365E+04  0.19885815289E+04 0.  0.
        5    1    3    3  502    0 -0.40121803921E+02 -0.66890948819E+03 -0.12240220182E+04  0.13954575069E+04  0.46999998093E+01 0.  1.
       -5    1    3    3    0  502  0.40121803921E+02  0.66890948819E+03  0.37371493261E+03  0.76729042963E+03  0.46999998093E+01 0. -1.
</event>
<event>
 5   0  0.3395569E-04  0.1989704E+04  0.7818609E-02  0.8611450E-01
        2   -1    0    0  501    0  0.00000000000E+00  0.00000000000E+00  0.25457294663E+04  0.25457294663E+04  0.25500000920E-02 0. -1.
       -2   -1    0    0    0  501  0.00000000000E+00  0.00000000000E+00 -0.38878065610E+03  0.38878065611E+03  0.25500000920E-02 0.  1.
    10030    2    1    2    0    0  0.00000000000E+00  0.00000000000E+00  0.21569488102E+04  0.29345101224E+04  0.19897038696E+04 0.  0.
        4    1    3    3  502    0 -0.86803617856E+03  0.48548746372E+03  0.10440793079E+04  0.14419736817E+04  0.12699999809E+01 0. -1.
       -4    1    3    3    0  502  0.86803617856E+03 -0.48548746372E+03  0.11128695023E+04  0.14925364407E+04  0.12699999809E+01 0.  1.
</event>
<event>
 5   0  0.1643565E-04  0.1892008E+04  0.7818609E-02  0.8658845E-01
        1   -1    0    0  501    0  0.00000000000E+00  0.00000000000E+00  0.14793927364E+04  0.14793927364E+04  0.50400001928E-02 0. -1.
       -1   -1    0    0    0  501  0.00000000000E+00  0.00000000000E+00 -0.60492620567E+03  0.60492620569E+03  0.50400001928E-02 0.  1.
    10030    2    1    2    0    0  0.00000000000E+00  0.00000000000E+00  0.87446653069E+03  0.20843189421E+04  0.18920078591E+04 0.  0.
        2    1    3    3  502    0 -0.30713510391E+03 -0.12417749329E+03 -0.53893228914E+03  0.63261365317E+03  0.25500000920E-02 0.  1.
       -2    1    3    3    0  502  0.30713510391E+03  0.12417749329E+03  0.14133988198E+04  0.14517052889E+04  0.25500000920E-02 0. -1.
</event>
<event>
 5   0  0.3460648E-04  0.1909860E+04  0.7818609E-02  0.8649964E-01
       -2   -1    0    0    0  501  0.00000000000E+00  0.00000000000E+00  0.68119573888E+03  0.68119573888E+03  0.25500000920E-02 0. -1.
        2   -1    0    0  501    0  0.00000000000E+00  0.00000000000E+00 -0.13386628430E+04  0.13386628430E+04  0.25500000920E-02 0.  1.
    10030    2    1    2    0    0  0.00000000000E+00  0.00000000000E+00 -0.65746710415E+03  0.20198585819E+04  0.19098601252E+04 0.  0.
        5    1    3    3  502    0  0.12470707405E+03 -0.39441030938E+03 -0.12389770265E+04  0.13062149550E+04  0.46999998093E+01 0.  1.
       -5    1    3    3    0  502 -0.12470707405E+03  0.39441030938E+03  0.58150992234E+03  0.71364362692E+03  0.46999998093E+01 0. -1.
</event>
<event>
 5   0  0.1696052E-04  0.1966014E+04  0.7818609E-02  0.8622677E-01
        1   -1    0    0  501    0  0.00000000000E+00  0.00000000000E+00  0.86489408670E+03  0.86489408671E+03  0.50400001928E-02 0.  1.
       -1   -1    0    0    0  501  0.00000000000E+00  0.00000000000E+00 -0.11172497536E+04  0.11172497536E+04  0.50400001928E-02 0. -1.
    10030    2    1    2    0    0  0.00000000000E+00  0.00000000000E+00 -0.25235566691E+03  0.19821438403E+04  0.19660139422E+04 0.  0.
        4    1    3    3  502    0  0.64142747364E+03  0.45990979004E+03 -0.71695021212E+03  0.10662858146E+04  0.12699999809E+01 0. -1.
       -4    1    3    3    0  502 -0.64142747364E+03 -0.45990979004E+03  0.46459454521E+03  0.91585802570E+03  0.12699999809E+01 0.  1.
</event>
<event>
 5   0  0.3431030E-04  0.2061470E+04  0.7818609E-02  0.8578409E-01
        2   -1    0    0  501    0  0.00000000000E+00  0.00000000000E+00  0.13309394877E+04  0.13309394877E+04  0.25500000920E-02 0. -1.
       -2   -1    0    0    0  501  0.00000000000E+00  0.00000000000E+00 -0.79824395402E+03  0.79824395403E+03  0.25500000920E-02 0.  1.
    10030    2    1    2    0    0  0.00000000000E+00  0.00000000000E+00  0.53269553365E+03  0.21291834417E+04  0.20614697662E+04 0.  0.
        3    1    3    3  502    0  0.68500128988E+03  0.45174636160E+03 -0.37793111313E+03  0.90340106200E+03  0.10100000352E+00 0.  1.
       -3    1    3    3    0  502 -0.68500128988E+03 -0.45174636160E+03  0.91062664677E+03  0.12257823797E+04  0.10100000352E+00 0. -1.
</event>
<event>
 5   0  0.1222488E-04  0.1986188E+04  0.7818609E-02  0.8613106E-01
        4   -1    0    0  501    0  0.00000000000E+00  0.00000000000E+00  0.14387385778E+04  0.14387391383E+04  0.12699999809E+01 0. -1.
       -4   -1    0    0    0  501  0.00000000000E+00  0.00000000000E+00 -0.68548499655E+03  0.68548617301E+03  0.12699999809E+01 0.  1.
    10030    2    1    2    0    0  0.00000000000E+00  0.00000000000E+00  0.75325358122E+03  0.21242253113E+04  0.19861878601E+04 0.  0.
        5    1    3    3  502    0  0.98722226315E+03  0.10697225288E+03  0.36298893588E+03  0.10572766513E+04  0.46999998093E+01 0.  1.
       -5    1    3    3    0  502 -0.98722226315E+03 -0.10697225288E+03  0.39026464535E+03  0.10669486600E+04  0.46999998093E+01 0. -1.
</event>
<event>
 5   0  0.3371947E-04  0.1869468E+04  0.7818609E-02  0.8670205E-01
       -2   -1    0    0    0  501  0.00000000000E+00  0.00000000000E+00  0.59123228301E+03  0.59123228302E+03  0.25500000920E-02 0. -1.
        2   -1    0    0  501    0  0.00000000000E+00  0.00000000000E+00 -0.14778069792E+04  0.14778069792E+04  0.25500000920E-02 0.  1.
    10030    2    1    2    0    0  0.00000000000E+00  0.00000000000E+00 -0.88657469622E+03  0.20690392623E+04  0.18694675116E+04 0.  0.
        2    1    3    3  502    0  0.74233797334E+03  0.21664538069E+03  0.13786488565E+03  0.78549832230E+03  0.25500000920E-02 0. -1.
       -2    1    3    3    0  502 -0.74233797334E+03 -0.21664538069E+03 -0.10244395819E+04  0.12835409400E+04  0.25500000920E-02 0.  1.
</event>
<event>
 5   0  0.1222488E-04  0.1982472E+04  0.7818609E-02  0.8614860E-01
       -3   -1    0    0    0  501  0.00000000000E+00  0.00000000000E+00  0.98471696977E+03  0.98471697495E+03  0.10100000352E+00 0. -1.
        3   -1    0    0  501    0  0.00000000000E+00  0.00000000000E+00 -0.99779844343E+03  0.99779844854E+03  0.10100000352E+00 0.  1.
    10030    2    1    2    0    0  0.00000000000E+00  0.00000000000E+00 -0.13081473652E+02  0.19825154235E+04  0.19824722645E+04 0.  0.
        3    1    3    3  502    0 -0.74093714850E+03  0.41693566454E+02  0.65060586034E+03  0.98692158109E+03  0.10100000352E+00 0. -1.
       -3    1    3    3    0  502  0.74093714850E+03 -0.41693566454E+02 -0.66368733399E+03  0.99559384240E+03  0.10100000352E+00 0.  1.
</event>
<event>
 5   0  0.3395569E-04  0.1958197E+04  0.7818609E-02  0.8626418E-01
       -2   -1    0    0    0  501  0.00000000000E+00  0.00000000000E+00  0.98451044138E+03  0.98451044138E+03  0.25500000920E-02 0.  1.
        2   -1    0    0  501    0  0.00000000000E+00  0.00000000000E+00 -0.97371663001E+03  0.97371663002E+03  0.25500000920E-02 0. -1.
    10030    2    1    2    0    0  0.00000000000E+00  0.00000000000E+00  0.10793811363E+02  0.19582270714E+04  0.19581973232E+04 0.  0.
        4    1    3    3  502    0  0.68696709610E+02 -0.35302469117E+03 -0.90526884111E+03  0.97409391646E+03  0.12699999809E+01 0. -1.
       -4    1    3    3    0  502 -0.68696709610E+02  0.35302469117E+03  0.91606265248E+03  0.98413315494E+03  0.12699999809E+01 0.  1.
</event>
<event>
 5   0  0.3460648E-04  0.1792135E+04  0.7818609E-02  0.8710493E-01
        2   -1    0    0  501    0  0.00000000000E+00  0.00000000000E+00  0.23611790095E+04  0.23611790095E+04  0.25500000920E-02 0. -1.
       -2   -1    0    0    0  501  0.00000000000E+00  0.00000000000E+00 -0.34005761887E+03  0.34005761888E+03  0.25500000920E-02 0.  1.
    10030    2    1    2    0    0  0.00000000000E+00  0.00000000000E+00  0.20211213906E+04  0.27012366284E+04  0.17921349410E+04 0.  0.
        5    1    3    3  502    0 -0.19789780833E+03  0.87384169637E+03  0.99197968936E+03  0.13367156193E+04  0.46999998093E+01 0.  1.
       -5    1    3    3    0  502  0.19789780833E+03 -0.87384169637E+03  0.10291417013E+04  0.13645210090E+04  0.46999998093E+01 0. -1.
</event>
<event>
 5   0  0.1696052E-04  0.1766236E+04  0.7818609E-02  0.8724464E-01
        1   -1    0    0  501    0  0.00000000000E+00  0.00000000000E+00  0.74513457893E+03  0.74513457895E+03  0.50400001928E-02 0. -1.
       -1   -1    0    0    0  501  0.00000000000E+00  0.00000000000E+00 -0.10466525297E+04  0.10466525297E+04  0.50400001928E-02 0.  1.
    10030    2    1    2    0    0  0.00000000000E+00  0.00000000000E+00 -0.30151795077E+03  0.17917871087E+04  0.17662355359E+04 0.  0.
        4    1    3    3  502    0 -0.26909523411E+03 -0.59847061965E+03  0.44882091801E+03  0.79499758298E+03  0.12699999809E+01 0. -1.
       -4    1    3    3    0  502  0.26909523411E+03  0.59847061965E+03 -0.75033886878E+03  0.99678952568E+03  0.12699999809E+01 0.  1.
</event>
<event>
 5   0  0.1643565E-04  0.2105593E+04  0.7818609E-02  0.8558783E-01
        1   -1    0    0  501    0  0.00000000000E+00  0.00000000000E+00  0.78909617689E+03  0.78909617691E+03  0.50400001928E-02 0. -1.
       -1   -1    0    0    0  501  0.00000000000E+00  0.00000000000E+00 -0.14046208026E+04  0.14046208026E+04  0.50400001928E-02 0.  1.
    10030    2    1    2    0    0  0.00000000000E+00  0.00000000000E+00 -0.61552462571E+03  0.21937169795E+04  0.21055934131E+04 0.  0.
        2    1    3    3  502    0 -0.68928265349E+03  0.12799727536E+03 -0.11260554367E+04  0.13264594700E+04  0.25500000920E-02 0.  1.
       -2    1    3    3    0  502  0.68928265349E+03 -0.12799727536E+03  0.51053081100E+03  0.86725750956E+03  0.25500000920E-02 0. -1.
</event>
<event>
 5   0  0.3460648E-04  0.1973476E+04  0.7818609E-02  0.8619123E-01
       -2   -1    0    0    0  501  0.00000000000E+00  0.00000000000E+00  0.60875052491E+03  0.60875052491E+03  0.25500000920E-02 0.  1.
        2   -1    0    0  501    0  0.00000000000E+00  0.00000000000E+00 -0.15994272643E+04  0.15994272643E+04  0.25500000920E-02 0. -1.
    10030    2    1    2    0    0  0.00000000000E+00  0.00000000000E+00 -0.99067673940E+03  0.22081777892E+04  0.19734763102E+04 0.  0.
        5    1    3    3  502    0  0.17170746689E+03  0.50152103693E+03  0.43587813756E+03  0.68630798150E+03  0.46999998093E+01 0.  1.
       -5    1    3    3    0  502 -0.17170746689E+03 -0.50152103693E+03 -0.14265548770E+04  0.15218698077E+04  0.46999998093E+01 0. -1.
</event>
<event>
 5   0  0.1708578E-04  0.1894248E+04  0.7818609E-02  0.8657725E-01
        1   -1    0    0  501    0  0.00000000000E+00  0.00000000000E+00  0.15383399342E+04  0.15383399342E+04  0.50400001928E-02 0. -1.
       -1   -1    0    0    0  501  0.00000000000E+00  0.00000000000E+00 -0.58312447106E+03  0.58312447108E+03  0.50400001928E-02 0.  1.
    10030    2    1    2    0    0  0.00000000000E+00  0.00000000000E+00  0.95521546310E+03  0.21214644053E+04  0.18942477773E+04 0.  0.
        3    1    3    3  502    0  0.58123219926E+03 -0.14501514503E+02  0.13149554341E+04  0.14377583132E+04  0.10100000352E+00 0. -1.
       -3    1    3    3    0  502 -0.58123219926E+03  0.14501514503E+02 -0.35973997098E+03  0.68370609205E+03  0.10100000352E+00 0.  1.
</event>
<event>
 5   0  0.3387881E-04  0.1779561E+04  0.7818609E-02  0.8717245E-01
       -2   -1    0    0    0  501  0.00000000000E+00  0.00000000000E+00  0.57169626515E+03  0.57169626515E+03  0.25500000920E-02 0.  1.
        2   -1    0    0  501    0  0.00000000000E+00  0.00000000000E+00 -0.13848426510E+04  0.13848426510E+04  0.25500000920E-02 0. -1.
    10030    2    1    2    0    0  0.00000000000E+00  0.00000000000E+00 -0.81314638580E+03  0.19565389161E+04  0.17795610373E+04 0.  0.
        1    1    3    3  502    0 -0.88648668001E+03  0.63875520767E+02 -0.36030925226E+03  0.95904195595E+03  0.50400001928E-02 0. -1.
       -1    1    3    3    0  502  0.88648668001E+03 -0.63875520767E+02 -0.45283713355E+03  0.99749696016E+03  0.50400001928E-02 0.  1.
</event>
<event>
 5   0  0.1650221E-04  0.1976265E+04  0.7818609E-02  0.8617799E-01
       -1   -1    0    0    0  501  0.00000000000E+00  0.00000000000E+00  0.42803560966E+03  0.42803560969E+03  0.50400001928E-02 0.  1.
        1   -1    0    0  501    0  0.00000000000E+00  0.00000000000E+00 -0.22811320794E+04  0.22811320794E+04  0.50400001928E-02 0. -1.
    10030    2    1    2    0    0  0.00000000000E+00  0.00000000000E+00 -0.18530964697E+04  0.27091676890E+04  0.19762649219E+04 0.  0.
        1    1    3    3  502    0 -0.79252983491E+03  0.22099619405E+02 -0.17350186782E+04  0.19075853182E+04  0.50400001928E-02 0. -1.
       -1    1    3    3    0  502  0.79252983491E+03 -0.22099619405E+02 -0.11807779148E+03  0.80158237086E+03  0.50400001928E-02 0.  1.
</event>
<event>
 5   0  0.3387881E-04  0.2024700E+04  0.7818609E-02  0.8595159E-01
       -2   -1    0    0    0  501  0.00000000000E+00  0.00000000000E+00  0.95474550735E+03  0.95474550735E+03  0.25500000920E-02 0.  1.
        2   -1    0    0  501    0  0.00000000000E+00  0.00000000000E+00 -0.10734304619E+04  0.10734304619E+04  0.25500000920E-02 0. -1.
    10030    2    1    2    0    0  0.00000000000E+00  0.00000000000E+00 -0.11868495457E+03  0.20281759693E+04  0.20247003837E+04 0.  0.
        1    1    3    3  502    0 -0.55123615221E+03 -0.81732073940E+03 -0.28990801082E+03  0.10275802359E+04  0.50400001928E-02 0.  1.
       -1    1    3    3    0  502  0.55123615221E+03  0.81732073940E+03  0.17122305625E+03  0.10005957333E+04  0.50400001928E-02 0. -1.
</event>
<event>
 5   0  0.3387881E-04  0.1988745E+04  0.7818609E-02  0.8611901E-01
       -2   -1    0    0    0  501  0.00000000000E+00  0.00000000000E+00  0.86140241623E+03  0.86140241623E+03  0.25500000920E-02 0.  1.
        2   -1    0    0  501    0  0.00000000000E+00  0.00000000000E+00 -0.11478689267E+04  0.11478689267E+04  0.25500000920E-02 0. -1.
    10030    2    1    2    0    0  0.00000000000E+00  0.00000000000E+00 -0.28646651046E+03  0.20092713429E+04  0.19887454005E+04 0.  0.
        1    1    3    3  502    0 -0.39947538216E+03  0.36595880335E+03  0.69920163876E+03  0.88452776009E+03  0.50400001928E-02 0.  1.
       -1    1    3    3    0  502  0.39947538216E+03 -0.36595880335E+03 -0.98566814922E+03  0.11247435828E+04  0.50400001928E-02 0. -1.
</event>
<event>
 5   0  0.3460648E-04  0.2025473E+04  0.7818609E-02  0.8594803E-01
        2   -1    0    0  501    0  0.00000000000E+00  0.00000000000E+00  0.24221689895E+04  0.24221689895E+04  0.25500000920E-02 0. -1.
       -2   -1    0    0    0  501  0.00000000000E+00  0.00000000000E+00 -0.42343663630E+03  0.42343663631E+03  0.25500000920E-02 0.  1.
    10030    2    1    2    0    0  0.00000000000E+00  0.00000000000E+00  0.19987323532E+04  0.28456056258E+04  0.20254728727E+04 0.  0.
        5    1    3    3  502    0 -0.79042435811E+03 -0.30581929942E+03  0.17781940649E+04  0.19698457635E+04  0.46999998093E+01 0. -1.
       -5    1    3    3    0  502  0.79042435811E+03  0.30581929942E+03  0.22053828837E+03  0.87575986230E+03  0.46999998093E+01 0.  1.
</event>
<event>
 5   0  0.3431030E-04  0.1983978E+04  0.7818609E-02  0.8614148E-01
        2   -1    0    0  501    0  0.00000000000E+00  0.00000000000E+00  0.11213587449E+04  0.11213587449E+04  0.25500000920E-02 0. -1.
       -2   -1    0    0    0  501  0.00000000000E+00  0.00000000000E+00 -0.87754427202E+03  0.87754427203E+03  0.25500000920E-02 0.  1.
    10030    2    1    2    0    0  0.00000000000E+00  0.00000000000E+00  0.24381447291E+03  0.19989030170E+04  0.19839777655E+04 0.  0.
        3    1    3    3  502    0 -0.83014523359E+03  0.31688419395E+03 -0.32241519349E+03  0.94525566299E+03  0.10100000352E+00 0.  1.
       -3    1    3    3    0  502  0.83014523359E+03 -0.31688419395E+03  0.56622966640E+03  0.10536473540E+04  0.10100000352E+00 0. -1.
</event>
<event>
 5   0  0.1643565E-04  0.2056128E+04  0.7818609E-02  0.8580819E-01
       -1   -1    0    0    0  501  0.00000000000E+00  0.00000000000E+00  0.14803613818E+04  0.14803613818E+04  0.50400001928E-02 0. -1.
        1   -1    0    0  501    0  0.00000000000E+00  0.00000000000E+00 -0.71395781640E+03  0.71395781641E+03  0.50400001928E-02 0.  1.
    10030    2    1    2    0    0  0.00000000000E+00  0.00000000000E+00  0.76640356543E+03  0.21943191983E+04  0.20561279918E+04 0.  0.
        2    1    3    3  502    0  0.26747235564E+03  0.47854776208E+03 -0.54494294448E+03  0.77298915541E+03  0.25500000920E-02 0.  1.
       -2    1    3    3    0  502 -0.26747235564E+03 -0.47854776208E+03  0.13113465099E+04  0.14213300428E+04  0.25500000920E-02 0. -1.
</event>
<event>
 5   0  0.1708578E-04  0.1369751E+04  0.7818609E-02  0.8976010E-01
       -1   -1    0    0    0  501  0.00000000000E+00  0.00000000000E+00  0.39048788240E+03  0.39048788244E+03  0.50400001928E-02 0.  1.
        1   -1    0    0  501    0  0.00000000000E+00  0.00000000000E+00 -0.12012007017E+04  0.12012007017E+04  0.50400001928E-02 0. -1.
    10030    2    1    2    0    0  0.00000000000E+00  0.00000000000E+00 -0.81071281930E+03  0.15916885842E+04  0.13697508071E+04 0.  0.
        3    1    3    3  502    0 -0.43425086360E+02 -0.67527621582E+03 -0.52817237709E+03  0.85839954328E+03  0.10100000352E+00 0. -1.
       -3    1    3    3    0  502  0.43425086360E+02  0.67527621582E+03 -0.28254044221E+03  0.73328904087E+03  0.10100000352E+00 0.  1.
</event>
<event>
 5   0  0.1643565E-04  0.2163219E+04  0.7818609E-02  0.8533895E-01
       -1   -1    0    0    0  501  0.00000000000E+00  0.00000000000E+00  0.15390578977E+04  0.15390578977E+04  0.50400001928E-02 0.  1.
        1   -1    0    0  501    0  0.00000000000E+00  0.00000000000E+00 -0.76012697126E+03  0.76012697127E+03  0.50400001928E-02 0. -1.
    10030    2    1    2    0    0  0.00000000000E+00  0.00000000000E+00  0.77893092639E+03  0.22991848689E+04  0.21632192846E+04 0.  0.
        2    1    3    3  502    0 -0.72557415974E+03  0.76770933758E+03  0.14238022010E+03  0.10658834905E+04  0.25500000920E-02 0. -1.
       -2    1    3    3    0  502  0.72557415974E+03 -0.76770933758E+03  0.63655070630E+03  0.12333013784E+04  0.25500000920E-02 0.  1.
</event>
<event>
 5   0  0.1650221E-04  0.1999013E+04  0.7818609E-02  0.8607082E-01
       -1   -1    0    0    0  501  0.00000000000E+00  0.00000000000E+00  0.93800633259E+03  0.93800633260E+03  0.50400001928E-02 0. -1.
        1   -1    0    0  501    0  0.00000000000E+00  0.00000000000E+00 -0.10650392286E+04  0.10650392286E+04  0.50400001928E-02 0.  1.
    10030    2    1    2    0    0  0.00000000000E+00  0.00000000000E+00 -0.12703289599E+03  0.20030455612E+04  0.19990132975E+04 0.  0.
        1    1    3    3  502    0  0.99055860871E+03  0.13065059069E+03 -0.90730146947E+02  0.10032486699E+04  0.50400001928E-02 0.  1.
       -1    1    3    3    0  502 -0.99055860871E+03 -0.13065059069E+03 -0.36302749045E+02  0.99979689125E+03  0.50400001928E-02 0. -1.
</event>
<event>
 5   0  0.3387881E-04  0.1990661E+04  0.7818609E-02  0.8610999E-01
       -2   -1    0    0    0  501  0.00000000000E+00  0.00000000000E+00  0.48875489642E+03  0.48875489643E+03  0.25500000920E-02 0.  1.
        2   -1    0    0  501    0  0.00000000000E+00  0.00000000000E+00 -0.20269519560E+04  0.20269519560E+04  0.25500000920E-02 0. -1.
    10030    2    1    2    0    0  0.00000000000E+00  0.00000000000E+00 -0.15381970596E+04  0.25157068524E+04  0.19906608886E+04 0.  0.
        1    1    3    3  502    0 -0.95990458111E+02  0.65212675749E+03 -0.17115911009E+04  0.18341285595E+04  0.50400001928E-02 0. -1.
       -1    1    3    3    0  502  0.95990458111E+02 -0.65212675749E+03  0.17339404132E+03  0.68157829299E+03  0.50400001928E-02 0.  1.
</event>
<event>
 5   0  0.1708578E-04  0.1903221E+04  0.7818609E-02  0.8653255E-01
       -1   -1    0    0    0  501  0.00000000000E+00  0.00000000000E+00  0.79232006293E+03  0.79232006295E+03  0.50400001928E-02 0. -1.
        1   -1    0    0  501    0  0.00000000000E+00  0.00000000000E+00 -0.11429250837E+04  0.11429250837E+04  0.50400001928E-02 0.  1.
    10030    2    1    2    0    0  0.00000000000E+00  0.00000000000E+00 -0.35060502081E+03  0.19352451467E+04  0.19032209271E+04 0.  0.
        3    1    3    3  502    0 -0.70992448275E+03  0.62806379978E+03 -0.89589682341E+02  0.95209412832E+03  0.10100000352E+00 0.  1.
       -3    1    3    3    0  502  0.70992448275E+03 -0.62806379978E+03 -0.26101533847E+03  0.98315101837E+03  0.10100000352E+00 0. -1.
</event>
<event>
 5   0  0.3371947E-04  0.2018789E+04  0.7818609E-02  0.8597886E-01
        2   -1    0    0  501    0  0.00000000000E+00  0.00000000000E+00  0.23500751950E+04  0.23500751950E+04  0.25500000920E-02 0.  1.
       -2   -1    0    0    0  501  0.00000000000E+00  0.00000000000E+00 -0.43355099750E+03  0.43355099751E+03  0.25500000920E-02 0. -1.
    10030    2    1    2    0    0  0.00000000000E+00  0.00000000000E+00  0.19165241975E+04  0.27836261925E+04  0.20187891866E+04 0.  0.
        2    1    3    3  502    0  0.95823390489E+03 -0.28009514682E+03  0.11637627314E+04  0.15333001020E+04  0.25500000920E-02 0.  1.
       -2    1    3    3    0  502 -0.95823390489E+03  0.28009514682E+03  0.75276146610E+03  0.12503260905E+04  0.25500000920E-02 0. -1.
</event>
<event>
 5   0  0.1664168E-04  0.1991938E+04  0.7818609E-02  0.8610399E-01
        1   -1    0    0  501    0  0.00000000000E+00  0.00000000000E+00  0.98086304728E+03  0.98086304729E+03  0.50400001928E-02 0. -1.
       -1   -1    0    0    0  501  0.00000000000E+00  0.00000000000E+00 -0.10113070869E+04  0.10113070869E+04  0.50400001928E-02 0.  1.
    10030    2    1    2    0    0  0.00000000000E+00  0.00000000000E+00 -0.30444039608E+02  0.19921701342E+04  0.19919375000E+04 0.  0.
        5    1    3    3  502    0  0.53934079102E+03 -0.56525314052E+03 -0.63297697213E+03  0.10055255039E+04  0.46999998093E+01 0.  1.
       -5    1    3    3    0  502 -0.53934079102E+03  0.56525314052E+03  0.60253293252E+03  0.98664463030E+03  0.46999998093E+01 0. -1.
</event>
<event>
 5   0  0.3395569E-04  0.1920297E+04  0.7818609E-02  0.8644819E-01
        2   -1    0    0  501    0  0.00000000000E+00  0.00000000000E+00  0.25644783399E+04  0.25644783399E+04  0.25500000920E-02 0.  1.
       -2   -1    0    0    0  501  0.00000000000E+00  0.00000000000E+00 -0.35948264727E+03  0.35948264728E+03  0.25500000920E-02 0. -1.
    10030    2    1    2    0    0  0.00000000000E+00  0.00000000000E+00  0.22049956926E+04  0.29239609871E+04  0.19202973337E+04 0.  0.
        4    1    3    3  502    0 -0.22986227514E+03  0.30581978805E+03 -0.23841329614E+03  0.45078256507E+03  0.12699999809E+01 0. -1.
       -4    1    3    3    0  502  0.22986227514E+03 -0.30581978805E+03  0.24434089887E+04  0.24731784221E+04  0.12699999809E+01 0.  1.
</event>
<event>
 5   0  0.3387881E-04  0.1787391E+04  0.7818609E-02  0.8713034E-01
       -2   -1    0    0    0  501  0.00000000000E+00  0.00000000000E+00  0.71684332415E+03  0.71684332416E+03  0.25500000920E-02 0.  1.
        2   -1    0    0  501    0  0.00000000000E+00  0.00000000000E+00 -0.11141784660E+04  0.11141784660E+04  0.25500000920E-02 0. -1.
    10030    2    1    2    0    0  0.00000000000E+00  0.00000000000E+00 -0.39733514186E+03  0.18310217902E+04  0.17873907187E+04 0.  0.
        1    1    3    3  502    0 -0.14839895556E+03 -0.18198780924E+03 -0.10820097765E+04  0.11071978004E+04  0.50400001928E-02 0. -1.
       -1    1    3    3    0  502  0.14839895556E+03  0.18198780924E+03  0.68467463468E+03  0.72382398974E+03  0.50400001928E-02 0.  1.
</event>
<event>
 5   0  0.3387881E-04  0.2014813E+04  0.7818609E-02  0.8599726E-01
        2   -1    0    0  501    0  0.00000000000E+00  0.00000000000E+00  0.19583946035E+04  0.19583946035E+04  0.25500000920E-02 0. -1.
       -2   -1    0    0    0  501  0.00000000000E+00  0.00000000000E+00 -0.51821423937E+03  0.51821423938E+03  0.25500000920E-02 0.  1.
    10030    2    1    2    0    0  0.00000000000E+00  0.00000000000E+00  0.14401803641E+04  0.24766088429E+04  0.20148131128E+04 0.  0.
        1    1    3    3  502    0 -0.12432148354E+03 -0.69971348499E+03 -0.15757360402E+03  0.72793147552E+03  0.50400001928E-02 0.  1.
       -1    1    3    3    0  502  0.12432148354E+03  0.69971348499E+03  0.15977539682E+04  0.17486773674E+04  0.50400001928E-02 0. -1.
</event>
<event>
 5   0  0.1696052E-04  0.1866904E+04  0.7818609E-02  0.8671508E-01
       -1   -1    0    0    0  501  0.00000000000E+00  0.00000000000E+00  0.85262340295E+03  0.85262340296E+03  0.50400001928E-02 0.  1.
        1   -1    0    0  501    0  0.00000000000E+00  0.00000000000E+00 -0.10219436398E+04  0.10219436398E+04  0.50400001928E-02 0. -1.
    10030    2    1    2    0    0  0.00000000000E+00  0.00000000000E+00 -0.16932023683E+03  0.18745670428E+04  0.18669044580E+04 0.  0.
        4    1    3    3  502    0 -0.42233369158E+02  0.39767024964E+03 -0.93157096902E+03  0.10137807298E+04  0.12699999809E+01 0. -1.
       -4    1    3    3    0  502  0.42233369158E+02 -0.39767024964E+03  0.76225073219E+03  0.86078631294E+03  0.12699999809E+01 0.  1.
</event>
<event>
 5   0  0.3395569E-04  0.1998050E+04  0.7818609E-02  0.8607533E-01
        2   -1    0    0  501    0  0.00000000000E+00  0.00000000000E+00  0.19838912291E+04  0.19838912291E+04  0.25500000920E-02 0.  1.
       -2   -1    0    0    0  501  0.00000000000E+00  0.00000000000E+00 -0.50307736184E+03  0.50307736184E+03  0.25500000920E-02 0. -1.
    10030    2    1    2    0    0  0.00000000000E+00  0.00000000000E+00  0.14808138673E+04  0.24869685909E+04  0.19980498149E+04 0.  0.
        4    1    3    3  502    0  0.28784018396E+03 -0.95660537403E+03  0.75306005206E+03  0.12510183324E+04  0.12699999809E+01 0.  1.
       -4    1    3    3    0  502 -0.28784018396E+03  0.95660537403E+03  0.72775381521E+03  0.12359502585E+04  0.12699999809E+01 0. -1.
</event>
<event>
 5   0  0.3395569E-04  0.2011861E+04  0.7818609E-02  0.8601095E-01
       -2   -1    0    0    0  501  0.00000000000E+00  0.00000000000E+00  0.48090644684E+03  0.48090644684E+03  0.25500000920E-02 0. -1.
        2   -1    0    0  501    0  0.00000000000E+00  0.00000000000E+00 -0.21041437215E+04  0.21041437215E+04  0.25500000920E-02 0.  1.
    10030    2    1    2    0    0  0.00000000000E+00  0.00000000000E+00 -0.16232372747E+04  0.25850501683E+04  0.20118611093E+04 0.  0.
        4    1    3    3  502    0 -0.96358941480E+03  0.24461251876E+03 -0.10088204510E+04  0.14163545319E+04  0.12699999809E+01 0. -1.
       -4    1    3    3    0  502  0.96358941480E+03 -0.24461251876E+03 -0.61441682363E+03  0.11686956365E+04  0.12699999809E+01 0.  1.
</event>
<event>
 5   0  0.1643565E-04  0.1607758E+04  0.7818609E-02  0.8815796E-01
       -1   -1    0    0    0  501  0.00000000000E+00  0.00000000000E+00  0.54409848161E+03  0.54409848164E+03  0.50400001928E-02 0. -1.
        1   -1    0    0  501    0  0.00000000000E+00  0.00000000000E+00 -0.11876917940E+04  0.11876917940E+04  0.50400001928E-02 0.  1.
    10030    2    1    2    0    0  0.00000000000E+00  0.00000000000E+00 -0.64359331242E+03  0.17317902757E+04  0.16077578198E+04 0.  0.
        2    1    3    3  502    0 -0.22042704587E+02 -0.76579578072E+03 -0.58408174833E+03  0.96336937222E+03  0.25500000920E-02 0.  1.
       -2    1    3    3    0  502  0.22042704587E+02  0.76579578072E+03 -0.59511564087E+02  0.76842090345E+03  0.25500000920E-02 0. -1.
</event>
<event>
 5   0  0.3387881E-04  0.1771061E+04  0.7818609E-02  0.8721842E-01
        2   -1    0    0  501    0  0.00000000000E+00  0.00000000000E+00  0.79578124402E+03  0.79578124403E+03  0.25500000920E-02 0. -1.
       -2   -1    0    0    0  501  0.00000000000E+00  0.00000000000E+00 -0.98540232202E+03  0.98540232202E+03  0.25500000920E-02 0.  1.
    10030    2    1    2    0    0  0.00000000000E+00  0.00000000000E+00 -0.18962107799E+03  0.17811835660E+04  0.17710614735E+04 0.  0.
        1    1    3    3  502    0 -0.60044471656E+03  0.92993033505E+02  0.55306302827E+03  0.82162051775E+03  0.50400001928E-02 0. -1.
       -1    1    3    3    0  502  0.60044471656E+03 -0.92993033505E+02 -0.74268410626E+03  0.95956304829E+03  0.50400001928E-02 0.  1.
</event>
<event>
 5   0  0.1664168E-04  0.1999369E+04  0.7818609E-02  0.8606916E-01
       -1   -1    0    0    0  501  0.00000000000E+00  0.00000000000E+00  0.96670298857E+03  0.96670298859E+03  0.50400001928E-02 0. -1.
        1   -1    0    0  501    0  0.00000000000E+00  0.00000000000E+00 -0.10337908449E+04  0.10337908449E+04  0.50400001928E-02 0.  1.
    10030    2    1    2    0    0  0.00000000000E+00  0.00000000000E+00 -0.67087856349E+02  0.20004938335E+04  0.19993685997E+04 0.  0.
        5    1    3    3  502    0 -0.11581537332E+03  0.83437840731E+03  0.50503968549E+03  0.98218516646E+03  0.46999998093E+01 0. -1.
       -5    1    3    3    0  502  0.11581537332E+03 -0.83437840731E+03 -0.57212754184E+03  0.10183086671E+04  0.46999998093E+01 0.  1.
</event>
<event>
 5   0  0.1664168E-04  0.1953836E+04  0.7818609E-02  0.8628513E-01
        1   -1    0    0  501    0  0.00000000000E+00  0.00000000000E+00  0.95242977516E+03  0.95242977517E+03  0.50400001928E-02 0. -1.
       -1   -1    0    0    0  501  0.00000000000E+00  0.00000000000E+00 -0.10020353681E+04  0.10020353682E+04  0.50400001928E-02 0.  1.
    10030    2    1    2    0    0  0.00000000000E+00  0.00000000000E+00 -0.49605592983E+02  0.19544651433E+04  0.19538355309E+04 0.  0.
        5    1    3    3  502    0  0.27747895397E+03 -0.42553632077E+03 -0.85949993378E+03  0.99841772638E+03  0.46999998093E+01 0.  1.
       -5    1    3    3    0  502 -0.27747895397E+03  0.42553632077E+03  0.80989434080E+03  0.95604741694E+03  0.46999998093E+01 0. -1.
</event>
<event>
 5   0  0.1664168E-04  0.2023762E+04  0.7818609E-02  0.8595591E-01
        1   -1    0    0  501    0  0.00000000000E+00  0.00000000000E+00  0.19690322486E+04  0.19690322486E+04  0.50400001928E-02 0. -1.
       -1   -1    0    0    0  501  0.00000000000E+00  0.00000000000E+00 -0.52000311389E+03  0.52000311392E+03  0.50400001928E-02 0.  1.
    10030    2    1    2    0    0  0.00000000000E+00  0.00000000000E+00  0.14490291347E+04  0.24890353626E+04  0.20237617455E+04 0.  0.
        5    1    3    3  502    0 -0.79508881988E+03 -0.33914744316E+03  0.13714653378E+04  0.16211497409E+04  0.46999998093E+01 0. -1.
       -5    1    3    3    0  502  0.79508881988E+03  0.33914744316E+03  0.77563796975E+02  0.86788562167E+03  0.46999998093E+01 0.  1.
</event>
<event>
 5   0  0.1643565E-04  0.2019129E+04  0.7818609E-02  0.8597729E-01
        1   -1    0    0  501    0  0.00000000000E+00  0.00000000000E+00  0.73947640837E+03  0.73947640839E+03  0.50400001928E-02 0.  1.
       -1   -1    0    0    0  501  0.00000000000E+00  0.00000000000E+00 -0.13783001560E+04  0.13783001560E+04  0.50400001928E-02 0. -1.
    10030    2    1    2    0    0  0.00000000000E+00  0.00000000000E+00 -0.63882374758E+03  0.21177765643E+04  0.20191289696E+04 0.  0.
        2    1    3    3  502    0 -0.18240508986E+03 -0.39054177924E+03  0.63811194873E+03  0.77005282758E+03  0.25500000920E-02 0.  1.
       -2    1    3    3    0  502  0.18240508986E+03  0.39054177924E+03 -0.12769356963E+04  0.13477237368E+04  0.25500000920E-02 0. -1.
</event>
<event>
 5   0  0.3431030E-04  0.1986511E+04  0.7818609E-02  0.8612953E-01
        2   -1    0    0  501    0  0.00000000000E+00  0.00000000000E+00  0.51077662848E+03  0.51077662849E+03  0.25500000920E-02 0.  1.
       -2   -1    0    0    0  501  0.00000000000E+00  0.00000000000E+00 -0.19314826736E+04  0.19314826736E+04  0.25500000920E-02 0. -1.
    10030    2    1    2    0    0  0.00000000000E+00  0.00000000000E+00 -0.14207060451E+04  0.24422593021E+04  0.19865107178E+04 0.  0.
        3    1    3    3  502    0 -0.29999334680E+03 -0.80998982623E+03 -0.10746405654E+03  0.87041832493E+03  0.10100000352E+00 0.  1.
       -3    1    3    3    0  502  0.29999334680E+03  0.80998982623E+03 -0.13132419885E+04  0.15718409771E+04  0.10100000352E+00 0. -1.
</event>
<event>
 5   0  0.3460648E-04  0.1982408E+04  0.7818609E-02  0.8614890E-01
        2   -1    0    0  501    0  0.00000000000E+00  0.00000000000E+00  0.11196507723E+04  0.11196507723E+04  0.25500000920E-02 0. -1.
       -2   -1    0    0    0  501  0.00000000000E+00  0.00000000000E+00 -0.87749248319E+03  0.87749248319E+03  0.25500000920E-02 0.  1.
    10030    2    1    2    0    0  0.00000000000E+00  0.00000000000E+00  0.24215828908E+03  0.19971432555E+04  0.19824077648E+04 0.  0.
        5    1    3    3  502    0 -0.13366210349E+03 -0.52937456299E+03 -0.71233056522E+03  0.89751875190E+03  0.46999998093E+01 0.  1.
       -5    1    3    3    0  502  0.13366210349E+03  0.52937456299E+03  0.95448885431E+03  0.10996245036E+04  0.46999998093E+01 0. -1.
</event>
<event>
 5   0  0.3371947E-04  0.1986081E+04  0.7818609E-02  0.8613156E-01
       -2   -1    0    0    0  501  0.00000000000E+00  0.00000000000E+00  0.10235682408E+04  0.10235682408E+04  0.25500000920E-02 0.  1.
        2   -1    0    0  501    0  0.00000000000E+00  0.00000000000E+00 -0.96342331192E+03  0.96342331193E+03  0.25500000920E-02 0. -1.
    10030    2    1    2    0    0  0.00000000000E+00  0.00000000000E+00  0.60144928842E+02  0.19869915527E+04  0.19860810704E+04 0.  0.
        2    1    3    3  502    0  0.33267507991E+03 -0.54077839860E+03  0.79397703132E+03  0.10166186657E+04  0.25500000920E-02 0.  1.
       -2    1    3    3    0  502 -0.33267507991E+03  0.54077839860E+03 -0.73383210247E+03  0.97037288699E+03  0.25500000920E-02 0. -1.
</event>
<event>
 5   0  0.1643565E-04  0.2029857E+04  0.7818609E-02  0.8592787E-01
        1   -1    0    0  501    0  0.00000000000E+00  0.00000000000E+00  0.86274131208E+03  0.86274131209E+03  0.50400001928E-02 0. -1.
       -1   -1    0    0    0  501  0.00000000000E+00  0.00000000000E+00 -0.11939615960E+04  0.11939615960E+04  0.50400001928E-02 0.  1.
    10030    2    1    2    0    0  0.00000000000E+00  0.00000000000E+00 -0.33122028388E+03  0.20567029081E+04  0.20298571318E+04 0.  0.
        2    1    3    3  502    0 -0.46332397419E+02  0.89986955221E+03  0.30765193666E+03  0.95213529300E+03  0.25500000920E-02 0. -1.
       -2    1    3    3    0  502  0.46332397419E+02 -0.89986955221E+03 -0.63887222054E+03  0.11045676151E+04  0.25500000920E-02 0.  1.
</event>
<event>
 5   0  0.3387881E-04  0.2003095E+04  0.7818609E-02  0.8605175E-01
        2   -1    0    0  501    0  0.00000000000E+00  0.00000000000E+00  0.18265256231E+04  0.18265256231E+04  0.25500000920E-02 0. -1.
       -2   -1    0    0    0  501  0.00000000000E+00  0.00000000000E+00 -0.54918353287E+03  0.54918353287E+03  0.25500000920E-02 0.  1.
    10030    2    1    2    0    0  0.00000000000E+00  0.00000000000E+00  0.12773420902E+04  0.23757091559E+04  0.20030953992E+04 0.  0.
        1    1    3    3  502    0 -0.18783620802E+03 -0.28152998393E+03  0.17566511989E+04  0.17889564017E+04  0.50400001928E-02 0. -1.
       -1    1    3    3    0  502  0.18783620802E+03  0.28152998393E+03 -0.47930910865E+03  0.58675275420E+03  0.50400001928E-02 0.  1.
</event>
<event>
 5   0  0.1643565E-04  0.1897607E+04  0.7818609E-02  0.8656048E-01
       -1   -1    0    0    0  501  0.00000000000E+00  0.00000000000E+00  0.62137106333E+03  0.62137106335E+03  0.50400001928E-02 0. -1.
        1   -1    0    0  501    0  0.00000000000E+00  0.00000000000E+00 -0.14487777139E+04  0.14487777140E+04  0.50400001928E-02 0.  1.
    10030    2    1    2    0    0  0.00000000000E+00  0.00000000000E+00 -0.82740665062E+03  0.20701487773E+04  0.18976074923E+04 0.  0.
        2    1    3    3  502    0  0.10607244403E+02 -0.54945962923E+03  0.43006275211E+03  0.69783405517E+03  0.25500000920E-02 0. -1.
       -2    1    3    3    0  502 -0.10607244403E+02  0.54945962923E+03 -0.12574694027E+04  0.13723147221E+04  0.25500000920E-02 0.  1.
</event>
<event>
 5   0  0.1650221E-04  0.1319654E+04  0.7818609E-02  0.9014123E-01
       -1   -1    0    0    0  501  0.00000000000E+00  0.00000000000E+00  0.36917501343E+03  0.36917501346E+03  0.50400001928E-02 0. -1.
        1   -1    0    0  501    0  0.00000000000E+00  0.00000000000E+00 -0.11793101222E+04  0.11793101222E+04  0.50400001928E-02 0.  1.
    10030    2    1    2    0    0  0.00000000000E+00  0.00000000000E+00 -0.81013510879E+03  0.15484851357E+04  0.13196542430E+04 0.  0.
        1    1    3    3  502    0 -0.21442605598E+03 -0.15194876869E+03  0.30511210245E+03  0.40269139161E+03  0.50400001928E-02 0. -1.
       -1    1    3    3    0  502  0.21442605598E+03  0.15194876869E+03 -0.11152472112E+04  0.11457937441E+04  0.50400001928E-02 0.  1.
</event>
<event>
 5   0  0.1708578E-04  0.1930166E+04  0.7818609E-02  0.8639985E-01
        1   -1    0    0  501    0  0.00000000000E+00  0.00000000000E+00  0.11514833590E+04  0.11514833590E+04  0.50400001928E-02 0.  1.
       -1   -1    0    0    0  501  0.00000000000E+00  0.00000000000E+00 -0.80885690448E+03  0.80885690450E+03  0.50400001928E-02 0. -1.
    10030    2    1    2    0    0  0.00000000000E+00  0.00000000000E+00  0.34262645450E+03  0.19603402635E+04  0.19301660709E+04 0.  0.
        3    1    3    3  502    0  0.70869359215E+02 -0.78571673387E+02  0.11455743392E+04  0.11504505860E+04  0.10100000352E+00 0.  1.
       -3    1    3    3    0  502 -0.70869359215E+02  0.78571673387E+02 -0.80294788472E+03  0.80988967749E+03  0.10100000352E+00 0. -1.
</event>
<event>
 5   0  0.1643565E-04  0.2028601E+04  0.7818609E-02  0.8593365E-01
       -1   -1    0    0    0  501  0.00000000000E+00  0.00000000000E+00  0.10756608691E+04  0.10756608691E+04  0.50400001928E-02 0. -1.
        1   -1    0    0  501    0  0.00000000000E+00  0.00000000000E+00 -0.95643995997E+03  0.95643995998E+03  0.50400001928E-02 0.  1.
    10030    2    1    2    0    0  0.00000000000E+00  0.00000000000E+00  0.11922090909E+03  0.20321008290E+04  0.20286005408E+04 0.  0.
        2    1    3    3  502    0 -0.16172475029E+03  0.64893527484E+03  0.82350947894E+03  0.10608674506E+04  0.25500000920E-02 0. -1.
       -2    1    3    3    0  502  0.16172475029E+03 -0.64893527484E+03 -0.70428856986E+03  0.97123337846E+03  0.25500000920E-02 0.  1.
</event>
<event>
 5   0  0.1708578E-04  0.2004341E+04  0.7818609E-02  0.8604594E-01
        1   -1    0    0  501    0  0.00000000000E+00  0.00000000000E+00  0.69130817162E+03  0.69130817164E+03  0.50400001928E-02 0. -1.
       -1   -1    0    0    0  501  0.00000000000E+00  0.00000000000E+00 -0.14528190112E+04  0.14528190112E+04  0.50400001928E-02 0.  1.
    10030    2    1    2    0    0  0.00000000000E+00  0.00000000000E+00 -0.76151083962E+03  0.21441271829E+04  0.20043409434E+04 0.  0.
        3    1    3    3  502    0  0.75063633095E+03 -0.62124505350E+03 -0.13000346734E+03  0.98300622050E+03  0.10100000352E+00 0.  1.
       -3    1    3    3    0  502 -0.75063633095E+03  0.62124505350E+03 -0.63150737228E+03  0.11611209624E+04  0.10100000352E+00 0. -1.
</event>
<event>
 5   0  0.1650221E-04  0.1958660E+04  0.7818609E-02  0.8626196E-01
       -1   -1    0    0    0  501  0.00000000000E+00  0.00000000000E+00  0.11213389515E+04  0.11213389515E+04  0.50400001928E-02 0.  1.
        1   -1    0    0  501    0  0.00000000000E+00  0.00000000000E+00 -0.85530513671E+03  0.85530513673E+03  0.50400001928E-02 0. -1.
    10030    2    1    2    0    0  0.00000000000E+00  0.00000000000E+00  0.26603381474E+03  0.19766440882E+04  0.19586597103E+04 0.  0.
        1    1    3    3  502    0 -0.61625519349E+03  0.54385701768E+03  0.67038716726E+03  0.10606459698E+04  0.50400001928E-02 0.  1.
       -1    1    3    3    0  502  0.61625519349E+03 -0.54385701768E+03 -0.40435335252E+03  0.91599811840E+03  0.50400001928E-02 0. -1.
</event>
<event>
 5   0  0.1643565E-04  0.1715717E+04  0.7818609E-02  0.8752451E-01
        1   -1    0    0  501    0  0.00000000000E+00  0.00000000000E+00  0.17994453103E+04  0.17994453103E+04  0.50400001928E-02 0.  1.
       -1   -1    0    0    0  501  0.00000000000E+00  0.00000000000E+00 -0.40897109437E+03  0.40897109440E+03  0.50400001928E-02 0. -1.
    10030    2    1    2    0    0  0.00000000000E+00  0.00000000000E+00  0.13904742159E+04  0.22084164047E+04  0.17157168972E+04 0.  0.
        2    1    3    3  502    0  0.69536989434E+03  0.49689945723E+03  0.60001485986E+03  0.10442538928E+04  0.25500000920E-02 0. -1.
       -2    1    3    3    0  502 -0.69536989434E+03 -0.49689945723E+03  0.79045935607E+03  0.11641625119E+04  0.25500000920E-02 0.  1.
</event>
<event>
 5   0  0.3371947E-04  0.1940838E+04  0.7818609E-02  0.8634792E-01
        2   -1    0    0  501    0  0.00000000000E+00  0.00000000000E+00  0.17206231130E+04  0.17206231130E+04  0.25500000920E-02 0.  1.
       -2   -1    0    0    0  501  0.00000000000E+00  0.00000000000E+00 -0.54730918119E+03  0.54730918119E+03  0.25500000920E-02 0. -1.
    10030    2    1    2    0    0  0.00000000000E+00  0.00000000000E+00  0.11733139318E+04  0.22679322942E+04  0.19408377852E+04 0.  0.
        2    1    3    3  502    0  0.25815756354E+03  0.89619907673E+03  0.27333609301E+03  0.97186970963E+03  0.25500000920E-02 0.  1.
       -2    1    3    3    0  502 -0.25815756354E+03 -0.89619907673E+03  0.89997783878E+03  0.12960625845E+04  0.25500000920E-02 0. -1.
</event>
<event>
 5   0  0.1643565E-04  0.1057058E+04  0.7818609E-02  0.9248088E-01
       -1   -1    0    0    0  501  0.00000000000E+00  0.00000000000E+00  0.40629856572E+03  0.40629856575E+03  0.50400001928E-02 0.  1.
        1   -1    0    0  501    0  0.00000000000E+00  0.00000000000E+00 -0.68753079580E+03  0.68753079582E+03  0.50400001928E-02 0. -1.
    10030    2    1    2    0    0  0.00000000000E+00  0.00000000000E+00 -0.28123223008E+03  0.10938293616E+04  0.10570577586E+04 0.  0.
        2    1    3    3  502    0 -0.22385307277E+03 -0.36426830464E+03  0.18090326871E+03  0.46424948960E+03  0.25500000920E-02 0.  1.
       -2    1    3    3    0  502  0.22385307277E+03  0.36426830464E+03 -0.46213549879E+03  0.62957987198E+03  0.25500000920E-02 0. -1.
</event>
<event>
 5   0  0.1664168E-04  0.1935424E+04  0.7818609E-02  0.8637422E-01
        1   -1    0    0  501    0  0.00000000000E+00  0.00000000000E+00  0.14111469349E+04  0.14111469349E+04  0.50400001928E-02 0.  1.
       -1   -1    0    0    0  501  0.00000000000E+00  0.00000000000E+00 -0.66362077621E+03  0.66362077622E+03  0.50400001928E-02 0. -1.
    10030    2    1    2    0    0  0.00000000000E+00  0.00000000000E+00  0.74752615865E+03  0.20747677111E+04  0.19354239063E+04 0.  0.
        5    1    3    3  502    0 -0.45901353126E+03 -0.33082593821E+03 -0.46780889455E+03  0.73417060353E+03  0.46999998093E+01 0. -1.
       -5    1    3    3    0  502  0.45901353126E+03  0.33082593821E+03  0.12153350532E+04  0.13405971076E+04  0.46999998093E+01 0.  1.
</event>
<event>
 5   0  0.1222488E-04  0.2005477E+04  0.7818609E-02  0.8604064E-01
        3   -1    0    0  501    0  0.00000000000E+00  0.00000000000E+00  0.14057492412E+04  0.14057492448E+04  0.10100000352E+00 0.  1.
       -3   -1    0    0    0  501  0.00000000000E+00  0.00000000000E+00 -0.71526603021E+03  0.71526603734E+03  0.10100000352E+00 0. -1.
    10030    2    1    2    0    0  0.00000000000E+00  0.00000000000E+00  0.69048321097E+03  0.21210152821E+04  0.20054771907E+04 0.  0.
        5    1    3    3  502    0  0.98951159082E+03  0.12213979269E+03  0.45821945778E+03  0.10972868717E+04  0.46999998093E+01 0.  1.
       -5    1    3    3    0  502 -0.98951159082E+03 -0.12213979269E+03  0.23226375319E+03  0.10237284104E+04  0.46999998093E+01 0. -1.
</event>
<event>
 5   0  0.3431030E-04  0.1954688E+04  0.7818609E-02  0.8628104E-01
        2   -1    0    0  501    0  0.00000000000E+00  0.00000000000E+00  0.26037947987E+04  0.26037947987E+04  0.25500000920E-02 0. -1.
       -2   -1    0    0    0  501  0.00000000000E+00  0.00000000000E+00 -0.36684953301E+03  0.36684953302E+03  0.25500000920E-02 0.  1.
    10030    2    1    2    0    0  0.00000000000E+00  0.00000000000E+00  0.22369452657E+04  0.29706443317E+04  0.19546876026E+04 0.  0.
        3    1    3    3  502    0  0.15625090609E+03  0.53018485112E+03 -0.10650055277E+03  0.56289670452E+03  0.10100000352E+00 0.  1.
       -3    1    3    3    0  502 -0.15625090609E+03 -0.53018485112E+03  0.23434458184E+04  0.24077476272E+04  0.10100000352E+00 0. -1.
</event>
<event>
 5   0  0.3431030E-04  0.2027206E+04  0.7818609E-02  0.8594006E-01
       -2   -1    0    0    0  501  0.00000000000E+00  0.00000000000E+00  0.13540328702E+04  0.13540328702E+04  0.25500000920E-02 0.  1.
        2   -1    0    0  501    0  0.00000000000E+00  0.00000000000E+00 -0.75876338195E+03  0.75876338196E+03  0.25500000920E-02 0. -1.
    10030    2    1    2    0    0  0.00000000000E+00  0.00000000000E+00  0.59526948829E+03  0.21127962522E+04  0.20272055248E+04 0.  0.
        3    1    3    3  502    0 -0.71303778890E+03 -0.14460633002E+03  0.10331627563E+04  0.12636293643E+04  0.10100000352E+00 0.  1.
       -3    1    3    3    0  502  0.71303778890E+03  0.14460633002E+03 -0.43789326804E+03  0.84916688789E+03  0.10100000352E+00 0. -1.
</event>
<event>
 5   0  0.3395569E-04  0.1865852E+04  0.7818609E-02  0.8672043E-01
       -2   -1    0    0    0  501  0.00000000000E+00  0.00000000000E+00  0.21274508650E+04  0.21274508650E+04  0.25500000920E-02 0. -1.
        2   -1    0    0  501    0  0.00000000000E+00  0.00000000000E+00 -0.40910524353E+03  0.40910524353E+03  0.25500000920E-02 0.  1.
    10030    2    1    2    0    0  0.00000000000E+00  0.00000000000E+00  0.17183456215E+04  0.25365561085E+04  0.18658524103E+04 0.  0.
        4    1    3    3  502    0  0.70970544916E+03 -0.41438294411E+03  0.25892031267E+03  0.86164748601E+03  0.12699999809E+01 0.  1.
       -4    1    3    3    0  502 -0.70970544916E+03  0.41438294411E+03  0.14594253088E+04  0.16749086225E+04  0.12699999809E+01 0. -1.
</event>
<event>
 5   0  0.3431030E-04  0.2005964E+04  0.7818609E-02  0.8603837E-01
       -2   -1    0    0    0  501  0.00000000000E+00  0.00000000000E+00  0.89479808101E+03  0.89479808101E+03  0.25500000920E-02 0. -1.
        2   -1    0    0  501    0  0.00000000000E+00  0.00000000000E+00 -0.11242462313E+04  0.11242462313E+04  0.25500000920E-02 0.  1.
    10030    2    1    2    0    0  0.00000000000E+00  0.00000000000E+00 -0.22944815028E+03  0.20190443123E+04  0.20059644766E+04 0.  0.
        3    1    3    3  502    0 -0.74658670608E+03  0.64787569052E+03  0.56202957884E+02  0.99009767333E+03  0.10100000352E+00 0. -1.
       -3    1    3    3    0  502  0.74658670608E+03 -0.64787569052E+03 -0.28565110817E+03  0.10289466390E+04  0.10100000352E+00 0.  1.
</event>
<event>
 5   0  0.3387881E-04  0.2020513E+04  0.7818609E-02  0.8597090E-01
       -2   -1    0    0    0  501  0.00000000000E+00  0.00000000000E+00  0.42541210494E+03  0.42541210494E+03  0.25500000920E-02 0.  1.
        2   -1    0    0  501    0  0.00000000000E+00  0.00000000000E+00 -0.23991288141E+04  0.23991288141E+04  0.25500000920E-02 0. -1.
    10030    2    1    2    0    0  0.00000000000E+00  0.00000000000E+00 -0.19737167092E+04  0.28245409191E+04  0.20205132406E+04 0.  0.
        1    1    3    3  502    0 -0.28382275600E+03 -0.92440276201E+03 -0.57799571070E+03  0.11265677365E+04  0.50400001928E-02 0. -1.
       -1    1    3    3    0  502  0.28382275600E+03  0.92440276201E+03 -0.13957209985E+04  0.16979731826E+04  0.50400001928E-02 0.  1.
</event>
<event>
 5   0  0.3431030E-04  0.2240553E+04  0.7818609E-02  0.8501736E-01
        2   -1    0    0  501    0  0.00000000000E+00  0.00000000000E+00  0.19118514156E+04  0.19118514156E+04  0.25500000920E-02 0.  1.
       -2   -1    0    0    0  501  0.00000000000E+00  0.00000000000E+00 -0.65644206728E+03  0.65644206728E+03  0.25500000920E-02 0. -1.
    10030    2    1    2    0    0  0.00000000000E+00  0.00000000000E+00  0.12554093483E+04  0.25682934829E+04  0.22405532313E+04 0.  0.
        3    1    3    3  502    0  0.47417897463E+03 -0.52766205168E+03 -0.36615521037E+03  0.79833739049E+03  0.10100000352E+00 0. -1.
       -3    1    3    3    0  502 -0.47417897463E+03  0.52766205168E+03  0.16215645587E+04  0.17699560924E+04  0.10100000352E+00 0.  1.
</event>
<event>
 5   0  0.3460648E-04  0.1029980E+04  0.7818609E-02  0.9276261E-01
        2   -1    0    0  501    0  0.00000000000E+00  0.00000000000E+00  0.79590038899E+03  0.79590038899E+03  0.25500000920E-02 0.  1.
       -2   -1    0    0    0  501  0.00000000000E+00  0.00000000000E+00 -0.33322573228E+03  0.33322573229E+03  0.25500000920E-02 0. -1.
    10030    2    1    2    0    0  0.00000000000E+00  0.00000000000E+00  0.46267465671E+03  0.11291261213E+04  0.10299795919E+04 0.  0.
        5    1    3    3  502    0 -0.15323998519E+03  0.35948542104E+03  0.59900187791E+03  0.71521856851E+03  0.46999998093E+01 0.  1.
       -5    1    3    3    0  502  0.15323998519E+03 -0.35948542104E+03 -0.13632722120E+03  0.41390755277E+03  0.46999998093E+01 0. -1.
</event>
<event>
 5   0  0.1708578E-04  0.2006855E+04  0.7818609E-02  0.8603423E-01
        1   -1    0    0  501    0  0.00000000000E+00  0.00000000000E+00  0.12337361997E+04  0.12337361997E+04  0.50400001928E-02 0.  1.
       -1   -1    0    0    0  501  0.00000000000E+00  0.00000000000E+00 -0.81611169551E+03  0.81611169552E+03  0.50400001928E-02 0. -1.
    10030    2    1    2    0    0  0.00000000000E+00  0.00000000000E+00  0.41762450417E+03  0.20498478952E+04  0.20068547947E+04 0.  0.
        3    1    3    3  502    0  0.46081328221E+02 -0.40527528176E+03  0.11452377921E+04  0.12157060309E+04  0.10100000352E+00 0.  1.
       -3    1    3    3    0  502 -0.46081328221E+02  0.40527528176E+03 -0.72761328795E+03  0.83414186433E+03  0.10100000352E+00 0. -1.
</event>
<event>
 5   0  0.1650221E-04  0.2064774E+04  0.7818609E-02  0.8576921E-01
        1   -1    0    0  501    0  0.00000000000E+00  0.00000000000E+00  0.84538156435E+03  0.84538156436E+03  0.50400001928E-02 0.  1.
       -1   -1    0    0    0  501  0.00000000000E+00  0.00000000000E+00 -0.12607600547E+04  0.12607600547E+04  0.50400001928E-02 0. -1.
    10030    2    1    2    0    0  0.00000000000E+00  0.00000000000E+00 -0.41537849034E+03  0.21061416191E+04  0.20647743773E+04 0.  0.
        1    1    3    3  502    0  0.27582551386E+03 -0.51320598889E+03  0.66165520602E+03  0.88161653388E+03  0.50400001928E-02 0.  1.
       -1    1    3    3    0  502 -0.27582551386E+03  0.51320598889E+03 -0.10770336964E+04  0.12245250852E+04  0.50400001928E-02 0. -1.
</event>
<event>
 5   0  0.1708578E-04  0.1976208E+04  0.7818609E-02  0.8617825E-01
        1   -1    0    0  501    0  0.00000000000E+00  0.00000000000E+00  0.17530741294E+04  0.17530741294E+04  0.50400001928E-02 0.  1.
       -1   -1    0    0    0  501  0.00000000000E+00  0.00000000000E+00 -0.55693592470E+03  0.55693592473E+03  0.50400001928E-02 0. -1.
    10030    2    1    2    0    0  0.00000000000E+00  0.00000000000E+00  0.11961382047E+04  0.23100100541E+04  0.19762084519E+04 0.  0.
        3    1    3    3  502    0  0.39423933158E+03  0.13665556447E+03 -0.44890546349E+03  0.61287479897E+03  0.10100000352E+00 0. -1.
       -3    1    3    3    0  502 -0.39423933158E+03 -0.13665556447E+03  0.16450436681E+04  0.16971352551E+04  0.10100000352E+00 0.  1.
</event>
<event>
 5   0  0.1650221E-04  0.1995843E+04  0.7818609E-02  0.8608567E-01
       -1   -1    0    0    0  501  0.00000000000E+00  0.00000000000E+00  0.14505584995E+04  0.14505584995E+04  0.50400001928E-02 0. -1.
        1   -1    0    0  501    0  0.00000000000E+00  0.00000000000E+00 -0.68652670310E+03  0.68652670311E+03  0.50400001928E-02 0.  1.
    10030    2    1    2    0    0  0.00000000000E+00  0.00000000000E+00  0.76403179636E+03  0.21370852026E+04  0.19958428238E+04 0.  0.
        1    1    3    3  502    0 -0.81965492749E+02  0.98839170219E+03  0.50033770931E+03  0.11108439685E+04  0.50400001928E-02 0. -1.
       -1    1    3    3    0  502  0.81965492749E+02 -0.98839170219E+03  0.26369408706E+03  0.10262412341E+04  0.50400001928E-02 0.  1.
</event>
<event>
 5   0  0.1696052E-04  0.1898305E+04  0.7818609E-02  0.8655700E-01
        1   -1    0    0  501    0  0.00000000000E+00  0.00000000000E+00  0.88770638667E+03  0.88770638668E+03  0.50400001928E-02 0.  1.
       -1   -1    0    0    0  501  0.00000000000E+00  0.00000000000E+00 -0.10148520673E+04  0.10148520673E+04  0.50400001928E-02 0. -1.
    10030    2    1    2    0    0  0.00000000000E+00  0.00000000000E+00 -0.12714568062E+03  0.19025584540E+04  0.18983052038E+04 0.  0.
        4    1    3    3  502    0 -0.30933733538E+03 -0.73347436998E+03  0.45451360877E+03  0.91665613614E+03  0.12699999809E+01 0.  1.
       -4    1    3    3    0  502  0.30933733538E+03  0.73347436998E+03 -0.58165928939E+03  0.98590231783E+03  0.12699999809E+01 0. -1.
</event>
<event>
 5   0  0.3395569E-04  0.1691195E+04  0.7818609E-02  0.8766402E-01
        2   -1    0    0  501    0  0.00000000000E+00  0.00000000000E+00  0.78161281944E+03  0.78161281944E+03  0.25500000920E-02 0.  1.
       -2   -1    0    0    0  501  0.00000000000E+00  0.00000000000E+00 -0.91481979113E+03  0.91481979113E+03  0.25500000920E-02 0. -1.
    10030    2    1    2    0    0  0.00000000000E+00  0.00000000000E+00 -0.13320697169E+03  0.16964326106E+04  0.16911946975E+04 0.  0.
        4    1    3    3  502    0 -0.77974602840E+03  0.28458647624E+03 -0.22847220395E+03  0.86092653121E+03  0.12699999809E+01 0.  1.
       -4    1    3    3    0  502  0.77974602840E+03 -0.28458647624E+03  0.95265232262E+02  0.83550607936E+03  0.12699999809E+01 0. -1.
</event>
<event>
 5   0  0.3460648E-04  0.2028518E+04  0.7818609E-02  0.8593402E-01
        2   -1    0    0  501    0  0.00000000000E+00  0.00000000000E+00  0.14625657001E+04  0.14625657001E+04  0.25500000920E-02 0.  1.
       -2   -1    0    0    0  501  0.00000000000E+00  0.00000000000E+00 -0.70336752292E+03  0.70336752292E+03  0.25500000920E-02 0. -1.
    10030    2    1    2    0    0  0.00000000000E+00  0.00000000000E+00  0.75919817715E+03  0.21659332230E+04  0.20285178960E+04 0.  0.
        5    1    3    3  502    0 -0.99792212632E+02 -0.81547902499E+03  0.10146448020E+04  0.13055614463E+04  0.46999998093E+01 0.  1.
       -5    1    3    3    0  502  0.99792212632E+02  0.81547902499E+03 -0.25544662486E+03  0.86037177665E+03  0.46999998093E+01 0. -1.
</event>
<event>
 5   0  0.1650221E-04  0.1992978E+04  0.7818609E-02  0.8609911E-01
       -1   -1    0    0    0  501  0.00000000000E+00  0.00000000000E+00  0.83189018864E+03  0.83189018865E+03  0.50400001928E-02 0.  1.
        1   -1    0    0  501    0  0.00000000000E+00  0.00000000000E+00 -0.11936556297E+04  0.11936556297E+04  0.50400001928E-02 0. -1.
    10030    2    1    2    0    0  0.00000000000E+00  0.00000000000E+00 -0.36176544103E+03  0.20255458183E+04  0.19929780801E+04 0.  0.
        1    1    3    3  502    0 -0.26610114132E+03  0.82681465629E+03 -0.67728828990E+03  0.11014316688E+04  0.50400001928E-02 0.  1.
       -1    1    3    3    0  502  0.26610114132E+03 -0.82681465629E+03  0.31552284887E+03  0.92411414958E+03  0.50400001928E-02 0. -1.
</event>
<event>
 5   0  0.3431030E-04  0.2001814E+04  0.7818609E-02  0.8605773E-01
       -2   -1    0    0    0  501  0.00000000000E+00  0.00000000000E+00  0.65379181717E+03  0.65379181717E+03  0.25500000920E-02 0. -1.
        2   -1    0    0  501    0  0.00000000000E+00  0.00000000000E+00 -0.15323150346E+04  0.15323150346E+04  0.25500000920E-02 0.  1.
    10030    2    1    2    0    0  0.00000000000E+00  0.00000000000E+00 -0.87852321741E+03  0.21861068517E+04  0.20018142081E+04 0.  0.
        3    1    3    3  502    0 -0.12344371459E+03  0.91160560183E+03 -0.85512928028E+01  0.91996535738E+03  0.10100000352E+00 0. -1.
       -3    1    3    3    0  502  0.12344371459E+03 -0.91160560183E+03 -0.86997192460E+03  0.12661414944E+04  0.10100000352E+00 0.  1.
</event>
<event>
 5   0  0.3387881E-04  0.1641288E+04  0.7818609E-02  0.8795577E-01
        2   -1    0    0  501    0  0.00000000000E+00  0.00000000000E+00  0.68223581910E+03  0.68223581910E+03  0.25500000920E-02 0. -1.
       -2   -1    0    0    0  501  0.00000000000E+00  0.00000000000E+00 -0.98713194993E+03  0.98713194994E+03  0.25500000920E-02 0.  1.
    10030    2    1    2    0    0  0.00000000000E+00  0.00000000000E+00 -0.30489613084E+03  0.16693677690E+04  0.16412882433E+04 0.  0.
        1    1    3    3  502    0 -0.43494506465E+03 -0.30497096281E+03 -0.78866716754E+03  0.95088400902E+03  0.50400001928E-02 0.  1.
       -1    1    3    3    0  502  0.43494506465E+03  0.30497096281E+03  0.48377103671E+03  0.71848376002E+03  0.50400001928E-02 0. -1.
</event>
<event>
 5   0  0.3371947E-04  0.1584118E+04  0.7818609E-02  0.8830365E-01
       -2   -1    0    0    0  501  0.00000000000E+00  0.00000000000E+00  0.38142812538E+03  0.38142812539E+03  0.25500000920E-02 0.  1.
        2   -1    0    0  501    0  0.00000000000E+00  0.00000000000E+00 -0.16447593491E+04  0.16447593491E+04  0.25500000920E-02 0. -1.
    10030    2    1    2    0    0  0.00000000000E+00  0.00000000000E+00 -0.12633312238E+04  0.20261874745E+04  0.15841180199E+04 0.  0.
        2    1    3    3  502    0 -0.67556510346E+03  0.37953107538E+03 -0.42178447488E+03  0.88223250306E+03  0.25500000920E-02 0.  1.
       -2    1    3    3    0  502  0.67556510346E+03 -0.37953107538E+03 -0.84154674888E+03  0.11439549715E+04  0.25500000920E-02 0. -1.
</event>
<event>
 5   0  0.1643565E-04  0.2164398E+04  0.7818609E-02  0.8533394E-01
        1   -1    0    0  501    0  0.00000000000E+00  0.00000000000E+00  0.13232291004E+04  0.13232291004E+04  0.50400001928E-02 0.  1.
       -1   -1    0    0    0  501  0.00000000000E+00  0.00000000000E+00 -0.88507354193E+03  0.88507354194E+03  0.50400001928E-02 0. -1.
    10030    2    1    2    0    0  0.00000000000E+00  0.00000000000E+00  0.43815555848E+03  0.22083026424E+04  0.21643983614E+04 0.  0.
        2    1    3    3  502    0 -0.97420203932E+03 -0.21272248808E+03 -0.20996936276E+03  0.10190228671E+04  0.25500000920E-02 0.  1.
       -2    1    3    3    0  502  0.97420203932E+03  0.21272248808E+03  0.64812492124E+03  0.11892797753E+04  0.25500000920E-02 0. -1.
</event>
<event>
 5   0  0.1696052E-04  0.2104125E+04  0.7818609E-02  0.8559428E-01
       -1   -1    0    0    0  501  0.00000000000E+00  0.00000000000E+00  0.17624414845E+04  0.17624414845E+04  0.50400001928E-02 0.  1.
        1   -1    0    0  501    0  0.00000000000E+00  0.00000000000E+00 -0.62801276559E+03  0.62801276561E+03  0.50400001928E-02 0. -1.
    10030    2    1    2    0    0  0.00000000000E+00  0.00000000000E+00  0.11344287189E+04  0.23904542501E+04  0.21041252348E+04 0.  0.
        4    1    3    3  502    0 -0.12074993723E+03 -0.39102279654E+03  0.16683065246E+04  0.17177682171E+04  0.12699999809E+01 0.  1.
       -4    1    3    3    0  502  0.12074993723E+03  0.39102279654E+03 -0.53387780567E+03  0.67268603303E+03  0.12699999809E+01 0. -1.
</event>
<event>
 5   0  0.3460648E-04  0.2025749E+04  0.7818609E-02  0.8594676E-01
       -2   -1    0    0    0  501  0.00000000000E+00  0.00000000000E+00  0.13581580942E+04  0.13581580943E+04  0.25500000920E-02 0.  1.
        2   -1    0    0  501    0  0.00000000000E+00  0.00000000000E+00 -0.75537185391E+03  0.75537185391E+03  0.25500000920E-02 0. -1.
    10030    2    1    2    0    0  0.00000000000E+00  0.00000000000E+00  0.60278624034E+03  0.21135299482E+04  0.20257486493E+04 0.  0.
        5    1    3    3  502    0  0.32584161883E+02  0.55531197821E+03  0.11845107931E+04  0.13086332678E+04  0.46999998093E+01 0.  1.
       -5    1    3    3    0  502 -0.32584161883E+02 -0.55531197821E+03 -0.58172455274E+03  0.80489668033E+03  0.46999998093E+01 0. -1.
</event>
<event>
 5   0  0.1222488E-04  0.2065933E+04  0.7818609E-02  0.8576400E-01
       -4   -1    0    0    0  501  0.00000000000E+00  0.00000000000E+00  0.14518597179E+04  0.14518602734E+04  0.12699999809E+01 0. -1.
        4   -1    0    0  501    0  0.00000000000E+00  0.00000000000E+00 -0.73493188314E+03  0.73493298045E+03  0.12699999809E+01 0.  1.
    10030    2    1    2    0    0  0.00000000000E+00  0.00000000000E+00  0.71692783480E+03  0.21867932538E+04  0.20659330131E+04 0.  0.
        5    1    3    3  502    0  0.53290071914E+03  0.69196161367E+03  0.94227684703E+03  0.12847964032E+04  0.46999998093E+01 0. -1.
       -5    1    3    3    0  502 -0.53290071914E+03 -0.69196161367E+03 -0.22534901223E+03  0.90199685064E+03  0.46999998093E+01 0.  1.
</event>
<event>
 5   0  0.1664168E-04  0.1984427E+04  0.7818609E-02  0.8613937E-01
        1   -1    0    0  501    0  0.00000000000E+00  0.00000000000E+00  0.75864311136E+03  0.75864311138E+03  0.50400001928E-02 0.  1.
       -1   -1    0    0    0  501  0.00000000000E+00  0.00000000000E+00 -0.12976947984E+04  0.12976947984E+04  0.50400001928E-02 0. -1.
    10030    2    1    2    0    0  0.00000000000E+00  0.00000000000E+00 -0.53905168700E+03  0.20563379097E+04  0.19844265866E+04 0.  0.
        5    1    3    3  502    0  0.90722963428E+03  0.14299727081E+03  0.11951391686E+03  0.92618545394E+03  0.46999998093E+01 0.  1.
       -5    1    3    3    0  502 -0.90722963428E+03 -0.14299727081E+03 -0.65856560386E+03  0.11301524558E+04  0.46999998093E+01 0. -1.
</event>
<event>
 5   0  0.1696052E-04  0.1331229E+04  0.7818609E-02  0.9005160E-01
       -1   -1    0    0    0  501  0.00000000000E+00  0.00000000000E+00  0.88769752954E+03  0.88769752956E+03  0.50400001928E-02 0. -1.
        1   -1    0    0  501    0  0.00000000000E+00  0.00000000000E+00 -0.49909190773E+03  0.49909190775E+03  0.50400001928E-02 0.  1.
    10030    2    1    2    0    0  0.00000000000E+00  0.00000000000E+00  0.38860562181E+03  0.13867894373E+04  0.13312289864E+04 0.  0.
        4    1    3    3  502    0 -0.26846049985E+03 -0.39149127671E+03 -0.29175904795E+03  0.55719064483E+03  0.12699999809E+01 0.  1.
       -4    1    3    3    0  502  0.26846049985E+03  0.39149127671E+03  0.68036466976E+03  0.82959879248E+03  0.12699999809E+01 0. -1.
</event>
<event>
 5   0  0.1708578E-04  0.1966119E+04  0.7818609E-02  0.8622627E-01
        1   -1    0    0  501    0  0.00000000000E+00  0.00000000000E+00  0.89600733980E+03  0.89600733981E+03  0.50400001928E-02 0.  1.
       -1   -1    0    0    0  501  0.00000000000E+00  0.00000000000E+00 -0.10785694002E+04  0.10785694002E+04  0.50400001928E-02 0. -1.
    10030    2    1    2    0    0  0.00000000000E+00  0.00000000000E+00 -0.18256206040E+03  0.19745767400E+04  0.19661191206E+04 0.  0.
        3    1    3    3  502    0 -0.95314568324E+03  0.23563058155E+03 -0.42104852476E+02  0.98274172255E+03  0.10100000352E+00 0.  1.
       -3    1    3    3    0  502  0.95314568324E+03 -0.23563058155E+03 -0.14045720793E+03  0.99183501748E+03  0.10100000352E+00 0. -1.
</event>
<event>
 5   0  0.1664168E-04  0.1983666E+04  0.7818609E-02  0.8614296E-01
       -1   -1    0    0    0  501  0.00000000000E+00  0.00000000000E+00  0.12118444684E+04  0.12118444684E+04  0.50400001928E-02 0. -1.
        1   -1    0    0  501    0  0.00000000000E+00  0.00000000000E+00 -0.81176496924E+03  0.81176496926E+03  0.50400001928E-02 0.  1.
    10030    2    1    2    0    0  0.00000000000E+00  0.00000000000E+00  0.40007949912E+03  0.20236094376E+04  0.19836661893E+04 0.  0.
        5    1    3    3  502    0  0.68050223963E+03 -0.56921456293E+03  0.65238961968E+03  0.11012369512E+04  0.46999998093E+01 0.  1.
       -5    1    3    3    0  502 -0.68050223963E+03  0.56921456293E+03 -0.25231012057E+03  0.92237248644E+03  0.46999998093E+01 0. -1.
</event>
<event>
 5   0  0.1650221E-04  0.1967428E+04  0.7818609E-02  0.8622002E-01
       -1   -1    0    0    0  501  0.00000000000E+00  0.00000000000E+00  0.76886062233E+03  0.76886062235E+03  0.50400001928E-02 0. -1.
        1   -1    0    0  501    0  0.00000000000E+00  0.00000000000E+00 -0.12586070465E+04  0.12586070465E+04  0.50400001928E-02 0.  1.
    10030    2    1    2    0    0  0.00000000000E+00  0.00000000000E+00 -0.48974642413E+03  0.20274676688E+04  0.19674281659E+04 0.  0.
        1    1    3    3  502    0 -0.48193974505E+03 -0.84406921473E+03 -0.88673794748E+02  0.97600297080E+03  0.50400001928E-02 0. -1.
       -1    1    3    3    0  502  0.48193974505E+03  0.84406921473E+03 -0.40107262938E+03  0.10514646980E+04  0.50400001928E-02 0.  1.
</event>
<event>
 5   0  0.1222488E-04  0.1987755E+04  0.7818609E-02  0.8612367E-01
        3   -1    0    0  501    0  0.00000000000E+00  0.00000000000E+00  0.60475143242E+03  0.60475144085E+03  0.10100000352E+00 0. -1.
       -3   -1    0    0    0  501  0.00000000000E+00  0.00000000000E+00 -0.16333860823E+04  0.16333860854E+04  0.10100000352E+00 0.  1.
    10030    2    1    2    0    0  0.00000000000E+00  0.00000000000E+00 -0.10286346498E+04  0.22381375262E+04  0.19877551015E+04 0.  0.
        5    1    3    3  502    0  0.88033864509E+03 -0.16328927227E+03 -0.10000640593E+04  0.13423150633E+04  0.46999998093E+01 0.  1.
       -5    1    3    3    0  502 -0.88033864509E+03  0.16328927227E+03 -0.28570590580E+02  0.89582246295E+03  0.46999998093E+01 0. -1.
</event>
<event>
 5   0  0.3387881E-04  0.1993315E+04  0.7818609E-02  0.8609753E-01
       -2   -1    0    0    0  501  0.00000000000E+00  0.00000000000E+00  0.49905039980E+03  0.49905039980E+03  0.25500000920E-02 0.  1.
        2   -1    0    0  501    0  0.00000000000E+00  0.00000000000E+00 -0.19904318925E+04  0.19904318925E+04  0.25500000920E-02 0. -1.
    10030    2    1    2    0    0  0.00000000000E+00  0.00000000000E+00 -0.14913814927E+04  0.24894822923E+04  0.19933146583E+04 0.  0.
        1    1    3    3  502    0 -0.51208334176E+03  0.70798161766E+03 -0.14691599873E+03  0.88603139366E+03  0.50400001928E-02 0. -1.
       -1    1    3    3    0  502  0.51208334176E+03 -0.70798161766E+03 -0.13444654940E+04  0.16034508986E+04  0.50400001928E-02 0.  1.
</event>
<event>
 5   0  0.1650221E-04  0.2075560E+04  0.7818609E-02  0.8572086E-01
        1   -1    0    0  501    0  0.00000000000E+00  0.00000000000E+00  0.89258155022E+03  0.89258155024E+03  0.50400001928E-02 0. -1.
       -1   -1    0    0    0  501  0.00000000000E+00  0.00000000000E+00 -0.12065987056E+04  0.12065987056E+04  0.50400001928E-02 0.  1.
    10030    2    1    2    0    0  0.00000000000E+00  0.00000000000E+00 -0.31401715540E+03  0.20991802559E+04  0.20755603997E+04 0.  0.
        1    1    3    3  502    0 -0.73769296604E+03 -0.41054784054E+03 -0.76740577163E+03  0.11408996713E+04  0.50400001928E-02 0.  1.
       -1    1    3    3    0  502  0.73769296604E+03  0.41054784054E+03  0.45338861623E+03  0.95828058462E+03  0.50400001928E-02 0. -1.
</event>
<event>
 5   0  0.3395569E-04  0.1921659E+04  0.7818609E-02  0.8644150E-01
       -2   -1    0    0    0  501  0.00000000000E+00  0.00000000000E+00  0.41162210035E+03  0.41162210036E+03  0.25500000920E-02 0. -1.
        2   -1    0    0  501    0  0.00000000000E+00  0.00000000000E+00 -0.22428184493E+04  0.22428184493E+04  0.25500000920E-02 0.  1.
    10030    2    1    2    0    0  0.00000000000E+00  0.00000000000E+00 -0.18311963489E+04  0.26544405496E+04  0.19216593255E+04 0.  0.
        4    1    3    3  502    0  0.75026687046E+03 -0.27846020520E+03 -0.16501105442E+04  0.18339320826E+04  0.12699999809E+01 0.  1.
       -4    1    3    3    0  502 -0.75026687046E+03  0.27846020520E+03 -0.18108580472E+03  0.82050846697E+03  0.12699999809E+01 0. -1.
</event>
<event>
 5   0  0.3460648E-04  0.2017186E+04  0.7818609E-02  0.8598628E-01
       -2   -1    0    0    0  501  0.00000000000E+00  0.00000000000E+00  0.95393599998E+03  0.95393599998E+03  0.25500000920E-02 0.  1.
        2   -1    0    0  501    0  0.00000000000E+00  0.00000000000E+00 -0.10663811208E+04  0.10663811208E+04  0.25500000920E-02 0. -1.
    10030    2    1    2    0    0  0.00000000000E+00  0.00000000000E+00 -0.11244512078E+03  0.20203171208E+04  0.20171855054E+04 0.  0.
        5    1    3    3  502    0 -0.35402436927E+03  0.42127549952E+02  0.88870876279E+03  0.95756636300E+03  0.46999998093E+01 0.  1.
       -5    1    3    3    0  502  0.35402436927E+03 -0.42127549952E+02 -0.10011538836E+04  0.10627507577E+04  0.46999998093E+01 0. -1.
</event>
<event>
 5   0  0.1643565E-04  0.2017782E+04  0.7818609E-02  0.8598352E-01
        1   -1    0    0  501    0  0.00000000000E+00  0.00000000000E+00  0.50974846101E+03  0.50974846104E+03  0.50400001928E-02 0. -1.
       -1   -1    0    0    0  501  0.00000000000E+00  0.00000000000E+00 -0.19967912255E+04  0.19967912255E+04  0.50400001928E-02 0.  1.
    10030    2    1    2    0    0  0.00000000000E+00  0.00000000000E+00 -0.14870427645E+04  0.25065396865E+04  0.20177822025E+04 0.  0.
        2    1    3    3  502    0  0.92889367655E+02 -0.93817659336E+03 -0.29725731332E+03  0.98851690187E+03  0.25500000920E-02 0. -1.
       -2    1    3    3    0  502 -0.92889367655E+02  0.93817659336E+03 -0.11897854512E+04  0.15180227847E+04  0.25500000920E-02 0.  1.
</event>
<event>
 5   0  0.1650221E-04  0.1977507E+04  0.7818609E-02  0.8617210E-01
       -1   -1    0    0    0  501  0.00000000000E+00  0.00000000000E+00  0.66603576935E+03  0.66603576937E+03  0.50400001928E-02 0.  1.
        1   -1    0    0  501    0  0.00000000000E+00  0.00000000000E+00 -0.14678394469E+04  0.14678394469E+04  0.50400001928E-02 0. -1.
    10030    2    1    2    0    0  0.00000000000E+00  0.00000000000E+00 -0.80180367751E+03  0.21338752162E+04  0.19775070926E+04 0.  0.
        1    1    3    3  502    0  0.45302512762E+03  0.45457890149E+03  0.41074485576E+03  0.76196133793E+03  0.50400001928E-02 0.  1.
       -1    1    3    3    0  502 -0.45302512762E+03 -0.45457890149E+03 -0.12125485333E+04  0.13719138783E+04  0.50400001928E-02 0. -1.
</event>
<event>
 5   0  0.3371947E-04  0.1969219E+04  0.7818609E-02  0.8621148E-01
       -2   -1    0    0    0  501  0.00000000000E+00  0.00000000000E+00  0.62034098750E+03  0.62034098750E+03  0.25500000920E-02 0. -1.
        2   -1    0    0  501    0  0.00000000000E+00  0.00000000000E+00 -0.15627795010E+04  0.15627795010E+04  0.25500000920E-02 0.  1.
    10030    2    1    2    0    0  0.00000000000E+00  0.00000000000E+00 -0.94243851349E+03  0.21831204885E+04  0.19692193163E+04 0.  0.
        2    1    3    3  502    0 -0.31783496344E+03 -0.57928348824E+03  0.33805055255E+03  0.74220388022E+03  0.25500000920E-02 0. -1.
       -2    1    3    3    0  502  0.31783496344E+03  0.57928348824E+03 -0.12804890660E+04  0.14409166083E+04  0.25500000920E-02 0.  1.
</event>
<event>
 5   0  0.1708578E-04  0.1986986E+04  0.7818609E-02  0.8612729E-01
        1   -1    0    0  501    0  0.00000000000E+00  0.00000000000E+00  0.14728637980E+04  0.14728637980E+04  0.50400001928E-02 0.  1.
       -1   -1    0    0    0  501  0.00000000000E+00  0.00000000000E+00 -0.67014224780E+03  0.67014224782E+03  0.50400001928E-02 0. -1.
    10030    2    1    2    0    0  0.00000000000E+00  0.00000000000E+00  0.80272155022E+03  0.21430060459E+04  0.19869859147E+04 0.  0.
        3    1    3    3  502    0  0.58235579261E+03 -0.65844989078E+03  0.90067490584E+03  0.12585347926E+04  0.10100000352E+00 0.  1.
       -3    1    3    3    0  502 -0.58235579261E+03  0.65844989078E+03 -0.97953355614E+02  0.88447125331E+03  0.10100000352E+00 0. -1.
</event>
<event>
 5   0  0.1708578E-04  0.2019235E+04  0.7818609E-02  0.8597680E-01
       -1   -1    0    0    0  501  0.00000000000E+00  0.00000000000E+00  0.12996652487E+04  0.12996652487E+04  0.50400001928E-02 0.  1.
        1   -1    0    0  501    0  0.00000000000E+00  0.00000000000E+00 -0.78429997713E+03  0.78429997715E+03  0.50400001928E-02 0. -1.
    10030    2    1    2    0    0  0.00000000000E+00  0.00000000000E+00  0.51536527159E+03  0.20839652259E+04  0.20192349293E+04 0.  0.
        3    1    3    3  502    0 -0.21030806708E+03 -0.13094747060E+02 -0.76135340978E+03  0.78997467065E+03  0.10100000352E+00 0. -1.
       -3    1    3    3    0  502  0.21030806708E+03  0.13094747060E+02  0.12767186814E+04  0.12939905552E+04  0.10100000352E+00 0.  1.
</event>
<event>
 5   0  0.3371947E-04  0.2017874E+04  0.7818609E-02  0.8598309E-01
        2   -1    0    0  501    0  0.00000000000E+00  0.00000000000E+00  0.21520269475E+04  0.21520269475E+04  0.25500000920E-02 0.  1.
       -2   -1    0    0    0  501  0.00000000000E+00  0.00000000000E+00 -0.47302120079E+03  0.47302120080E+03  0.25500000920E-02 0. -1.
    10030    2    1    2    0    0  0.00000000000E+00  0.00000000000E+00  0.16790057467E+04  0.26250481483E+04  0.20178744965E+04 0.  0.
        2    1    3    3  502    0  0.46638556853E+03 -0.81240291069E+03  0.35198659133E+03  0.10007040263E+04  0.25500000920E-02 0. -1.
       -2    1    3    3    0  502 -0.46638556853E+03  0.81240291069E+03  0.13270191554E+04  0.16243441220E+04  0.25500000920E-02 0.  1.
</event>
<event>
 5   0  0.1664168E-04  0.2046140E+04  0.7818609E-02  0.8585347E-01
       -1   -1    0    0    0  501  0.00000000000E+00  0.00000000000E+00  0.12890731391E+04  0.12890731391E+04  0.50400001928E-02 0. -1.
        1   -1    0    0  501    0  0.00000000000E+00  0.00000000000E+00 -0.81195714843E+03  0.81195714844E+03  0.50400001928E-02 0.  1.
    10030    2    1    2    0    0  0.00000000000E+00  0.00000000000E+00  0.47711599069E+03  0.21010302876E+04  0.20461399270E+04 0.  0.
        5    1    3    3  502    0 -0.10227707573E+04 -0.24027905035E+02  0.23489899334E+03  0.10496842332E+04  0.46999998093E+01 0. -1.
       -5    1    3    3    0  502  0.10227707573E+04  0.24027905035E+02  0.24221699735E+03  0.10513460544E+04  0.46999998093E+01 0.  1.
</event>
<event>
 5   0  0.3431030E-04  0.1946328E+04  0.7818609E-02  0.8632134E-01
        2   -1    0    0  501    0  0.00000000000E+00  0.00000000000E+00  0.86264633493E+03  0.86264633493E+03  0.25500000920E-02 0. -1.
       -2   -1    0    0    0  501  0.00000000000E+00  0.00000000000E+00 -0.10978401847E+04  0.10978401847E+04  0.25500000920E-02 0.  1.
    10030    2    1    2    0    0  0.00000000000E+00  0.00000000000E+00 -0.23519384980E+03  0.19604865197E+04  0.19463276309E+04 0.  0.
        3    1    3    3  502    0  0.56214282438E+03  0.59403154806E+02 -0.91551774845E+03  0.10759674938E+04  0.10100000352E+00 0.  1.
       -3    1    3    3    0  502 -0.56214282438E+03 -0.59403154806E+02  0.68032389866E+03  0.88451902585E+03  0.10100000352E+00 0. -1.
</event>
<event>
 5   0  0.3431030E-04  0.1070546E+04  0.7818609E-02  0.9234385E-01
       -2   -1    0    0    0  501  0.00000000000E+00  0.00000000000E+00  0.19844159613E+03  0.19844159615E+03  0.25500000920E-02 0. -1.
        2   -1    0    0  501    0  0.00000000000E+00  0.00000000000E+00 -0.14438361801E+04  0.14438361801E+04  0.25500000920E-02 0.  1.
    10030    2    1    2    0    0  0.00000000000E+00  0.00000000000E+00 -0.12453945840E+04  0.16422777763E+04  0.10705459470E+04 0.  0.
        3    1    3    3  502    0  0.76748908495E+02 -0.48759750398E+03 -0.30504973184E+03  0.58025603826E+03  0.10100000352E+00 0. -1.
       -3    1    3    3    0  502 -0.76748908495E+02  0.48759750398E+03 -0.94034485216E+03  0.10620217380E+04  0.10100000352E+00 0.  1.
</event>
<event>
 5   0  0.3371947E-04  0.1465930E+04  0.7818609E-02  0.8907430E-01
        2   -1    0    0  501    0  0.00000000000E+00  0.00000000000E+00  0.80384330429E+03  0.80384330429E+03  0.25500000920E-02 0.  1.
       -2   -1    0    0    0  501  0.00000000000E+00  0.00000000000E+00 -0.66833679065E+03  0.66833679065E+03  0.25500000920E-02 0. -1.
    10030    2    1    2    0    0  0.00000000000E+00  0.00000000000E+00  0.13550651364E+03  0.14721800949E+04  0.14659304952E+04 0.  0.
        2    1    3    3  502    0 -0.26924253111E+02 -0.27746588366E+03 -0.61302005583E+03  0.67342840812E+03  0.25500000920E-02 0. -1.
       -2    1    3    3    0  502  0.26924253111E+02  0.27746588366E+03  0.74852656947E+03  0.79875168683E+03  0.25500000920E-02 0.  1.
</event>
<event>
 5   0  0.1696052E-04  0.2033915E+04  0.7818609E-02  0.8590926E-01
        1   -1    0    0  501    0  0.00000000000E+00  0.00000000000E+00  0.12846688735E+04  0.12846688735E+04  0.50400001928E-02 0.  1.
       -1   -1    0    0    0  501  0.00000000000E+00  0.00000000000E+00 -0.80503432922E+03  0.80503432923E+03  0.50400001928E-02 0. -1.
    10030    2    1    2    0    0  0.00000000000E+00  0.00000000000E+00  0.47963454424E+03  0.20897032027E+04  0.20339149882E+04 0.  0.
        4    1    3    3  502    0 -0.31986201372E+03  0.61923624888E+03 -0.52106009710E+03  0.87021289202E+03  0.12699999809E+01 0. -1.
       -4    1    3    3    0  502  0.31986201372E+03 -0.61923624888E+03  0.10006946413E+04  0.12194903107E+04  0.12699999809E+01 0.  1.
</event>
<event>
 5   0  0.3387881E-04  0.2009795E+04  0.7818609E-02  0.8602055E-01
       -2   -1    0    0    0  501  0.00000000000E+00  0.00000000000E+00  0.12248748614E+04  0.12248748614E+04  0.25500000920E-02 0. -1.
        2   -1    0    0  501    0  0.00000000000E+00  0.00000000000E+00 -0.82442638655E+03  0.82442638656E+03  0.25500000920E-02 0.  1.
    10030    2    1    2    0    0  0.00000000000E+00  0.00000000000E+00  0.40044847483E+03  0.20493012479E+04  0.20097951696E+04 0.  0.
        1    1    3    3  502    0  0.69414662678E+03  0.30433565416E+03 -0.47256336862E+03  0.89318299763E+03  0.50400001928E-02 0. -1.
       -1    1    3    3    0  502 -0.69414662678E+03 -0.30433565416E+03  0.87301184345E+03  0.11561182503E+04  0.50400001928E-02 0.  1.
</event>
<event>
 5   0  0.3371947E-04  0.1912126E+04  0.7818609E-02  0.8648844E-01
       -2   -1    0    0    0  501  0.00000000000E+00  0.00000000000E+00  0.99475628371E+03  0.99475628371E+03  0.25500000920E-02 0. -1.
        2   -1    0    0  501    0  0.00000000000E+00  0.00000000000E+00 -0.91887518247E+03  0.91887518247E+03  0.25500000920E-02 0.  1.
    10030    2    1    2    0    0  0.00000000000E+00  0.00000000000E+00  0.75881101236E+02  0.19136314662E+04  0.19121264202E+04 0.  0.
        2    1    3    3  502    0 -0.23420113038E+03  0.35113513038E+03 -0.82058711221E+03  0.92277259278E+03  0.25500000920E-02 0.  1.
       -2    1    3    3    0  502  0.23420113038E+03 -0.35113513038E+03  0.89646821345E+03  0.99085887340E+03  0.25500000920E-02 0. -1.
</event>
<event>
 5   0  0.3387881E-04  0.2008824E+04  0.7818609E-02  0.8602506E-01
       -2   -1    0    0    0  501  0.00000000000E+00  0.00000000000E+00  0.45175166580E+03  0.45175166580E+03  0.25500000920E-02 0.  1.
        2   -1    0    0  501    0  0.00000000000E+00  0.00000000000E+00 -0.22331811647E+04  0.22331811647E+04  0.25500000920E-02 0. -1.
    10030    2    1    2    0    0  0.00000000000E+00  0.00000000000E+00 -0.17814294989E+04  0.26849328305E+04  0.20088238461E+04 0.  0.
        1    1    3    3  502    0 -0.13901978938E+03 -0.45726955707E+03  0.29003032991E+03  0.55905236066E+03  0.50400001928E-02 0.  1.
       -1    1    3    3    0  502  0.13901978938E+03  0.45726955707E+03 -0.20714598288E+04  0.21258804698E+04  0.50400001928E-02 0. -1.
</event>
<event>
 5   0  0.3431030E-04  0.1872485E+04  0.7818609E-02  0.8668675E-01
        2   -1    0    0  501    0  0.00000000000E+00  0.00000000000E+00  0.18409589125E+04  0.18409589125E+04  0.25500000920E-02 0.  1.
       -2   -1    0    0    0  501  0.00000000000E+00  0.00000000000E+00 -0.47613796482E+03  0.47613796482E+03  0.25500000920E-02 0. -1.
    10030    2    1    2    0    0  0.00000000000E+00  0.00000000000E+00  0.13648209477E+04  0.23170968773E+04  0.18724854391E+04 0.  0.
        3    1    3    3  502    0 -0.57103878852E+01 -0.19273219577E+03  0.18161231709E+04  0.18263301153E+04  0.10100000352E+00 0.  1.
       -3    1    3    3    0  502  0.57103878852E+01  0.19273219577E+03 -0.45130222324E+03  0.49076676204E+03  0.10100000352E+00 0. -1.
</event>
<event>
 5   0  0.1643565E-04  0.1968914E+04  0.7818609E-02  0.8621294E-01
        1   -1    0    0  501    0  0.00000000000E+00  0.00000000000E+00  0.19954970646E+04  0.19954970646E+04  0.50400001928E-02 0. -1.
       -1   -1    0    0    0  501  0.00000000000E+00  0.00000000000E+00 -0.48567107659E+03  0.48567107662E+03  0.50400001928E-02 0.  1.
    10030    2    1    2    0    0  0.00000000000E+00  0.00000000000E+00  0.15098259880E+04  0.24811681412E+04  0.19689136169E+04 0.  0.
        2    1    3    3  502    0  0.83205294516E+03 -0.48881288386E+03  0.10002585398E+04  0.13898803133E+04  0.25500000920E-02 0. -1.
       -2    1    3    3    0  502 -0.83205294516E+03  0.48881288386E+03  0.50956744819E+03  0.10912878279E+04  0.25500000920E-02 0.  1.
</event>
<event>
 5   0  0.3387881E-04  0.2034963E+04  0.7818609E-02  0.8590446E-01
        2   -1    0    0  501    0  0.00000000000E+00  0.00000000000E+00  0.88473479415E+03  0.88473479416E+03  0.25500000920E-02 0. -1.
       -2   -1    0    0    0  501  0.00000000000E+00  0.00000000000E+00 -0.11701462547E+04  0.11701462547E+04  0.25500000920E-02 0.  1.
    10030    2    1    2    0    0  0.00000000000E+00  0.00000000000E+00 -0.28541146059E+03  0.20548810489E+04  0.20349634943E+04 0.  0.
        1    1    3    3  502    0 -0.23860412112E+03 -0.65216649885E+03  0.60822335682E+03  0.92314068302E+03  0.50400001928E-02 0. -1.
       -1    1    3    3    0  502  0.23860412112E+03  0.65216649885E+03 -0.89363481742E+03  0.11317403659E+04  0.50400001928E-02 0.  1.
</event>
<event>
 5   0  0.3395569E-04  0.1871258E+04  0.7818609E-02  0.8669297E-01
       -2   -1    0    0    0  501  0.00000000000E+00  0.00000000000E+00  0.81996791207E+03  0.81996791208E+03  0.25500000920E-02 0.  1.
        2   -1    0    0  501    0  0.00000000000E+00  0.00000000000E+00 -0.10676046303E+04  0.10676046303E+04  0.25500000920E-02 0. -1.
    10030    2    1    2    0    0  0.00000000000E+00  0.00000000000E+00 -0.24763671819E+03  0.18875725423E+04  0.18712579080E+04 0.  0.
        4    1    3    3  502    0 -0.73511707070E+03 -0.54147544971E+03 -0.33006900500E+03  0.97084495736E+03  0.12699999809E+01 0. -1.
       -4    1    3    3    0  502  0.73511707070E+03  0.54147544971E+03  0.82432286807E+02  0.91672758499E+03  0.12699999809E+01 0.  1.
</event>
<event>
 5   0  0.1650221E-04  0.1991519E+04  0.7818609E-02  0.8610596E-01
        1   -1    0    0  501    0  0.00000000000E+00  0.00000000000E+00  0.20882651234E+04  0.20882651234E+04  0.50400001928E-02 0. -1.
       -1   -1    0    0    0  501  0.00000000000E+00  0.00000000000E+00 -0.47481381872E+03  0.47481381874E+03  0.50400001928E-02 0.  1.
    10030    2    1    2    0    0  0.00000000000E+00  0.00000000000E+00  0.16134513047E+04  0.25630789421E+04  0.19915191566E+04 0.  0.
        1    1    3    3  502    0  0.84921955821E+02 -0.62374573651E+03 -0.18623781880E+03  0.65647163501E+03  0.50400001928E-02 0.  1.
       -1    1    3    3    0  502 -0.84921955821E+02  0.62374573651E+03  0.17996891235E+04  0.19066073071E+04  0.50400001928E-02 0. -1.
</event>
<event>
 5   0  0.1643565E-04  0.1972254E+04  0.7818609E-02  0.8619704E-01
       -1   -1    0    0    0  501  0.00000000000E+00  0.00000000000E+00  0.13089598155E+04  0.13089598155E+04  0.50400001928E-02 0. -1.
        1   -1    0    0  501    0  0.00000000000E+00  0.00000000000E+00 -0.74291540485E+03  0.74291540487E+03  0.50400001928E-02 0.  1.
    10030    2    1    2    0    0  0.00000000000E+00  0.00000000000E+00  0.56604441067E+03  0.20518752204E+04  0.19722539505E+04 0.  0.
        2    1    3    3  502    0 -0.11621481755E+03  0.17836515432E+03 -0.71872372282E+03  0.74958908866E+03  0.25500000920E-02 0.  1.
       -2    1    3    3    0  502  0.11621481755E+03 -0.17836515432E+03  0.12847681335E+04  0.13022861317E+04  0.25500000920E-02 0. -1.
</event>
<event>
 5   0  0.1664168E-04  0.2002163E+04  0.7818609E-02  0.8605610E-01
        1   -1    0    0  501    0  0.00000000000E+00  0.00000000000E+00  0.73332408782E+03  0.73332408783E+03  0.50400001928E-02 0.  1.
       -1   -1    0    0    0  501  0.00000000000E+00  0.00000000000E+00 -0.13666048906E+04  0.13666048906E+04  0.50400001928E-02 0. -1.
    10030    2    1    2    0    0  0.00000000000E+00  0.00000000000E+00 -0.63328080277E+03  0.20999289784E+04  0.20021631151E+04 0.  0.
        5    1    3    3  502    0 -0.20711603924E+03  0.65054220872E+01  0.71057228403E+03  0.74018540587E+03  0.46999998093E+01 0.  1.
       -5    1    3    3    0  502  0.20711603924E+03 -0.65054220872E+01 -0.13438530868E+04  0.13597435726E+04  0.46999998093E+01 0. -1.
</event>
<event>
 5   0  0.1222488E-04  0.2009340E+04  0.7818609E-02  0.8602266E-01
        3   -1    0    0  501    0  0.00000000000E+00  0.00000000000E+00  0.58651257405E+03  0.58651258275E+03  0.10100000352E+00 0. -1.
       -3   -1    0    0    0  501  0.00000000000E+00  0.00000000000E+00 -0.17209546024E+04  0.17209546054E+04  0.10100000352E+00 0.  1.
    10030    2    1    2    0    0  0.00000000000E+00  0.00000000000E+00 -0.11344420284E+04  0.23074671882E+04  0.20093397196E+04 0.  0.
        5    1    3    3  502    0  0.76319842267E+03 -0.53900957472E+03 -0.99124252575E+03  0.13621993205E+04  0.46999998093E+01 0.  1.
       -5    1    3    3    0  502 -0.76319842267E+03  0.53900957472E+03 -0.14319950264E+03  0.94526786762E+03  0.46999998093E+01 0. -1.
</event>
<event>
 5   0  0.1708578E-04  0.2223645E+04  0.7818609E-02  0.8508650E-01
        1   -1    0    0  501    0  0.00000000000E+00  0.00000000000E+00  0.23340986571E+04  0.23340986571E+04  0.50400001928E-02 0. -1.
       -1   -1    0    0    0  501  0.00000000000E+00  0.00000000000E+00 -0.52960461809E+03  0.52960461812E+03  0.50400001928E-02 0.  1.
    10030    2    1    2    0    0  0.00000000000E+00  0.00000000000E+00  0.18044940390E+04  0.28637032752E+04  0.22236451407E+04 0.  0.
        3    1    3    3  502    0  0.22981130255E+03  0.63588598547E+03  0.20388980153E+04  0.21480850421E+04  0.10100000352E+00 0. -1.
       -3    1    3    3    0  502 -0.22981130255E+03 -0.63588598547E+03 -0.23440397624E+03  0.71561823312E+03  0.10100000352E+00 0.  1.
</event>
<event>
 5   0  0.3395569E-04  0.1847561E+04  0.7818609E-02  0.8681408E-01
       -2   -1    0    0    0  501  0.00000000000E+00  0.00000000000E+00  0.95435477800E+03  0.95435477801E+03  0.25500000920E-02 0.  1.
        2   -1    0    0  501    0  0.00000000000E+00  0.00000000000E+00 -0.89418596866E+03  0.89418596866E+03  0.25500000920E-02 0. -1.
    10030    2    1    2    0    0  0.00000000000E+00  0.00000000000E+00  0.60168809347E+02  0.18485407467E+04  0.18475612592E+04 0.  0.
        4    1    3    3  502    0 -0.54893374759E+02 -0.51340573817E+02 -0.89112077329E+03  0.89428573879E+03  0.12699999809E+01 0. -1.
       -4    1    3    3    0  502  0.54893374759E+02  0.51340573817E+02  0.95128958264E+03  0.95425500787E+03  0.12699999809E+01 0.  1.
</event>
<event>
 5   0  0.1650221E-04  0.1676816E+04  0.7818609E-02  0.8774699E-01
       -1   -1    0    0    0  501  0.00000000000E+00  0.00000000000E+00  0.50998062353E+03  0.50998062355E+03  0.50400001928E-02 0.  1.
        1   -1    0    0  501    0  0.00000000000E+00  0.00000000000E+00 -0.13783423183E+04  0.13783423183E+04  0.50400001928E-02 0. -1.
    10030    2    1    2    0    0  0.00000000000E+00  0.00000000000E+00 -0.86836169475E+03  0.18883229418E+04  0.16768158813E+04 0.  0.
        1    1    3    3  502    0 -0.25096848884E+03  0.31004089988E+03  0.39627665673E+03  0.56226837959E+03  0.50400001928E-02 0.  1.
       -1    1    3    3    0  502  0.25096848884E+03 -0.31004089988E+03 -0.12646383515E+04  0.13260545623E+04  0.50400001928E-02 0. -1.
</event>
<event>
 5   0  0.3460648E-04  0.1838470E+04  0.7818609E-02  0.8686105E-01
       -2   -1    0    0    0  501  0.00000000000E+00  0.00000000000E+00  0.77973150090E+03  0.77973150091E+03  0.25500000920E-02 0. -1.
        2   -1    0    0  501    0  0.00000000000E+00  0.00000000000E+00 -0.10836971221E+04  0.10836971221E+04  0.25500000920E-02 0.  1.
    10030    2    1    2    0    0  0.00000000000E+00  0.00000000000E+00 -0.30396562117E+03  0.18634286230E+04  0.18384697806E+04 0.  0.
        5    1    3    3  502    0  0.96508925405E+02  0.36661617706E+03  0.69679200852E+03  0.79326073085E+03  0.46999998093E+01 0. -1.
       -5    1    3    3    0  502 -0.96508925405E+02 -0.36661617706E+03 -0.10007576297E+04  0.10701678921E+04  0.46999998093E+01 0.  1.
</event>
<event>
 5   0  0.3460648E-04  0.1930666E+04  0.7818609E-02  0.8639741E-01
        2   -1    0    0  501    0  0.00000000000E+00  0.00000000000E+00  0.17714739323E+04  0.17714739323E+04  0.25500000920E-02 0. -1.
       -2   -1    0    0    0  501  0.00000000000E+00  0.00000000000E+00 -0.52604068936E+03  0.52604068937E+03  0.25500000920E-02 0.  1.
    10030    2    1    2    0    0  0.00000000000E+00  0.00000000000E+00  0.12454332429E+04  0.22975146216E+04  0.19306655521E+04 0.  0.
        5    1    3    3  502    0 -0.18884342562E+03  0.32056158779E+03 -0.43727839331E+03  0.57415682024E+03  0.46999998093E+01 0.  1.
       -5    1    3    3    0  502  0.18884342562E+03 -0.32056158779E+03  0.16827116362E+04  0.17233578014E+04  0.46999998093E+01 0. -1.
</event>
<event>
 5   0  0.3460648E-04  0.1984310E+04  0.7818609E-02  0.8613991E-01
       -2   -1    0    0    0  501  0.00000000000E+00  0.00000000000E+00  0.80441898101E+03  0.80441898101E+03  0.25500000920E-02 0.  1.
        2   -1    0    0  501    0  0.00000000000E+00  0.00000000000E+00 -0.12237052575E+04  0.12237052575E+04  0.25500000920E-02 0. -1.
    10030    2    1    2    0    0  0.00000000000E+00  0.00000000000E+00 -0.41928627651E+03  0.20281242385E+04  0.19843101938E+04 0.  0.
        5    1    3    3  502    0 -0.57776115119E+03  0.43793291150E+03 -0.90191406038E+03  0.11571794351E+04  0.46999998093E+01 0. -1.
       -5    1    3    3    0  502  0.57776115119E+03 -0.43793291150E+03  0.48262778386E+03  0.87094480340E+03  0.46999998093E+01 0.  1.
</event>
<event>
 5   0  0.3371947E-04  0.1352440E+04  0.7818609E-02  0.8988983E-01
       -2   -1    0    0    0  501  0.00000000000E+00  0.00000000000E+00  0.35513157614E+03  0.35513157615E+03  0.25500000920E-02 0. -1.
        2   -1    0    0  501    0  0.00000000000E+00  0.00000000000E+00 -0.12876171096E+04  0.12876171096E+04  0.25500000920E-02 0.  1.
    10030    2    1    2    0    0  0.00000000000E+00  0.00000000000E+00 -0.93248553346E+03  0.16427486858E+04  0.13524400077E+04 0.  0.
        2    1    3    3  502    0 -0.12988622589E+02  0.56250319612E+02 -0.12846183737E+04  0.12859149150E+04  0.25500000920E-02 0.  1.
       -2    1    3    3    0  502  0.12988622589E+02 -0.56250319612E+02  0.35213284020E+03  0.35683377072E+03  0.25500000920E-02 0. -1.
</event>
<event>
 5   0  0.1696052E-04  0.1985174E+04  0.7818609E-02  0.8613584E-01
        1   -1    0    0  501    0  0.00000000000E+00  0.00000000000E+00  0.14803805053E+04  0.14803805053E+04  0.50400001928E-02 0. -1.
       -1   -1    0    0    0  501  0.00000000000E+00  0.00000000000E+00 -0.66552420687E+03  0.66552420689E+03  0.50400001928E-02 0.  1.
    10030    2    1    2    0    0  0.00000000000E+00  0.00000000000E+00  0.81485629843E+03  0.21459047122E+04  0.19851741099E+04 0.  0.
        4    1    3    3  502    0  0.28055955777E+03  0.54295588618E+03  0.12528735686E+04  0.13939901548E+04  0.12699999809E+01 0. -1.
       -4    1    3    3    0  502 -0.28055955777E+03 -0.54295588618E+03 -0.43801727017E+03  0.75191455743E+03  0.12699999809E+01 0.  1.
</event>
<event>
 5   0  0.3387881E-04  0.2024660E+04  0.7818609E-02  0.8595177E-01
       -2   -1    0    0    0  501  0.00000000000E+00  0.00000000000E+00  0.12867896874E+04  0.12867896874E+04  0.25500000920E-02 0.  1.
        2   -1    0    0  501    0  0.00000000000E+00  0.00000000000E+00 -0.79641019243E+03  0.79641019243E+03  0.25500000920E-02 0. -1.
    10030    2    1    2    0    0  0.00000000000E+00  0.00000000000E+00  0.49037949492E+03  0.20831998798E+04  0.20246603888E+04 0.  0.
        1    1    3    3  502    0 -0.78342935071E+01 -0.78168131951E+02 -0.79326909073E+03  0.79714959909E+03  0.50400001928E-02 0. -1.
       -1    1    3    3    0  502  0.78342935071E+01  0.78168131951E+02  0.12836485856E+04  0.12860502807E+04  0.50400001928E-02 0.  1.
</event>
<event>
 5   0  0.3460648E-04  0.1958701E+04  0.7818609E-02  0.8626176E-01
        2   -1    0    0  501    0  0.00000000000E+00  0.00000000000E+00  0.10993517048E+04  0.10993517048E+04  0.25500000920E-02 0.  1.
       -2   -1    0    0    0  501  0.00000000000E+00  0.00000000000E+00 -0.87244861265E+03  0.87244861265E+03  0.25500000920E-02 0. -1.
    10030    2    1    2    0    0  0.00000000000E+00  0.00000000000E+00  0.22690309219E+03  0.19718003175E+04  0.19587014777E+04 0.  0.
        5    1    3    3  502    0  0.21784975635E+03 -0.76936930427E+03  0.68266914377E+03  0.10514023457E+04  0.46999998093E+01 0. -1.
       -5    1    3    3    0  502 -0.21784975635E+03  0.76936930427E+03 -0.45576605158E+03  0.92039797179E+03  0.46999998093E+01 0.  1.
</event>
<event>
 5   0  0.3395569E-04  0.1996900E+04  0.7818609E-02  0.8608071E-01
       -2   -1    0    0    0  501  0.00000000000E+00  0.00000000000E+00  0.71517391139E+03  0.71517391140E+03  0.25500000920E-02 0.  1.
        2   -1    0    0  501    0  0.00000000000E+00  0.00000000000E+00 -0.13939301993E+04  0.13939301993E+04  0.25500000920E-02 0. -1.
    10030    2    1    2    0    0  0.00000000000E+00  0.00000000000E+00 -0.67875628790E+03  0.21091041107E+04  0.19969001105E+04 0.  0.
        4    1    3    3  502    0 -0.21982699864E+03  0.27008939178E+03  0.64895116310E+03  0.73648585450E+03  0.12699999809E+01 0.  1.
       -4    1    3    3    0  502  0.21982699864E+03 -0.27008939178E+03 -0.13277074510E+04  0.13726182562E+04  0.12699999809E+01 0. -1.
</event>
<event>
 5   0  0.3431030E-04  0.1971806E+04  0.7818609E-02  0.8619917E-01
       -2   -1    0    0    0  501  0.00000000000E+00  0.00000000000E+00  0.61838892718E+03  0.61838892719E+03  0.25500000920E-02 0. -1.
        2   -1    0    0  501    0  0.00000000000E+00  0.00000000000E+00 -0.15718343184E+04  0.15718343184E+04  0.25500000920E-02 0.  1.
    10030    2    1    2    0    0  0.00000000000E+00  0.00000000000E+00 -0.95344539125E+03  0.21902232456E+04  0.19718062155E+04 0.  0.
        3    1    3    3  502    0  0.80336793417E+03 -0.51743050871E+03 -0.20721372121E+03  0.97778929502E+03  0.10100000352E+00 0.  1.
       -3    1    3    3    0  502 -0.80336793417E+03  0.51743050871E+03 -0.74623167004E+03  0.12124339506E+04  0.10100000352E+00 0. -1.
</event>
<event>
 5   0  0.3460648E-04  0.1974701E+04  0.7818609E-02  0.8618541E-01
       -2   -1    0    0    0  501  0.00000000000E+00  0.00000000000E+00  0.73309578015E+03  0.73309578015E+03  0.25500000920E-02 0. -1.
        2   -1    0    0  501    0  0.00000000000E+00  0.00000000000E+00 -0.13297861492E+04  0.13297861492E+04  0.25500000920E-02 0.  1.
    10030    2    1    2    0    0  0.00000000000E+00  0.00000000000E+00 -0.59669036904E+03  0.20628819293E+04  0.19747005996E+04 0.  0.
        5    1    3    3  502    0 -0.32421378807E+03 -0.90143752440E+03 -0.48643370757E+02  0.95921450067E+03  0.46999998093E+01 0.  1.
       -5    1    3    3    0  502  0.32421378807E+03  0.90143752440E+03 -0.54804699828E+03  0.11036674287E+04  0.46999998093E+01 0. -1.
</event>
<event>
 5   0  0.1696052E-04  0.1499607E+04  0.7818609E-02  0.8884715E-01
       -1   -1    0    0    0  501  0.00000000000E+00  0.00000000000E+00  0.50623748341E+03  0.50623748344E+03  0.50400001928E-02 0.  1.
        1   -1    0    0  501    0  0.00000000000E+00  0.00000000000E+00 -0.11105557657E+04  0.11105557657E+04  0.50400001928E-02 0. -1.
    10030    2    1    2    0    0  0.00000000000E+00  0.00000000000E+00 -0.60431828224E+03  0.16167932491E+04  0.14996065564E+04 0.  0.
        4    1    3    3  502    0 -0.37653237874E+03 -0.98052013142E+02  0.38887417896E+03  0.55010505313E+03  0.12699999809E+01 0.  1.
       -4    1    3    3    0  502  0.37653237874E+03  0.98052013142E+02 -0.99319246120E+03  0.10666881960E+04  0.12699999809E+01 0. -1.
</event>
<event>
 5   0  0.1708578E-04  0.2096176E+04  0.7818609E-02  0.8562930E-01
       -1   -1    0    0    0  501  0.00000000000E+00  0.00000000000E+00  0.13529589019E+04  0.13529589019E+04  0.50400001928E-02 0.  1.
        1   -1    0    0  501    0  0.00000000000E+00  0.00000000000E+00 -0.81191547147E+03  0.81191547148E+03  0.50400001928E-02 0. -1.
    10030    2    1    2    0    0  0.00000000000E+00  0.00000000000E+00  0.54104343044E+03  0.21648743734E+04  0.20961758178E+04 0.  0.
        3    1    3    3  502    0 -0.85406263691E+03  0.60672865208E+03  0.23876314749E+03  0.10745001144E+04  0.10100000352E+00 0. -1.
       -3    1    3    3    0  502  0.85406263691E+03 -0.60672865208E+03  0.30228028295E+03  0.10903742590E+04  0.10100000352E+00 0.  1.
</event>
<event>
 5   0  0.1664168E-04  0.2093366E+04  0.7818609E-02  0.8564171E-01
       -1   -1    0    0    0  501  0.00000000000E+00  0.00000000000E+00  0.11067258619E+04  0.11067258619E+04  0.50400001928E-02 0.  1.
        1   -1    0    0  501    0  0.00000000000E+00  0.00000000000E+00 -0.98989789298E+03  0.98989789300E+03  0.50400001928E-02 0. -1.
    10030    2    1    2    0    0  0.00000000000E+00  0.00000000000E+00  0.11682796887E+03  0.20966237549E+04  0.20933662831E+04 0.  0.
        5    1    3    3  502    0  0.20777474102E+03 -0.28643972858E+03  0.10449876347E+04  0.11032856873E+04  0.46999998093E+01 0.  1.
       -5    1    3    3    0  502 -0.20777474102E+03  0.28643972858E+03 -0.92815966585E+03  0.99333806754E+03  0.46999998093E+01 0. -1.
</event>
<event>
 5   0  0.3387881E-04  0.1973992E+04  0.7818609E-02  0.8618878E-01
        2   -1    0    0  501    0  0.00000000000E+00  0.00000000000E+00  0.10171608216E+04  0.10171608216E+04  0.25500000920E-02 0.  1.
       -2   -1    0    0    0  501  0.00000000000E+00  0.00000000000E+00 -0.95772596353E+03  0.95772596353E+03  0.25500000920E-02 0. -1.
    10030    2    1    2    0    0  0.00000000000E+00  0.00000000000E+00  0.59434858031E+02  0.19748867851E+04  0.19739922268E+04 0.  0.
        1    1    3    3  502    0  0.50842383343E+03  0.52175306531E+03  0.69593231396E+03  0.10074933455E+04  0.50400001928E-02 0.  1.
       -1    1    3    3    0  502 -0.50842383343E+03 -0.52175306531E+03 -0.63649745593E+03  0.96739343961E+03  0.50400001928E-02 0. -1.
</event>
<event>
 5   0  0.3460648E-04  0.2176615E+04  0.7818609E-02  0.8528225E-01
        2   -1    0    0  501    0  0.00000000000E+00  0.00000000000E+00  0.21248436942E+04  0.21248436942E+04  0.25500000920E-02 0.  1.
       -2   -1    0    0    0  501  0.00000000000E+00  0.00000000000E+00 -0.55741186398E+03  0.55741186399E+03  0.25500000920E-02 0. -1.
    10030    2    1    2    0    0  0.00000000000E+00  0.00000000000E+00  0.15674318303E+04  0.26822555582E+04  0.21766148803E+04 0.  0.
        5    1    3    3  502    0 -0.58037942918E+02 -0.28284570941E+03  0.20767689585E+04  0.20967502224E+04  0.46999998093E+01 0.  1.
       -5    1    3    3    0  502  0.58037942918E+02  0.28284570941E+03 -0.50933712821E+03  0.58550533586E+03  0.46999998093E+01 0. -1.
</event>
<event>
 5   0  0.1664168E-04  0.2027425E+04  0.7818609E-02  0.8593905E-01
       -1   -1    0    0    0  501  0.00000000000E+00  0.00000000000E+00  0.83025353102E+03  0.83025353104E+03  0.50400001928E-02 0. -1.
        1   -1    0    0  501    0  0.00000000000E+00  0.00000000000E+00 -0.12377104593E+04  0.12377104593E+04  0.50400001928E-02 0.  1.
    10030    2    1    2    0    0  0.00000000000E+00  0.00000000000E+00 -0.40745692824E+03  0.20679639903E+04  0.20274254405E+04 0.  0.
        5    1    3    3  502    0  0.60858989744E+03  0.45102325567E+03 -0.89083560755E+03  0.11693647036E+04  0.46999998093E+01 0.  1.
       -5    1    3    3    0  502 -0.60858989744E+03 -0.45102325567E+03  0.48337867930E+03  0.89859928668E+03  0.46999998093E+01 0. -1.
</event>
<event>
 5   0  0.1650221E-04  0.1880953E+04  0.7818609E-02  0.8664396E-01
        1   -1    0    0  501    0  0.00000000000E+00  0.00000000000E+00  0.92747096285E+03  0.92747096286E+03  0.50400001928E-02 0. -1.
       -1   -1    0    0    0  501  0.00000000000E+00  0.00000000000E+00 -0.95366482799E+03  0.95366482801E+03  0.50400001928E-02 0.  1.
    10030    2    1    2    0    0  0.00000000000E+00  0.00000000000E+00 -0.26193865147E+02  0.18811357909E+04  0.18809534139E+04 0.  0.
        1    1    3    3  502    0  0.72356090818E+03  0.61840060551E+02  0.58456611095E+03  0.93224573962E+03  0.50400001928E-02 0. -1.
       -1    1    3    3    0  502 -0.72356090818E+03 -0.61840060551E+02 -0.61075997610E+03  0.94889005125E+03  0.50400001928E-02 0.  1.
</event>
<event>
 5   0  0.3395569E-04  0.1991064E+04  0.7818609E-02  0.8610810E-01
       -2   -1    0    0    0  501  0.00000000000E+00  0.00000000000E+00  0.73726993461E+03  0.73726993462E+03  0.25500000920E-02 0.  1.
        2   -1    0    0  501    0  0.00000000000E+00  0.00000000000E+00 -0.13442619062E+04  0.13442619062E+04  0.25500000920E-02 0. -1.
    10030    2    1    2    0    0  0.00000000000E+00  0.00000000000E+00 -0.60699197161E+03  0.20815318408E+04  0.19910639243E+04 0.  0.
        4    1    3    3  502    0 -0.22572838107E+03  0.49283021222E+03  0.56945788028E+03  0.78620532331E+03  0.12699999809E+01 0.  1.
       -4    1    3    3    0  502  0.22572838107E+03 -0.49283021222E+03 -0.11764498519E+04  0.12953265175E+04  0.12699999809E+01 0. -1.
</event>
<event>
 5   0  0.1650221E-04  0.2005342E+04  0.7818609E-02  0.8604127E-01
       -1   -1    0    0    0  501  0.00000000000E+00  0.00000000000E+00  0.73173876963E+03  0.73173876965E+03  0.50400001928E-02 0.  1.
        1   -1    0    0  501    0  0.00000000000E+00  0.00000000000E+00 -0.13739174773E+04  0.13739174773E+04  0.50400001928E-02 0. -1.
    10030    2    1    2    0    0  0.00000000000E+00  0.00000000000E+00 -0.64217870769E+03  0.21056562470E+04  0.20053415514E+04 0.  0.
        1    1    3    3  502    0  0.29162829129E+03 -0.42149740452E+03  0.58378597184E+03  0.77686110936E+03  0.50400001928E-02 0.  1.
       -1    1    3    3    0  502 -0.29162829129E+03  0.42149740452E+03 -0.12259646795E+04  0.13287951376E+04  0.50400001928E-02 0. -1.
</event>
<event>
 5   0  0.3395569E-04  0.2011827E+04  0.7818609E-02  0.8601111E-01
       -2   -1    0    0    0  501  0.00000000000E+00  0.00000000000E+00  0.58746072444E+03  0.58746072444E+03  0.25500000920E-02 0.  1.
        2   -1    0    0  501    0  0.00000000000E+00  0.00000000000E+00 -0.17224335966E+04  0.17224335966E+04  0.25500000920E-02 0. -1.
    10030    2    1    2    0    0  0.00000000000E+00  0.00000000000E+00 -0.11349728722E+04  0.23098943211E+04  0.20118271183E+04 0.  0.
        4    1    3    3  502    0  0.41508823364E+03  0.85911565137E+03 -0.93324718608E+03  0.13346647022E+04  0.12699999809E+01 0. -1.
       -4    1    3    3    0  502 -0.41508823364E+03 -0.85911565137E+03 -0.20172568610E+03  0.97522961884E+03  0.12699999809E+01 0.  1.
</event>
<event>
 5   0  0.3387881E-04  0.2060433E+04  0.7818609E-02  0.8578876E-01
        2   -1    0    0  501    0  0.00000000000E+00  0.00000000000E+00  0.21502218987E+04  0.21502218987E+04  0.25500000920E-02 0.  1.
       -2   -1    0    0    0  501  0.00000000000E+00  0.00000000000E+00 -0.49359856070E+03  0.49359856071E+03  0.25500000920E-02 0. -1.
    10030    2    1    2    0    0  0.00000000000E+00  0.00000000000E+00  0.16566233380E+04  0.26438204594E+04  0.20604333859E+04 0.  0.
        1    1    3    3  502    0 -0.23154270228E+03  0.45043366578E+03  0.19794545068E+04  0.20432186996E+04  0.50400001928E-02 0.  1.
       -1    1    3    3    0  502  0.23154270228E+03 -0.45043366578E+03 -0.32283116877E+03  0.60060175974E+03  0.50400001928E-02 0. -1.
</event>
<event>
 5   0  0.1222488E-04  0.1991024E+04  0.7818609E-02  0.8610829E-01
        4   -1    0    0  501    0  0.00000000000E+00  0.00000000000E+00  0.90549906722E+03  0.90549995783E+03  0.12699999809E+01 0. -1.
       -4   -1    0    0    0  501  0.00000000000E+00  0.00000000000E+00 -0.10944705944E+04  0.10944713313E+04  0.12699999809E+01 0.  1.
    10030    2    1    2    0    0  0.00000000000E+00  0.00000000000E+00 -0.18897152721E+03  0.19999712891E+04  0.19910235858E+04 0.  0.
        3    1    3    3  502    0 -0.41668644077E+03  0.23180950242E+03  0.78332965044E+03  0.91704339417E+03  0.10100000352E+00 0. -1.
       -3    1    3    3    0  502  0.41668644077E+03 -0.23180950242E+03 -0.97230117766E+03  0.10829278949E+04  0.10100000352E+00 0.  1.
</event>
<event>
 5   0  0.1650221E-04  0.1238088E+04  0.7818609E-02  0.9080156E-01
        1   -1    0    0  501    0  0.00000000000E+00  0.00000000000E+00  0.10431379413E+04  0.10431379413E+04  0.50400001928E-02 0.  1.
       -1   -1    0    0    0  501  0.00000000000E+00  0.00000000000E+00 -0.36736793622E+03  0.36736793626E+03  0.50400001928E-02 0. -1.
    10030    2    1    2    0    0  0.00000000000E+00  0.00000000000E+00  0.67577000512E+03  0.14105058776E+04  0.12380879334E+04 0.  0.
        1    1    3    3  502    0 -0.22925441562E+03 -0.42874129752E+03  0.77444480268E+03  0.91440769884E+03  0.50400001928E-02 0.  1.
       -1    1    3    3    0  502  0.22925441562E+03  0.42874129752E+03 -0.98674797563E+02  0.49609817876E+03  0.50400001928E-02 0. -1.
</event>
<event>
 5   0  0.1222488E-04  0.1495332E+04  0.7818609E-02  0.8887563E-01
       -3   -1    0    0    0  501  0.00000000000E+00  0.00000000000E+00  0.93353630705E+03  0.93353631251E+03  0.10100000352E+00 0.  1.
        3   -1    0    0  501    0  0.00000000000E+00  0.00000000000E+00 -0.59880284176E+03  0.59880285028E+03  0.10100000352E+00 0. -1.
    10030    2    1    2    0    0  0.00000000000E+00  0.00000000000E+00  0.33473346529E+03  0.15323391628E+04  0.14953316746E+04 0.  0.
        1    1    3    3  502    0  0.37675930845E+03  0.44588592455E+03  0.64609260924E+03  0.87074536689E+03  0.50400001928E-02 0.  1.
       -1    1    3    3    0  502 -0.37675930845E+03 -0.44588592455E+03 -0.31135914396E+03  0.66159379590E+03  0.50400001928E-02 0. -1.
</event>
<event>
 5   0  0.3395569E-04  0.2004614E+04  0.7818609E-02  0.8604466E-01
        2   -1    0    0  501    0  0.00000000000E+00  0.00000000000E+00  0.20925227860E+04  0.20925227860E+04  0.25500000920E-02 0. -1.
       -2   -1    0    0    0  501  0.00000000000E+00  0.00000000000E+00 -0.48009960591E+03  0.48009960592E+03  0.25500000920E-02 0.  1.
    10030    2    1    2    0    0  0.00000000000E+00  0.00000000000E+00  0.16124231801E+04  0.25726223919E+04  0.20046140426E+04 0.  0.
        4    1    3    3  502    0  0.13300166956E+03 -0.76352579138E+03 -0.94549943799E+01  0.77508198794E+03  0.12699999809E+01 0.  1.
       -4    1    3    3    0  502 -0.13300166956E+03  0.76352579138E+03  0.16218781745E+04  0.17975404040E+04  0.12699999809E+01 0. -1.
</event>
<event>
 5   0  0.1696052E-04  0.1975719E+04  0.7818609E-02  0.8618058E-01
        1   -1    0    0  501    0  0.00000000000E+00  0.00000000000E+00  0.12629290956E+04  0.12629290956E+04  0.50400001928E-02 0. -1.
       -1   -1    0    0    0  501  0.00000000000E+00  0.00000000000E+00 -0.77270096218E+03  0.77270096220E+03  0.50400001928E-02 0.  1.
    10030    2    1    2    0    0  0.00000000000E+00  0.00000000000E+00  0.49022813339E+03  0.20356300578E+04  0.19757191373E+04 0.  0.
        4    1    3    3  502    0 -0.66081266850E+03  0.46123459346E+03 -0.34357336824E+03  0.87604509320E+03  0.12699999809E+01 0.  1.
       -4    1    3    3    0  502  0.66081266850E+03 -0.46123459346E+03  0.83380150163E+03  0.11595849646E+04  0.12699999809E+01 0. -1.
</event>
<event>
 5   0  0.3395569E-04  0.1972577E+04  0.7818609E-02  0.8619550E-01
       -2   -1    0    0    0  501  0.00000000000E+00  0.00000000000E+00  0.93246199950E+03  0.93246199950E+03  0.25500000920E-02 0. -1.
        2   -1    0    0  501    0  0.00000000000E+00  0.00000000000E+00 -0.10432222579E+04  0.10432222579E+04  0.25500000920E-02 0.  1.
    10030    2    1    2    0    0  0.00000000000E+00  0.00000000000E+00 -0.11076025836E+03  0.19756842574E+04  0.19725771087E+04 0.  0.
        4    1    3    3  502    0 -0.48944949092E+03  0.11004091956E+03 -0.90589007860E+03  0.10355231796E+04  0.12699999809E+01 0.  1.
       -4    1    3    3    0  502  0.48944949092E+03 -0.11004091956E+03  0.79512982024E+03  0.94016107773E+03  0.12699999809E+01 0. -1.
</event>
<event>
 5   0  0.1643565E-04  0.1966863E+04  0.7818609E-02  0.8622272E-01
       -1   -1    0    0    0  501  0.00000000000E+00  0.00000000000E+00  0.14536732195E+04  0.14536732195E+04  0.50400001928E-02 0. -1.
        1   -1    0    0  501    0  0.00000000000E+00  0.00000000000E+00 -0.66530623967E+03  0.66530623969E+03  0.50400001928E-02 0.  1.
    10030    2    1    2    0    0  0.00000000000E+00  0.00000000000E+00  0.78836697985E+03  0.21189794592E+04  0.19668633541E+04 0.  0.
        2    1    3    3  502    0 -0.53757709933E+03 -0.33020608330E+03  0.12069235833E+04  0.13618699391E+04  0.25500000920E-02 0. -1.
       -2    1    3    3    0  502  0.53757709933E+03  0.33020608330E+03 -0.41855660341E+03  0.75710952011E+03  0.25500000920E-02 0.  1.
</event>
<event>
 5   0  0.3387881E-04  0.2022487E+04  0.7818609E-02  0.8596179E-01
        2   -1    0    0  501    0  0.00000000000E+00  0.00000000000E+00  0.10743260755E+04  0.10743260755E+04  0.25500000920E-02 0.  1.
       -2   -1    0    0    0  501  0.00000000000E+00  0.00000000000E+00 -0.95186457128E+03  0.95186457129E+03  0.25500000920E-02 0. -1.
    10030    2    1    2    0    0  0.00000000000E+00  0.00000000000E+00  0.12246150421E+03  0.20261906468E+04  0.20224865184E+04 0.  0.
        1    1    3    3  502    0  0.53067612291E+03  0.55382047562E+03  0.72143591577E+03  0.10529976483E+04  0.50400001928E-02 0.  1.
       -1    1    3    3    0  502 -0.53067612291E+03 -0.55382047562E+03 -0.59897441156E+03  0.97319299852E+03  0.50400001928E-02 0. -1.
</event>
<event>
 5   0  0.1708578E-04  0.2031843E+04  0.7818609E-02  0.8591876E-01
       -1   -1    0    0    0  501  0.00000000000E+00  0.00000000000E+00  0.94082445109E+03  0.94082445111E+03  0.50400001928E-02 0. -1.
        1   -1    0    0  501    0  0.00000000000E+00  0.00000000000E+00 -0.10970125535E+04  0.10970125535E+04  0.50400001928E-02 0.  1.
    10030    2    1    2    0    0  0.00000000000E+00  0.00000000000E+00 -0.15618810236E+03  0.20378370046E+04  0.20318427434E+04 0.  0.
        3    1    3    3  502    0  0.34245569110E+03 -0.73927292314E+03  0.53057017229E+03  0.97226800481E+03  0.10100000352E+00 0. -1.
       -3    1    3    3    0  502 -0.34245569110E+03  0.73927292314E+03 -0.68675827465E+03  0.10655689998E+04  0.10100000352E+00 0.  1.
</event>
<event>
 5   0  0.1650221E-04  0.1985916E+04  0.7818609E-02  0.8613234E-01
        1   -1    0    0  501    0  0.00000000000E+00  0.00000000000E+00  0.76553941254E+03  0.76553941256E+03  0.50400001928E-02 0. -1.
       -1   -1    0    0    0  501  0.00000000000E+00  0.00000000000E+00 -0.12879363168E+04  0.12879363168E+04  0.50400001928E-02 0.  1.
    10030    2    1    2    0    0  0.00000000000E+00  0.00000000000E+00 -0.52239690422E+03  0.20534757293E+04  0.19859164246E+04 0.  0.
        1    1    3    3  502    0  0.56019476170E+03 -0.12018997433E+03 -0.10997760517E+04  0.12400690162E+04  0.50400001928E-02 0.  1.
       -1    1    3    3    0  502 -0.56019476170E+03  0.12018997433E+03  0.57737914751E+03  0.81340671313E+03  0.50400001928E-02 0. -1.
</event>
<event>
 5   0  0.1708578E-04  0.2086424E+04  0.7818609E-02  0.8567247E-01
        1   -1    0    0  501    0  0.00000000000E+00  0.00000000000E+00  0.11797464617E+04  0.11797464617E+04  0.50400001928E-02 0.  1.
       -1   -1    0    0    0  501  0.00000000000E+00  0.00000000000E+00 -0.92247924730E+03  0.92247924732E+03  0.50400001928E-02 0. -1.
    10030    2    1    2    0    0  0.00000000000E+00  0.00000000000E+00  0.25726721441E+03  0.21022257090E+04  0.20864243366E+04 0.  0.
        3    1    3    3  502    0  0.45599277859E+03 -0.92091693635E+03  0.30964439000E+03  0.10732646814E+04  0.10100000352E+00 0.  1.
       -3    1    3    3    0  502 -0.45599277859E+03  0.92091693635E+03 -0.52377175585E+02  0.10289610277E+04  0.10100000352E+00 0. -1.
</event>
<event>
 5   0  0.3431030E-04  0.1365970E+04  0.7818609E-02  0.8978826E-01
       -2   -1    0    0    0  501  0.00000000000E+00  0.00000000000E+00  0.58917849294E+03  0.58917849295E+03  0.25500000920E-02 0.  1.
        2   -1    0    0  501    0  0.00000000000E+00  0.00000000000E+00 -0.79172703014E+03  0.79172703014E+03  0.25500000920E-02 0. -1.
    10030    2    1    2    0    0  0.00000000000E+00  0.00000000000E+00 -0.20254853720E+03  0.13809055231E+04  0.13659700413E+04 0.  0.
        3    1    3    3  502    0  0.23612899820E+03  0.57268279634E+02 -0.74655744631E+03  0.78510164341E+03  0.10100000352E+00 0. -1.
       -3    1    3    3    0  502 -0.23612899820E+03 -0.57268279634E+02  0.54400890912E+03  0.59580387968E+03  0.10100000352E+00 0.  1.
</event>
<event>
 5   0  0.3371947E-04  0.1982335E+04  0.7818609E-02  0.8614924E-01
       -2   -1    0    0    0  501  0.00000000000E+00  0.00000000000E+00  0.68819587683E+03  0.68819587683E+03  0.25500000920E-02 0. -1.
        2   -1    0    0  501    0  0.00000000000E+00  0.00000000000E+00 -0.14275197582E+04  0.14275197582E+04  0.25500000920E-02 0.  1.
    10030    2    1    2    0    0  0.00000000000E+00  0.00000000000E+00 -0.73932388133E+03  0.21157156350E+04  0.19823352004E+04 0.  0.
        2    1    3    3  502    0  0.63310980727E+02 -0.90133542532E+03 -0.80450589740E+03  0.12098113771E+04  0.25500000920E-02 0. -1.
       -2    1    3    3    0  502 -0.63310980727E+02  0.90133542532E+03  0.65182016075E+02  0.90590425788E+03  0.25500000920E-02 0.  1.
</event>
<event>
 5   0  0.1696052E-04  0.2016440E+04  0.7818609E-02  0.8598973E-01
       -1   -1    0    0    0  501  0.00000000000E+00  0.00000000000E+00  0.73617494917E+03  0.73617494918E+03  0.50400001928E-02 0.  1.
        1   -1    0    0  501    0  0.00000000000E+00  0.00000000000E+00 -0.13807958176E+04  0.13807958176E+04  0.50400001928E-02 0. -1.
    10030    2    1    2    0    0  0.00000000000E+00  0.00000000000E+00 -0.64462086843E+03  0.21169707668E+04  0.20164397247E+04 0.  0.
        4    1    3    3  502    0  0.55207757535E+03 -0.38376942925E+03  0.46643593748E+03  0.81831089489E+03  0.12699999809E+01 0.  1.
       -4    1    3    3    0  502 -0.55207757535E+03  0.38376942925E+03 -0.11110568059E+04  0.12986598719E+04  0.12699999809E+01 0. -1.
</event>
<event>
 5   0  0.3387881E-04  0.1971829E+04  0.7818609E-02  0.8619906E-01
       -2   -1    0    0    0  501  0.00000000000E+00  0.00000000000E+00  0.55250274120E+03  0.55250274121E+03  0.25500000920E-02 0.  1.
        2   -1    0    0  501    0  0.00000000000E+00  0.00000000000E+00 -0.17593175503E+04  0.17593175503E+04  0.25500000920E-02 0. -1.
    10030    2    1    2    0    0  0.00000000000E+00  0.00000000000E+00 -0.12068148091E+04  0.23118202915E+04  0.19718293732E+04 0.  0.
        1    1    3    3  502    0 -0.30795063728E+03  0.68151791845E+03 -0.13566180398E+04  0.15491006339E+04  0.50400001928E-02 0. -1.
       -1    1    3    3    0  502  0.30795063728E+03 -0.68151791845E+03  0.14980323065E+03  0.76271965761E+03  0.50400001928E-02 0.  1.
</event>
<event>
 5   0  0.3460648E-04  0.1971603E+04  0.7818609E-02  0.8620013E-01
       -2   -1    0    0    0  501  0.00000000000E+00  0.00000000000E+00  0.41801672599E+03  0.41801672600E+03  0.25500000920E-02 0. -1.
        2   -1    0    0  501    0  0.00000000000E+00  0.00000000000E+00 -0.23247985806E+04  0.23247985806E+04  0.25500000920E-02 0.  1.
    10030    2    1    2    0    0  0.00000000000E+00  0.00000000000E+00 -0.19067818546E+04  0.27428153066E+04  0.19716030952E+04 0.  0.
        5    1    3    3  502    0 -0.88629418342E+03  0.40759845532E+03 -0.75601909975E+03  0.12341964388E+04  0.46999998093E+01 0.  1.
       -5    1    3    3    0  502  0.88629418342E+03 -0.40759845532E+03 -0.11507627549E+04  0.15086188678E+04  0.46999998093E+01 0. -1.
</event>
<event>
 5   0  0.1696052E-04  0.1995079E+04  0.7818609E-02  0.8608925E-01
        1   -1    0    0  501    0  0.00000000000E+00  0.00000000000E+00  0.20175019514E+04  0.20175019514E+04  0.50400001928E-02 0. -1.
       -1   -1    0    0    0  501  0.00000000000E+00  0.00000000000E+00 -0.49322646488E+03  0.49322646490E+03  0.50400001928E-02 0.  1.
    10030    2    1    2    0    0  0.00000000000E+00  0.00000000000E+00  0.15242754865E+04  0.25107284163E+04  0.19950793021E+04 0.  0.
        4    1    3    3  502    0 -0.35551563142E+02  0.98479596365E+03  0.95708435319E+03  0.13737172474E+04  0.12699999809E+01 0.  1.
       -4    1    3    3    0  502  0.35551563142E+02 -0.98479596365E+03  0.56719113329E+03  0.11370111689E+04  0.12699999809E+01 0. -1.
</event>
<event>
 5   0  0.3387881E-04  0.1893214E+04  0.7818609E-02  0.8658242E-01
       -2   -1    0    0    0  501  0.00000000000E+00  0.00000000000E+00  0.13771842890E+04  0.13771842890E+04  0.25500000920E-02 0.  1.
        2   -1    0    0  501    0  0.00000000000E+00  0.00000000000E+00 -0.65064996891E+03  0.65064996891E+03  0.25500000920E-02 0. -1.
    10030    2    1    2    0    0  0.00000000000E+00  0.00000000000E+00  0.72653432011E+03  0.20278342579E+04  0.18932141082E+04 0.  0.
        1    1    3    3  502    0  0.89282124841E+03 -0.25977196614E+03  0.17330447077E+03  0.94585712220E+03  0.50400001928E-02 0. -1.
       -1    1    3    3    0  502 -0.89282124841E+03  0.25977196614E+03  0.55322984935E+03  0.10819771357E+04  0.50400001928E-02 0.  1.
</event>
<event>
 5   0  0.1650221E-04  0.1350649E+04  0.7818609E-02  0.8990337E-01
        1   -1    0    0  501    0  0.00000000000E+00  0.00000000000E+00  0.12919891476E+04  0.12919891477E+04  0.50400001928E-02 0. -1.
       -1   -1    0    0    0  501  0.00000000000E+00  0.00000000000E+00 -0.35299299696E+03  0.35299299699E+03  0.50400001928E-02 0.  1.
    10030    2    1    2    0    0  0.00000000000E+00  0.00000000000E+00  0.93899615069E+03  0.16449821446E+04  0.13506489126E+04 0.  0.
        1    1    3    3  502    0  0.17615072092E+03  0.41791704222E+03 -0.13992375058E+03  0.47461814826E+03  0.50400001928E-02 0. -1.
       -1    1    3    3    0  502 -0.17615072092E+03 -0.41791704222E+03  0.10789199013E+04  0.11703639964E+04  0.50400001928E-02 0.  1.
</event>
<event>
 5   0  0.3387881E-04  0.1673062E+04  0.7818609E-02  0.8776879E-01
        2   -1    0    0  501    0  0.00000000000E+00  0.00000000000E+00  0.79640715087E+03  0.79640715088E+03  0.25500000920E-02 0. -1.
       -2   -1    0    0    0  501  0.00000000000E+00  0.00000000000E+00 -0.87867671172E+03  0.87867671173E+03  0.25500000920E-02 0.  1.
    10030    2    1    2    0    0  0.00000000000E+00  0.00000000000E+00 -0.82269560850E+02  0.16750838626E+04  0.16730623617E+04 0.  0.
        1    1    3    3  502    0 -0.36404160323E+03  0.75299322888E+03 -0.57257805382E+02  0.83833379266E+03  0.50400001928E-02 0.  1.
       -1    1    3    3    0  502  0.36404160323E+03 -0.75299322888E+03 -0.25011755468E+02  0.83675006994E+03  0.50400001928E-02 0. -1.
</event>
<event>
 5   0  0.1696052E-04  0.1989991E+04  0.7818609E-02  0.8611315E-01
       -1   -1    0    0    0  501  0.00000000000E+00  0.00000000000E+00  0.10459624007E+04  0.10459624007E+04  0.50400001928E-02 0. -1.
        1   -1    0    0  501    0  0.00000000000E+00  0.00000000000E+00 -0.94651193878E+03  0.94651193879E+03  0.50400001928E-02 0.  1.
    10030    2    1    2    0    0  0.00000000000E+00  0.00000000000E+00  0.99450461875E+02  0.19924743395E+04  0.19899908540E+04 0.  0.
        4    1    3    3  502    0 -0.38528589442E+02  0.81526083110E+03  0.61953968525E+03  0.10246783444E+04  0.12699999809E+01 0.  1.
       -4    1    3    3    0  502  0.38528589442E+02 -0.81526083110E+03 -0.52008922337E+03  0.96779599509E+03  0.12699999809E+01 0. -1.
</event>
<event>
 5   0  0.3371947E-04  0.1984378E+04  0.7818609E-02  0.8613959E-01
        2   -1    0    0  501    0  0.00000000000E+00  0.00000000000E+00  0.15605867137E+04  0.15605867137E+04  0.25500000920E-02 0. -1.
       -2   -1    0    0    0  501  0.00000000000E+00  0.00000000000E+00 -0.63081365440E+03  0.63081365440E+03  0.25500000920E-02 0.  1.
    10030    2    1    2    0    0  0.00000000000E+00  0.00000000000E+00  0.92977305934E+03  0.21914003681E+04  0.19843783993E+04 0.  0.
        2    1    3    3  502    0 -0.18675819359E+02  0.48568965181E+02 -0.62930573841E+03  0.63145343693E+03  0.25500000920E-02 0.  1.
       -2    1    3    3    0  502  0.18675819359E+02 -0.48568965181E+02  0.15590787978E+04  0.15599469312E+04  0.25500000920E-02 0. -1.
</event>
<event>
 5   0  0.3371947E-04  0.2058553E+04  0.7818609E-02  0.8579724E-01
        2   -1    0    0  501    0  0.00000000000E+00  0.00000000000E+00  0.16908649713E+04  0.16908649713E+04  0.25500000920E-02 0.  1.
       -2   -1    0    0    0  501  0.00000000000E+00  0.00000000000E+00 -0.62654915429E+03  0.62654915429E+03  0.25500000920E-02 0. -1.
    10030    2    1    2    0    0  0.00000000000E+00  0.00000000000E+00  0.10643158170E+04  0.23174141256E+04  0.20585529070E+04 0.  0.
        2    1    3    3  502    0 -0.81553946654E+03  0.21083125409E+03 -0.13370683175E+03  0.85289621646E+03  0.25500000920E-02 0. -1.
       -2    1    3    3    0  502  0.81553946654E+03 -0.21083125409E+03  0.11980226487E+04  0.14645179091E+04  0.25500000920E-02 0.  1.
</event>
<event>
 5   0  0.1696052E-04  0.2012506E+04  0.7818609E-02  0.8600796E-01
       -1   -1    0    0    0  501  0.00000000000E+00  0.00000000000E+00  0.86057545933E+03  0.86057545935E+03  0.50400001928E-02 0. -1.
        1   -1    0    0  501    0  0.00000000000E+00  0.00000000000E+00 -0.11765902661E+04  0.11765902661E+04  0.50400001928E-02 0.  1.
    10030    2    1    2    0    0  0.00000000000E+00  0.00000000000E+00 -0.31601480681E+03  0.20371657255E+04  0.20125056112E+04 0.  0.
        4    1    3    3  502    0 -0.48449066880E+03  0.65782801540E+03 -0.75263560031E+03  0.11108244082E+04  0.12699999809E+01 0.  1.
       -4    1    3    3    0  502  0.48449066880E+03 -0.65782801540E+03  0.43662079350E+03  0.92634131734E+03  0.12699999809E+01 0. -1.
</event>
<event>
 5   0  0.1664168E-04  0.2036741E+04  0.7818609E-02  0.8589633E-01
       -1   -1    0    0    0  501  0.00000000000E+00  0.00000000000E+00  0.63841437560E+03  0.63841437562E+03  0.50400001928E-02 0. -1.
        1   -1    0    0  501    0  0.00000000000E+00  0.00000000000E+00 -0.16244590081E+04  0.16244590081E+04  0.50400001928E-02 0.  1.
    10030    2    1    2    0    0  0.00000000000E+00  0.00000000000E+00 -0.98604463249E+03  0.22628733837E+04  0.20367405170E+04 0.  0.
        5    1    3    3  502    0  0.93810161902E+02 -0.69362312899E+03  0.32879403372E+03  0.77333110513E+03  0.46999998093E+01 0. -1.
       -5    1    3    3    0  502 -0.93810161902E+02  0.69362312899E+03 -0.13148386662E+04  0.14895422786E+04  0.46999998093E+01 0.  1.
</event>
<event>
 5   0  0.1643565E-04  0.2182213E+04  0.7818609E-02  0.8525868E-01
        1   -1    0    0  501    0  0.00000000000E+00  0.00000000000E+00  0.11061108671E+04  0.11061108671E+04  0.50400001928E-02 0. -1.
       -1   -1    0    0    0  501  0.00000000000E+00  0.00000000000E+00 -0.10763053212E+04  0.10763053212E+04  0.50400001928E-02 0.  1.
    10030    2    1    2    0    0  0.00000000000E+00  0.00000000000E+00  0.29805545925E+02  0.21824161883E+04  0.21822126497E+04 0.  0.
        2    1    3    3  502    0 -0.10685510076E+04 -0.12724789640E+03 -0.16544632138E+03  0.10887450428E+04  0.25500000920E-02 0.  1.
       -2    1    3    3    0  502  0.10685510076E+04  0.12724789640E+03  0.19525186730E+03  0.10936711455E+04  0.25500000920E-02 0. -1.
</event>
<event>
 5   0  0.3431030E-04  0.2020707E+04  0.7818609E-02  0.8597000E-01
       -2   -1    0    0    0  501  0.00000000000E+00  0.00000000000E+00  0.57657887898E+03  0.57657887898E+03  0.25500000920E-02 0.  1.
        2   -1    0    0  501    0  0.00000000000E+00  0.00000000000E+00 -0.17704676688E+04  0.17704676688E+04  0.25500000920E-02 0. -1.
    10030    2    1    2    0    0  0.00000000000E+00  0.00000000000E+00 -0.11938887898E+04  0.23470465478E+04  0.20207070681E+04 0.  0.
        3    1    3    3  502    0  0.75347396412E+02  0.43997020466E+03 -0.16497273438E+04  0.17090498326E+04  0.10100000352E+00 0. -1.
       -3    1    3    3    0  502 -0.75347396412E+02 -0.43997020466E+03  0.45583855397E+03  0.63799671522E+03  0.10100000352E+00 0.  1.
</event>
<event>
 5   0  0.1643565E-04  0.2031138E+04  0.7818609E-02  0.8592199E-01
        1   -1    0    0  501    0  0.00000000000E+00  0.00000000000E+00  0.14540623110E+04  0.14540623110E+04  0.50400001928E-02 0.  1.
       -1   -1    0    0    0  501  0.00000000000E+00  0.00000000000E+00 -0.70930988573E+03  0.70930988575E+03  0.50400001928E-02 0. -1.
    10030    2    1    2    0    0  0.00000000000E+00  0.00000000000E+00  0.74475242528E+03  0.21633721968E+04  0.20311383721E+04 0.  0.
        2    1    3    3  502    0 -0.50804542030E+03  0.74809303028E+03 -0.11991292341E+03  0.91221293581E+03  0.25500000920E-02 0. -1.
       -2    1    3    3    0  502  0.50804542030E+03 -0.74809303028E+03  0.86466534869E+03  0.12511592610E+04  0.25500000920E-02 0.  1.
</event>
<event>
 5   0  0.1650221E-04  0.2023586E+04  0.7818609E-02  0.8595672E-01
        1   -1    0    0  501    0  0.00000000000E+00  0.00000000000E+00  0.12950626301E+04  0.12950626301E+04  0.50400001928E-02 0.  1.
       -1   -1    0    0    0  501  0.00000000000E+00  0.00000000000E+00 -0.79048298817E+03  0.79048298818E+03  0.50400001928E-02 0. -1.
    10030    2    1    2    0    0  0.00000000000E+00  0.00000000000E+00  0.50457964192E+03  0.20855456183E+04  0.20235859040E+04 0.  0.
        1    1    3    3  502    0 -0.25544761337E+03 -0.54848296937E+03 -0.58348921632E+03  0.84056333280E+03  0.50400001928E-02 0. -1.
       -1    1    3    3    0  502  0.25544761337E+03  0.54848296937E+03  0.10880688582E+04  0.12449822855E+04  0.50400001928E-02 0.  1.
</event>
<event>
 5   0  0.3387881E-04  0.1975476E+04  0.7818609E-02  0.8618173E-01
       -2   -1    0    0    0  501  0.00000000000E+00  0.00000000000E+00  0.69832079551E+03  0.69832079552E+03  0.25500000920E-02 0. -1.
        2   -1    0    0  501    0  0.00000000000E+00  0.00000000000E+00 -0.13971039865E+04  0.13971039865E+04  0.25500000920E-02 0.  1.
    10030    2    1    2    0    0  0.00000000000E+00  0.00000000000E+00 -0.69878319097E+03  0.20954247820E+04  0.19754764157E+04 0.  0.
        1    1    3    3  502    0  0.41208794858E+03 -0.87683502262E+03 -0.14543926611E+03  0.97969827723E+03  0.50400001928E-02 0.  1.
       -1    1    3    3    0  502 -0.41208794858E+03  0.87683502262E+03 -0.55334392485E+03  0.11157265048E+04  0.50400001928E-02 0. -1.
</event>
<event>
 5   0  0.1222488E-04  0.1976048E+04  0.7818609E-02  0.8617901E-01
       -3   -1    0    0    0  501  0.00000000000E+00  0.00000000000E+00  0.71088843426E+03  0.71088844143E+03  0.10100000352E+00 0. -1.
        3   -1    0    0  501    0  0.00000000000E+00  0.00000000000E+00 -0.13731996840E+04  0.13731996877E+04  0.10100000352E+00 0.  1.
    10030    2    1    2    0    0  0.00000000000E+00  0.00000000000E+00 -0.66231124976E+03  0.20840881292E+04  0.19760483644E+04 0.  0.
        2    1    3    3  502    0 -0.83015436816E+03  0.30645153647E+03  0.13232914817E+03  0.89475126300E+03  0.25500000920E-02 0. -1.
       -2    1    3    3    0  502  0.83015436816E+03 -0.30645153647E+03 -0.79464039793E+03  0.11893368662E+04  0.25500000920E-02 0.  1.
</event>
<event>
 5   0  0.1664168E-04  0.2032521E+04  0.7818609E-02  0.8591565E-01
       -1   -1    0    0    0  501  0.00000000000E+00  0.00000000000E+00  0.10132444234E+04  0.10132444234E+04  0.50400001928E-02 0.  1.
        1   -1    0    0  501    0  0.00000000000E+00  0.00000000000E+00 -0.10192854078E+04  0.10192854078E+04  0.50400001928E-02 0. -1.
    10030    2    1    2    0    0  0.00000000000E+00  0.00000000000E+00 -0.60409844036E+01  0.20325298312E+04  0.20325208538E+04 0.  0.
        5    1    3    3  502    0  0.40081041152E+03  0.27079934056E+03  0.89072944637E+03  0.10136085563E+04  0.46999998093E+01 0.  1.
       -5    1    3    3    0  502 -0.40081041152E+03 -0.27079934056E+03 -0.89677043078E+03  0.10189212748E+04  0.46999998093E+01 0. -1.
</event>
<event>
 5   0  0.3371947E-04  0.1975880E+04  0.7818609E-02  0.8617981E-01
        2   -1    0    0  501    0  0.00000000000E+00  0.00000000000E+00  0.23718455740E+04  0.23718455740E+04  0.25500000920E-02 0. -1.
       -2   -1    0    0    0  501  0.00000000000E+00  0.00000000000E+00 -0.41150451120E+03  0.41150451120E+03  0.25500000920E-02 0.  1.
    10030    2    1    2    0    0  0.00000000000E+00  0.00000000000E+00  0.19603410628E+04  0.27833500852E+04  0.19758797064E+04 0.  0.
        2    1    3    3  502    0  0.77345850230E+03 -0.48047871233E+03  0.44021425799E+03  0.10113784854E+04  0.25500000920E-02 0. -1.
       -2    1    3    3    0  502 -0.77345850230E+03  0.48047871233E+03  0.15201268048E+04  0.17719715998E+04  0.25500000920E-02 0.  1.
</event>
<event>
 5   0  0.3371947E-04  0.2025594E+04  0.7818609E-02  0.8594747E-01
        2   -1    0    0  501    0  0.00000000000E+00  0.00000000000E+00  0.14181649356E+04  0.14181649356E+04  0.25500000920E-02 0. -1.
       -2   -1    0    0    0  501  0.00000000000E+00  0.00000000000E+00 -0.72329934866E+03  0.72329934867E+03  0.25500000920E-02 0.  1.
    10030    2    1    2    0    0  0.00000000000E+00  0.00000000000E+00  0.69486558694E+03  0.21414642843E+04  0.20255940109E+04 0.  0.
        2    1    3    3  502    0 -0.54350082905E+03 -0.39260368146E+03 -0.45508602090E+03  0.81032961707E+03  0.25500000920E-02 0.  1.
       -2    1    3    3    0  502  0.54350082905E+03  0.39260368146E+03  0.11499516078E+04  0.13311346672E+04  0.25500000920E-02 0. -1.
</event>
<event>
 5   0  0.1708578E-04  0.1861928E+04  0.7818609E-02  0.8674043E-01
       -1   -1    0    0    0  501  0.00000000000E+00  0.00000000000E+00  0.67299725315E+03  0.67299725317E+03  0.50400001928E-02 0. -1.
        1   -1    0    0  501    0  0.00000000000E+00  0.00000000000E+00 -0.12878119769E+04  0.12878119769E+04  0.50400001928E-02 0.  1.
    10030    2    1    2    0    0  0.00000000000E+00  0.00000000000E+00 -0.61481472374E+03  0.19608092301E+04  0.18619279503E+04 0.  0.
        3    1    3    3  502    0 -0.76803325200E+03  0.14131478892E+03 -0.84112478804E+03  0.11477525278E+04  0.10100000352E+00 0.  1.
       -3    1    3    3    0  502  0.76803325200E+03 -0.14131478892E+03  0.22631006430E+03  0.81305670230E+03  0.10100000352E+00 0. -1.
</event>
<event>
 5   0  0.3460648E-04  0.1982828E+04  0.7818609E-02  0.8614691E-01
       -2   -1    0    0    0  501  0.00000000000E+00  0.00000000000E+00  0.76221884259E+03  0.76221884260E+03  0.25500000920E-02 0. -1.
        2   -1    0    0  501    0  0.00000000000E+00  0.00000000000E+00 -0.12895269967E+04  0.12895269967E+04  0.25500000920E-02 0.  1.
    10030    2    1    2    0    0  0.00000000000E+00  0.00000000000E+00 -0.52730815409E+03  0.20517458393E+04  0.19828280560E+04 0.  0.
        5    1    3    3  502    0 -0.80622965286E+03 -0.13101486807E+03 -0.84506296741E+03  0.11752976890E+04  0.46999998093E+01 0.  1.
       -5    1    3    3    0  502  0.80622965286E+03  0.13101486807E+03  0.31775481332E+03  0.87644815032E+03  0.46999998093E+01 0. -1.
</event>
<event>
 5   0  0.1696052E-04  0.1917095E+04  0.7818609E-02  0.8646394E-01
        1   -1    0    0  501    0  0.00000000000E+00  0.00000000000E+00  0.15820543009E+04  0.15820543009E+04  0.50400001928E-02 0. -1.
       -1   -1    0    0    0  501  0.00000000000E+00  0.00000000000E+00 -0.58077208723E+03  0.58077208725E+03  0.50400001928E-02 0.  1.
    10030    2    1    2    0    0  0.00000000000E+00  0.00000000000E+00  0.10012822137E+04  0.21628263882E+04  0.19170946544E+04 0.  0.
        4    1    3    3  502    0 -0.20097625264E+03  0.65720081781E+03  0.12545037757E+04  0.14304145222E+04  0.12699999809E+01 0. -1.
       -4    1    3    3    0  502  0.20097625264E+03 -0.65720081781E+03 -0.25322156204E+03  0.73241186599E+03  0.12699999809E+01 0.  1.
</event>
<event>
 5   0  0.3371947E-04  0.2014047E+04  0.7818609E-02  0.8600081E-01
       -2   -1    0    0    0  501  0.00000000000E+00  0.00000000000E+00  0.81615091632E+03  0.81615091632E+03  0.25500000920E-02 0. -1.
        2   -1    0    0  501    0  0.00000000000E+00  0.00000000000E+00 -0.12425351326E+04  0.12425351326E+04  0.25500000920E-02 0.  1.
    10030    2    1    2    0    0  0.00000000000E+00  0.00000000000E+00 -0.42638421626E+03  0.20586860489E+04  0.20140468585E+04 0.  0.
        2    1    3    3  502    0  0.43859072682E+03  0.65670387507E+03  0.42553717009E+03  0.89705277901E+03  0.25500000920E-02 0. -1.
       -2    1    3    3    0  502 -0.43859072682E+03 -0.65670387507E+03 -0.85192138635E+03  0.11616332699E+04  0.25500000920E-02 0.  1.
</event>
<event>
 5   0  0.1664168E-04  0.2033625E+04  0.7818609E-02  0.8591059E-01
       -1   -1    0    0    0  501  0.00000000000E+00  0.00000000000E+00  0.67527443689E+03  0.67527443691E+03  0.50400001928E-02 0. -1.
        1   -1    0    0  501    0  0.00000000000E+00  0.00000000000E+00 -0.15310919649E+04  0.15310919649E+04  0.50400001928E-02 0.  1.
    10030    2    1    2    0    0  0.00000000000E+00  0.00000000000E+00 -0.85581752796E+03  0.22063664018E+04  0.20336246108E+04 0.  0.
        5    1    3    3  502    0  0.96965915504E+03  0.24972423251E+03 -0.23601152988E+03  0.10287490469E+04  0.46999998093E+01 0.  1.
       -5    1    3    3    0  502 -0.96965915504E+03 -0.24972423251E+03 -0.61980599808E+03  0.11776173549E+04  0.46999998093E+01 0. -1.
</event>
<event>
 5   0  0.1222488E-04  0.2018951E+04  0.7818609E-02  0.8597811E-01
        3   -1    0    0  501    0  0.00000000000E+00  0.00000000000E+00  0.70790403592E+03  0.70790404313E+03  0.10100000352E+00 0.  1.
       -3   -1    0    0    0  501  0.00000000000E+00  0.00000000000E+00 -0.14395189307E+04  0.14395189343E+04  0.10100000352E+00 0. -1.
    10030    2    1    2    0    0  0.00000000000E+00  0.00000000000E+00 -0.73161489479E+03  0.21474229774E+04  0.20189514827E+04 0.  0.
        2    1    3    3  502    0  0.96150158153E+03  0.26427981086E+03 -0.19860328289E+03  0.10167459730E+04  0.25500000920E-02 0.  1.
       -2    1    3    3    0  502 -0.96150158153E+03 -0.26427981086E+03 -0.53301161190E+03  0.11306770043E+04  0.25500000920E-02 0. -1.
</event>
<event>
 5   0  0.1643565E-04  0.1964126E+04  0.7818609E-02  0.8623579E-01
        1   -1    0    0  501    0  0.00000000000E+00  0.00000000000E+00  0.16371190210E+04  0.16371190210E+04  0.50400001928E-02 0. -1.
       -1   -1    0    0    0  501  0.00000000000E+00  0.00000000000E+00 -0.58911296976E+03  0.58911296978E+03  0.50400001928E-02 0.  1.
    10030    2    1    2    0    0  0.00000000000E+00  0.00000000000E+00  0.10480060512E+04  0.22262319908E+04  0.19641263181E+04 0.  0.
        2    1    3    3  502    0 -0.94517503304E+03  0.26536866229E+03  0.55337828224E+03  0.11269444943E+04  0.25500000920E-02 0. -1.
       -2    1    3    3    0  502  0.94517503304E+03 -0.26536866229E+03  0.49462776897E+03  0.10992874964E+04  0.25500000920E-02 0.  1.
</event>
<event>
 5   0  0.1664168E-04  0.1966407E+04  0.7818609E-02  0.8622489E-01
        1   -1    0    0  501    0  0.00000000000E+00  0.00000000000E+00  0.10806809950E+04  0.10806809950E+04  0.50400001928E-02 0.  1.
       -1   -1    0    0    0  501  0.00000000000E+00  0.00000000000E+00 -0.89451876961E+03  0.89451876962E+03  0.50400001928E-02 0. -1.
    10030    2    1    2    0    0  0.00000000000E+00  0.00000000000E+00  0.18616222540E+03  0.19751997646E+04  0.19664073169E+04 0.  0.
        5    1    3    3  502    0 -0.40679448191E+03  0.89470246028E+03  0.11952564113E+03  0.99009227440E+03  0.46999998093E+01 0. -1.
       -5    1    3    3    0  502  0.40679448191E+03 -0.89470246028E+03  0.66636584269E+02  0.98510749023E+03  0.46999998093E+01 0.  1.
</event>
<event>
 5   0  0.3371947E-04  0.1928006E+04  0.7818609E-02  0.8641040E-01
       -2   -1    0    0    0  501  0.00000000000E+00  0.00000000000E+00  0.47879296952E+03  0.47879296953E+03  0.25500000920E-02 0. -1.
        2   -1    0    0  501    0  0.00000000000E+00  0.00000000000E+00 -0.19409254722E+04  0.19409254722E+04  0.25500000920E-02 0.  1.
    10030    2    1    2    0    0  0.00000000000E+00  0.00000000000E+00 -0.14621325027E+04  0.24197184417E+04  0.19280056748E+04 0.  0.
        2    1    3    3  502    0  0.83451549081E+03 -0.28022294502E+03 -0.12241544049E+04  0.15078113311E+04  0.25500000920E-02 0.  1.
       -2    1    3    3    0  502 -0.83451549081E+03  0.28022294502E+03 -0.23797809780E+03  0.91190711060E+03  0.25500000920E-02 0. -1.
</event>
<event>
 5   0  0.3371947E-04  0.2011668E+04  0.7818609E-02  0.8601185E-01
       -2   -1    0    0    0  501  0.00000000000E+00  0.00000000000E+00  0.34410008189E+03  0.34410008190E+03  0.25500000920E-02 0.  1.
        2   -1    0    0  501    0  0.00000000000E+00  0.00000000000E+00 -0.29401401860E+04  0.29401401860E+04  0.25500000920E-02 0. -1.
    10030    2    1    2    0    0  0.00000000000E+00  0.00000000000E+00 -0.25960401041E+04  0.32842402679E+04  0.20116684407E+04 0.  0.
        2    1    3    3  502    0  0.94540802167E+03  0.26843795713E+03 -0.94844937439E+03  0.13658006736E+04  0.25500000920E-02 0.  1.
       -2    1    3    3    0  502 -0.94540802167E+03 -0.26843795713E+03 -0.16475907297E+04  0.19184395943E+04  0.25500000920E-02 0. -1.
</event>
<event>
 5   0  0.1696052E-04  0.1980273E+04  0.7818609E-02  0.8615900E-01
        1   -1    0    0  501    0  0.00000000000E+00  0.00000000000E+00  0.85372039064E+03  0.85372039066E+03  0.50400001928E-02 0.  1.
       -1   -1    0    0    0  501  0.00000000000E+00  0.00000000000E+00 -0.11483506299E+04  0.11483506299E+04  0.50400001928E-02 0. -1.
    10030    2    1    2    0    0  0.00000000000E+00  0.00000000000E+00 -0.29463023922E+03  0.20020710205E+04  0.19802730603E+04 0.  0.
        4    1    3    3  502    0 -0.98016846040E+03 -0.12643310238E+03 -0.20842210315E+03  0.10100281809E+04  0.12699999809E+01 0. -1.
       -4    1    3    3    0  502  0.98016846040E+03  0.12643310238E+03 -0.86208136069E+02  0.99204283968E+03  0.12699999809E+01 0.  1.
</event>
<event>
 5   0  0.3395569E-04  0.1937524E+04  0.7818609E-02  0.8636400E-01
       -2   -1    0    0    0  501  0.00000000000E+00  0.00000000000E+00  0.45526947354E+03  0.45526947355E+03  0.25500000920E-02 0.  1.
        2   -1    0    0  501    0  0.00000000000E+00  0.00000000000E+00 -0.20614159838E+04  0.20614159838E+04  0.25500000920E-02 0. -1.
    10030    2    1    2    0    0  0.00000000000E+00  0.00000000000E+00 -0.16061465103E+04  0.25166854574E+04  0.19375239557E+04 0.  0.
        4    1    3    3  502    0 -0.56402811820E+03 -0.68340868157E+03 -0.29446251030E+03  0.93374778556E+03  0.12699999809E+01 0. -1.
       -4    1    3    3    0  502  0.56402811820E+03  0.68340868157E+03 -0.13116840000E+04  0.15829376718E+04  0.12699999809E+01 0.  1.
</event>
<event>
 5   0  0.1222488E-04  0.1989587E+04  0.7818609E-02  0.8611505E-01
        3   -1    0    0  501    0  0.00000000000E+00  0.00000000000E+00  0.11201400347E+04  0.11201400392E+04  0.10100000352E+00 0. -1.
       -3   -1    0    0    0  501  0.00000000000E+00  0.00000000000E+00 -0.88347317073E+03  0.88347317650E+03  0.10100000352E+00 0.  1.
    10030    2    1    2    0    0  0.00000000000E+00  0.00000000000E+00  0.23666686394E+03  0.20036132157E+04  0.19895865685E+04 0.  0.
        3    1    3    3  502    0  0.79304579842E+03 -0.51518936540E+03  0.42917104760E+03  0.10385227580E+04  0.10100000352E+00 0.  1.
       -3    1    3    3    0  502 -0.79304579842E+03  0.51518936540E+03 -0.19250418366E+03  0.96509045770E+03  0.10100000352E+00 0. -1.
</event>
<event>
 5   0  0.1222488E-04  0.1101433E+04  0.7818609E-02  0.9203797E-01
        3   -1    0    0  501    0  0.00000000000E+00  0.00000000000E+00  0.64649211544E+03  0.64649212333E+03  0.10100000352E+00 0.  1.
       -3   -1    0    0    0  501  0.00000000000E+00  0.00000000000E+00 -0.46912951076E+03  0.46912952163E+03  0.10100000352E+00 0. -1.
    10030    2    1    2    0    0  0.00000000000E+00  0.00000000000E+00  0.17736260469E+03  0.11156216450E+04  0.11014327765E+04 0.  0.
        2    1    3    3  502    0 -0.41493285417E+03 -0.36010510592E+03  0.12716522124E+03  0.56392903301E+03  0.25500000920E-02 0. -1.
       -2    1    3    3    0  502  0.41493285417E+03  0.36010510592E+03  0.50197383445E+02  0.55169261195E+03  0.25500000920E-02 0.  1.
</event>
<event>
 5   0  0.1708578E-04  0.1992882E+04  0.7818609E-02  0.8609956E-01
       -1   -1    0    0    0  501  0.00000000000E+00  0.00000000000E+00  0.18565251750E+04  0.18565251750E+04  0.50400001928E-02 0.  1.
        1   -1    0    0  501    0  0.00000000000E+00  0.00000000000E+00 -0.53481371791E+03  0.53481371793E+03  0.50400001928E-02 0. -1.
    10030    2    1    2    0    0  0.00000000000E+00  0.00000000000E+00  0.13217114571E+04  0.23913388929E+04  0.19928824664E+04 0.  0.
        3    1    3    3  502    0  0.73786850139E+03  0.32351200823E+03  0.13644187644E+04  0.15845341649E+04  0.10100000352E+00 0.  1.
       -3    1    3    3    0  502 -0.73786850139E+03 -0.32351200823E+03 -0.42707307381E+02  0.80680472799E+03  0.10100000352E+00 0. -1.
</event>
<event>
 5   0  0.3371947E-04  0.2046800E+04  0.7818609E-02  0.8585048E-01
        2   -1    0    0  501    0  0.00000000000E+00  0.00000000000E+00  0.25297966957E+04  0.25297966957E+04  0.25500000920E-02 0.  1.
       -2   -1    0    0    0  501  0.00000000000E+00  0.00000000000E+00 -0.41400449597E+03  0.41400449598E+03  0.25500000920E-02 0. -1.
    10030    2    1    2    0    0  0.00000000000E+00  0.00000000000E+00  0.21157921997E+04  0.29438011917E+04  0.20467996540E+04 0.  0.
        2    1    3    3  502    0 -0.87219517022E+03 -0.11385863208E+03  0.18102774329E+04  0.20126580900E+04  0.25500000920E-02 0.  1.
       -2    1    3    3    0  502  0.87219517022E+03  0.11385863208E+03  0.30551476678E+03  0.93114310166E+03  0.25500000920E-02 0. -1.
</event>
<event>
 5   0  0.1650221E-04  0.1986713E+04  0.7818609E-02  0.8612858E-01
       -1   -1    0    0    0  501  0.00000000000E+00  0.00000000000E+00  0.82631199399E+03  0.82631199400E+03  0.50400001928E-02 0.  1.
        1   -1    0    0  501    0  0.00000000000E+00  0.00000000000E+00 -0.11941703462E+04  0.11941703462E+04  0.50400001928E-02 0. -1.
    10030    2    1    2    0    0  0.00000000000E+00  0.00000000000E+00 -0.36785835222E+03  0.20204823402E+04  0.19867131448E+04 0.  0.
        1    1    3    3  502    0 -0.43349267591E+02  0.68535701239E+03  0.54601996035E+03  0.87734325698E+03  0.50400001928E-02 0.  1.
       -1    1    3    3    0  502  0.43349267591E+02 -0.68535701239E+03 -0.91387831257E+03  0.11431390832E+04  0.50400001928E-02 0. -1.
</event>
<event>
 5   0  0.3371947E-04  0.1985945E+04  0.7818609E-02  0.8613220E-01
        2   -1    0    0  501    0  0.00000000000E+00  0.00000000000E+00  0.17799343005E+04  0.17799343005E+04  0.25500000920E-02 0.  1.
       -2   -1    0    0    0  501  0.00000000000E+00  0.00000000000E+00 -0.55394970893E+03  0.55394970894E+03  0.25500000920E-02 0. -1.
    10030    2    1    2    0    0  0.00000000000E+00  0.00000000000E+00  0.12259845916E+04  0.23338840094E+04  0.19859446998E+04 0.  0.
        2    1    3    3  502    0  0.74323118538E+03  0.63449708943E+03  0.81995760845E+03  0.12756604686E+04  0.25500000920E-02 0. -1.
       -2    1    3    3    0  502 -0.74323118538E+03 -0.63449708943E+03  0.40602698313E+03  0.10582235409E+04  0.25500000920E-02 0.  1.
</event>
<event>
 5   0  0.3371947E-04  0.1941177E+04  0.7818609E-02  0.8634627E-01
       -2   -1    0    0    0  501  0.00000000000E+00  0.00000000000E+00  0.61608825426E+03  0.61608825427E+03  0.25500000920E-02 0. -1.
        2   -1    0    0  501    0  0.00000000000E+00  0.00000000000E+00 -0.15290696249E+04  0.15290696249E+04  0.25500000920E-02 0.  1.
    10030    2    1    2    0    0  0.00000000000E+00  0.00000000000E+00 -0.91298137068E+03  0.21451578792E+04  0.19411767935E+04 0.  0.
        2    1    3    3  502    0 -0.79508300637E+03 -0.55285829908E+03 -0.38459625957E+03  0.10419805990E+04  0.25500000920E-02 0. -1.
       -2    1    3    3    0  502  0.79508300637E+03  0.55285829908E+03 -0.52838511111E+03  0.11031772802E+04  0.25500000920E-02 0.  1.
</event>
<event>
 5   0  0.1708578E-04  0.1989303E+04  0.7818609E-02  0.8611638E-01
        1   -1    0    0  501    0  0.00000000000E+00  0.00000000000E+00  0.15320502741E+04  0.15320502741E+04  0.50400001928E-02 0.  1.
       -1   -1    0    0    0  501  0.00000000000E+00  0.00000000000E+00 -0.64575662723E+03  0.64575662725E+03  0.50400001928E-02 0. -1.
    10030    2    1    2    0    0  0.00000000000E+00  0.00000000000E+00  0.88629364688E+03  0.21778069014E+04  0.19893030114E+04 0.  0.
        3    1    3    3  502    0  0.75740093510E+03  0.41663153751E+03 -0.95507410348E+02  0.86968942167E+03  0.10100000352E+00 0. -1.
       -3    1    3    3    0  502 -0.75740093510E+03 -0.41663153751E+03  0.98180105723E+03  0.13081174797E+04  0.10100000352E+00 0.  1.
</event>
<event>
 5   0  0.1650221E-04  0.2052715E+04  0.7818609E-02  0.8582364E-01
        1   -1    0    0  501    0  0.00000000000E+00  0.00000000000E+00  0.29384215985E+04  0.29384215985E+04  0.50400001928E-02 0.  1.
       -1   -1    0    0    0  501  0.00000000000E+00  0.00000000000E+00 -0.35849507765E+03  0.35849507769E+03  0.50400001928E-02 0. -1.
    10030    2    1    2    0    0  0.00000000000E+00  0.00000000000E+00  0.25799265208E+04  0.32969166762E+04  0.20527149624E+04 0.  0.
        1    1    3    3  502    0  0.47149512936E+03  0.55185642253E+03  0.12449133351E+03  0.73644501508E+03  0.50400001928E-02 0. -1.
       -1    1    3    3    0  502 -0.47149512936E+03 -0.55185642253E+03  0.24554351873E+04  0.25604716611E+04  0.50400001928E-02 0.  1.
</event>
<event>
 5   0  0.1708578E-04  0.2006048E+04  0.7818609E-02  0.8603798E-01
        1   -1    0    0  501    0  0.00000000000E+00  0.00000000000E+00  0.18268561225E+04  0.18268561225E+04  0.50400001928E-02 0.  1.
       -1   -1    0    0    0  501  0.00000000000E+00  0.00000000000E+00 -0.55070382801E+03  0.55070382803E+03  0.50400001928E-02 0. -1.
    10030    2    1    2    0    0  0.00000000000E+00  0.00000000000E+00  0.12761522945E+04  0.23775599506E+04  0.20060475168E+04 0.  0.
        3    1    3    3  502    0  0.84707472365E+03  0.44764662597E+03  0.98992887201E+03  0.13776364800E+04  0.10100000352E+00 0. -1.
       -3    1    3    3    0  502 -0.84707472365E+03 -0.44764662597E+03  0.28622342251E+03  0.99992347056E+03  0.10100000352E+00 0.  1.
</event>
<event>
 5   0  0.1222488E-04  0.1809695E+04  0.7818609E-02  0.8701161E-01
       -3   -1    0    0    0  501  0.00000000000E+00  0.00000000000E+00  0.95523265940E+03  0.95523266474E+03  0.10100000352E+00 0.  1.
        3   -1    0    0  501    0  0.00000000000E+00  0.00000000000E+00 -0.85711979379E+03  0.85711979974E+03  0.10100000352E+00 0. -1.
    10030    2    1    2    0    0  0.00000000000E+00  0.00000000000E+00  0.98112865612E+02  0.18123524645E+04  0.18096948144E+04 0.  0.
        1    1    3    3  502    0 -0.79124186592E+03  0.41449225794E+03  0.19377230623E+03  0.91401051907E+03  0.50400001928E-02 0.  1.
       -1    1    3    3    0  502  0.79124186592E+03 -0.41449225794E+03 -0.95659440623E+02  0.89834194541E+03  0.50400001928E-02 0. -1.
</event>
<event>
 5   0  0.1696052E-04  0.2140656E+04  0.7818609E-02  0.8543543E-01
        1   -1    0    0  501    0  0.00000000000E+00  0.00000000000E+00  0.92879133973E+03  0.92879133974E+03  0.50400001928E-02 0.  1.
       -1   -1    0    0    0  501  0.00000000000E+00  0.00000000000E+00 -0.12334327148E+04  0.12334327148E+04  0.50400001928E-02 0. -1.
    10030    2    1    2    0    0  0.00000000000E+00  0.00000000000E+00 -0.30464137508E+03  0.21622240546E+04  0.21406556226E+04 0.  0.
        4    1    3    3  502    0 -0.92929468576E+03 -0.48962795481E+03  0.55361922383E+02  0.10518510838E+04  0.12699999809E+01 0. -1.
       -4    1    3    3    0  502  0.92929468576E+03  0.48962795481E+03 -0.36000329746E+03  0.11103729708E+04  0.12699999809E+01 0.  1.
</event>
<event>
 5   0  0.1696052E-04  0.2096723E+04  0.7818609E-02  0.8562688E-01
       -1   -1    0    0    0  501  0.00000000000E+00  0.00000000000E+00  0.91444365521E+03  0.91444365523E+03  0.50400001928E-02 0. -1.
        1   -1    0    0  501    0  0.00000000000E+00  0.00000000000E+00 -0.12018916756E+04  0.12018916756E+04  0.50400001928E-02 0.  1.
    10030    2    1    2    0    0  0.00000000000E+00  0.00000000000E+00 -0.28744802039E+03  0.21163353308E+04  0.20967233647E+04 0.  0.
        4    1    3    3  502    0  0.89101558614E+03  0.25753748085E+03  0.34954564592E+03  0.99117006627E+03  0.12699999809E+01 0. -1.
       -4    1    3    3    0  502 -0.89101558614E+03 -0.25753748085E+03 -0.63699366631E+03  0.11251652646E+04  0.12699999809E+01 0.  1.
</event>
<event>
 5   0  0.3387881E-04  0.2021839E+04  0.7818609E-02  0.8596478E-01
       -2   -1    0    0    0  501  0.00000000000E+00  0.00000000000E+00  0.61024519055E+03  0.61024519056E+03  0.25500000920E-02 0. -1.
        2   -1    0    0  501    0  0.00000000000E+00  0.00000000000E+00 -0.16746681773E+04  0.16746681773E+04  0.25500000920E-02 0.  1.
    10030    2    1    2    0    0  0.00000000000E+00  0.00000000000E+00 -0.10644229868E+04  0.22849133679E+04  0.20218389659E+04 0.  0.
        1    1    3    3  502    0  0.38421396664E+03 -0.90453273892E+03 -0.80002369371E+03  0.12672165397E+04  0.50400001928E-02 0.  1.
       -1    1    3    3    0  502 -0.38421396664E+03  0.90453273892E+03 -0.26439929306E+03  0.10176968282E+04  0.50400001928E-02 0. -1.
</event>
<event>
 5   0  0.3431030E-04  0.1763456E+04  0.7818609E-02  0.8725978E-01
       -2   -1    0    0    0  501  0.00000000000E+00  0.00000000000E+00  0.71136011093E+03  0.71136011093E+03  0.25500000920E-02 0. -1.
        2   -1    0    0  501    0  0.00000000000E+00  0.00000000000E+00 -0.10928979244E+04  0.10928979244E+04  0.25500000920E-02 0.  1.
    10030    2    1    2    0    0  0.00000000000E+00  0.00000000000E+00 -0.38153781346E+03  0.18042580353E+04  0.17634556856E+04 0.  0.
        3    1    3    3  502    0 -0.94412875944E+01  0.80970708838E+03  0.16620100285E+03  0.82664229896E+03  0.10100000352E+00 0. -1.
       -3    1    3    3    0  502  0.94412875944E+01 -0.80970708838E+03 -0.54773881631E+03  0.97761573636E+03  0.10100000352E+00 0.  1.
</event>
<event>
 5   0  0.1222488E-04  0.2083057E+04  0.7818609E-02  0.8568744E-01
       -3   -1    0    0    0  501  0.00000000000E+00  0.00000000000E+00  0.97465063134E+03  0.97465063658E+03  0.10100000352E+00 0.  1.
        3   -1    0    0  501    0  0.00000000000E+00  0.00000000000E+00 -0.11129949977E+04  0.11129950023E+04  0.10100000352E+00 0. -1.
    10030    2    1    2    0    0  0.00000000000E+00  0.00000000000E+00 -0.13834436638E+03  0.20876456389E+04  0.20830566843E+04 0.  0.
        2    1    3    3  502    0  0.37409135770E+03  0.47963381955E+03  0.77814190020E+03  0.98767290213E+03  0.25500000920E-02 0.  1.
       -2    1    3    3    0  502 -0.37409135770E+03 -0.47963381955E+03 -0.91648626658E+03  0.10999727367E+04  0.25500000920E-02 0. -1.
</event>
<event>
 5   0  0.3371947E-04  0.1966252E+04  0.7818609E-02  0.8622564E-01
        2   -1    0    0  501    0  0.00000000000E+00  0.00000000000E+00  0.10423262771E+04  0.10423262771E+04  0.25500000920E-02 0.  1.
       -2   -1    0    0    0  501  0.00000000000E+00  0.00000000000E+00 -0.92728765459E+03  0.92728765460E+03  0.25500000920E-02 0. -1.
    10030    2    1    2    0    0  0.00000000000E+00  0.00000000000E+00  0.11503862252E+03  0.19696139317E+04  0.19662515494E+04 0.  0.
        2    1    3    3  502    0  0.50124633965E+03  0.70612006110E+03 -0.40876875899E+03  0.95757262494E+03  0.25500000920E-02 0. -1.
       -2    1    3    3    0  502 -0.50124633965E+03 -0.70612006110E+03  0.52380738151E+03  0.10120413068E+04  0.25500000920E-02 0.  1.
</event>
<event>
 5   0  0.3395569E-04  0.1280511E+04  0.7818609E-02  0.9045164E-01
        2   -1    0    0  501    0  0.00000000000E+00  0.00000000000E+00  0.15325042627E+04  0.15325042627E+04  0.25500000920E-02 0. -1.
       -2   -1    0    0    0  501  0.00000000000E+00  0.00000000000E+00 -0.26748851241E+03  0.26748851242E+03  0.25500000920E-02 0.  1.
    10030    2    1    2    0    0  0.00000000000E+00  0.00000000000E+00  0.12650157503E+04  0.17999927752E+04  0.12805112815E+04 0.  0.
        4    1    3    3  502    0  0.43736516513E+03 -0.17776722773E+03  0.12404331299E+04  0.13272397815E+04  0.12699999809E+01 0. -1.
       -4    1    3    3    0  502 -0.43736516513E+03  0.17776722773E+03  0.24582620460E+02  0.47275299370E+03  0.12699999809E+01 0.  1.
</event>
<event>
 5   0  0.1696052E-04  0.2020623E+04  0.7818609E-02  0.8597039E-01
        1   -1    0    0  501    0  0.00000000000E+00  0.00000000000E+00  0.61016824995E+03  0.61016824997E+03  0.50400001928E-02 0. -1.
       -1   -1    0    0    0  501  0.00000000000E+00  0.00000000000E+00 -0.16728655058E+04  0.16728655058E+04  0.50400001928E-02 0.  1.
    10030    2    1    2    0    0  0.00000000000E+00  0.00000000000E+00 -0.10626972559E+04  0.22830337558E+04  0.20206230902E+04 0.  0.
        4    1    3    3  502    0  0.83726125199E+03 -0.17791108138E+03  0.75073891231E+02  0.85924179310E+03  0.12699999809E+01 0. -1.
       -4    1    3    3    0  502 -0.83726125199E+03  0.17791108138E+03 -0.11377711471E+04  0.14237919627E+04  0.12699999809E+01 0.  1.
</event>
<event>
 5   0  0.3460648E-04  0.1903758E+04  0.7818609E-02  0.8652988E-01
        2   -1    0    0  501    0  0.00000000000E+00  0.00000000000E+00  0.69072928978E+03  0.69072928978E+03  0.25500000920E-02 0.  1.
       -2   -1    0    0    0  501  0.00000000000E+00  0.00000000000E+00 -0.13117640929E+04  0.13117640929E+04  0.25500000920E-02 0. -1.
    10030    2    1    2    0    0  0.00000000000E+00  0.00000000000E+00 -0.62103480310E+03  0.20024933827E+04  0.19037582622E+04 0.  0.
        5    1    3    3  502    0  0.45633702096E+03  0.60825537486E+03 -0.91278027845E+03  0.11880269376E+04  0.46999998093E+01 0. -1.
       -5    1    3    3    0  502 -0.45633702096E+03 -0.60825537486E+03  0.29174547535E+03  0.81446644506E+03  0.46999998093E+01 0.  1.
</event>
<event>
 5   0  0.3431030E-04  0.2365253E+04  0.7818609E-02  0.8452628E-01
       -2   -1    0    0    0  501  0.00000000000E+00  0.00000000000E+00  0.12597646634E+04  0.12597646634E+04  0.25500000920E-02 0.  1.
        2   -1    0    0  501    0  0.00000000000E+00  0.00000000000E+00 -0.11102113757E+04  0.11102113757E+04  0.25500000920E-02 0. -1.
    10030    2    1    2    0    0  0.00000000000E+00  0.00000000000E+00  0.14955328764E+03  0.23699760391E+04  0.23652526799E+04 0.  0.
        3    1    3    3  502    0  0.75718474477E+03 -0.33727879640E+03 -0.77042388912E+03  0.11316530844E+04  0.10100000352E+00 0. -1.
       -3    1    3    3    0  502 -0.75718474477E+03  0.33727879640E+03  0.91997717676E+03  0.12383229547E+04  0.10100000352E+00 0.  1.
</event>
<event>
 5   0  0.1696052E-04  0.2049890E+04  0.7818609E-02  0.8583644E-01
        1   -1    0    0  501    0  0.00000000000E+00  0.00000000000E+00  0.19383974089E+04  0.19383974089E+04  0.50400001928E-02 0. -1.
       -1   -1    0    0    0  501  0.00000000000E+00  0.00000000000E+00 -0.54194908066E+03  0.54194908069E+03  0.50400001928E-02 0.  1.
    10030    2    1    2    0    0  0.00000000000E+00  0.00000000000E+00  0.13964483282E+04  0.24803464895E+04  0.20498904300E+04 0.  0.
        4    1    3    3  502    0 -0.76953815414E+03  0.66911310164E+03  0.57359070857E+03  0.11700039433E+04  0.12699999809E+01 0. -1.
       -4    1    3    3    0  502  0.76953815414E+03 -0.66911310164E+03  0.82285761961E+03  0.13103425463E+04  0.12699999809E+01 0.  1.
</event>
<event>
 5   0  0.1708578E-04  0.1852414E+04  0.7818609E-02  0.8678912E-01
       -1   -1    0    0    0  501  0.00000000000E+00  0.00000000000E+00  0.56795081439E+03  0.56795081441E+03  0.50400001928E-02 0.  1.
        1   -1    0    0  501    0  0.00000000000E+00  0.00000000000E+00 -0.15104469414E+04  0.15104469415E+04  0.50400001928E-02 0. -1.
    10030    2    1    2    0    0  0.00000000000E+00  0.00000000000E+00 -0.94249612705E+03  0.20783977559E+04  0.18524141767E+04 0.  0.
        3    1    3    3  502    0 -0.67719936350E+03 -0.34493495641E+03  0.12275266578E+03  0.76983591059E+03  0.10100000352E+00 0.  1.
       -3    1    3    3    0  502  0.67719936350E+03  0.34493495641E+03 -0.10652487928E+04  0.13085618453E+04  0.10100000352E+00 0. -1.
</event>
<event>
 5   0  0.3395569E-04  0.2002375E+04  0.7818609E-02  0.8605511E-01
        2   -1    0    0  501    0  0.00000000000E+00  0.00000000000E+00  0.21835470145E+04  0.21835470145E+04  0.25500000920E-02 0. -1.
       -2   -1    0    0    0  501  0.00000000000E+00  0.00000000000E+00 -0.45905890094E+03  0.45905890095E+03  0.25500000920E-02 0.  1.
    10030    2    1    2    0    0  0.00000000000E+00  0.00000000000E+00  0.17244881135E+04  0.26426059154E+04  0.20023752821E+04 0.  0.
        4    1    3    3  502    0  0.82818550680E+03  0.29925816692E+03  0.23356159000E+03  0.91104298107E+03  0.12699999809E+01 0.  1.
       -4    1    3    3    0  502 -0.82818550680E+03 -0.29925816692E+03  0.14909265235E+04  0.17315629343E+04  0.12699999809E+01 0. -1.
</event>
<event>
 5   0  0.3431030E-04  0.1815464E+04  0.7818609E-02  0.8698119E-01
       -2   -1    0    0    0  501  0.00000000000E+00  0.00000000000E+00  0.51622952973E+03  0.51622952974E+03  0.25500000920E-02 0. -1.
        2   -1    0    0  501    0  0.00000000000E+00  0.00000000000E+00 -0.15961461003E+04  0.15961461003E+04  0.25500000920E-02 0.  1.
    10030    2    1    2    0    0  0.00000000000E+00  0.00000000000E+00 -0.10799165705E+04  0.21123756300E+04  0.18154644042E+04 0.  0.
        3    1    3    3  502    0  0.50180043044E+03 -0.66998376727E+03 -0.13139664610E+03  0.84731753741E+03  0.10100000352E+00 0. -1.
       -3    1    3    3    0  502 -0.50180043044E+03  0.66998376727E+03 -0.94851992445E+03  0.12650580926E+04  0.10100000352E+00 0.  1.
</event>
<event>
 5   0  0.3371947E-04  0.1996427E+04  0.7818609E-02  0.8608293E-01
        2   -1    0    0  501    0  0.00000000000E+00  0.00000000000E+00  0.13886546622E+04  0.13886546622E+04  0.25500000920E-02 0. -1.
       -2   -1    0    0    0  501  0.00000000000E+00  0.00000000000E+00 -0.71755075739E+03  0.71755075740E+03  0.25500000920E-02 0.  1.
    10030    2    1    2    0    0  0.00000000000E+00  0.00000000000E+00  0.67110390478E+03  0.21062054196E+04  0.19964270130E+04 0.  0.
        2    1    3    3  502    0 -0.54423471676E+02  0.99609341901E+03  0.29801172586E+03  0.10411412020E+04  0.25500000920E-02 0. -1.
       -2    1    3    3    0  502  0.54423471676E+02 -0.99609341901E+03  0.37309217892E+03  0.10650642176E+04  0.25500000920E-02 0.  1.
</event>
<event>
 5   0  0.3371947E-04  0.1956832E+04  0.7818609E-02  0.8627073E-01
        2   -1    0    0  501    0  0.00000000000E+00  0.00000000000E+00  0.12552910220E+04  0.12552910220E+04  0.25500000920E-02 0.  1.
       -2   -1    0    0    0  501  0.00000000000E+00  0.00000000000E+00 -0.76261027388E+03  0.76261027389E+03  0.25500000920E-02 0. -1.
    10030    2    1    2    0    0  0.00000000000E+00  0.00000000000E+00  0.49268074814E+03  0.20179012959E+04  0.19568319602E+04 0.  0.
        2    1    3    3  502    0 -0.79410047893E+03 -0.30338491682E+03 -0.25319446459E+03  0.88698670526E+03  0.25500000920E-02 0. -1.
       -2    1    3    3    0  502  0.79410047893E+03  0.30338491682E+03  0.74587521273E+03  0.11309145907E+04  0.25500000920E-02 0.  1.
</event>
<event>
 5   0  0.3395569E-04  0.2011752E+04  0.7818609E-02  0.8601146E-01
       -2   -1    0    0    0  501  0.00000000000E+00  0.00000000000E+00  0.71060242958E+03  0.71060242959E+03  0.25500000920E-02 0.  1.
        2   -1    0    0  501    0  0.00000000000E+00  0.00000000000E+00 -0.14238439823E+04  0.14238439823E+04  0.25500000920E-02 0. -1.
    10030    2    1    2    0    0  0.00000000000E+00  0.00000000000E+00 -0.71324155275E+03  0.21344464119E+04  0.20117524631E+04 0.  0.
        4    1    3    3  502    0 -0.53294089946E+03  0.80997981378E+03 -0.64070446746E+03  0.11621519387E+04  0.12699999809E+01 0. -1.
       -4    1    3    3    0  502  0.53294089946E+03 -0.80997981378E+03 -0.72537085291E+02  0.97229447324E+03  0.12699999809E+01 0.  1.
</event>
<event>
 5   0  0.3460648E-04  0.1981585E+04  0.7818609E-02  0.8615279E-01
        2   -1    0    0  501    0  0.00000000000E+00  0.00000000000E+00  0.11068386247E+04  0.11068386247E+04  0.25500000920E-02 0.  1.
       -2   -1    0    0    0  501  0.00000000000E+00  0.00000000000E+00 -0.88691342987E+03  0.88691342987E+03  0.25500000920E-02 0. -1.
    10030    2    1    2    0    0  0.00000000000E+00  0.00000000000E+00  0.21992519482E+03  0.19937520546E+04  0.19815852653E+04 0.  0.
        5    1    3    3  502    0 -0.10308757703E+03 -0.51779443871E+03  0.95350746917E+03  0.10899250952E+04  0.46999998093E+01 0.  1.
       -5    1    3    3    0  502  0.10308757703E+03  0.51779443871E+03 -0.73358227435E+03  0.90382695940E+03  0.46999998093E+01 0. -1.
</event>
<event>
 5   0  0.3460648E-04  0.1912247E+04  0.7818609E-02  0.8648784E-01
       -2   -1    0    0    0  501  0.00000000000E+00  0.00000000000E+00  0.56859563394E+03  0.56859563395E+03  0.25500000920E-02 0.  1.
        2   -1    0    0  501    0  0.00000000000E+00  0.00000000000E+00 -0.16077719078E+04  0.16077719078E+04  0.25500000920E-02 0. -1.
    10030    2    1    2    0    0  0.00000000000E+00  0.00000000000E+00 -0.10391762738E+04  0.21763675417E+04  0.19122469371E+04 0.  0.
        5    1    3    3  502    0  0.59253397324E+03  0.11921034687E+03 -0.13627521963E+04  0.14907794118E+04  0.46999998093E+01 0. -1.
       -5    1    3    3    0  502 -0.59253397324E+03 -0.11921034687E+03  0.32357592247E+03  0.68558812989E+03  0.46999998093E+01 0.  1.
</event>
<event>
 5   0  0.3431030E-04  0.2146564E+04  0.7818609E-02  0.8541005E-01
       -2   -1    0    0    0  501  0.00000000000E+00  0.00000000000E+00  0.52592014720E+03  0.52592014721E+03  0.25500000920E-02 0. -1.
        2   -1    0    0  501    0  0.00000000000E+00  0.00000000000E+00 -0.21903207085E+04  0.21903207085E+04  0.25500000920E-02 0.  1.
    10030    2    1    2    0    0  0.00000000000E+00  0.00000000000E+00 -0.16644005612E+04  0.27162408557E+04  0.21465635695E+04 0.  0.
        3    1    3    3  502    0  0.22771946846E+02 -0.63354234076E+03  0.26368864583E+03  0.68660481446E+03  0.10100000352E+00 0. -1.
       -3    1    3    3    0  502 -0.22771946846E+02  0.63354234076E+03 -0.19280892071E+04  0.20296360412E+04  0.10100000352E+00 0.  1.
</event>
<event>
 5   0  0.1650221E-04  0.2031000E+04  0.7818609E-02  0.8592263E-01
        1   -1    0    0  501    0  0.00000000000E+00  0.00000000000E+00  0.17420068611E+04  0.17420068611E+04  0.50400001928E-02 0. -1.
       -1   -1    0    0    0  501  0.00000000000E+00  0.00000000000E+00 -0.59198416952E+03  0.59198416954E+03  0.50400001928E-02 0.  1.
    10030    2    1    2    0    0  0.00000000000E+00  0.00000000000E+00  0.11500226915E+04  0.23339910306E+04  0.20310002314E+04 0.  0.
        1    1    3    3  502    0  0.78560408618E+03  0.34657597980E+03 -0.48044920309E+02  0.85999825837E+03  0.50400001928E-02 0. -1.
       -1    1    3    3    0  502 -0.78560408618E+03 -0.34657597980E+03  0.11980676119E+04  0.14739927722E+04  0.50400001928E-02 0.  1.
</event>
<event>
 5   0  0.1650221E-04  0.2002095E+04  0.7818609E-02  0.8605642E-01
        1   -1    0    0  501    0  0.00000000000E+00  0.00000000000E+00  0.17696719099E+04  0.17696719099E+04  0.50400001928E-02 0.  1.
       -1   -1    0    0    0  501  0.00000000000E+00  0.00000000000E+00 -0.56626112374E+03  0.56626112376E+03  0.50400001928E-02 0. -1.
    10030    2    1    2    0    0  0.00000000000E+00  0.00000000000E+00  0.12034107861E+04  0.23359330336E+04  0.20020953068E+04 0.  0.
        1    1    3    3  502    0  0.25111057208E+03 -0.20512658031E+03 -0.50329618439E+03  0.59869899165E+03  0.50400001928E-02 0. -1.
       -1    1    3    3    0  502 -0.25111057208E+03  0.20512658031E+03  0.17067069705E+04  0.17372340420E+04  0.50400001928E-02 0.  1.
</event>
<event>
 5   0  0.3371947E-04  0.2228074E+04  0.7818609E-02  0.8506833E-01
       -2   -1    0    0    0  501  0.00000000000E+00  0.00000000000E+00  0.16511270210E+04  0.16511270210E+04  0.25500000920E-02 0. -1.
        2   -1    0    0  501    0  0.00000000000E+00  0.00000000000E+00 -0.75165558703E+03  0.75165558703E+03  0.25500000920E-02 0.  1.
    10030    2    1    2    0    0  0.00000000000E+00  0.00000000000E+00  0.89947143397E+03  0.24027826080E+04  0.22280743706E+04 0.  0.
        2    1    3    3  502    0  0.91483358350E+03 -0.29070852809E+03  0.10594411379E+04  0.14296319311E+04  0.25500000920E-02 0. -1.
       -2    1    3    3    0  502 -0.91483358350E+03  0.29070852809E+03 -0.15996970393E+03  0.97315067691E+03  0.25500000920E-02 0.  1.
</event>
<event>
 5   0  0.3395569E-04  0.1986577E+04  0.7818609E-02  0.8612922E-01
       -2   -1    0    0    0  501  0.00000000000E+00  0.00000000000E+00  0.53530224135E+03  0.53530224136E+03  0.25500000920E-02 0. -1.
        2   -1    0    0  501    0  0.00000000000E+00  0.00000000000E+00 -0.18431116181E+04  0.18431116181E+04  0.25500000920E-02 0.  1.
    10030    2    1    2    0    0  0.00000000000E+00  0.00000000000E+00 -0.13078093767E+04  0.23784138595E+04  0.19865767342E+04 0.  0.
        4    1    3    3  502    0  0.25262202806E+03  0.96043032894E+03 -0.63069357222E+03  0.11764439216E+04  0.12699999809E+01 0. -1.
       -4    1    3    3    0  502 -0.25262202806E+03 -0.96043032894E+03 -0.67711580452E+03  0.12019699378E+04  0.12699999809E+01 0.  1.
</event>
<event>
 5   0  0.1664168E-04  0.2055051E+04  0.7818609E-02  0.8581306E-01
       -1   -1    0    0    0  501  0.00000000000E+00  0.00000000000E+00  0.10497022561E+04  0.10497022561E+04  0.50400001928E-02 0. -1.
        1   -1    0    0  501    0  0.00000000000E+00  0.00000000000E+00 -0.10058172806E+04  0.10058172806E+04  0.50400001928E-02 0.  1.
    10030    2    1    2    0    0  0.00000000000E+00  0.00000000000E+00  0.43884975561E+02  0.20555195367E+04  0.20550510151E+04 0.  0.
        5    1    3    3  502    0  0.12229329067E+03  0.10144503520E+04 -0.86347669576E+02  0.10254477928E+04  0.46999998093E+01 0.  1.
       -5    1    3    3    0  502 -0.12229329067E+03 -0.10144503520E+04  0.13023264514E+03  0.10300717439E+04  0.46999998093E+01 0. -1.
</event>
<event>
 5   0  0.3387881E-04  0.1993940E+04  0.7818609E-02  0.8609459E-01
       -2   -1    0    0    0  501  0.00000000000E+00  0.00000000000E+00  0.36555955614E+03  0.36555955615E+03  0.25500000920E-02 0. -1.
        2   -1    0    0  501    0  0.00000000000E+00  0.00000000000E+00 -0.27189806873E+04  0.27189806873E+04  0.25500000920E-02 0.  1.
    10030    2    1    2    0    0  0.00000000000E+00  0.00000000000E+00 -0.23534211311E+04  0.30845402434E+04  0.19939401929E+04 0.  0.
        1    1    3    3  502    0 -0.44911394182E+03 -0.14261449767E+03  0.18241894898E+03  0.50529090696E+03  0.50400001928E-02 0. -1.
       -1    1    3    3    0  502  0.44911394182E+03  0.14261449767E+03 -0.25358400801E+04  0.25792493364E+04  0.50400001928E-02 0.  1.
</event>
<event>
 5   0  0.1664168E-04  0.1203777E+04  0.7818609E-02  0.9109557E-01
        1   -1    0    0  501    0  0.00000000000E+00  0.00000000000E+00  0.15267760072E+04  0.15267760072E+04  0.50400001928E-02 0.  1.
       -1   -1    0    0    0  501  0.00000000000E+00  0.00000000000E+00 -0.23727771974E+03  0.23727771980E+03  0.50400001928E-02 0. -1.
    10030    2    1    2    0    0  0.00000000000E+00  0.00000000000E+00  0.12894982875E+04  0.17640537270E+04  0.12037772711E+04 0.  0.
        5    1    3    3  502    0  0.19566027875E+03 -0.19382292416E+02  0.14783587157E+04  0.14913836530E+04  0.46999998093E+01 0.  1.
       -5    1    3    3    0  502 -0.19566027875E+03  0.19382292416E+02 -0.18886042825E+03  0.27267007407E+03  0.46999998093E+01 0. -1.
</event>
<event>
 5   0  0.1696052E-04  0.2024698E+04  0.7818609E-02  0.8595160E-01
        1   -1    0    0  501    0  0.00000000000E+00  0.00000000000E+00  0.18111046926E+04  0.18111046926E+04  0.50400001928E-02 0.  1.
       -1   -1    0    0    0  501  0.00000000000E+00  0.00000000000E+00 -0.56587030562E+03  0.56587030564E+03  0.50400001928E-02 0. -1.
    10030    2    1    2    0    0  0.00000000000E+00  0.00000000000E+00  0.12452343870E+04  0.23769749982E+04  0.20246978698E+04 0.  0.
        4    1    3    3  502    0 -0.42015424090E+03  0.21668124261E+03 -0.42832903494E+03  0.63792454265E+03  0.12699999809E+01 0. -1.
       -4    1    3    3    0  502  0.42015424090E+03 -0.21668124261E+03  0.16735634219E+04  0.17390504556E+04  0.12699999809E+01 0.  1.
</event>
<event>
 5   0  0.1650221E-04  0.1990114E+04  0.7818609E-02  0.8611257E-01
       -1   -1    0    0    0  501  0.00000000000E+00  0.00000000000E+00  0.11156285506E+04  0.11156285506E+04  0.50400001928E-02 0. -1.
        1   -1    0    0  501    0  0.00000000000E+00  0.00000000000E+00 -0.88751638947E+03  0.88751638948E+03  0.50400001928E-02 0.  1.
    10030    2    1    2    0    0  0.00000000000E+00  0.00000000000E+00  0.22811216117E+03  0.20031449401E+04  0.19901141910E+04 0.  0.
        1    1    3    3  502    0  0.32792905607E+03 -0.58888236968E+02 -0.82970432119E+03  0.89409985510E+03  0.50400001928E-02 0.  1.
       -1    1    3    3    0  502 -0.32792905607E+03  0.58888236968E+02  0.10578164824E+04  0.11090450850E+04  0.50400001928E-02 0. -1.
</event>
<event>
 5   0  0.1650221E-04  0.1092287E+04  0.7818609E-02  0.9212742E-01
       -1   -1    0    0    0  501  0.00000000000E+00  0.00000000000E+00  0.45238640955E+03  0.45238640958E+03  0.50400001928E-02 0. -1.
        1   -1    0    0  501    0  0.00000000000E+00  0.00000000000E+00 -0.65933224616E+03  0.65933224618E+03  0.50400001928E-02 0.  1.
    10030    2    1    2    0    0  0.00000000000E+00  0.00000000000E+00 -0.20694583661E+03  0.11117186558E+04  0.10922874119E+04 0.  0.
        1    1    3    3  502    0  0.26764648620E+03  0.39312530339E+03 -0.37674665347E+03  0.60672908836E+03  0.50400001928E-02 0.  1.
       -1    1    3    3    0  502 -0.26764648620E+03 -0.39312530339E+03  0.16980081686E+03  0.50498956739E+03  0.50400001928E-02 0. -1.
</event>
<event>
 5   0  0.1650221E-04  0.1976442E+04  0.7818609E-02  0.8617715E-01
        1   -1    0    0  501    0  0.00000000000E+00  0.00000000000E+00  0.24963208356E+04  0.24963208356E+04  0.50400001928E-02 0.  1.
       -1   -1    0    0    0  501  0.00000000000E+00  0.00000000000E+00 -0.39120812202E+03  0.39120812206E+03  0.50400001928E-02 0. -1.
    10030    2    1    2    0    0  0.00000000000E+00  0.00000000000E+00  0.21051127136E+04  0.28875289577E+04  0.19764422442E+04 0.  0.
        1    1    3    3  502    0  0.30380489876E+03  0.58699023712E+03 -0.20762854258E+02  0.66127607784E+03  0.50400001928E-02 0. -1.
       -1    1    3    3    0  502 -0.30380489876E+03 -0.58699023712E+03  0.21258755678E+04  0.22262528798E+04  0.50400001928E-02 0.  1.
</event>
<event>
 5   0  0.1643565E-04  0.1868547E+04  0.7818609E-02  0.8670673E-01
       -1   -1    0    0    0  501  0.00000000000E+00  0.00000000000E+00  0.41640311903E+03  0.41640311906E+03  0.50400001928E-02 0. -1.
        1   -1    0    0  501    0  0.00000000000E+00  0.00000000000E+00 -0.20962069665E+04  0.20962069665E+04  0.50400001928E-02 0.  1.
    10030    2    1    2    0    0  0.00000000000E+00  0.00000000000E+00 -0.16798038475E+04  0.25126100856E+04  0.18685471565E+04 0.  0.
        2    1    3    3  502    0 -0.39230653083E+03 -0.74164587155E+03 -0.28723070215E+03  0.88681705508E+03  0.25500000920E-02 0. -1.
       -2    1    3    3    0  502  0.39230653083E+03  0.74164587155E+03 -0.13925731454E+04  0.16257930305E+04  0.25500000920E-02 0.  1.
</event>
<event>
 5   0  0.1664168E-04  0.2001333E+04  0.7818609E-02  0.8605998E-01
       -1   -1    0    0    0  501  0.00000000000E+00  0.00000000000E+00  0.58375512583E+03  0.58375512585E+03  0.50400001928E-02 0. -1.
        1   -1    0    0  501    0  0.00000000000E+00  0.00000000000E+00 -0.17153306793E+04  0.17153306793E+04  0.50400001928E-02 0.  1.
    10030    2    1    2    0    0  0.00000000000E+00  0.00000000000E+00 -0.11315755534E+04  0.22990858051E+04  0.20013326326E+04 0.  0.
        5    1    3    3  502    0 -0.43353576966E+03  0.87401672620E+03 -0.31032362583E+03  0.10238072787E+04  0.46999998093E+01 0. -1.
       -5    1    3    3    0  502  0.43353576966E+03 -0.87401672620E+03 -0.82125192760E+03  0.12752785264E+04  0.46999998093E+01 0.  1.
</event>
<event>
 5   0  0.3431030E-04  0.1977102E+04  0.7818609E-02  0.8617402E-01
        2   -1    0    0  501    0  0.00000000000E+00  0.00000000000E+00  0.11609611320E+04  0.11609611320E+04  0.25500000920E-02 0. -1.
       -2   -1    0    0    0  501  0.00000000000E+00  0.00000000000E+00 -0.84174482030E+03  0.84174482031E+03  0.25500000920E-02 0.  1.
    10030    2    1    2    0    0  0.00000000000E+00  0.00000000000E+00  0.31921631173E+03  0.20027059523E+04  0.19771019392E+04 0.  0.
        3    1    3    3  502    0 -0.56573529281E+03  0.31643195237E+03  0.91562975829E+03  0.11218571507E+04  0.10100000352E+00 0. -1.
       -3    1    3    3    0  502  0.56573529281E+03 -0.31643195237E+03 -0.59641344655E+03  0.88084880169E+03  0.10100000352E+00 0.  1.
</event>
<event>
 5   0  0.1708578E-04  0.1080844E+04  0.7818609E-02  0.9224067E-01
        1   -1    0    0  501    0  0.00000000000E+00  0.00000000000E+00  0.13078197015E+04  0.13078197015E+04  0.50400001928E-02 0.  1.
       -1   -1    0    0    0  501  0.00000000000E+00  0.00000000000E+00 -0.22331498460E+03  0.22331498466E+03  0.50400001928E-02 0. -1.
    10030    2    1    2    0    0  0.00000000000E+00  0.00000000000E+00  0.10845047169E+04  0.15311346862E+04  0.10808436271E+04 0.  0.
        3    1    3    3  502    0  0.42989076411E+03 -0.32346648669E+03  0.46975441623E+03  0.71421695503E+03  0.10100000352E+00 0.  1.
       -3    1    3    3    0  502 -0.42989076411E+03  0.32346648669E+03  0.61475030070E+03  0.81691773116E+03  0.10100000352E+00 0. -1.
</event>
<event>
 5   0  0.1643565E-04  0.1968284E+04  0.7818609E-02  0.8621594E-01
        1   -1    0    0  501    0  0.00000000000E+00  0.00000000000E+00  0.12526822333E+04  0.12526822334E+04  0.50400001928E-02 0. -1.
       -1   -1    0    0    0  501  0.00000000000E+00  0.00000000000E+00 -0.77316940769E+03  0.77316940771E+03  0.50400001928E-02 0.  1.
    10030    2    1    2    0    0  0.00000000000E+00  0.00000000000E+00  0.47951282565E+03  0.20258516411E+04  0.19682841059E+04 0.  0.
        2    1    3    3  502    0 -0.27822479411E+03  0.48775562417E+03 -0.59210297012E+03  0.81602727417E+03  0.25500000920E-02 0.  1.
       -2    1    3    3    0  502  0.27822479411E+03 -0.48775562417E+03  0.10716157958E+04  0.12098243669E+04  0.25500000920E-02 0. -1.
</event>
<event>
 5   0  0.3460648E-04  0.2023291E+04  0.7818609E-02  0.8595808E-01
        2   -1    0    0  501    0  0.00000000000E+00  0.00000000000E+00  0.99552035486E+03  0.99552035487E+03  0.25500000920E-02 0.  1.
       -2   -1    0    0    0  501  0.00000000000E+00  0.00000000000E+00 -0.10280313682E+04  0.10280313682E+04  0.25500000920E-02 0. -1.
    10030    2    1    2    0    0  0.00000000000E+00  0.00000000000E+00 -0.32511013375E+02  0.20235517231E+04  0.20232905402E+04 0.  0.
        5    1    3    3  502    0 -0.67564814179E+03  0.50511507459E+03  0.54217345686E+03  0.10028039676E+04  0.46999998093E+01 0.  1.
       -5    1    3    3    0  502  0.67564814179E+03 -0.50511507459E+03 -0.57468447023E+03  0.10207477555E+04  0.46999998093E+01 0. -1.
</event>
<event>
 5   0  0.3431030E-04  0.1928611E+04  0.7818609E-02  0.8640745E-01
        2   -1    0    0  501    0  0.00000000000E+00  0.00000000000E+00  0.95955574430E+03  0.95955574430E+03  0.25500000920E-02 0. -1.
       -2   -1    0    0    0  501  0.00000000000E+00  0.00000000000E+00 -0.96907862038E+03  0.96907862038E+03  0.25500000920E-02 0.  1.
    10030    2    1    2    0    0  0.00000000000E+00  0.00000000000E+00 -0.95228760792E+01  0.19286343647E+04  0.19286108543E+04 0.  0.
        3    1    3    3  502    0  0.32192966623E+03  0.35040556899E+03 -0.84349818149E+03  0.96845855108E+03  0.10100000352E+00 0.  1.
       -3    1    3    3    0  502 -0.32192966623E+03 -0.35040556899E+03  0.83397530541E+03  0.96017581360E+03  0.10100000352E+00 0. -1.
</event>
<event>
 5   0  0.1650221E-04  0.1990375E+04  0.7818609E-02  0.8611134E-01
        1   -1    0    0  501    0  0.00000000000E+00  0.00000000000E+00  0.14651071356E+04  0.14651071356E+04  0.50400001928E-02 0. -1.
       -1   -1    0    0    0  501  0.00000000000E+00  0.00000000000E+00 -0.67599038833E+03  0.67599038835E+03  0.50400001928E-02 0.  1.
    10030    2    1    2    0    0  0.00000000000E+00  0.00000000000E+00  0.78911674731E+03  0.21410975240E+04  0.19903751823E+04 0.  0.
        1    1    3    3  502    0  0.93432892145E+03  0.32716446129E+03  0.28490175700E+03  0.10301340346E+04  0.50400001928E-02 0. -1.
       -1    1    3    3    0  502 -0.93432892145E+03 -0.32716446129E+03  0.50421499031E+03  0.11109634893E+04  0.50400001928E-02 0.  1.
</event>
<event>
 5   0  0.3395569E-04  0.1935027E+04  0.7818609E-02  0.8637615E-01
       -2   -1    0    0    0  501  0.00000000000E+00  0.00000000000E+00  0.93463814329E+03  0.93463814330E+03  0.25500000920E-02 0.  1.
        2   -1    0    0  501    0  0.00000000000E+00  0.00000000000E+00 -0.10015454079E+04  0.10015454080E+04  0.25500000920E-02 0. -1.
    10030    2    1    2    0    0  0.00000000000E+00  0.00000000000E+00 -0.66907264653E+02  0.19361835512E+04  0.19350271735E+04 0.  0.
        4    1    3    3  502    0  0.60298198839E+03  0.73269164996E+02 -0.78698087979E+03  0.99413086006E+03  0.12699999809E+01 0. -1.
       -4    1    3    3    0  502 -0.60298198839E+03 -0.73269164996E+02  0.72007361514E+03  0.94205269119E+03  0.12699999809E+01 0.  1.
</event>
<event>
 5   0  0.3387881E-04  0.2036990E+04  0.7818609E-02  0.8589519E-01
        2   -1    0    0  501    0  0.00000000000E+00  0.00000000000E+00  0.12753587345E+04  0.12753587345E+04  0.25500000920E-02 0.  1.
       -2   -1    0    0    0  501  0.00000000000E+00  0.00000000000E+00 -0.81336481672E+03  0.81336481673E+03  0.25500000920E-02 0. -1.
    10030    2    1    2    0    0  0.00000000000E+00  0.00000000000E+00  0.46199391776E+03  0.20887235512E+04  0.20369898609E+04 0.  0.
        1    1    3    3  502    0 -0.35174551415E+03  0.26482321786E+03  0.11727312375E+04  0.12526590913E+04  0.50400001928E-02 0.  1.
       -1    1    3    3    0  502  0.35174551415E+03 -0.26482321786E+03 -0.71073731977E+03  0.83606445994E+03  0.50400001928E-02 0. -1.
</event>
<event>
 5   0  0.3431030E-04  0.2052657E+04  0.7818609E-02  0.8582390E-01
       -2   -1    0    0    0  501  0.00000000000E+00  0.00000000000E+00  0.62750027237E+03  0.62750027238E+03  0.25500000920E-02 0. -1.
        2   -1    0    0  501    0  0.00000000000E+00  0.00000000000E+00 -0.16786455284E+04  0.16786455284E+04  0.25500000920E-02 0.  1.
    10030    2    1    2    0    0  0.00000000000E+00  0.00000000000E+00 -0.10511452560E+04  0.23061458008E+04  0.20526573277E+04 0.  0.
        3    1    3    3  502    0  0.37953845392E+03 -0.68706745241E+03  0.21732667170E+03  0.81445811101E+03  0.10100000352E+00 0. -1.
       -3    1    3    3    0  502 -0.37953845392E+03  0.68706745241E+03 -0.12684719277E+04  0.14916876897E+04  0.10100000352E+00 0.  1.
</event>
<event>
 5   0  0.1664168E-04  0.2012811E+04  0.7818609E-02  0.8600654E-01
       -1   -1    0    0    0  501  0.00000000000E+00  0.00000000000E+00  0.53227025796E+03  0.53227025799E+03  0.50400001928E-02 0.  1.
        1   -1    0    0  501    0  0.00000000000E+00  0.00000000000E+00 -0.19028910028E+04  0.19028910028E+04  0.50400001928E-02 0. -1.
    10030    2    1    2    0    0  0.00000000000E+00  0.00000000000E+00 -0.13706207448E+04  0.24351612608E+04  0.20128112529E+04 0.  0.
        5    1    3    3  502    0  0.58960485053E+02 -0.69071354229E+03 -0.15679636166E+04  0.17143784674E+04  0.46999998093E+01 0. -1.
       -5    1    3    3    0  502 -0.58960485053E+02  0.69071354229E+03  0.19734287177E+03  0.72078279345E+03  0.46999998093E+01 0.  1.
</event>
<event>
 5   0  0.1643565E-04  0.1988268E+04  0.7818609E-02  0.8612125E-01
       -1   -1    0    0    0  501  0.00000000000E+00  0.00000000000E+00  0.64289554191E+03  0.64289554193E+03  0.50400001928E-02 0.  1.
        1   -1    0    0  501    0  0.00000000000E+00  0.00000000000E+00 -0.15372679210E+04  0.15372679210E+04  0.50400001928E-02 0. -1.
    10030    2    1    2    0    0  0.00000000000E+00  0.00000000000E+00 -0.89437237905E+03  0.21801634629E+04  0.19882682849E+04 0.  0.
        2    1    3    3  502    0 -0.96904716519E+03 -0.16941490941E+03 -0.29000228285E+03  0.10255998947E+04  0.25500000920E-02 0.  1.
       -2    1    3    3    0  502  0.96904716519E+03  0.16941490941E+03 -0.60437009620E+03  0.11545635682E+04  0.25500000920E-02 0. -1.
</event>
<event>
 5   0  0.1708578E-04  0.2012694E+04  0.7818609E-02  0.8600709E-01
        1   -1    0    0  501    0  0.00000000000E+00  0.00000000000E+00  0.17645832803E+04  0.17645832803E+04  0.50400001928E-02 0.  1.
       -1   -1    0    0    0  501  0.00000000000E+00  0.00000000000E+00 -0.57392288959E+03  0.57392288961E+03  0.50400001928E-02 0. -1.
    10030    2    1    2    0    0  0.00000000000E+00  0.00000000000E+00  0.11906603907E+04  0.23385061699E+04  0.20126944479E+04 0.  0.
        3    1    3    3  502    0 -0.57469146274E+03 -0.65714647833E+03  0.13667657991E+02  0.87309712312E+03  0.10100000352E+00 0. -1.
       -3    1    3    3    0  502  0.57469146274E+03  0.65714647833E+03  0.11769927327E+04  0.14654090468E+04  0.10100000352E+00 0.  1.
</event>
<event>
 5   0  0.3371947E-04  0.2060642E+04  0.7818609E-02  0.8578782E-01
       -2   -1    0    0    0  501  0.00000000000E+00  0.00000000000E+00  0.72755632866E+03  0.72755632866E+03  0.25500000920E-02 0.  1.
        2   -1    0    0  501    0  0.00000000000E+00  0.00000000000E+00 -0.14590777250E+04  0.14590777250E+04  0.25500000920E-02 0. -1.
    10030    2    1    2    0    0  0.00000000000E+00  0.00000000000E+00 -0.73152139638E+03  0.21866340537E+04  0.20606418737E+04 0.  0.
        2    1    3    3  502    0 -0.41455349114E+03 -0.49141757489E+02 -0.13653159420E+04  0.14277104506E+04  0.25500000920E-02 0. -1.
       -2    1    3    3    0  502  0.41455349114E+03  0.49141757489E+02  0.63379454558E+03  0.75892360311E+03  0.25500000920E-02 0.  1.
</event>
<event>
 5   0  0.3395569E-04  0.2250730E+04  0.7818609E-02  0.8497605E-01
        2   -1    0    0  501    0  0.00000000000E+00  0.00000000000E+00  0.11702984926E+04  0.11702984926E+04  0.25500000920E-02 0. -1.
       -2   -1    0    0    0  501  0.00000000000E+00  0.00000000000E+00 -0.10821563822E+04  0.10821563822E+04  0.25500000920E-02 0.  1.
    10030    2    1    2    0    0  0.00000000000E+00  0.00000000000E+00  0.88142110372E+02  0.22524548748E+04  0.22507296443E+04 0.  0.
        4    1    3    3  502    0  0.19245601751E+03  0.57593854500E+03  0.99226754429E+03  0.11633318609E+04  0.12699999809E+01 0. -1.
       -4    1    3    3    0  502 -0.19245601751E+03 -0.57593854500E+03 -0.90412543392E+03  0.10891230139E+04  0.12699999809E+01 0.  1.
</event>
<event>
 5   0  0.1643565E-04  0.2042957E+04  0.7818609E-02  0.8586796E-01
       -1   -1    0    0    0  501  0.00000000000E+00  0.00000000000E+00  0.68465027052E+03  0.68465027054E+03  0.50400001928E-02 0.  1.
        1   -1    0    0  501    0  0.00000000000E+00  0.00000000000E+00 -0.15240159505E+04  0.15240159505E+04  0.50400001928E-02 0. -1.
    10030    2    1    2    0    0  0.00000000000E+00  0.00000000000E+00 -0.83936567997E+03  0.22086662210E+04  0.20429566151E+04 0.  0.
        2    1    3    3  502    0  0.47295384916E+03  0.52908840236E+03  0.37462088954E+03  0.80247161435E+03  0.25500000920E-02 0.  1.
       -2    1    3    3    0  502 -0.47295384916E+03 -0.52908840236E+03 -0.12139865695E+04  0.14061946067E+04  0.25500000920E-02 0. -1.
</event>
<event>
 5   0  0.1664168E-04  0.2153451E+04  0.7818609E-02  0.8538056E-01
       -1   -1    0    0    0  501  0.00000000000E+00  0.00000000000E+00  0.12906588444E+04  0.12906588444E+04  0.50400001928E-02 0. -1.
        1   -1    0    0  501    0  0.00000000000E+00  0.00000000000E+00 -0.89825300462E+03  0.89825300463E+03  0.50400001928E-02 0.  1.
    10030    2    1    2    0    0  0.00000000000E+00  0.00000000000E+00  0.39240583975E+03  0.21889118490E+04  0.21534513553E+04 0.  0.
        5    1    3    3  502    0 -0.50052536750E+03  0.77678297161E+03 -0.36552598830E+03  0.99375488256E+03  0.46999998093E+01 0.  1.
       -5    1    3    3    0  502  0.50052536750E+03 -0.77678297161E+03  0.75793182805E+03  0.11951569665E+04  0.46999998093E+01 0. -1.
</event>
<event>
 5   0  0.1643565E-04  0.1990153E+04  0.7818609E-02  0.8611238E-01
        1   -1    0    0  501    0  0.00000000000E+00  0.00000000000E+00  0.81365483355E+03  0.81365483356E+03  0.50400001928E-02 0. -1.
       -1   -1    0    0    0  501  0.00000000000E+00  0.00000000000E+00 -0.12169498708E+04  0.12169498708E+04  0.50400001928E-02 0.  1.
    10030    2    1    2    0    0  0.00000000000E+00  0.00000000000E+00 -0.40329503720E+03  0.20306047043E+04  0.19901529032E+04 0.  0.
        2    1    3    3  502    0  0.71133113188E+03 -0.10960507991E+02  0.50824205785E+03  0.87431235911E+03  0.25500000920E-02 0. -1.
       -2    1    3    3    0  502 -0.71133113188E+03  0.10960507991E+02 -0.91153709506E+03  0.11562923452E+04  0.25500000920E-02 0.  1.
</event>
<event>
 5   0  0.3371947E-04  0.1990386E+04  0.7818609E-02  0.8611129E-01
       -2   -1    0    0    0  501  0.00000000000E+00  0.00000000000E+00  0.92188726271E+03  0.92188726271E+03  0.25500000920E-02 0.  1.
        2   -1    0    0  501    0  0.00000000000E+00  0.00000000000E+00 -0.10743277496E+04  0.10743277496E+04  0.25500000920E-02 0. -1.
    10030    2    1    2    0    0  0.00000000000E+00  0.00000000000E+00 -0.15244048687E+03  0.19962150123E+04  0.19903859609E+04 0.  0.
        2    1    3    3  502    0 -0.55587003361E+03  0.16972715596E+03  0.73398857985E+03  0.93623610115E+03  0.25500000920E-02 0.  1.
       -2    1    3    3    0  502  0.55587003361E+03 -0.16972715596E+03 -0.88642906672E+03  0.10599789111E+04  0.25500000920E-02 0. -1.
</event>
<event>
 5   0  0.3431030E-04  0.2044259E+04  0.7818609E-02  0.8586203E-01
       -2   -1    0    0    0  501  0.00000000000E+00  0.00000000000E+00  0.11038450539E+04  0.11038450539E+04  0.25500000920E-02 0. -1.
        2   -1    0    0  501    0  0.00000000000E+00  0.00000000000E+00 -0.94646353157E+03  0.94646353157E+03  0.25500000920E-02 0.  1.
    10030    2    1    2    0    0  0.00000000000E+00  0.00000000000E+00  0.15738152230E+03  0.20503085854E+04  0.20442593651E+04 0.  0.
        3    1    3    3  502    0 -0.19235297805E+03  0.39275474911E+03 -0.84788992986E+03  0.95403003332E+03  0.10100000352E+00 0.  1.
       -3    1    3    3    0  502  0.19235297805E+03 -0.39275474911E+03  0.10052714522E+04  0.10962785521E+04  0.10100000352E+00 0. -1.
</event>
<event>
 5   0  0.3371947E-04  0.1991368E+04  0.7818609E-02  0.8610667E-01
        2   -1    0    0  501    0  0.00000000000E+00  0.00000000000E+00  0.13083513331E+04  0.13083513331E+04  0.25500000920E-02 0.  1.
       -2   -1    0    0    0  501  0.00000000000E+00  0.00000000000E+00 -0.75773766621E+03  0.75773766622E+03  0.25500000920E-02 0. -1.
    10030    2    1    2    0    0  0.00000000000E+00  0.00000000000E+00  0.55061366691E+03  0.20660889993E+04  0.19913684599E+04 0.  0.
        2    1    3    3  502    0  0.41183410409E+02 -0.50225121914E+03  0.11662688575E+04  0.12704862881E+04  0.25500000920E-02 0.  1.
       -2    1    3    3    0  502 -0.41183410409E+02  0.50225121914E+03 -0.61565519056E+03  0.79560271121E+03  0.25500000920E-02 0. -1.
</event>
<event>
 5   0  0.1708578E-04  0.1268854E+04  0.7818609E-02  0.9054636E-01
        1   -1    0    0  501    0  0.00000000000E+00  0.00000000000E+00  0.21944865841E+04  0.21944865841E+04  0.50400001928E-02 0. -1.
       -1   -1    0    0    0  501  0.00000000000E+00  0.00000000000E+00 -0.18341306710E+03  0.18341306717E+03  0.50400001928E-02 0.  1.
    10030    2    1    2    0    0  0.00000000000E+00  0.00000000000E+00  0.20110735170E+04  0.23778996513E+04  0.12688538374E+04 0.  0.
        3    1    3    3  502    0 -0.50957859453E+03 -0.26679083229E+03  0.50389988116E+03  0.76469784401E+03  0.10100000352E+00 0.  1.
       -3    1    3    3    0  502  0.50957859453E+03  0.26679083229E+03  0.15071736359E+04  0.16132018073E+04  0.10100000352E+00 0. -1.
</event>
<event>
 5   0  0.1664168E-04  0.2010216E+04  0.7818609E-02  0.8601859E-01
        1   -1    0    0  501    0  0.00000000000E+00  0.00000000000E+00  0.65273155615E+03  0.65273155616E+03  0.50400001928E-02 0. -1.
       -1   -1    0    0    0  501  0.00000000000E+00  0.00000000000E+00 -0.15477146970E+04  0.15477146970E+04  0.50400001928E-02 0.  1.
    10030    2    1    2    0    0  0.00000000000E+00  0.00000000000E+00 -0.89498314089E+03  0.22004462532E+04  0.20102161304E+04 0.  0.
        5    1    3    3  502    0  0.78407965613E+03 -0.58818133336E+03 -0.69098732369E+03  0.11992596714E+04  0.46999998093E+01 0.  1.
       -5    1    3    3    0  502 -0.78407965613E+03  0.58818133336E+03 -0.20399581721E+03  0.10011865818E+04  0.46999998093E+01 0. -1.
</event>
<event>
 5   0  0.3460648E-04  0.1960918E+04  0.7818609E-02  0.8625114E-01
       -2   -1    0    0    0  501  0.00000000000E+00  0.00000000000E+00  0.66795282804E+03  0.66795282805E+03  0.25500000920E-02 0. -1.
        2   -1    0    0  501    0  0.00000000000E+00  0.00000000000E+00 -0.14391735436E+04  0.14391735436E+04  0.25500000920E-02 0.  1.
    10030    2    1    2    0    0  0.00000000000E+00  0.00000000000E+00 -0.77122071560E+03  0.21071263717E+04  0.19609181916E+04 0.  0.
        5    1    3    3  502    0 -0.85267019650E+03  0.42715122214E+03 -0.14110740626E+03  0.96407365936E+03  0.46999998093E+01 0.  1.
       -5    1    3    3    0  502  0.85267019650E+03 -0.42715122214E+03 -0.63011330934E+03  0.11430527123E+04  0.46999998093E+01 0. -1.
</event>
<event>
 5   0  0.1664168E-04  0.1570156E+04  0.7818609E-02  0.8839095E-01
        1   -1    0    0  501    0  0.00000000000E+00  0.00000000000E+00  0.28091732761E+04  0.28091732761E+04  0.50400001928E-02 0. -1.
       -1   -1    0    0    0  501  0.00000000000E+00  0.00000000000E+00 -0.21940520896E+03  0.21940520902E+03  0.50400001928E-02 0.  1.
    10030    2    1    2    0    0  0.00000000000E+00  0.00000000000E+00  0.25897680672E+04  0.30285784852E+04  0.15701557245E+04 0.  0.
        5    1    3    3  502    0  0.52060550135E+03 -0.13361793479E+03  0.23986140324E+04  0.24580999181E+04  0.46999998093E+01 0. -1.
       -5    1    3    3    0  502 -0.52060550135E+03  0.13361793479E+03  0.19115403473E+03  0.57047856710E+03  0.46999998093E+01 0.  1.
</event>
<event>
 5   0  0.1643565E-04  0.1232539E+04  0.7818609E-02  0.9084843E-01
       -1   -1    0    0    0  501  0.00000000000E+00  0.00000000000E+00  0.41462862558E+03  0.41462862561E+03  0.50400001928E-02 0. -1.
        1   -1    0    0  501    0  0.00000000000E+00  0.00000000000E+00 -0.91597133108E+03  0.91597133109E+03  0.50400001928E-02 0.  1.
    10030    2    1    2    0    0  0.00000000000E+00  0.00000000000E+00 -0.50134270550E+03  0.13305999567E+04  0.12325387363E+04 0.  0.
        2    1    3    3  502    0  0.25607116135E+02 -0.36499551657E+03  0.28467574036E+03  0.46359220083E+03  0.25500000920E-02 0. -1.
       -2    1    3    3    0  502 -0.25607116135E+02  0.36499551657E+03 -0.78601844586E+03  0.86700775588E+03  0.25500000920E-02 0.  1.
</event>
<event>
 5   0  0.3460648E-04  0.2003754E+04  0.7818609E-02  0.8604868E-01
       -2   -1    0    0    0  501  0.00000000000E+00  0.00000000000E+00  0.96010448169E+03  0.96010448169E+03  0.25500000920E-02 0. -1.
        2   -1    0    0  501    0  0.00000000000E+00  0.00000000000E+00 -0.10454667115E+04  0.10454667115E+04  0.25500000920E-02 0.  1.
    10030    2    1    2    0    0  0.00000000000E+00  0.00000000000E+00 -0.85362229789E+02  0.20055711932E+04  0.20037537525E+04 0.  0.
        5    1    3    3  502    0  0.73621637718E+03  0.60451729093E+03  0.26788966567E+03  0.98956691135E+03  0.46999998093E+01 0. -1.
       -5    1    3    3    0  502 -0.73621637718E+03 -0.60451729093E+03 -0.35325189546E+03  0.10160042818E+04  0.46999998093E+01 0.  1.
</event>
<event>
 5   0  0.1650221E-04  0.1993846E+04  0.7818609E-02  0.8609503E-01
       -1   -1    0    0    0  501  0.00000000000E+00  0.00000000000E+00  0.38233242086E+03  0.38233242090E+03  0.50400001928E-02 0.  1.
        1   -1    0    0  501    0  0.00000000000E+00  0.00000000000E+00 -0.25994525921E+04  0.25994525921E+04  0.50400001928E-02 0. -1.
    10030    2    1    2    0    0  0.00000000000E+00  0.00000000000E+00 -0.22171201712E+04  0.29817850130E+04  0.19938455331E+04 0.  0.
        1    1    3    3  502    0  0.56890089046E+03 -0.22382311126E+03 -0.22862180765E+04  0.23665456052E+04  0.50400001928E-02 0. -1.
       -1    1    3    3    0  502 -0.56890089046E+03  0.22382311126E+03  0.69097905291E+02  0.61523940775E+03  0.50400001928E-02 0.  1.
</event>
<event>
 5   0  0.3431030E-04  0.2006713E+04  0.7818609E-02  0.8603488E-01
       -2   -1    0    0    0  501  0.00000000000E+00  0.00000000000E+00  0.69669281901E+03  0.69669281901E+03  0.25500000920E-02 0. -1.
        2   -1    0    0  501    0  0.00000000000E+00  0.00000000000E+00 -0.14450052139E+04  0.14450052139E+04  0.25500000920E-02 0.  1.
    10030    2    1    2    0    0  0.00000000000E+00  0.00000000000E+00 -0.74831239489E+03  0.21416980329E+04  0.20067134882E+04 0.  0.
        3    1    3    3  502    0 -0.67172331843E+03 -0.22964941902E+03  0.38260548217E+03  0.80643538945E+03  0.10100000352E+00 0. -1.
       -3    1    3    3    0  502  0.67172331843E+03  0.22964941902E+03 -0.11309178771E+04  0.13352626435E+04  0.10100000352E+00 0.  1.
</event>
<event>
 5   0  0.3387881E-04  0.2095246E+04  0.7818609E-02  0.8563340E-01
        2   -1    0    0  501    0  0.00000000000E+00  0.00000000000E+00  0.14761893768E+04  0.14761893768E+04  0.25500000920E-02 0.  1.
       -2   -1    0    0    0  501  0.00000000000E+00  0.00000000000E+00 -0.74347769769E+03  0.74347769770E+03  0.25500000920E-02 0. -1.
    10030    2    1    2    0    0  0.00000000000E+00  0.00000000000E+00  0.73271167913E+03  0.22196670745E+04  0.20952459323E+04 0.  0.
        1    1    3    3  502    0 -0.45068227786E+02  0.66497402612E+03  0.12226176926E+04  0.13924854121E+04  0.50400001928E-02 0.  1.
       -1    1    3    3    0  502  0.45068227786E+02 -0.66497402612E+03 -0.48990601349E+03  0.82718166242E+03  0.50400001928E-02 0. -1.
</event>
<event>
 5   0  0.3431030E-04  0.2000419E+04  0.7818609E-02  0.8606425E-01
        2   -1    0    0  501    0  0.00000000000E+00  0.00000000000E+00  0.20967833212E+04  0.20967833212E+04  0.25500000920E-02 0.  1.
       -2   -1    0    0    0  501  0.00000000000E+00  0.00000000000E+00 -0.47712066123E+03  0.47712066124E+03  0.25500000920E-02 0. -1.
    10030    2    1    2    0    0  0.00000000000E+00  0.00000000000E+00  0.16196626599E+04  0.25739039824E+04  0.20004186008E+04 0.  0.
        3    1    3    3  502    0  0.37056574624E+03 -0.64906361173E+03 -0.45416974085E+02  0.74877583835E+03  0.10100000352E+00 0. -1.
       -3    1    3    3    0  502 -0.37056574624E+03  0.64906361173E+03  0.16650796340E+04  0.18251281440E+04  0.10100000352E+00 0.  1.
</event>
<event>
 5   0  0.1643565E-04  0.1939079E+04  0.7818609E-02  0.8635645E-01
       -1   -1    0    0    0  501  0.00000000000E+00  0.00000000000E+00  0.40872771579E+03  0.40872771582E+03  0.50400001928E-02 0. -1.
        1   -1    0    0  501    0  0.00000000000E+00  0.00000000000E+00 -0.22998364511E+04  0.22998364511E+04  0.50400001928E-02 0.  1.
    10030    2    1    2    0    0  0.00000000000E+00  0.00000000000E+00 -0.18911087353E+04  0.27085641669E+04  0.19390790592E+04 0.  0.
        2    1    3    3  502    0 -0.13937190956E+03  0.59593645003E+03 -0.19959131948E+04  0.20876384416E+04  0.25500000920E-02 0.  1.
       -2    1    3    3    0  502  0.13937190956E+03 -0.59593645003E+03  0.10480445949E+03  0.62092572533E+03  0.25500000920E-02 0. -1.
</event>
<event>
 5   0  0.3395569E-04  0.1929109E+04  0.7818609E-02  0.8640501E-01
        2   -1    0    0  501    0  0.00000000000E+00  0.00000000000E+00  0.68807734994E+03  0.68807734994E+03  0.25500000920E-02 0.  1.
       -2   -1    0    0    0  501  0.00000000000E+00  0.00000000000E+00 -0.13521237863E+04  0.13521237863E+04  0.25500000920E-02 0. -1.
    10030    2    1    2    0    0  0.00000000000E+00  0.00000000000E+00 -0.66404643640E+03  0.20402011363E+04  0.19291093818E+04 0.  0.
        4    1    3    3  502    0  0.87577024000E+03  0.30386914788E+03 -0.50112942296E+02  0.92834416689E+03  0.12699999809E+01 0.  1.
       -4    1    3    3    0  502 -0.87577024000E+03 -0.30386914788E+03 -0.61393349410E+03  0.11118569694E+04  0.12699999809E+01 0. -1.
</event>
<event>
 5   0  0.1664168E-04  0.2063094E+04  0.7818609E-02  0.8577677E-01
        1   -1    0    0  501    0  0.00000000000E+00  0.00000000000E+00  0.12861143747E+04  0.12861143747E+04  0.50400001928E-02 0. -1.
       -1   -1    0    0    0  501  0.00000000000E+00  0.00000000000E+00 -0.82736719634E+03  0.82736719636E+03  0.50400001928E-02 0.  1.
    10030    2    1    2    0    0  0.00000000000E+00  0.00000000000E+00  0.45874717838E+03  0.21134815711E+04  0.20630936425E+04 0.  0.
        5    1    3    3  502    0  0.99089531718E+03  0.27452065205E+03  0.31404599450E+03  0.10751195723E+04  0.46999998093E+01 0.  1.
       -5    1    3    3    0  502 -0.99089531718E+03 -0.27452065205E+03  0.14470118388E+03  0.10383619988E+04  0.46999998093E+01 0. -1.
</event>
<event>
 5   0  0.1643565E-04  0.1994019E+04  0.7818609E-02  0.8609422E-01
        1   -1    0    0  501    0  0.00000000000E+00  0.00000000000E+00  0.79598938487E+03  0.79598938489E+03  0.50400001928E-02 0. -1.
       -1   -1    0    0    0  501  0.00000000000E+00  0.00000000000E+00 -0.12487951186E+04  0.12487951186E+04  0.50400001928E-02 0.  1.
    10030    2    1    2    0    0  0.00000000000E+00  0.00000000000E+00 -0.45280573370E+03  0.20447845035E+04  0.19940187143E+04 0.  0.
        2    1    3    3  502    0 -0.96272770002E+03  0.19215044123E+03 -0.40478924519E+03  0.10618948863E+04  0.25500000920E-02 0.  1.
       -2    1    3    3    0  502  0.96272770002E+03 -0.19215044123E+03 -0.48016488502E+02  0.98288961721E+03  0.25500000920E-02 0. -1.
</event>
<event>
 5   0  0.1222488E-04  0.1507500E+04  0.7818609E-02  0.8879481E-01
       -3   -1    0    0    0  501  0.00000000000E+00  0.00000000000E+00  0.84395086693E+03  0.84395087298E+03  0.10100000352E+00 0.  1.
        3   -1    0    0  501    0  0.00000000000E+00  0.00000000000E+00 -0.67318998291E+03  0.67318999049E+03  0.10100000352E+00 0. -1.
    10030    2    1    2    0    0  0.00000000000E+00  0.00000000000E+00  0.17076088402E+03  0.15171408635E+04  0.15075002886E+04 0.  0.
        5    1    3    3  502    0 -0.62085229336E+03  0.40611745017E+03  0.21937935354E+03  0.77365259921E+03  0.46999998093E+01 0.  1.
       -5    1    3    3    0  502  0.62085229336E+03 -0.40611745017E+03 -0.48618469521E+02  0.74348826425E+03  0.46999998093E+01 0. -1.
</event>
<event>
 5   0  0.1643565E-04  0.1970905E+04  0.7818609E-02  0.8620346E-01
       -1   -1    0    0    0  501  0.00000000000E+00  0.00000000000E+00  0.88786056044E+03  0.88786056046E+03  0.50400001928E-02 0.  1.
        1   -1    0    0  501    0  0.00000000000E+00  0.00000000000E+00 -0.10937710269E+04  0.10937710269E+04  0.50400001928E-02 0. -1.
    10030    2    1    2    0    0  0.00000000000E+00  0.00000000000E+00 -0.20591046641E+03  0.19816315873E+04  0.19709045202E+04 0.  0.
        2    1    3    3  502    0  0.43537933305E+03 -0.29005653354E+03  0.73671176229E+03  0.90356636558E+03  0.25500000920E-02 0.  1.
       -2    1    3    3    0  502 -0.43537933305E+03  0.29005653354E+03 -0.94262222871E+03  0.10780652218E+04  0.25500000920E-02 0. -1.
</event>
<event>
 5   0  0.1708578E-04  0.2072243E+04  0.7818609E-02  0.8573570E-01
       -1   -1    0    0    0  501  0.00000000000E+00  0.00000000000E+00  0.11034846378E+04  0.11034846378E+04  0.50400001928E-02 0.  1.
        1   -1    0    0  501    0  0.00000000000E+00  0.00000000000E+00 -0.97287028527E+03  0.97287028528E+03  0.50400001928E-02 0. -1.
    10030    2    1    2    0    0  0.00000000000E+00  0.00000000000E+00  0.13061435248E+03  0.20763549230E+04  0.20722426637E+04 0.  0.
        3    1    3    3  502    0  0.40369839727E+03 -0.73616092692E+03 -0.54305673809E+03  0.99990796440E+03  0.10100000352E+00 0. -1.
       -3    1    3    3    0  502 -0.40369839727E+03  0.73616092692E+03  0.67367109058E+03  0.10764469586E+04  0.10100000352E+00 0.  1.
</event>
<event>
 5   0  0.1664168E-04  0.1947617E+04  0.7818609E-02  0.8631511E-01
        1   -1    0    0  501    0  0.00000000000E+00  0.00000000000E+00  0.15271219710E+04  0.15271219710E+04  0.50400001928E-02 0.  1.
       -1   -1    0    0    0  501  0.00000000000E+00  0.00000000000E+00 -0.62097389918E+03  0.62097389920E+03  0.50400001928E-02 0. -1.
    10030    2    1    2    0    0  0.00000000000E+00  0.00000000000E+00  0.90614807184E+03  0.21480958702E+04  0.19476168873E+04 0.  0.
        5    1    3    3  502    0  0.68928177464E+03 -0.39981332082E+03 -0.16429479489E+03  0.81361841546E+03  0.46999998093E+01 0. -1.
       -5    1    3    3    0  502 -0.68928177464E+03  0.39981332082E+03  0.10704428667E+04  0.13344774548E+04  0.46999998093E+01 0.  1.
</event>
<event>
 5   0  0.3460648E-04  0.1866251E+04  0.7818609E-02  0.8671840E-01
       -2   -1    0    0    0  501  0.00000000000E+00  0.00000000000E+00  0.11430534173E+04  0.11430534173E+04  0.25500000920E-02 0.  1.
        2   -1    0    0  501    0  0.00000000000E+00  0.00000000000E+00 -0.76175214683E+03  0.76175214683E+03  0.25500000920E-02 0. -1.
    10030    2    1    2    0    0  0.00000000000E+00  0.00000000000E+00  0.38130127051E+03  0.19048055642E+04  0.18662512099E+04 0.  0.
        5    1    3    3  502    0 -0.61676024235E+03  0.84674460146E+02  0.90009166511E+03  0.10944176791E+04  0.46999998093E+01 0.  1.
       -5    1    3    3    0  502  0.61676024235E+03 -0.84674460146E+02 -0.51879039460E+03  0.81038788507E+03  0.46999998093E+01 0. -1.
</event>
<event>
 5   0  0.1650221E-04  0.1902256E+04  0.7818609E-02  0.8653734E-01
       -1   -1    0    0    0  501  0.00000000000E+00  0.00000000000E+00  0.76824140334E+03  0.76824140336E+03  0.50400001928E-02 0.  1.
        1   -1    0    0  501    0  0.00000000000E+00  0.00000000000E+00 -0.11775527597E+04  0.11775527597E+04  0.50400001928E-02 0. -1.
    10030    2    1    2    0    0  0.00000000000E+00  0.00000000000E+00 -0.40931135633E+03  0.19457941630E+04  0.19022563283E+04 0.  0.
        1    1    3    3  502    0  0.24210293711E+03 -0.59846334297E+03  0.50980949456E+03  0.82260435557E+03  0.50400001928E-02 0.  1.
       -1    1    3    3    0  502 -0.24210293711E+03  0.59846334297E+03 -0.91912085088E+03  0.11231898075E+04  0.50400001928E-02 0. -1.
</event>
<event>
 5   0  0.1664168E-04  0.2025135E+04  0.7818609E-02  0.8594958E-01
        1   -1    0    0  501    0  0.00000000000E+00  0.00000000000E+00  0.19934030828E+04  0.19934030828E+04  0.50400001928E-02 0. -1.
       -1   -1    0    0    0  501  0.00000000000E+00  0.00000000000E+00 -0.51434323030E+03  0.51434323032E+03  0.50400001928E-02 0.  1.
    10030    2    1    2    0    0  0.00000000000E+00  0.00000000000E+00  0.14790598525E+04  0.25077463131E+04  0.20251354334E+04 0.  0.
        5    1    3    3  502    0 -0.39329789835E+03 -0.39129050876E+03 -0.30937074858E+03  0.63523527072E+03  0.46999998093E+01 0.  1.
       -5    1    3    3    0  502  0.39329789835E+03  0.39129050876E+03  0.17884306011E+04  0.18725110424E+04  0.46999998093E+01 0. -1.
</event>
<event>
 5   0  0.1696052E-04  0.1985249E+04  0.7818609E-02  0.8613548E-01
       -1   -1    0    0    0  501  0.00000000000E+00  0.00000000000E+00  0.66495657207E+03  0.66495657209E+03  0.50400001928E-02 0.  1.
        1   -1    0    0  501    0  0.00000000000E+00  0.00000000000E+00 -0.14817560957E+04  0.14817560957E+04  0.50400001928E-02 0. -1.
    10030    2    1    2    0    0  0.00000000000E+00  0.00000000000E+00 -0.81679952366E+03  0.21467126678E+04  0.19852490565E+04 0.  0.
        4    1    3    3  502    0 -0.48545738603E+03 -0.39591271000E+03  0.42421585564E+03  0.75655565074E+03  0.12699999809E+01 0.  1.
       -4    1    3    3    0  502  0.48545738603E+03  0.39591271000E+03 -0.12410153793E+04  0.13901570171E+04  0.12699999809E+01 0. -1.
</event>
<event>
 5   0  0.1643565E-04  0.1523141E+04  0.7818609E-02  0.8869209E-01
        1   -1    0    0  501    0  0.00000000000E+00  0.00000000000E+00  0.37537142875E+03  0.37537142879E+03  0.50400001928E-02 0.  1.
       -1   -1    0    0    0  501  0.00000000000E+00  0.00000000000E+00 -0.15451085638E+04  0.15451085638E+04  0.50400001928E-02 0. -1.
    10030    2    1    2    0    0  0.00000000000E+00  0.00000000000E+00 -0.11697371350E+04  0.19204799926E+04  0.15231409773E+04 0.  0.
        2    1    3    3  502    0  0.42200550680E+02  0.41562906826E+03  0.21799977860E+03  0.47122426969E+03  0.25500000920E-02 0.  1.
       -2    1    3    3    0  502 -0.42200550680E+02 -0.41562906826E+03 -0.13877369136E+04  0.14492557229E+04  0.25500000920E-02 0. -1.
</event>
<event>
 5   0  0.3371947E-04  0.1954221E+04  0.7818609E-02  0.8628328E-01
        2   -1    0    0  501    0  0.00000000000E+00  0.00000000000E+00  0.22011883100E+04  0.22011883100E+04  0.25500000920E-02 0. -1.
       -2   -1    0    0    0  501  0.00000000000E+00  0.00000000000E+00 -0.43374061127E+03  0.43374061128E+03  0.25500000920E-02 0.  1.
    10030    2    1    2    0    0  0.00000000000E+00  0.00000000000E+00  0.17674476988E+04  0.26349289213E+04  0.19542208300E+04 0.  0.
        2    1    3    3  502    0  0.65622336271E+02 -0.10021412292E+03  0.21912505338E+04  0.21945222859E+04  0.25500000920E-02 0. -1.
       -2    1    3    3    0  502 -0.65622336271E+02  0.10021412292E+03 -0.42380283508E+03  0.44040663537E+03  0.25500000920E-02 0.  1.
</event>
<event>
 5   0  0.3431030E-04  0.1953866E+04  0.7818609E-02  0.8628499E-01
       -2   -1    0    0    0  501  0.00000000000E+00  0.00000000000E+00  0.64874782043E+03  0.64874782044E+03  0.25500000920E-02 0.  1.
        2   -1    0    0  501    0  0.00000000000E+00  0.00000000000E+00 -0.14711383947E+04  0.14711383947E+04  0.25500000920E-02 0. -1.
    10030    2    1    2    0    0  0.00000000000E+00  0.00000000000E+00 -0.82239057430E+03  0.21198862152E+04  0.19538657345E+04 0.  0.
        3    1    3    3  502    0  0.32972358584E+03  0.91453215015E+03 -0.51588856592E+03  0.11005579128E+04  0.10100000352E+00 0. -1.
       -3    1    3    3    0  502 -0.32972358584E+03 -0.91453215015E+03 -0.30650200838E+03  0.10193283024E+04  0.10100000352E+00 0.  1.
</event>
<event>
 5   0  0.3395569E-04  0.1904352E+04  0.7818609E-02  0.8652693E-01
       -2   -1    0    0    0  501  0.00000000000E+00  0.00000000000E+00  0.38055282432E+03  0.38055282433E+03  0.25500000920E-02 0. -1.
        2   -1    0    0  501    0  0.00000000000E+00  0.00000000000E+00 -0.23824273251E+04  0.23824273251E+04  0.25500000920E-02 0.  1.
    10030    2    1    2    0    0  0.00000000000E+00  0.00000000000E+00 -0.20018745008E+04  0.27629801495E+04  0.19043523280E+04 0.  0.
        4    1    3    3  502    0 -0.28545651291E+02 -0.11153003554E+03 -0.23722911832E+04  0.23750833404E+04  0.12699999809E+01 0.  1.
       -4    1    3    3    0  502  0.28545651291E+02  0.11153003554E+03  0.37041668236E+03  0.38789680910E+03  0.12699999809E+01 0. -1.
</event>
<event>
 5   0  0.1664168E-04  0.1996432E+04  0.7818609E-02  0.8608291E-01
        1   -1    0    0  501    0  0.00000000000E+00  0.00000000000E+00  0.14835385815E+04  0.14835385815E+04  0.50400001928E-02 0. -1.
       -1   -1    0    0    0  501  0.00000000000E+00  0.00000000000E+00 -0.67166110461E+03  0.67166110463E+03  0.50400001928E-02 0.  1.
    10030    2    1    2    0    0  0.00000000000E+00  0.00000000000E+00  0.81187747686E+03  0.21551996861E+04  0.19964319797E+04 0.  0.
        5    1    3    3  502    0  0.26964055189E+03 -0.29981436432E+03  0.13916931569E+04  0.14489398238E+04  0.46999998093E+01 0. -1.
       -5    1    3    3    0  502 -0.26964055189E+03  0.29981436432E+03 -0.57981568000E+03  0.70625986227E+03  0.46999998093E+01 0.  1.
</event>
<event>
 5   0  0.3387881E-04  0.2026165E+04  0.7818609E-02  0.8594485E-01
        2   -1    0    0  501    0  0.00000000000E+00  0.00000000000E+00  0.90183597037E+03  0.90183597037E+03  0.25500000920E-02 0. -1.
       -2   -1    0    0    0  501  0.00000000000E+00  0.00000000000E+00 -0.11380515985E+04  0.11380515985E+04  0.25500000920E-02 0.  1.
    10030    2    1    2    0    0  0.00000000000E+00  0.00000000000E+00 -0.23621562811E+03  0.20398875689E+04  0.20261647195E+04 0.  0.
        1    1    3    3  502    0 -0.78420479945E+03  0.20738943262E+03 -0.72913541888E+03  0.10906997769E+04  0.50400001928E-02 0.  1.
       -1    1    3    3    0  502  0.78420479945E+03 -0.20738943262E+03  0.49291979076E+03  0.94918779196E+03  0.50400001928E-02 0. -1.
</event>
<event>
 5   0  0.3460648E-04  0.1982746E+04  0.7818609E-02  0.8614730E-01
        2   -1    0    0  501    0  0.00000000000E+00  0.00000000000E+00  0.10122382266E+04  0.10122382266E+04  0.25500000920E-02 0.  1.
       -2   -1    0    0    0  501  0.00000000000E+00  0.00000000000E+00 -0.97093752382E+03  0.97093752382E+03  0.25500000920E-02 0. -1.
    10030    2    1    2    0    0  0.00000000000E+00  0.00000000000E+00  0.41300702774E+02  0.19831757504E+04  0.19827456491E+04 0.  0.
        5    1    3    3  502    0 -0.56196917856E+03 -0.55372594184E+03 -0.57979329710E+03  0.97908331294E+03  0.46999998093E+01 0. -1.
       -5    1    3    3    0  502  0.56196917856E+03  0.55372594184E+03  0.62109399987E+03  0.10040924375E+04  0.46999998093E+01 0.  1.
</event>
<event>
 5   0  0.1696052E-04  0.1996204E+04  0.7818609E-02  0.8608398E-01
       -1   -1    0    0    0  501  0.00000000000E+00  0.00000000000E+00  0.50391219825E+03  0.50391219828E+03  0.50400001928E-02 0. -1.
        1   -1    0    0  501    0  0.00000000000E+00  0.00000000000E+00 -0.19769464745E+04  0.19769464745E+04  0.50400001928E-02 0.  1.
    10030    2    1    2    0    0  0.00000000000E+00  0.00000000000E+00 -0.14730342763E+04  0.24808586728E+04  0.19962038411E+04 0.  0.
        4    1    3    3  502    0 -0.79691830308E+02  0.94920986381E+03 -0.11069757790E+04  0.14603928039E+04  0.12699999809E+01 0. -1.
       -4    1    3    3    0  502  0.79691830308E+02 -0.94920986381E+03 -0.36605849730E+03  0.10204658690E+04  0.12699999809E+01 0.  1.
</event>
<event>
 5   0  0.1643565E-04  0.1943967E+04  0.7818609E-02  0.8633276E-01
        1   -1    0    0  501    0  0.00000000000E+00  0.00000000000E+00  0.18295160258E+04  0.18295160258E+04  0.50400001928E-02 0. -1.
       -1   -1    0    0    0  501  0.00000000000E+00  0.00000000000E+00 -0.51639441639E+03  0.51639441641E+03  0.50400001928E-02 0.  1.
    10030    2    1    2    0    0  0.00000000000E+00  0.00000000000E+00  0.13131216094E+04  0.23459104422E+04  0.19439669344E+04 0.  0.
        2    1    3    3  502    0  0.84647287602E+03  0.11734651929E+03  0.12154183224E+04  0.14857752972E+04  0.25500000920E-02 0. -1.
       -2    1    3    3    0  502 -0.84647287602E+03 -0.11734651929E+03  0.97703287071E+02  0.86013514504E+03  0.25500000920E-02 0.  1.
</event>
<event>
 5   0  0.1643565E-04  0.2147756E+04  0.7818609E-02  0.8540493E-01
       -1   -1    0    0    0  501  0.00000000000E+00  0.00000000000E+00  0.86585286811E+03  0.86585286813E+03  0.50400001928E-02 0. -1.
        1   -1    0    0  501    0  0.00000000000E+00  0.00000000000E+00 -0.13318818568E+04  0.13318818568E+04  0.50400001928E-02 0.  1.
    10030    2    1    2    0    0  0.00000000000E+00  0.00000000000E+00 -0.46602898869E+03  0.21977347249E+04  0.21477557829E+04 0.  0.
        2    1    3    3  502    0  0.39813490181E+03  0.70052329298E+03 -0.95944232608E+03  0.12529061661E+04  0.25500000920E-02 0.  1.
       -2    1    3    3    0  502 -0.39813490181E+03 -0.70052329298E+03  0.49341333739E+03  0.94482855882E+03  0.25500000920E-02 0. -1.
</event>
<event>
 5   0  0.1664168E-04  0.1935363E+04  0.7818609E-02  0.8637451E-01
        1   -1    0    0  501    0  0.00000000000E+00  0.00000000000E+00  0.92224243395E+03  0.92224243397E+03  0.50400001928E-02 0.  1.
       -1   -1    0    0    0  501  0.00000000000E+00  0.00000000000E+00 -0.10153597512E+04  0.10153597512E+04  0.50400001928E-02 0. -1.
    10030    2    1    2    0    0  0.00000000000E+00  0.00000000000E+00 -0.93117317252E+02  0.19376021852E+04  0.19353633750E+04 0.  0.
        5    1    3    3  502    0 -0.15983358368E+03  0.13033309420E+03 -0.99308993881E+03  0.10142895082E+04  0.46999998093E+01 0. -1.
       -5    1    3    3    0  502  0.15983358368E+03 -0.13033309420E+03  0.89997262155E+03  0.92331267697E+03  0.46999998093E+01 0.  1.
</event>
<event>
 5   0  0.1643565E-04  0.1985232E+04  0.7818609E-02  0.8613556E-01
        1   -1    0    0  501    0  0.00000000000E+00  0.00000000000E+00  0.11981419897E+04  0.11981419897E+04  0.50400001928E-02 0. -1.
       -1   -1    0    0    0  501  0.00000000000E+00  0.00000000000E+00 -0.82234568372E+03  0.82234568374E+03  0.50400001928E-02 0.  1.
    10030    2    1    2    0    0  0.00000000000E+00  0.00000000000E+00  0.37579630595E+03  0.20204876734E+04  0.19852323730E+04 0.  0.
        2    1    3    3  502    0 -0.56423697171E+03  0.18813348811E+03 -0.62090273101E+03  0.85981263713E+03  0.25500000920E-02 0.  1.
       -2    1    3    3    0  502  0.56423697171E+03 -0.18813348811E+03  0.99669903696E+03  0.11606750363E+04  0.25500000920E-02 0. -1.
</event>
<event>
 5   0  0.3371947E-04  0.2037820E+04  0.7818609E-02  0.8589140E-01
        2   -1    0    0  501    0  0.00000000000E+00  0.00000000000E+00  0.18352264164E+04  0.18352264164E+04  0.25500000920E-02 0. -1.
       -2   -1    0    0    0  501  0.00000000000E+00  0.00000000000E+00 -0.56569475401E+03  0.56569475402E+03  0.25500000920E-02 0.  1.
    10030    2    1    2    0    0  0.00000000000E+00  0.00000000000E+00  0.12695316624E+04  0.24009211704E+04  0.20378203613E+04 0.  0.
        2    1    3    3  502    0  0.87654834659E+03 -0.30907280568E+03  0.11266686661E+04  0.14605633455E+04  0.25500000920E-02 0. -1.
       -2    1    3    3    0  502 -0.87654834659E+03  0.30907280568E+03  0.14286299628E+03  0.94035782489E+03  0.25500000920E-02 0.  1.
</event>
<event>
 5   0  0.3371947E-04  0.2002288E+04  0.7818609E-02  0.8605552E-01
        2   -1    0    0  501    0  0.00000000000E+00  0.00000000000E+00  0.11251479697E+04  0.11251479697E+04  0.25500000920E-02 0.  1.
       -2   -1    0    0    0  501  0.00000000000E+00  0.00000000000E+00 -0.89080689221E+03  0.89080689222E+03  0.25500000920E-02 0. -1.
    10030    2    1    2    0    0  0.00000000000E+00  0.00000000000E+00  0.23434107746E+03  0.20159548619E+04  0.20022882571E+04 0.  0.
        2    1    3    3  502    0  0.48721049864E+03 -0.45655444367E+03 -0.63389262331E+03  0.92067143320E+03  0.25500000920E-02 0. -1.
       -2    1    3    3    0  502 -0.48721049864E+03  0.45655444367E+03  0.86823370077E+03  0.10952834287E+04  0.25500000920E-02 0.  1.
</event>
<event>
 5   0  0.3431030E-04  0.2020920E+04  0.7818609E-02  0.8596902E-01
       -2   -1    0    0    0  501  0.00000000000E+00  0.00000000000E+00  0.90998714870E+03  0.90998714870E+03  0.25500000920E-02 0.  1.
        2   -1    0    0  501    0  0.00000000000E+00  0.00000000000E+00 -0.11220258072E+04  0.11220258072E+04  0.25500000920E-02 0. -1.
    10030    2    1    2    0    0  0.00000000000E+00  0.00000000000E+00 -0.21203865846E+03  0.20320129559E+04  0.20209196570E+04 0.  0.
        3    1    3    3  502    0 -0.63687322067E+03  0.52895614857E+03  0.47649395864E+03  0.95522175914E+03  0.10100000352E+00 0.  1.
       -3    1    3    3    0  502  0.63687322067E+03 -0.52895614857E+03 -0.68853261710E+03  0.10767911967E+04  0.10100000352E+00 0. -1.
</event>
<event>
 5   0  0.1650221E-04  0.2005356E+04  0.7818609E-02  0.8604121E-01
        1   -1    0    0  501    0  0.00000000000E+00  0.00000000000E+00  0.12771251794E+04  0.12771251794E+04  0.50400001928E-02 0.  1.
       -1   -1    0    0    0  501  0.00000000000E+00  0.00000000000E+00 -0.78720793764E+03  0.78720793765E+03  0.50400001928E-02 0. -1.
    10030    2    1    2    0    0  0.00000000000E+00  0.00000000000E+00  0.48991724177E+03  0.20643331171E+04  0.20053559072E+04 0.  0.
        1    1    3    3  502    0 -0.37030514405E+03 -0.65457833033E+03  0.92760901770E+03  0.11941763605E+04  0.50400001928E-02 0.  1.
       -1    1    3    3    0  502  0.37030514405E+03  0.65457833033E+03 -0.43769177593E+03  0.87015675656E+03  0.50400001928E-02 0. -1.
</event>
<event>
 5   0  0.1643565E-04  0.1983830E+04  0.7818609E-02  0.8614218E-01
        1   -1    0    0  501    0  0.00000000000E+00  0.00000000000E+00  0.11232147510E+04  0.11232147510E+04  0.50400001928E-02 0. -1.
       -1   -1    0    0    0  501  0.00000000000E+00  0.00000000000E+00 -0.87596403035E+03  0.87596403036E+03  0.50400001928E-02 0.  1.
    10030    2    1    2    0    0  0.00000000000E+00  0.00000000000E+00  0.24725072063E+03  0.19991787813E+04  0.19838303559E+04 0.  0.
        2    1    3    3  502    0 -0.75432843811E+03 -0.96767400252E+02  0.76535700350E+03  0.10789562851E+04  0.25500000920E-02 0. -1.
       -2    1    3    3    0  502  0.75432843811E+03  0.96767400252E+02 -0.51810628287E+03  0.92022249627E+03  0.25500000920E-02 0.  1.
</event>
<event>
 5   0  0.1643565E-04  0.1996425E+04  0.7818609E-02  0.8608294E-01
        1   -1    0    0  501    0  0.00000000000E+00  0.00000000000E+00  0.17704451609E+04  0.17704451609E+04  0.50400001928E-02 0.  1.
       -1   -1    0    0    0  501  0.00000000000E+00  0.00000000000E+00 -0.56281203900E+03  0.56281203903E+03  0.50400001928E-02 0. -1.
    10030    2    1    2    0    0  0.00000000000E+00  0.00000000000E+00  0.12076331219E+04  0.23332571999E+04  0.19964246552E+04 0.  0.
        2    1    3    3  502    0 -0.11356883302E+03  0.93783083019E+03  0.98072274261E+03  0.13617054174E+04  0.25500000920E-02 0.  1.
       -2    1    3    3    0  502  0.11356883302E+03 -0.93783083019E+03  0.22691037926E+03  0.97155178251E+03  0.25500000920E-02 0. -1.
</event>
<event>
 5   0  0.3431030E-04  0.1999287E+04  0.7818609E-02  0.8606954E-01
        2   -1    0    0  501    0  0.00000000000E+00  0.00000000000E+00  0.19148543277E+04  0.19148543277E+04  0.25500000920E-02 0. -1.
       -2   -1    0    0    0  501  0.00000000000E+00  0.00000000000E+00 -0.52186041810E+03  0.52186041810E+03  0.25500000920E-02 0.  1.
    10030    2    1    2    0    0  0.00000000000E+00  0.00000000000E+00  0.13929939096E+04  0.24367147458E+04  0.19992865528E+04 0.  0.
        3    1    3    3  502    0 -0.50284335397E+03  0.17183243390E+03 -0.33546008030E+03  0.62841968432E+03  0.10100000352E+00 0.  1.
       -3    1    3    3    0  502  0.50284335397E+03 -0.17183243390E+03  0.17284539899E+04  0.18082950615E+04  0.10100000352E+00 0. -1.
</event>
<event>
 5   0  0.3371947E-04  0.2035523E+04  0.7818609E-02  0.8590190E-01
        2   -1    0    0  501    0  0.00000000000E+00  0.00000000000E+00  0.13650758275E+04  0.13650758275E+04  0.25500000920E-02 0.  1.
       -2   -1    0    0    0  501  0.00000000000E+00  0.00000000000E+00 -0.75881423324E+03  0.75881423325E+03  0.25500000920E-02 0. -1.
    10030    2    1    2    0    0  0.00000000000E+00  0.00000000000E+00  0.60626159421E+03  0.21238900607E+04  0.20355234878E+04 0.  0.
        2    1    3    3  502    0 -0.28149163447E+03 -0.40320810669E+03  0.12328951834E+04  0.13273450383E+04  0.25500000920E-02 0.  1.
       -2    1    3    3    0  502  0.28149163447E+03  0.40320810669E+03 -0.62663358917E+03  0.79654502237E+03  0.25500000920E-02 0. -1.
</event>
<event>
 5   0  0.3371947E-04  0.1871800E+04  0.7818609E-02  0.8669022E-01
       -2   -1    0    0    0  501  0.00000000000E+00  0.00000000000E+00  0.81469606364E+03  0.81469606364E+03  0.25500000920E-02 0. -1.
        2   -1    0    0  501    0  0.00000000000E+00  0.00000000000E+00 -0.10751361427E+04  0.10751361427E+04  0.25500000920E-02 0.  1.
    10030    2    1    2    0    0  0.00000000000E+00  0.00000000000E+00 -0.26044007904E+03  0.18898322063E+04  0.18718003989E+04 0.  0.
        2    1    3    3  502    0  0.14316127131E+03 -0.90062604162E+03 -0.34269154660E+03  0.97419706044E+03  0.25500000920E-02 0.  1.
       -2    1    3    3    0  502 -0.14316127131E+03  0.90062604162E+03  0.82251467567E+02  0.91563514588E+03  0.25500000920E-02 0. -1.
</event>
<event>
 5   0  0.1696052E-04  0.2024785E+04  0.7818609E-02  0.8595120E-01
       -1   -1    0    0    0  501  0.00000000000E+00  0.00000000000E+00  0.83656394304E+03  0.83656394306E+03  0.50400001928E-02 0. -1.
        1   -1    0    0  501    0  0.00000000000E+00  0.00000000000E+00 -0.12251769686E+04  0.12251769686E+04  0.50400001928E-02 0.  1.
    10030    2    1    2    0    0  0.00000000000E+00  0.00000000000E+00 -0.38861302554E+03  0.20617409117E+04  0.20247852980E+04 0.  0.
        4    1    3    3  502    0 -0.98297294452E+03  0.15987992482E+03 -0.89403483549E+01  0.99593119378E+03  0.12699999809E+01 0. -1.
       -4    1    3    3    0  502  0.98297294452E+03 -0.15987992482E+03 -0.37967267719E+03  0.10658097179E+04  0.12699999809E+01 0.  1.
</event>
<event>
 5   0  0.1222488E-04  0.1968658E+04  0.7818609E-02  0.8621416E-01
       -3   -1    0    0    0  501  0.00000000000E+00  0.00000000000E+00  0.16374718641E+04  0.16374718672E+04  0.10100000352E+00 0.  1.
        3   -1    0    0  501    0  0.00000000000E+00  0.00000000000E+00 -0.59170724392E+03  0.59170725254E+03  0.10100000352E+00 0. -1.
    10030    2    1    2    0    0  0.00000000000E+00  0.00000000000E+00  0.10457646202E+04  0.22291791197E+04  0.19686584028E+04 0.  0.
        1    1    3    3  502    0  0.76133697118E+03  0.27892220243E+03 -0.10907011511E+03  0.81812460465E+03  0.50400001928E-02 0. -1.
       -1    1    3    3    0  502 -0.76133697118E+03 -0.27892220243E+03  0.11548347353E+04  0.14110545151E+04  0.50400001928E-02 0.  1.
</event>
<event>
 5   0  0.3387881E-04  0.1497693E+04  0.7818609E-02  0.8885988E-01
        2   -1    0    0  501    0  0.00000000000E+00  0.00000000000E+00  0.86318308938E+03  0.86318308939E+03  0.25500000920E-02 0.  1.
       -2   -1    0    0    0  501  0.00000000000E+00  0.00000000000E+00 -0.64965515995E+03  0.64965515996E+03  0.25500000920E-02 0. -1.
    10030    2    1    2    0    0  0.00000000000E+00  0.00000000000E+00  0.21352792943E+03  0.15128382493E+04  0.14976933571E+04 0.  0.
        1    1    3    3  502    0 -0.10226872107E+01  0.53456858910E+03  0.63647771976E+03  0.83118500355E+03  0.50400001928E-02 0.  1.
       -1    1    3    3    0  502  0.10226872107E+01 -0.53456858910E+03 -0.42294979033E+03  0.68165324580E+03  0.50400001928E-02 0. -1.
</event>
<event>
 5   0  0.3431030E-04  0.1108549E+04  0.7818609E-02  0.9196899E-01
        2   -1    0    0  501    0  0.00000000000E+00  0.00000000000E+00  0.98469996562E+03  0.98469996562E+03  0.25500000920E-02 0.  1.
       -2   -1    0    0    0  501  0.00000000000E+00  0.00000000000E+00 -0.31199387340E+03  0.31199387341E+03  0.25500000920E-02 0. -1.
    10030    2    1    2    0    0  0.00000000000E+00  0.00000000000E+00  0.67270609222E+03  0.12966938390E+04  0.11085492437E+04 0.  0.
        3    1    3    3  502    0  0.33380381609E+03  0.41050969154E+03  0.52954185602E+03  0.74857049232E+03  0.10100000352E+00 0.  1.
       -3    1    3    3    0  502 -0.33380381609E+03 -0.41050969154E+03  0.14316423620E+03  0.54812334672E+03  0.10100000352E+00 0. -1.
</event>
<event>
 5   0  0.1643565E-04  0.1143084E+04  0.7818609E-02  0.9164187E-01
       -1   -1    0    0    0  501  0.00000000000E+00  0.00000000000E+00  0.25165118084E+03  0.25165118089E+03  0.50400001928E-02 0. -1.
        1   -1    0    0  501    0  0.00000000000E+00  0.00000000000E+00 -0.12980685736E+04  0.12980685736E+04  0.50400001928E-02 0.  1.
    10030    2    1    2    0    0  0.00000000000E+00  0.00000000000E+00 -0.10464173927E+04  0.15497197545E+04  0.11430844053E+04 0.  0.
        2    1    3    3  502    0  0.27656744723E+03  0.15037637795E+03 -0.11699354248E+04  0.12115492174E+04  0.25500000920E-02 0.  1.
       -2    1    3    3    0  502 -0.27656744723E+03 -0.15037637795E+03  0.12351803207E+03  0.33817053710E+03  0.25500000920E-02 0. -1.
</event>
<event>
 5   0  0.3431030E-04  0.2020947E+04  0.7818609E-02  0.8596889E-01
        2   -1    0    0  501    0  0.00000000000E+00  0.00000000000E+00  0.52124119846E+03  0.52124119846E+03  0.25500000920E-02 0.  1.
       -2   -1    0    0    0  501  0.00000000000E+00  0.00000000000E+00 -0.19588953167E+04  0.19588953167E+04  0.25500000920E-02 0. -1.
    10030    2    1    2    0    0  0.00000000000E+00  0.00000000000E+00 -0.14376541183E+04  0.24801365152E+04  0.20209472458E+04 0.  0.
        3    1    3    3  502    0 -0.84019592231E+03 -0.67631807905E+02 -0.34932810177E+02  0.84363710251E+03  0.10100000352E+00 0.  1.
       -3    1    3    3    0  502  0.84019592231E+03  0.67631807905E+02 -0.14027213081E+04  0.16364994127E+04  0.10100000352E+00 0. -1.
</event>
<event>
 5   0  0.3371947E-04  0.2087031E+04  0.7818609E-02  0.8566978E-01
       -2   -1    0    0    0  501  0.00000000000E+00  0.00000000000E+00  0.57799400684E+03  0.57799400684E+03  0.25500000920E-02 0.  1.
        2   -1    0    0  501    0  0.00000000000E+00  0.00000000000E+00 -0.18839727185E+04  0.18839727185E+04  0.25500000920E-02 0. -1.
    10030    2    1    2    0    0  0.00000000000E+00  0.00000000000E+00 -0.13059787117E+04  0.24619667254E+04  0.20870313274E+04 0.  0.
        2    1    3    3  502    0 -0.99066527058E+03 -0.10341659372E+02 -0.10395841330E+04  0.14360570316E+04  0.25500000920E-02 0. -1.
       -2    1    3    3    0  502  0.99066527058E+03  0.10341659372E+02 -0.26639457864E+03  0.10259096938E+04  0.25500000920E-02 0.  1.
</event>
<event>
 5   0  0.3460648E-04  0.1960126E+04  0.7818609E-02  0.8625493E-01
       -2   -1    0    0    0  501  0.00000000000E+00  0.00000000000E+00  0.17114349063E+04  0.17114349063E+04  0.25500000920E-02 0. -1.
        2   -1    0    0  501    0  0.00000000000E+00  0.00000000000E+00 -0.56123882994E+03  0.56123882995E+03  0.25500000920E-02 0.  1.
    10030    2    1    2    0    0  0.00000000000E+00  0.00000000000E+00  0.11501960763E+04  0.22726737362E+04  0.19601262452E+04 0.  0.
        5    1    3    3  502    0  0.70277415301E+03  0.19262367443E+03  0.13349653992E+04  0.15209043681E+04  0.46999998093E+01 0. -1.
       -5    1    3    3    0  502 -0.70277415301E+03 -0.19262367443E+03 -0.18476932285E+03  0.75176936806E+03  0.46999998093E+01 0.  1.
</event>
<event>
 5   0  0.1664168E-04  0.1509281E+04  0.7818609E-02  0.8878304E-01
        1   -1    0    0  501    0  0.00000000000E+00  0.00000000000E+00  0.24827572264E+04  0.24827572264E+04  0.50400001928E-02 0.  1.
       -1   -1    0    0    0  501  0.00000000000E+00  0.00000000000E+00 -0.22937495010E+03  0.22937495015E+03  0.50400001928E-02 0. -1.
    10030    2    1    2    0    0  0.00000000000E+00  0.00000000000E+00  0.22533822763E+04  0.27121321766E+04  0.15092810408E+04 0.  0.
        5    1    3    3  502    0  0.48389296014E+03  0.41458618854E+03  0.40024826049E+03  0.75249907949E+03  0.46999998093E+01 0. -1.
       -5    1    3    3    0  502 -0.48389296014E+03 -0.41458618854E+03  0.18531340158E+04  0.19596330971E+04  0.46999998093E+01 0.  1.
</event>
<event>
 5   0  0.1664168E-04  0.1976109E+04  0.7818609E-02  0.8617872E-01
       -1   -1    0    0    0  501  0.00000000000E+00  0.00000000000E+00  0.69402553688E+03  0.69402553690E+03  0.50400001928E-02 0. -1.
        1   -1    0    0  501    0  0.00000000000E+00  0.00000000000E+00 -0.14066515487E+04  0.14066515487E+04  0.50400001928E-02 0.  1.
    10030    2    1    2    0    0  0.00000000000E+00  0.00000000000E+00 -0.71262601183E+03  0.21006770856E+04  0.19761094062E+04 0.  0.
        5    1    3    3  502    0 -0.67157588204E+03 -0.34930725395E+02  0.41319327367E+03  0.78929404680E+03  0.46999998093E+01 0. -1.
       -5    1    3    3    0  502  0.67157588204E+03  0.34930725395E+02 -0.11258192855E+04  0.13113830388E+04  0.46999998093E+01 0.  1.
</event>
<event>
 5   0  0.3387881E-04  0.1942403E+04  0.7818609E-02  0.8634033E-01
       -2   -1    0    0    0  501  0.00000000000E+00  0.00000000000E+00  0.89232991878E+03  0.89232991879E+03  0.25500000920E-02 0.  1.
        2   -1    0    0  501    0  0.00000000000E+00  0.00000000000E+00 -0.10570443297E+04  0.10570443297E+04  0.25500000920E-02 0. -1.
    10030    2    1    2    0    0  0.00000000000E+00  0.00000000000E+00 -0.16471441096E+03  0.19493742485E+04  0.19424029252E+04 0.  0.
        1    1    3    3  502    0  0.25217594896E+03 -0.80504662514E+03 -0.56526970832E+03  0.10154913200E+04  0.50400001928E-02 0. -1.
       -1    1    3    3    0  502 -0.25217594896E+03  0.80504662514E+03  0.40055529736E+03  0.93388292850E+03  0.50400001928E-02 0.  1.
</event>
<event>
 5   0  0.1696052E-04  0.1939528E+04  0.7818609E-02  0.8635427E-01
        1   -1    0    0  501    0  0.00000000000E+00  0.00000000000E+00  0.90887416749E+03  0.90887416750E+03  0.50400001928E-02 0. -1.
       -1   -1    0    0    0  501  0.00000000000E+00  0.00000000000E+00 -0.10347335161E+04  0.10347335161E+04  0.50400001928E-02 0.  1.
    10030    2    1    2    0    0  0.00000000000E+00  0.00000000000E+00 -0.12585934865E+03  0.19436076836E+04  0.19395283582E+04 0.  0.
        4    1    3    3  502    0  0.21046882798E+02  0.94060920989E+03 -0.29848212511E+03  0.98705716598E+03  0.12699999809E+01 0.  1.
       -4    1    3    3    0  502 -0.21046882798E+02 -0.94060920989E+03  0.17262277647E+03  0.95655051767E+03  0.12699999809E+01 0. -1.
</event>
<event>
 5   0  0.3371947E-04  0.1794733E+04  0.7818609E-02  0.8709106E-01
       -2   -1    0    0    0  501  0.00000000000E+00  0.00000000000E+00  0.56803124345E+03  0.56803124345E+03  0.25500000920E-02 0. -1.
        2   -1    0    0  501    0  0.00000000000E+00  0.00000000000E+00 -0.14176442633E+04  0.14176442633E+04  0.25500000920E-02 0.  1.
    10030    2    1    2    0    0  0.00000000000E+00  0.00000000000E+00 -0.84961301988E+03  0.19856755068E+04  0.17947325524E+04 0.  0.
        2    1    3    3  502    0  0.39456809219E+03 -0.34636108475E+03 -0.12299794876E+04  0.13373479429E+04  0.25500000920E-02 0.  1.
       -2    1    3    3    0  502 -0.39456809219E+03  0.34636108475E+03  0.38036646769E+03  0.64832756393E+03  0.25500000920E-02 0. -1.
</event>
<event>
 5   0  0.1650221E-04  0.1986286E+04  0.7818609E-02  0.8613059E-01
        1   -1    0    0  501    0  0.00000000000E+00  0.00000000000E+00  0.30043772474E+04  0.30043772474E+04  0.50400001928E-02 0.  1.
       -1   -1    0    0    0  501  0.00000000000E+00  0.00000000000E+00 -0.32829873478E+03  0.32829873482E+03  0.50400001928E-02 0. -1.
    10030    2    1    2    0    0  0.00000000000E+00  0.00000000000E+00  0.26760785126E+04  0.33326759822E+04  0.19862862324E+04 0.  0.
        1    1    3    3  502    0 -0.10578555286E+03 -0.33687626174E+03 -0.21942641222E+03  0.41572123992E+03  0.50400001928E-02 0. -1.
       -1    1    3    3    0  502  0.10578555286E+03  0.33687626174E+03  0.28955049248E+04  0.29169547423E+04  0.50400001928E-02 0.  1.
</event>
<event>
 5   0  0.3395569E-04  0.2066612E+04  0.7818609E-02  0.8576095E-01
       -2   -1    0    0    0  501  0.00000000000E+00  0.00000000000E+00  0.54697645786E+03  0.54697645787E+03  0.25500000920E-02 0.  1.
        2   -1    0    0  501    0  0.00000000000E+00  0.00000000000E+00 -0.19520428334E+04  0.19520428334E+04  0.25500000920E-02 0. -1.
    10030    2    1    2    0    0  0.00000000000E+00  0.00000000000E+00 -0.14050663755E+04  0.24990192913E+04  0.20666121790E+04 0.  0.
        4    1    3    3  502    0 -0.29068251237E+03  0.73865959002E+03  0.97396903875E+02  0.79975126303E+03  0.12699999809E+01 0.  1.
       -4    1    3    3    0  502  0.29068251237E+03 -0.73865959002E+03 -0.15024632794E+04  0.16992680282E+04  0.12699999809E+01 0. -1.
</event>
<event>
 5   0  0.1696052E-04  0.1049451E+04  0.7818609E-02  0.9255911E-01
       -1   -1    0    0    0  501  0.00000000000E+00  0.00000000000E+00  0.10015205533E+04  0.10015205533E+04  0.50400001928E-02 0.  1.
        1   -1    0    0  501    0  0.00000000000E+00  0.00000000000E+00 -0.27491896535E+03  0.27491896539E+03  0.50400001928E-02 0. -1.
    10030    2    1    2    0    0  0.00000000000E+00  0.00000000000E+00  0.72660158792E+03  0.12764395187E+04  0.10494512744E+04 0.  0.
        4    1    3    3  502    0  0.11746887992E+03  0.25202201371E+02 -0.25796304753E+03  0.28457096741E+03  0.12699999809E+01 0. -1.
       -4    1    3    3    0  502 -0.11746887992E+03 -0.25202201371E+02  0.98456463545E+03  0.99186855126E+03  0.12699999809E+01 0.  1.
</event>
<event>
 5   0  0.3460648E-04  0.2032784E+04  0.7818609E-02  0.8591445E-01
       -2   -1    0    0    0  501  0.00000000000E+00  0.00000000000E+00  0.48774899915E+03  0.48774899916E+03  0.25500000920E-02 0.  1.
        2   -1    0    0  501    0  0.00000000000E+00  0.00000000000E+00 -0.21180002417E+04  0.21180002417E+04  0.25500000920E-02 0. -1.
    10030    2    1    2    0    0  0.00000000000E+00  0.00000000000E+00 -0.16302512425E+04  0.26057492408E+04  0.20327838036E+04 0.  0.
        5    1    3    3  502    0 -0.15207972691E+03  0.53451599445E+02  0.47124432962E+03  0.49807491908E+03  0.46999998093E+01 0.  1.
       -5    1    3    3    0  502  0.15207972691E+03 -0.53451599445E+02 -0.21014955721E+04  0.21076743217E+04  0.46999998093E+01 0. -1.
</event>
<event>
 5   0  0.1696052E-04  0.2007539E+04  0.7818609E-02  0.8603104E-01
       -1   -1    0    0    0  501  0.00000000000E+00  0.00000000000E+00  0.14755943158E+04  0.14755943158E+04  0.50400001928E-02 0. -1.
        1   -1    0    0  501    0  0.00000000000E+00  0.00000000000E+00 -0.68281153706E+03  0.68281153708E+03  0.50400001928E-02 0.  1.
    10030    2    1    2    0    0  0.00000000000E+00  0.00000000000E+00  0.79278277875E+03  0.21584058529E+04  0.20075386152E+04 0.  0.
        4    1    3    3  502    0  0.56235916036E+03  0.21868812859E+03  0.12588462086E+04  0.13959827050E+04  0.12699999809E+01 0. -1.
       -4    1    3    3    0  502 -0.56235916036E+03 -0.21868812859E+03 -0.46606342989E+03  0.76242314787E+03  0.12699999809E+01 0.  1.
</event>
<event>
 5   0  0.1664168E-04  0.1722492E+04  0.7818609E-02  0.8748640E-01
       -1   -1    0    0    0  501  0.00000000000E+00  0.00000000000E+00  0.89404470935E+03  0.89404470937E+03  0.50400001928E-02 0. -1.
        1   -1    0    0  501    0  0.00000000000E+00  0.00000000000E+00 -0.82965010735E+03  0.82965010736E+03  0.50400001928E-02 0.  1.
    10030    2    1    2    0    0  0.00000000000E+00  0.00000000000E+00  0.64394602009E+02  0.17236948167E+04  0.17224915548E+04 0.  0.
        5    1    3    3  502    0  0.50405230686E+03  0.69712343740E+03  0.73120661354E+02  0.86337624252E+03  0.46999998093E+01 0. -1.
       -5    1    3    3    0  502 -0.50405230686E+03 -0.69712343740E+03 -0.87260593444E+01  0.86031857421E+03  0.46999998093E+01 0.  1.
</event>
<event>
 5   0  0.3387881E-04  0.1959645E+04  0.7818609E-02  0.8625724E-01
        2   -1    0    0  501    0  0.00000000000E+00  0.00000000000E+00  0.74137068018E+03  0.74137068019E+03  0.25500000920E-02 0. -1.
       -2   -1    0    0    0  501  0.00000000000E+00  0.00000000000E+00 -0.12949696680E+04  0.12949696680E+04  0.25500000920E-02 0.  1.
    10030    2    1    2    0    0  0.00000000000E+00  0.00000000000E+00 -0.55359898780E+03  0.20363403482E+04  0.19596454206E+04 0.  0.
        1    1    3    3  502    0 -0.65966241714E+03 -0.25042270686E+03  0.42965062207E+03  0.82611481876E+03  0.50400001928E-02 0. -1.
       -1    1    3    3    0  502  0.65966241714E+03  0.25042270686E+03 -0.98324960987E+03  0.12102255294E+04  0.50400001928E-02 0.  1.
</event>
<event>
 5   0  0.1664168E-04  0.1996115E+04  0.7818609E-02  0.8608439E-01
       -1   -1    0    0    0  501  0.00000000000E+00  0.00000000000E+00  0.32437473287E+03  0.32437473291E+03  0.50400001928E-02 0.  1.
        1   -1    0    0  501    0  0.00000000000E+00  0.00000000000E+00 -0.30708877991E+04  0.30708877991E+04  0.50400001928E-02 0. -1.
    10030    2    1    2    0    0  0.00000000000E+00  0.00000000000E+00 -0.27465130663E+04  0.33952625320E+04  0.19961146356E+04 0.  0.
        5    1    3    3  502    0 -0.40927405083E+03 -0.67998365147E+03 -0.24025872692E+04  0.25302827295E+04  0.46999998093E+01 0. -1.
       -5    1    3    3    0  502  0.40927405083E+03  0.67998365147E+03 -0.34392579704E+03  0.86497980255E+03  0.46999998093E+01 0.  1.
</event>
<event>
 5   0  0.3387881E-04  0.1976408E+04  0.7818609E-02  0.8617731E-01
        2   -1    0    0  501    0  0.00000000000E+00  0.00000000000E+00  0.22808972211E+04  0.22808972211E+04  0.25500000920E-02 0.  1.
       -2   -1    0    0    0  501  0.00000000000E+00  0.00000000000E+00 -0.42814159993E+03  0.42814159994E+03  0.25500000920E-02 0. -1.
    10030    2    1    2    0    0  0.00000000000E+00  0.00000000000E+00  0.18527556211E+04  0.27090388210E+04  0.19764078380E+04 0.  0.
        1    1    3    3  502    0  0.13138158648E+02  0.87607204509E+03  0.29993861161E+03  0.92608747436E+03  0.50400001928E-02 0. -1.
       -1    1    3    3    0  502 -0.13138158648E+02 -0.87607204509E+03  0.15528170095E+04  0.17829513466E+04  0.50400001928E-02 0.  1.
</event>
<event>
 5   0  0.1708578E-04  0.1946533E+04  0.7818609E-02  0.8632034E-01
       -1   -1    0    0    0  501  0.00000000000E+00  0.00000000000E+00  0.72327073251E+03  0.72327073253E+03  0.50400001928E-02 0. -1.
        1   -1    0    0  501    0  0.00000000000E+00  0.00000000000E+00 -0.13096725889E+04  0.13096725889E+04  0.50400001928E-02 0.  1.
    10030    2    1    2    0    0  0.00000000000E+00  0.00000000000E+00 -0.58640185640E+03  0.20329433215E+04  0.19465331775E+04 0.  0.
        3    1    3    3  502    0  0.89929309861E+03 -0.24624369443E+03 -0.17354993438E+01  0.93239855020E+03  0.10100000352E+00 0.  1.
       -3    1    3    3    0  502 -0.89929309861E+03  0.24624369443E+03 -0.58466635706E+03  0.11005447713E+04  0.10100000352E+00 0. -1.
</event>
<event>
 5   0  0.1664168E-04  0.1958564E+04  0.7818609E-02  0.8626242E-01
       -1   -1    0    0    0  501  0.00000000000E+00  0.00000000000E+00  0.11875281806E+04  0.11875281807E+04  0.50400001928E-02 0.  1.
        1   -1    0    0  501    0  0.00000000000E+00  0.00000000000E+00 -0.80755438929E+03  0.80755438930E+03  0.50400001928E-02 0. -1.
    10030    2    1    2    0    0  0.00000000000E+00  0.00000000000E+00  0.37997379135E+03  0.19950825700E+04  0.19585643668E+04 0.  0.
        5    1    3    3  502    0 -0.40578958620E+03  0.18072690038E+03  0.10789813827E+04  0.11668548817E+04  0.46999998093E+01 0.  1.
       -5    1    3    3    0  502  0.40578958620E+03 -0.18072690038E+03 -0.69900759135E+03  0.82822768823E+03  0.46999998093E+01 0. -1.
</event>
<event>
 5   0  0.3395569E-04  0.2079980E+04  0.7818609E-02  0.8570114E-01
       -2   -1    0    0    0  501  0.00000000000E+00  0.00000000000E+00  0.42887751863E+03  0.42887751864E+03  0.25500000920E-02 0. -1.
        2   -1    0    0  501    0  0.00000000000E+00  0.00000000000E+00 -0.25218843761E+04  0.25218843761E+04  0.25500000920E-02 0.  1.
    10030    2    1    2    0    0  0.00000000000E+00  0.00000000000E+00 -0.20930068575E+04  0.29507618948E+04  0.20799803014E+04 0.  0.
        4    1    3    3  502    0  0.86895277056E+01 -0.36261127560E+03 -0.24292426442E+04  0.24561726084E+04  0.12699999809E+01 0.  1.
       -4    1    3    3    0  502 -0.86895277056E+01  0.36261127560E+03  0.33623578666E+03  0.49458928639E+03  0.12699999809E+01 0. -1.
</event>
<event>
 5   0  0.3371947E-04  0.1983801E+04  0.7818609E-02  0.8614232E-01
       -2   -1    0    0    0  501  0.00000000000E+00  0.00000000000E+00  0.74961018643E+03  0.74961018643E+03  0.25500000920E-02 0. -1.
        2   -1    0    0  501    0  0.00000000000E+00  0.00000000000E+00 -0.13125043045E+04  0.13125043045E+04  0.25500000920E-02 0.  1.
    10030    2    1    2    0    0  0.00000000000E+00  0.00000000000E+00 -0.56289411811E+03  0.20621144910E+04  0.19838009945E+04 0.  0.
        2    1    3    3  502    0  0.72927616081E+03 -0.29540767454E+03 -0.90924024465E+03  0.12024255633E+04  0.25500000920E-02 0.  1.
       -2    1    3    3    0  502 -0.72927616081E+03  0.29540767454E+03  0.34634612654E+03  0.85968892762E+03  0.25500000920E-02 0. -1.
</event>
<event>
 5   0  0.1696052E-04  0.1990346E+04  0.7818609E-02  0.8611148E-01
        1   -1    0    0  501    0  0.00000000000E+00  0.00000000000E+00  0.16310593160E+04  0.16310593160E+04  0.50400001928E-02 0.  1.
       -1   -1    0    0    0  501  0.00000000000E+00  0.00000000000E+00 -0.60719361810E+03  0.60719361812E+03  0.50400001928E-02 0. -1.
    10030    2    1    2    0    0  0.00000000000E+00  0.00000000000E+00  0.10238656979E+04  0.22382529341E+04  0.19903455051E+04 0.  0.
        4    1    3    3  502    0  0.77838139665E+02  0.15530019054E+03 -0.59001068373E+03  0.61505377406E+03  0.12699999809E+01 0. -1.
       -4    1    3    3    0  502 -0.77838139665E+02 -0.15530019054E+03  0.16138763816E+04  0.16231991601E+04  0.12699999809E+01 0.  1.
</event>
<event>
 5   0  0.3460648E-04  0.1974851E+04  0.7818609E-02  0.8618470E-01
       -2   -1    0    0    0  501  0.00000000000E+00  0.00000000000E+00  0.53126840943E+03  0.53126840944E+03  0.25500000920E-02 0.  1.
        2   -1    0    0  501    0  0.00000000000E+00  0.00000000000E+00 -0.18352467861E+04  0.18352467861E+04  0.25500000920E-02 0. -1.
    10030    2    1    2    0    0  0.00000000000E+00  0.00000000000E+00 -0.13039783767E+04  0.23665151955E+04  0.19748505168E+04 0.  0.
        5    1    3    3  502    0 -0.24266831047E+02  0.87924905115E+03 -0.11431744635E+03  0.88699399185E+03  0.46999998093E+01 0.  1.
       -5    1    3    3    0  502  0.24266831047E+02 -0.87924905115E+03 -0.11896609303E+04  0.14795212037E+04  0.46999998093E+01 0. -1.
</event>
<event>
 5   0  0.1650221E-04  0.1944084E+04  0.7818609E-02  0.8633219E-01
        1   -1    0    0  501    0  0.00000000000E+00  0.00000000000E+00  0.85012612973E+03  0.85012612975E+03  0.50400001928E-02 0.  1.
       -1   -1    0    0    0  501  0.00000000000E+00  0.00000000000E+00 -0.11114417779E+04  0.11114417779E+04  0.50400001928E-02 0. -1.
    10030    2    1    2    0    0  0.00000000000E+00  0.00000000000E+00 -0.26131564820E+03  0.19615679077E+04  0.19440840487E+04 0.  0.
        1    1    3    3  502    0 -0.82234213200E+03 -0.38992434028E+03 -0.47516386503E+03  0.10266782709E+04  0.50400001928E-02 0. -1.
       -1    1    3    3    0  502  0.82234213200E+03  0.38992434028E+03  0.21384821683E+03  0.93488963684E+03  0.50400001928E-02 0.  1.
</event>
<event>
 5   0  0.3395569E-04  0.2019945E+04  0.7818609E-02  0.8597352E-01
       -2   -1    0    0    0  501  0.00000000000E+00  0.00000000000E+00  0.40676441299E+03  0.40676441300E+03  0.25500000920E-02 0.  1.
        2   -1    0    0  501    0  0.00000000000E+00  0.00000000000E+00 -0.25077042715E+04  0.25077042715E+04  0.25500000920E-02 0. -1.
    10030    2    1    2    0    0  0.00000000000E+00  0.00000000000E+00 -0.21009398585E+04  0.29144686845E+04  0.20199454012E+04 0.  0.
        4    1    3    3  502    0 -0.79406920127E+03  0.11902106322E+03 -0.19344188568E+04  0.20944426076E+04  0.12699999809E+01 0. -1.
       -4    1    3    3    0  502  0.79406920127E+03 -0.11902106322E+03 -0.16652100165E+03  0.82002607689E+03  0.12699999809E+01 0.  1.
</event>
<event>
 5   0  0.1643565E-04  0.1991778E+04  0.7818609E-02  0.8610474E-01
       -1   -1    0    0    0  501  0.00000000000E+00  0.00000000000E+00  0.60007638540E+03  0.60007638542E+03  0.50400001928E-02 0.  1.
        1   -1    0    0  501    0  0.00000000000E+00  0.00000000000E+00 -0.16527811056E+04  0.16527811057E+04  0.50400001928E-02 0. -1.
    10030    2    1    2    0    0  0.00000000000E+00  0.00000000000E+00 -0.10527047202E+04  0.22528574911E+04  0.19917780115E+04 0.  0.
        2    1    3    3  502    0 -0.55679675374E+03  0.40851839076E+03  0.28525861549E+03  0.74718296172E+03  0.25500000920E-02 0.  1.
       -2    1    3    3    0  502  0.55679675374E+03 -0.40851839076E+03 -0.13379633357E+04  0.15056745294E+04  0.25500000920E-02 0. -1.
</event>
<event>
 5   0  0.1643565E-04  0.1067661E+04  0.7818609E-02  0.9237298E-01
       -1   -1    0    0    0  501  0.00000000000E+00  0.00000000000E+00  0.84228323953E+03  0.84228323954E+03  0.50400001928E-02 0. -1.
        1   -1    0    0  501    0  0.00000000000E+00  0.00000000000E+00 -0.33833628488E+03  0.33833628492E+03  0.50400001928E-02 0.  1.
    10030    2    1    2    0    0  0.00000000000E+00  0.00000000000E+00  0.50394695465E+03  0.11806195245E+04  0.10676609614E+04 0.  0.
        2    1    3    3  502    0  0.52093072367E+03 -0.64132485303E+01  0.38076492739E+03  0.64528433931E+03  0.25500000920E-02 0. -1.
       -2    1    3    3    0  502 -0.52093072367E+03  0.64132485303E+01  0.12318202726E+03  0.53533518515E+03  0.25500000920E-02 0.  1.
</event>
<event>
 5   0  0.3371947E-04  0.1969711E+04  0.7818609E-02  0.8620914E-01
       -2   -1    0    0    0  501  0.00000000000E+00  0.00000000000E+00  0.76842098844E+03  0.76842098845E+03  0.25500000920E-02 0. -1.
        2   -1    0    0  501    0  0.00000000000E+00  0.00000000000E+00 -0.12622507049E+04  0.12622507049E+04  0.25500000920E-02 0.  1.
    10030    2    1    2    0    0  0.00000000000E+00  0.00000000000E+00 -0.49382971649E+03  0.20306716934E+04  0.19697105720E+04 0.  0.
        2    1    3    3  502    0 -0.39140755271E+03  0.87067733976E+03 -0.49661118230E+03  0.10760583482E+04  0.25500000920E-02 0.  1.
       -2    1    3    3    0  502  0.39140755271E+03 -0.87067733976E+03  0.27814658099E+01  0.95461334521E+03  0.25500000920E-02 0. -1.
</event>
<event>
 5   0  0.1664168E-04  0.1192656E+04  0.7818609E-02  0.9119309E-01
       -1   -1    0    0    0  501  0.00000000000E+00  0.00000000000E+00  0.16568957005E+04  0.16568957005E+04  0.50400001928E-02 0. -1.
        1   -1    0    0  501    0  0.00000000000E+00  0.00000000000E+00 -0.21462261497E+03  0.21462261503E+03  0.50400001928E-02 0.  1.
    10030    2    1    2    0    0  0.00000000000E+00  0.00000000000E+00  0.14422730856E+04  0.18715183156E+04  0.11926563429E+04 0.  0.
        5    1    3    3  502    0  0.29107193528E+03 -0.11373969847E+03 -0.75804127149E+02  0.32160215516E+03  0.46999998093E+01 0.  1.
       -5    1    3    3    0  502 -0.29107193528E+03  0.11373969847E+03  0.15180772127E+04  0.15499161604E+04  0.46999998093E+01 0. -1.
</event>
<event>
 5   0  0.1650221E-04  0.2003980E+04  0.7818609E-02  0.8604762E-01
       -1   -1    0    0    0  501  0.00000000000E+00  0.00000000000E+00  0.95827877911E+03  0.95827877912E+03  0.50400001928E-02 0. -1.
        1   -1    0    0  501    0  0.00000000000E+00  0.00000000000E+00 -0.10476954498E+04  0.10476954498E+04  0.50400001928E-02 0.  1.
    10030    2    1    2    0    0  0.00000000000E+00  0.00000000000E+00 -0.89416670642E+02  0.20059742289E+04  0.20039803557E+04 0.  0.
        1    1    3    3  502    0 -0.31200495389E+03 -0.75563355644E+03  0.53522563540E+03  0.97713645091E+03  0.50400001928E-02 0. -1.
       -1    1    3    3    0  502  0.31200495389E+03  0.75563355644E+03 -0.62464230605E+03  0.10288377780E+04  0.50400001928E-02 0.  1.
</event>
<event>
 5   0  0.1664168E-04  0.2028642E+04  0.7818609E-02  0.8593345E-01
        1   -1    0    0  501    0  0.00000000000E+00  0.00000000000E+00  0.20915322867E+04  0.20915322867E+04  0.50400001928E-02 0. -1.
       -1   -1    0    0    0  501  0.00000000000E+00  0.00000000000E+00 -0.49191073445E+03  0.49191073448E+03  0.50400001928E-02 0.  1.
    10030    2    1    2    0    0  0.00000000000E+00  0.00000000000E+00  0.15996215523E+04  0.25834430212E+04  0.20286420910E+04 0.  0.
        5    1    3    3  502    0  0.32586591519E+03  0.86834390828E+03  0.13227389208E+04  0.16155092325E+04  0.46999998093E+01 0. -1.
       -5    1    3    3    0  502 -0.32586591519E+03 -0.86834390828E+03  0.27688263151E+03  0.96793378873E+03  0.46999998093E+01 0.  1.
</event>
<event>
 5   0  0.3371947E-04  0.1973590E+04  0.7818609E-02  0.8619069E-01
        2   -1    0    0  501    0  0.00000000000E+00  0.00000000000E+00  0.72365132531E+03  0.72365132532E+03  0.25500000920E-02 0.  1.
       -2   -1    0    0    0  501  0.00000000000E+00  0.00000000000E+00 -0.13456259348E+04  0.13456259348E+04  0.25500000920E-02 0. -1.
    10030    2    1    2    0    0  0.00000000000E+00  0.00000000000E+00 -0.62197460947E+03  0.20692772601E+04  0.19735896140E+04 0.  0.
        2    1    3    3  502    0  0.43612804416E+03 -0.33990687089E+03 -0.11679392116E+04  0.12922176108E+04  0.25500000920E-02 0. -1.
       -2    1    3    3    0  502 -0.43612804416E+03  0.33990687089E+03  0.54596460210E+03  0.77705964928E+03  0.25500000920E-02 0.  1.
</event>
<event>
 5   0  0.3371947E-04  0.1873966E+04  0.7818609E-02  0.8667925E-01
        2   -1    0    0  501    0  0.00000000000E+00  0.00000000000E+00  0.73784158717E+03  0.73784158718E+03  0.25500000920E-02 0.  1.
       -2   -1    0    0    0  501  0.00000000000E+00  0.00000000000E+00 -0.11898716073E+04  0.11898716073E+04  0.25500000920E-02 0. -1.
    10030    2    1    2    0    0  0.00000000000E+00  0.00000000000E+00 -0.45203002008E+03  0.19277131944E+04  0.18739655869E+04 0.  0.
        2    1    3    3  502    0  0.81681920019E+03  0.32705803575E+03 -0.55739758719E+03  0.10415625928E+04  0.25500000920E-02 0. -1.
       -2    1    3    3    0  502 -0.81681920019E+03 -0.32705803575E+03  0.10536756711E+03  0.88615060162E+03  0.25500000920E-02 0.  1.
</event>
<event>
 5   0  0.1650221E-04  0.2021556E+04  0.7818609E-02  0.8596608E-01
        1   -1    0    0  501    0  0.00000000000E+00  0.00000000000E+00  0.16547156030E+04  0.16547156030E+04  0.50400001928E-02 0. -1.
       -1   -1    0    0    0  501  0.00000000000E+00  0.00000000000E+00 -0.61743052040E+03  0.61743052042E+03  0.50400001928E-02 0.  1.
    10030    2    1    2    0    0  0.00000000000E+00  0.00000000000E+00  0.10372850826E+04  0.22721461234E+04  0.20215557533E+04 0.  0.
        1    1    3    3  502    0  0.21608630935E+03  0.78006628238E+03  0.11990559134E+04  0.14466968520E+04  0.50400001928E-02 0. -1.
       -1    1    3    3    0  502 -0.21608630935E+03 -0.78006628238E+03 -0.16177083082E+03  0.82544927144E+03  0.50400001928E-02 0.  1.
</event>
<event>
 5   0  0.3431030E-04  0.1928998E+04  0.7818609E-02  0.8640555E-01
       -2   -1    0    0    0  501  0.00000000000E+00  0.00000000000E+00  0.10808579802E+04  0.10808579802E+04  0.25500000920E-02 0.  1.
        2   -1    0    0  501    0  0.00000000000E+00  0.00000000000E+00 -0.86066689974E+03  0.86066689975E+03  0.25500000920E-02 0. -1.
    10030    2    1    2    0    0  0.00000000000E+00  0.00000000000E+00  0.22019108046E+03  0.19415248799E+04  0.19289983794E+04 0.  0.
        3    1    3    3  502    0  0.49057316837E+03  0.74706289463E+03  0.47507088582E+03  0.10121548097E+04  0.10100000352E+00 0.  1.
       -3    1    3    3    0  502 -0.49057316837E+03 -0.74706289463E+03 -0.25487980537E+03  0.92937007023E+03  0.10100000352E+00 0. -1.
</event>
<event>
 5   0  0.3431030E-04  0.2309783E+04  0.7818609E-02  0.8474074E-01
        2   -1    0    0  501    0  0.00000000000E+00  0.00000000000E+00  0.22400680904E+04  0.22400680904E+04  0.25500000920E-02 0.  1.
       -2   -1    0    0    0  501  0.00000000000E+00  0.00000000000E+00 -0.59541669848E+03  0.59541669849E+03  0.25500000920E-02 0. -1.
    10030    2    1    2    0    0  0.00000000000E+00  0.00000000000E+00  0.16446513920E+04  0.28354847889E+04  0.23097826277E+04 0.  0.
        3    1    3    3  502    0  0.83781762929E+03 -0.79487760788E+03  0.81954115081E+03  0.14161272893E+04  0.10100000352E+00 0.  1.
       -3    1    3    3    0  502 -0.83781762929E+03  0.79487760788E+03  0.82511024115E+03  0.14193574996E+04  0.10100000352E+00 0. -1.
</event>
<event>
 5   0  0.3395569E-04  0.1218446E+04  0.7818609E-02  0.9096862E-01
        2   -1    0    0  501    0  0.00000000000E+00  0.00000000000E+00  0.19988756167E+04  0.19988756167E+04  0.25500000920E-02 0.  1.
       -2   -1    0    0    0  501  0.00000000000E+00  0.00000000000E+00 -0.18568067222E+03  0.18568067224E+03  0.25500000920E-02 0. -1.
    10030    2    1    2    0    0  0.00000000000E+00  0.00000000000E+00  0.18131949445E+04  0.21845562890E+04  0.12184458432E+04 0.  0.
        4    1    3    3  502    0  0.48691631768E+02 -0.17223761568E+03  0.19506685145E+04  0.19588634300E+04  0.12699999809E+01 0.  1.
       -4    1    3    3    0  502 -0.48691631768E+02  0.17223761568E+03 -0.13747356993E+03  0.22569285897E+03  0.12699999809E+01 0. -1.
</event>
<event>
 5   0  0.1696052E-04  0.1939182E+04  0.7818609E-02  0.8635595E-01
       -1   -1    0    0    0  501  0.00000000000E+00  0.00000000000E+00  0.11722300379E+04  0.11722300379E+04  0.50400001928E-02 0. -1.
        1   -1    0    0  501    0  0.00000000000E+00  0.00000000000E+00 -0.80198166025E+03  0.80198166026E+03  0.50400001928E-02 0.  1.
    10030    2    1    2    0    0  0.00000000000E+00  0.00000000000E+00  0.37024837762E+03  0.19742116981E+04  0.19391822936E+04 0.  0.
        4    1    3    3  502    0 -0.93970804427E+03  0.44880438552E+02  0.42396798681E+03  0.10318991855E+04  0.12699999809E+01 0. -1.
       -4    1    3    3    0  502  0.93970804427E+03 -0.44880438552E+02 -0.53719609193E+02  0.94231251267E+03  0.12699999809E+01 0.  1.
</event>
<event>
 5   0  0.1696052E-04  0.1315397E+04  0.7818609E-02  0.9017444E-01
       -1   -1    0    0    0  501  0.00000000000E+00  0.00000000000E+00  0.41691163156E+03  0.41691163159E+03  0.50400001928E-02 0. -1.
        1   -1    0    0  501    0  0.00000000000E+00  0.00000000000E+00 -0.10375512582E+04  0.10375512582E+04  0.50400001928E-02 0.  1.
    10030    2    1    2    0    0  0.00000000000E+00  0.00000000000E+00 -0.62063962663E+03  0.14544628898E+04  0.13153968039E+04 0.  0.
        4    1    3    3  502    0  0.10901019873E+03 -0.49939433640E+03 -0.76794391143E+03  0.92250603828E+03  0.12699999809E+01 0.  1.
       -4    1    3    3    0  502 -0.10901019873E+03  0.49939433640E+03  0.14730428480E+03  0.53195685152E+03  0.12699999809E+01 0. -1.
</event>
<event>
 5   0  0.3460648E-04  0.2019782E+04  0.7818609E-02  0.8597427E-01
       -2   -1    0    0    0  501  0.00000000000E+00  0.00000000000E+00  0.56968568271E+03  0.56968568272E+03  0.25500000920E-02 0. -1.
        2   -1    0    0  501    0  0.00000000000E+00  0.00000000000E+00 -0.17902499199E+04  0.17902499199E+04  0.25500000920E-02 0.  1.
    10030    2    1    2    0    0  0.00000000000E+00  0.00000000000E+00 -0.12205642372E+04  0.23599356026E+04  0.20197819168E+04 0.  0.
        5    1    3    3  502    0  0.23224805950E+03 -0.90534725701E+03 -0.16342812445E+03  0.94885386587E+03  0.46999998093E+01 0.  1.
       -5    1    3    3    0  502 -0.23224805950E+03  0.90534725701E+03 -0.10571361127E+04  0.14110817367E+04  0.46999998093E+01 0. -1.
</event>
<event>
 5   0  0.1696052E-04  0.1957765E+04  0.7818609E-02  0.8626625E-01
        1   -1    0    0  501    0  0.00000000000E+00  0.00000000000E+00  0.10239902446E+04  0.10239902446E+04  0.50400001928E-02 0.  1.
       -1   -1    0    0    0  501  0.00000000000E+00  0.00000000000E+00 -0.93576225778E+03  0.93576225779E+03  0.50400001928E-02 0. -1.
    10030    2    1    2    0    0  0.00000000000E+00  0.00000000000E+00  0.88227986807E+02  0.19597525024E+04  0.19577654847E+04 0.  0.
        4    1    3    3  502    0 -0.15049116053E+03 -0.66922318397E+03 -0.65495183512E+03  0.94840433287E+03  0.12699999809E+01 0. -1.
       -4    1    3    3    0  502  0.15049116053E+03  0.66922318397E+03  0.74317982193E+03  0.10113481695E+04  0.12699999809E+01 0.  1.
</event>
<event>
 5   0  0.3431030E-04  0.2001708E+04  0.7818609E-02  0.8605823E-01
       -2   -1    0    0    0  501  0.00000000000E+00  0.00000000000E+00  0.54497293174E+03  0.54497293174E+03  0.25500000920E-02 0.  1.
        2   -1    0    0  501    0  0.00000000000E+00  0.00000000000E+00 -0.18380890832E+04  0.18380890832E+04  0.25500000920E-02 0. -1.
    10030    2    1    2    0    0  0.00000000000E+00  0.00000000000E+00 -0.12931161515E+04  0.23830620149E+04  0.20017080671E+04 0.  0.
        3    1    3    3  502    0 -0.56454179323E+03 -0.80368002609E+03 -0.87586659391E+03  0.13159602278E+04  0.10100000352E+00 0. -1.
       -3    1    3    3    0  502  0.56454179323E+03  0.80368002609E+03 -0.41724955756E+03  0.10671017871E+04  0.10100000352E+00 0.  1.
</event>
<event>
 5   0  0.3431030E-04  0.2221282E+04  0.7818609E-02  0.8509622E-01
       -2   -1    0    0    0  501  0.00000000000E+00  0.00000000000E+00  0.49557553246E+03  0.49557553247E+03  0.25500000920E-02 0.  1.
        2   -1    0    0  501    0  0.00000000000E+00  0.00000000000E+00 -0.24890733880E+04  0.24890733880E+04  0.25500000920E-02 0. -1.
    10030    2    1    2    0    0  0.00000000000E+00  0.00000000000E+00 -0.19934978555E+04  0.29846489205E+04  0.22212823950E+04 0.  0.
        3    1    3    3  502    0  0.15692122116E+03  0.39476791635E+03 -0.23755944086E+04  0.24132788446E+04  0.10100000352E+00 0. -1.
       -3    1    3    3    0  502 -0.15692122116E+03 -0.39476791635E+03  0.38209655312E+03  0.57137007581E+03  0.10100000352E+00 0.  1.
</event>
<event>
 5   0  0.1696052E-04  0.1364240E+04  0.7818609E-02  0.8980118E-01
        1   -1    0    0  501    0  0.00000000000E+00  0.00000000000E+00  0.65959722532E+03  0.65959722534E+03  0.50400001928E-02 0.  1.
       -1   -1    0    0    0  501  0.00000000000E+00  0.00000000000E+00 -0.70541148031E+03  0.70541148033E+03  0.50400001928E-02 0. -1.
    10030    2    1    2    0    0  0.00000000000E+00  0.00000000000E+00 -0.45814254988E+02  0.13650087057E+04  0.13642396493E+04 0.  0.
        4    1    3    3  502    0 -0.13981835651E+03 -0.18915637965E+03 -0.66354654987E+03  0.70400635332E+03  0.12699999809E+01 0. -1.
       -4    1    3    3    0  502  0.13981835651E+03  0.18915637965E+03  0.61773229488E+03  0.66100235235E+03  0.12699999809E+01 0.  1.
</event>
<event>
 5   0  0.1708578E-04  0.1223618E+04  0.7818609E-02  0.9092431E-01
       -1   -1    0    0    0  501  0.00000000000E+00  0.00000000000E+00  0.19652841842E+03  0.19652841848E+03  0.50400001928E-02 0.  1.
        1   -1    0    0  501    0  0.00000000000E+00  0.00000000000E+00 -0.19046120551E+04  0.19046120551E+04  0.50400001928E-02 0. -1.
    10030    2    1    2    0    0  0.00000000000E+00  0.00000000000E+00 -0.17080836367E+04  0.21011404736E+04  0.12236182329E+04 0.  0.
        3    1    3    3  502    0 -0.34838880282E+03 -0.24390287998E+03 -0.98792813391E+02  0.43660440100E+03  0.10100000352E+00 0.  1.
       -3    1    3    3    0  502  0.34838880282E+03  0.24390287998E+03 -0.16092908233E+04  0.16645360726E+04  0.10100000352E+00 0. -1.
</event>
<event>
 5   0  0.1696052E-04  0.1994794E+04  0.7818609E-02  0.8609058E-01
       -1   -1    0    0    0  501  0.00000000000E+00  0.00000000000E+00  0.69587925702E+03  0.69587925704E+03  0.50400001928E-02 0. -1.
        1   -1    0    0  501    0  0.00000000000E+00  0.00000000000E+00 -0.14295595575E+04  0.14295595575E+04  0.50400001928E-02 0.  1.
    10030    2    1    2    0    0  0.00000000000E+00  0.00000000000E+00 -0.73368030051E+03  0.21254388146E+04  0.19947940674E+04 0.  0.
        4    1    3    3  502    0 -0.16737111529E+03 -0.12213985881E+02  0.68072788297E+03  0.70110936039E+03  0.12699999809E+01 0. -1.
       -4    1    3    3    0  502  0.16737111529E+03  0.12213985881E+02 -0.14144081835E+04  0.14243294542E+04  0.12699999809E+01 0.  1.
</event>
<event>
 5   0  0.3460648E-04  0.1966283E+04  0.7818609E-02  0.8622549E-01
       -2   -1    0    0    0  501  0.00000000000E+00  0.00000000000E+00  0.67373211502E+03  0.67373211502E+03  0.25500000920E-02 0.  1.
        2   -1    0    0  501    0  0.00000000000E+00  0.00000000000E+00 -0.14346465538E+04  0.14346465538E+04  0.25500000920E-02 0. -1.
    10030    2    1    2    0    0  0.00000000000E+00  0.00000000000E+00 -0.76091443878E+03  0.21083786688E+04  0.19662832522E+04 0.  0.
        5    1    3    3  502    0  0.26976356398E+03  0.44111201283E+03 -0.12770621542E+04  0.13777743009E+04  0.46999998093E+01 0. -1.
       -5    1    3    3    0  502 -0.26976356398E+03 -0.44111201283E+03  0.51614771546E+03  0.73060436796E+03  0.46999998093E+01 0.  1.
</event>
<event>
 5   0  0.1696052E-04  0.1934199E+04  0.7818609E-02  0.8638018E-01
        1   -1    0    0  501    0  0.00000000000E+00  0.00000000000E+00  0.12809725083E+04  0.12809725083E+04  0.50400001928E-02 0.  1.
       -1   -1    0    0    0  501  0.00000000000E+00  0.00000000000E+00 -0.73013351872E+03  0.73013351874E+03  0.50400001928E-02 0. -1.
    10030    2    1    2    0    0  0.00000000000E+00  0.00000000000E+00  0.55083898958E+03  0.20111060270E+04  0.19341985057E+04 0.  0.
        4    1    3    3  502    0  0.79058108580E+03  0.26942764069E+03  0.78231773446E+03  0.11443916975E+04  0.12699999809E+01 0.  1.
       -4    1    3    3    0  502 -0.79058108580E+03 -0.26942764069E+03 -0.23147874488E+03  0.86671432953E+03  0.12699999809E+01 0. -1.
</event>
<event>
 5   0  0.1643565E-04  0.2022947E+04  0.7818609E-02  0.8595967E-01
       -1   -1    0    0    0  501  0.00000000000E+00  0.00000000000E+00  0.98221911622E+03  0.98221911623E+03  0.50400001928E-02 0. -1.
        1   -1    0    0  501    0  0.00000000000E+00  0.00000000000E+00 -0.10415992836E+04  0.10415992836E+04  0.50400001928E-02 0.  1.
    10030    2    1    2    0    0  0.00000000000E+00  0.00000000000E+00 -0.59380167390E+02  0.20238183999E+04  0.20229470856E+04 0.  0.
        2    1    3    3  502    0  0.24814268972E+03  0.22472814493E+03 -0.98456501137E+03  0.10399258604E+04  0.25500000920E-02 0.  1.
       -2    1    3    3    0  502 -0.24814268972E+03 -0.22472814493E+03  0.92518484398E+03  0.98389253942E+03  0.25500000920E-02 0. -1.
</event>
<event>
 5   0  0.1664168E-04  0.1924497E+04  0.7818609E-02  0.8642758E-01
        1   -1    0    0  501    0  0.00000000000E+00  0.00000000000E+00  0.11710372387E+04  0.11710372387E+04  0.50400001928E-02 0. -1.
       -1   -1    0    0    0  501  0.00000000000E+00  0.00000000000E+00 -0.79068536958E+03  0.79068536959E+03  0.50400001928E-02 0.  1.
    10030    2    1    2    0    0  0.00000000000E+00  0.00000000000E+00  0.38035186915E+03  0.19617226083E+04  0.19244968297E+04 0.  0.
        5    1    3    3  502    0 -0.78115126427E+02 -0.56751531003E+03 -0.59790507280E+03  0.82806289988E+03  0.46999998093E+01 0.  1.
       -5    1    3    3    0  502  0.78115126427E+02  0.56751531003E+03  0.97825694195E+03  0.11336597084E+04  0.46999998093E+01 0. -1.
</event>
<event>
 5   0  0.3371947E-04  0.2010084E+04  0.7818609E-02  0.8601920E-01
       -2   -1    0    0    0  501  0.00000000000E+00  0.00000000000E+00  0.10357160869E+04  0.10357160869E+04  0.25500000920E-02 0. -1.
        2   -1    0    0  501    0  0.00000000000E+00  0.00000000000E+00 -0.97527679719E+03  0.97527679719E+03  0.25500000920E-02 0.  1.
    10030    2    1    2    0    0  0.00000000000E+00  0.00000000000E+00  0.60439289660E+02  0.20109928840E+04  0.20100844440E+04 0.  0.
        2    1    3    3  502    0 -0.89889972354E+03  0.41640519370E+03  0.19969475577E+03  0.10105899237E+04  0.25500000920E-02 0.  1.
       -2    1    3    3    0  502  0.89889972354E+03 -0.41640519370E+03 -0.13925546611E+03  0.10004029604E+04  0.25500000920E-02 0. -1.
</event>
<event>
 5   0  0.3395569E-04  0.1893879E+04  0.7818609E-02  0.8657909E-01
        2   -1    0    0  501    0  0.00000000000E+00  0.00000000000E+00  0.78112686700E+03  0.78112686701E+03  0.25500000920E-02 0.  1.
       -2   -1    0    0    0  501  0.00000000000E+00  0.00000000000E+00 -0.11479500501E+04  0.11479500501E+04  0.25500000920E-02 0. -1.
    10030    2    1    2    0    0  0.00000000000E+00  0.00000000000E+00 -0.36682318314E+03  0.19290769171E+04  0.18938792212E+04 0.  0.
        4    1    3    3  502    0  0.84930212589E+03 -0.35295423451E+03 -0.41299400288E+03  0.10081946499E+04  0.12699999809E+01 0. -1.
       -4    1    3    3    0  502 -0.84930212589E+03  0.35295423451E+03  0.46170819738E+02  0.92088226728E+03  0.12699999809E+01 0.  1.
</event>
<event>
 5   0  0.3431030E-04  0.1826316E+04  0.7818609E-02  0.8692429E-01
       -2   -1    0    0    0  501  0.00000000000E+00  0.00000000000E+00  0.11660497941E+04  0.11660497941E+04  0.25500000920E-02 0. -1.
        2   -1    0    0  501    0  0.00000000000E+00  0.00000000000E+00 -0.71511332360E+03  0.71511332361E+03  0.25500000920E-02 0.  1.
    10030    2    1    2    0    0  0.00000000000E+00  0.00000000000E+00  0.45093647050E+03  0.18811631177E+04  0.18263162308E+04 0.  0.
        3    1    3    3  502    0 -0.70729466769E+03 -0.11200280279E+03  0.80909476762E+03  0.10804835621E+04  0.10100000352E+00 0. -1.
       -3    1    3    3    0  502  0.70729466769E+03  0.11200280279E+03 -0.35815829712E+03  0.80067955561E+03  0.10100000352E+00 0.  1.
</event>
<event>
 5   0  0.1650221E-04  0.1921693E+04  0.7818609E-02  0.8644133E-01
       -1   -1    0    0    0  501  0.00000000000E+00  0.00000000000E+00  0.12037835261E+04  0.12037835261E+04  0.50400001928E-02 0. -1.
        1   -1    0    0  501    0  0.00000000000E+00  0.00000000000E+00 -0.76693714321E+03  0.76693714323E+03  0.50400001928E-02 0.  1.
    10030    2    1    2    0    0  0.00000000000E+00  0.00000000000E+00  0.43684638292E+03  0.19707206694E+04  0.19216933143E+04 0.  0.
        1    1    3    3  502    0  0.85908951883E+03  0.42181548604E+03  0.30582185323E+03  0.10047338511E+04  0.50400001928E-02 0. -1.
       -1    1    3    3    0  502 -0.85908951883E+03 -0.42181548604E+03  0.13102452969E+03  0.96598681825E+03  0.50400001928E-02 0.  1.
</event>
<event>
 5   0  0.1708578E-04  0.1773392E+04  0.7818609E-02  0.8720579E-01
        1   -1    0    0  501    0  0.00000000000E+00  0.00000000000E+00  0.20463482221E+04  0.20463482221E+04  0.50400001928E-02 0.  1.
       -1   -1    0    0    0  501  0.00000000000E+00  0.00000000000E+00 -0.38421112970E+03  0.38421112974E+03  0.50400001928E-02 0. -1.
    10030    2    1    2    0    0  0.00000000000E+00  0.00000000000E+00  0.16621370924E+04  0.24305593518E+04  0.17733919614E+04 0.  0.
        3    1    3    3  502    0  0.63864788386E+03 -0.59272988870E+03  0.10564010316E+04  0.13693732108E+04  0.10100000352E+00 0.  1.
       -3    1    3    3    0  502 -0.63864788386E+03  0.59272988870E+03  0.60573606076E+03  0.10611861411E+04  0.10100000352E+00 0. -1.
</event>
<event>
 5   0  0.1664168E-04  0.1951386E+04  0.7818609E-02  0.8629693E-01
        1   -1    0    0  501    0  0.00000000000E+00  0.00000000000E+00  0.12501740678E+04  0.12501740678E+04  0.50400001928E-02 0. -1.
       -1   -1    0    0    0  501  0.00000000000E+00  0.00000000000E+00 -0.76147560237E+03  0.76147560239E+03  0.50400001928E-02 0.  1.
    10030    2    1    2    0    0  0.00000000000E+00  0.00000000000E+00  0.48869846540E+03  0.20116496702E+04  0.19513862266E+04 0.  0.
        5    1    3    3  502    0  0.74911249284E+03 -0.62488778740E+03  0.22647337610E+03  0.10014821785E+04  0.46999998093E+01 0.  1.
       -5    1    3    3    0  502 -0.74911249284E+03  0.62488778740E+03  0.26222508930E+03  0.10101674917E+04  0.46999998093E+01 0. -1.
</event>
<event>
 5   0  0.1664168E-04  0.1993254E+04  0.7818609E-02  0.8609781E-01
        1   -1    0    0  501    0  0.00000000000E+00  0.00000000000E+00  0.23917334802E+04  0.23917334802E+04  0.50400001928E-02 0. -1.
       -1   -1    0    0    0  501  0.00000000000E+00  0.00000000000E+00 -0.41529091416E+03  0.41529091419E+03  0.50400001928E-02 0.  1.
    10030    2    1    2    0    0  0.00000000000E+00  0.00000000000E+00  0.19764425660E+04  0.28070243944E+04  0.19932538057E+04 0.  0.
        5    1    3    3  502    0 -0.65967390618E+03 -0.66589948767E+03  0.51138083989E+03  0.10677660060E+04  0.46999998093E+01 0.  1.
       -5    1    3    3    0  502  0.65967390618E+03  0.66589948767E+03  0.14650617261E+04  0.17392583884E+04  0.46999998093E+01 0. -1.
</event>
<event>
 5   0  0.3371947E-04  0.1985693E+04  0.7818609E-02  0.8613339E-01
        2   -1    0    0  501    0  0.00000000000E+00  0.00000000000E+00  0.72752129999E+03  0.72752130000E+03  0.25500000920E-02 0. -1.
       -2   -1    0    0    0  501  0.00000000000E+00  0.00000000000E+00 -0.13549352019E+04  0.13549352019E+04  0.25500000920E-02 0.  1.
    10030    2    1    2    0    0  0.00000000000E+00  0.00000000000E+00 -0.62741390189E+03  0.20824565019E+04  0.19856930473E+04 0.  0.
        2    1    3    3  502    0  0.88282442044E+03  0.60139112460E+02  0.15851122710E+03  0.89895577161E+03  0.25500000920E-02 0. -1.
       -2    1    3    3    0  502 -0.88282442044E+03 -0.60139112460E+02 -0.78592512900E+03  0.11835007303E+04  0.25500000920E-02 0.  1.
</event>
<event>
 5   0  0.3371947E-04  0.1969974E+04  0.7818609E-02  0.8620789E-01
        2   -1    0    0  501    0  0.00000000000E+00  0.00000000000E+00  0.67277082722E+03  0.67277082722E+03  0.25500000920E-02 0.  1.
       -2   -1    0    0    0  501  0.00000000000E+00  0.00000000000E+00 -0.14420946854E+04  0.14420946854E+04  0.25500000920E-02 0. -1.
    10030    2    1    2    0    0  0.00000000000E+00  0.00000000000E+00 -0.76932385821E+03  0.21148655127E+04  0.19699738419E+04 0.  0.
        2    1    3    3  502    0  0.58034268330E+03  0.65582242942E+03  0.99387186977E+02  0.88135038545E+03  0.25500000920E-02 0.  1.
       -2    1    3    3    0  502 -0.58034268330E+03 -0.65582242942E+03 -0.86871104519E+03  0.12335151272E+04  0.25500000920E-02 0. -1.
</event>
<event>
 5   0  0.1708578E-04  0.1948807E+04  0.7818609E-02  0.8630936E-01
       -1   -1    0    0    0  501  0.00000000000E+00  0.00000000000E+00  0.11251343440E+04  0.11251343440E+04  0.50400001928E-02 0. -1.
        1   -1    0    0  501    0  0.00000000000E+00  0.00000000000E+00 -0.84386597445E+03  0.84386597447E+03  0.50400001928E-02 0.  1.
    10030    2    1    2    0    0  0.00000000000E+00  0.00000000000E+00  0.28126836950E+03  0.19690003184E+04  0.19488074195E+04 0.  0.
        3    1    3    3  502    0 -0.23321351076E+03  0.47910073265E+03  0.96489149891E+03  0.11022439242E+04  0.10100000352E+00 0. -1.
       -3    1    3    3    0  502  0.23321351076E+03 -0.47910073265E+03 -0.68362312941E+03  0.86675639420E+03  0.10100000352E+00 0.  1.
</event>
<event>
 5   0  0.1650221E-04  0.1957876E+04  0.7818609E-02  0.8626572E-01
        1   -1    0    0  501    0  0.00000000000E+00  0.00000000000E+00  0.12125576601E+04  0.12125576601E+04  0.50400001928E-02 0.  1.
       -1   -1    0    0    0  501  0.00000000000E+00  0.00000000000E+00 -0.79032873975E+03  0.79032873977E+03  0.50400001928E-02 0. -1.
    10030    2    1    2    0    0  0.00000000000E+00  0.00000000000E+00  0.42222892033E+03  0.20028863999E+04  0.19578755501E+04 0.  0.
        1    1    3    3  502    0  0.86999875921E+03 -0.36240164445E+02  0.66873281469E+03  0.10979138254E+04  0.50400001928E-02 0.  1.
       -1    1    3    3    0  502 -0.86999875921E+03  0.36240164445E+02 -0.24650389437E+03  0.90497257445E+03  0.50400001928E-02 0. -1.
</event>
<event>
 5   0  0.3387881E-04  0.2088828E+04  0.7818609E-02  0.8566181E-01
        2   -1    0    0  501    0  0.00000000000E+00  0.00000000000E+00  0.11863310418E+04  0.11863310418E+04  0.25500000920E-02 0. -1.
       -2   -1    0    0    0  501  0.00000000000E+00  0.00000000000E+00 -0.91947443708E+03  0.91947443709E+03  0.25500000920E-02 0.  1.
    10030    2    1    2    0    0  0.00000000000E+00  0.00000000000E+00  0.26685660472E+03  0.21058054789E+04  0.20888284438E+04 0.  0.
        1    1    3    3  502    0 -0.54522949214E+02  0.10176169838E+04  0.36394364501E+03  0.10821146217E+04  0.50400001928E-02 0.  1.
       -1    1    3    3    0  502  0.54522949214E+02 -0.10176169838E+04 -0.97087040286E+02  0.10236908572E+04  0.50400001928E-02 0. -1.
</event>
<event>
 5   0  0.3460648E-04  0.2005968E+04  0.7818609E-02  0.8603835E-01
        2   -1    0    0  501    0  0.00000000000E+00  0.00000000000E+00  0.10494283740E+04  0.10494283740E+04  0.25500000920E-02 0. -1.
       -2   -1    0    0    0  501  0.00000000000E+00  0.00000000000E+00 -0.95859556692E+03  0.95859556692E+03  0.25500000920E-02 0.  1.
    10030    2    1    2    0    0  0.00000000000E+00  0.00000000000E+00  0.90832807058E+02  0.20080239409E+04  0.20059684814E+04 0.  0.
        5    1    3    3  502    0 -0.19482065055E+03 -0.71677673116E+03 -0.62924105174E+03  0.97349389285E+03  0.46999998093E+01 0.  1.
       -5    1    3    3    0  502  0.19482065055E+03  0.71677673116E+03  0.72007385879E+03  0.10345300481E+04  0.46999998093E+01 0. -1.
</event>
<event>
 5   0  0.1643565E-04  0.2018020E+04  0.7818609E-02  0.8598242E-01
        1   -1    0    0  501    0  0.00000000000E+00  0.00000000000E+00  0.10211591433E+04  0.10211591434E+04  0.50400001928E-02 0.  1.
       -1   -1    0    0    0  501  0.00000000000E+00  0.00000000000E+00 -0.99700561980E+03  0.99700561982E+03  0.50400001928E-02 0. -1.
    10030    2    1    2    0    0  0.00000000000E+00  0.00000000000E+00  0.24153523538E+02  0.20181647632E+04  0.20180202225E+04 0.  0.
        2    1    3    3  502    0  0.78594980502E+03 -0.16406417080E+03 -0.59908668410E+03  0.10017679388E+04  0.25500000920E-02 0. -1.
       -2    1    3    3    0  502 -0.78594980502E+03  0.16406417080E+03  0.62324020764E+03  0.10163968244E+04  0.25500000920E-02 0.  1.
</event>
<event>
 5   0  0.1643565E-04  0.1612191E+04  0.7818609E-02  0.8813093E-01
        1   -1    0    0  501    0  0.00000000000E+00  0.00000000000E+00  0.52984832848E+03  0.52984832851E+03  0.50400001928E-02 0.  1.
       -1   -1    0    0    0  501  0.00000000000E+00  0.00000000000E+00 -0.12263704384E+04  0.12263704385E+04  0.50400001928E-02 0. -1.
    10030    2    1    2    0    0  0.00000000000E+00  0.00000000000E+00 -0.69652210996E+03  0.17562187670E+04  0.16121914613E+04 0.  0.
        2    1    3    3  502    0  0.50818474606E+03  0.62482127563E+02  0.32996309554E+03  0.60912346599E+03  0.25500000920E-02 0.  1.
       -2    1    3    3    0  502 -0.50818474606E+03 -0.62482127563E+02 -0.10264852055E+04  0.11470953010E+04  0.25500000920E-02 0. -1.
</event>
<event>
 5   0  0.1708578E-04  0.2127641E+04  0.7818609E-02  0.8549164E-01
        1   -1    0    0  501    0  0.00000000000E+00  0.00000000000E+00  0.26762696378E+04  0.26762696378E+04  0.50400001928E-02 0. -1.
       -1   -1    0    0    0  501  0.00000000000E+00  0.00000000000E+00 -0.42286989295E+03  0.42286989298E+03  0.50400001928E-02 0.  1.
    10030    2    1    2    0    0  0.00000000000E+00  0.00000000000E+00  0.22533997449E+04  0.30991395308E+04  0.21276408112E+04 0.  0.
        3    1    3    3  502    0  0.41031393708E+03  0.80663516304E+03  0.19412240924E+04  0.21418143711E+04  0.10100000352E+00 0. -1.
       -3    1    3    3    0  502 -0.41031393708E+03 -0.80663516304E+03  0.31217565250E+03  0.95732515972E+03  0.10100000352E+00 0.  1.
</event>
<event>
 5   0  0.3431030E-04  0.1986952E+04  0.7818609E-02  0.8612746E-01
        2   -1    0    0  501    0  0.00000000000E+00  0.00000000000E+00  0.19720311586E+04  0.19720311586E+04  0.25500000920E-02 0.  1.
       -2   -1    0    0    0  501  0.00000000000E+00  0.00000000000E+00 -0.50049623660E+03  0.50049623661E+03  0.25500000920E-02 0. -1.
    10030    2    1    2    0    0  0.00000000000E+00  0.00000000000E+00  0.14715349220E+04  0.24725273952E+04  0.19869516082E+04 0.  0.
        3    1    3    3  502    0  0.57133872436E+03 -0.81172273463E+03  0.78665687452E+03  0.12665507429E+04  0.10100000352E+00 0.  1.
       -3    1    3    3    0  502 -0.57133872436E+03  0.81172273463E+03  0.68487804748E+03  0.12059766523E+04  0.10100000352E+00 0. -1.
</event>
<event>
 5   0  0.1664168E-04  0.1970919E+04  0.7818609E-02  0.8620339E-01
        1   -1    0    0  501    0  0.00000000000E+00  0.00000000000E+00  0.10650773360E+04  0.10650773360E+04  0.50400001928E-02 0.  1.
       -1   -1    0    0    0  501  0.00000000000E+00  0.00000000000E+00 -0.91179329835E+03  0.91179329836E+03  0.50400001928E-02 0. -1.
    10030    2    1    2    0    0  0.00000000000E+00  0.00000000000E+00  0.15328403765E+03  0.19768706344E+04  0.19709189503E+04 0.  0.
        5    1    3    3  502    0 -0.60427149042E+03  0.31321507893E+02 -0.70351343368E+03  0.92794305448E+03  0.46999998093E+01 0. -1.
       -5    1    3    3    0  502  0.60427149042E+03 -0.31321507893E+02  0.85679747133E+03  0.10489275799E+04  0.46999998093E+01 0.  1.
</event>
<event>
 5   0  0.1643565E-04  0.1982793E+04  0.7818609E-02  0.8614708E-01
       -1   -1    0    0    0  501  0.00000000000E+00  0.00000000000E+00  0.86086019421E+03  0.86086019422E+03  0.50400001928E-02 0.  1.
        1   -1    0    0  501    0  0.00000000000E+00  0.00000000000E+00 -0.11417264946E+04  0.11417264947E+04  0.50400001928E-02 0. -1.
    10030    2    1    2    0    0  0.00000000000E+00  0.00000000000E+00 -0.28086630044E+03  0.20025866889E+04  0.19827928706E+04 0.  0.
        2    1    3    3  502    0 -0.78313909442E+03 -0.68908685947E+02 -0.75045911727E+03  0.10868505578E+04  0.25500000920E-02 0. -1.
       -2    1    3    3    0  502  0.78313909442E+03  0.68908685947E+02  0.46959281683E+03  0.91573613112E+03  0.25500000920E-02 0.  1.
</event>
<event>
 5   0  0.3431030E-04  0.1991090E+04  0.7818609E-02  0.8610798E-01
       -2   -1    0    0    0  501  0.00000000000E+00  0.00000000000E+00  0.47296247581E+03  0.47296247581E+03  0.25500000920E-02 0.  1.
        2   -1    0    0  501    0  0.00000000000E+00  0.00000000000E+00 -0.20955356878E+04  0.20955356878E+04  0.25500000920E-02 0. -1.
    10030    2    1    2    0    0  0.00000000000E+00  0.00000000000E+00 -0.16225732119E+04  0.25684981636E+04  0.19910898996E+04 0.  0.
        3    1    3    3  502    0  0.39983527896E+03 -0.12815055287E+03 -0.19757315064E+04  0.20198529179E+04  0.10100000352E+00 0. -1.
       -3    1    3    3    0  502 -0.39983527896E+03  0.12815055287E+03  0.35315829440E+03  0.54864524568E+03  0.10100000352E+00 0.  1.
</event>
<event>
 5   0  0.3460648E-04  0.1975415E+04  0.7818609E-02  0.8618202E-01
       -2   -1    0    0    0  501  0.00000000000E+00  0.00000000000E+00  0.72229455151E+03  0.72229455152E+03  0.25500000920E-02 0.  1.
        2   -1    0    0  501    0  0.00000000000E+00  0.00000000000E+00 -0.13506481037E+04  0.13506481037E+04  0.25500000920E-02 0. -1.
    10030    2    1    2    0    0  0.00000000000E+00  0.00000000000E+00 -0.62835355214E+03  0.20729426552E+04  0.19754146565E+04 0.  0.
        5    1    3    3  502    0  0.89762721309E+03 -0.14599296454E+03 -0.71855252541E+03  0.11590463240E+04  0.46999998093E+01 0. -1.
       -5    1    3    3    0  502 -0.89762721309E+03  0.14599296454E+03  0.90198973265E+02  0.91389633119E+03  0.46999998093E+01 0.  1.
</event>
<event>
 5   0  0.3460648E-04  0.1987878E+04  0.7818609E-02  0.8612309E-01
        2   -1    0    0  501    0  0.00000000000E+00  0.00000000000E+00  0.87521413009E+03  0.87521413009E+03  0.25500000920E-02 0.  1.
       -2   -1    0    0    0  501  0.00000000000E+00  0.00000000000E+00 -0.11287693354E+04  0.11287693354E+04  0.25500000920E-02 0. -1.
    10030    2    1    2    0    0  0.00000000000E+00  0.00000000000E+00 -0.25355520527E+03  0.20039834655E+04  0.19878781370E+04 0.  0.
        5    1    3    3  502    0  0.26679416287E+03 -0.71713254345E+03  0.51273928567E+03  0.92107647635E+03  0.46999998093E+01 0.  1.
       -5    1    3    3    0  502 -0.26679416287E+03  0.71713254345E+03 -0.76629449094E+03  0.10829069891E+04  0.46999998093E+01 0. -1.
</event>
<event>
 5   0  0.3460648E-04  0.2034451E+04  0.7818609E-02  0.8590681E-01
       -2   -1    0    0    0  501  0.00000000000E+00  0.00000000000E+00  0.41628207730E+03  0.41628207731E+03  0.25500000920E-02 0. -1.
        2   -1    0    0  501    0  0.00000000000E+00  0.00000000000E+00 -0.24856893154E+04  0.24856893154E+04  0.25500000920E-02 0.  1.
    10030    2    1    2    0    0  0.00000000000E+00  0.00000000000E+00 -0.20694072381E+04  0.29019713927E+04  0.20344511906E+04 0.  0.
        5    1    3    3  502    0 -0.29201284694E+03 -0.88673670005E+03 -0.45854440654E+03  0.10401242910E+04  0.46999998093E+01 0. -1.
       -5    1    3    3    0  502  0.29201284694E+03  0.88673670005E+03 -0.16108628316E+04  0.18618471017E+04  0.46999998093E+01 0.  1.
</event>
<event>
 5   0  0.3371947E-04  0.1992248E+04  0.7818609E-02  0.8610253E-01
       -2   -1    0    0    0  501  0.00000000000E+00  0.00000000000E+00  0.76598651759E+03  0.76598651759E+03  0.25500000920E-02 0. -1.
        2   -1    0    0  501    0  0.00000000000E+00  0.00000000000E+00 -0.12954059805E+04  0.12954059805E+04  0.25500000920E-02 0.  1.
    10030    2    1    2    0    0  0.00000000000E+00  0.00000000000E+00 -0.52941946296E+03  0.20613924981E+04  0.19922484944E+04 0.  0.
        2    1    3    3  502    0  0.11892755028E+03 -0.93313765954E+03  0.74342393778E+02  0.94361880301E+03  0.25500000920E-02 0. -1.
       -2    1    3    3    0  502 -0.11892755028E+03  0.93313765954E+03 -0.60376185673E+03  0.11177736951E+04  0.25500000920E-02 0.  1.
</event>
<event>
 5   0  0.3395569E-04  0.1966544E+04  0.7818609E-02  0.8622424E-01
       -2   -1    0    0    0  501  0.00000000000E+00  0.00000000000E+00  0.40753844713E+03  0.40753844714E+03  0.25500000920E-02 0.  1.
        2   -1    0    0  501    0  0.00000000000E+00  0.00000000000E+00 -0.23723498025E+04  0.23723498025E+04  0.25500000920E-02 0. -1.
    10030    2    1    2    0    0  0.00000000000E+00  0.00000000000E+00 -0.19648113554E+04  0.27798882497E+04  0.19665439274E+04 0.  0.
        4    1    3    3  502    0  0.42889822281E+03  0.78594876211E+03 -0.40793625315E+03  0.98391195832E+03  0.12699999809E+01 0.  1.
       -4    1    3    3    0  502 -0.42889822281E+03 -0.78594876211E+03 -0.15568751023E+04  0.17959762914E+04  0.12699999809E+01 0. -1.
</event>
<event>
 5   0  0.3431030E-04  0.2033641E+04  0.7818609E-02  0.8591052E-01
       -2   -1    0    0    0  501  0.00000000000E+00  0.00000000000E+00  0.84123185703E+03  0.84123185703E+03  0.25500000920E-02 0. -1.
        2   -1    0    0  501    0  0.00000000000E+00  0.00000000000E+00 -0.12290596910E+04  0.12290596910E+04  0.25500000920E-02 0.  1.
    10030    2    1    2    0    0  0.00000000000E+00  0.00000000000E+00 -0.38782783397E+03  0.20702915480E+04  0.20336412331E+04 0.  0.
        3    1    3    3  502    0 -0.30409296694E+03 -0.97027145618E+03 -0.18883146525E+03  0.10341936780E+04  0.10100000352E+00 0.  1.
       -3    1    3    3    0  502  0.30409296694E+03  0.97027145618E+03 -0.19899636872E+03  0.10360978700E+04  0.10100000352E+00 0. -1.
</event>
<event>
 5   0  0.3460648E-04  0.1973208E+04  0.7818609E-02  0.8619250E-01
        2   -1    0    0  501    0  0.00000000000E+00  0.00000000000E+00  0.18283329221E+04  0.18283329221E+04  0.25500000920E-02 0. -1.
       -2   -1    0    0    0  501  0.00000000000E+00  0.00000000000E+00 -0.53239096036E+03  0.53239096036E+03  0.25500000920E-02 0.  1.
    10030    2    1    2    0    0  0.00000000000E+00  0.00000000000E+00  0.12959419617E+04  0.23607238824E+04  0.19732084738E+04 0.  0.
        5    1    3    3  502    0  0.65319987925E+03  0.65487547649E+03  0.23728746543E+03  0.95491329617E+03  0.46999998093E+01 0.  1.
       -5    1    3    3    0  502 -0.65319987925E+03 -0.65487547649E+03  0.10586544963E+04  0.14058105863E+04  0.46999998093E+01 0. -1.
</event>
<event>
 5   0  0.3387881E-04  0.2002724E+04  0.7818609E-02  0.8605348E-01
        2   -1    0    0  501    0  0.00000000000E+00  0.00000000000E+00  0.14195371555E+04  0.14195371555E+04  0.25500000920E-02 0. -1.
       -2   -1    0    0    0  501  0.00000000000E+00  0.00000000000E+00 -0.70637539880E+03  0.70637539881E+03  0.25500000920E-02 0.  1.
    10030    2    1    2    0    0  0.00000000000E+00  0.00000000000E+00  0.71316175667E+03  0.21259125543E+04  0.20027242689E+04 0.  0.
        1    1    3    3  502    0  0.65742296314E+03  0.60441487030E+03 -0.12427726358E+03  0.90164689661E+03  0.50400001928E-02 0.  1.
       -1    1    3    3    0  502 -0.65742296314E+03 -0.60441487030E+03  0.83743902025E+03  0.12242656577E+04  0.50400001928E-02 0. -1.
</event>
<event>
 5   0  0.1222488E-04  0.1991216E+04  0.7818609E-02  0.8610739E-01
        3   -1    0    0  501    0  0.00000000000E+00  0.00000000000E+00  0.81515412013E+03  0.81515412638E+03  0.10100000352E+00 0. -1.
       -3   -1    0    0    0  501  0.00000000000E+00  0.00000000000E+00 -0.12160096052E+04  0.12160096094E+04  0.10100000352E+00 0.  1.
    10030    2    1    2    0    0  0.00000000000E+00  0.00000000000E+00 -0.40085548505E+03  0.20311637357E+04  0.19912159605E+04 0.  0.
        5    1    3    3  502    0 -0.89077820787E+03 -0.39109009989E+03 -0.41627603992E+03  0.10581800949E+04  0.46999998093E+01 0.  1.
       -5    1    3    3    0  502  0.89077820787E+03  0.39109009989E+03  0.15420554873E+02  0.97298364085E+03  0.46999998093E+01 0. -1.
</event>
<event>
 5   0  0.3387881E-04  0.2026941E+04  0.7818609E-02  0.8594128E-01
        2   -1    0    0  501    0  0.00000000000E+00  0.00000000000E+00  0.67733904440E+03  0.67733904440E+03  0.25500000920E-02 0.  1.
       -2   -1    0    0    0  501  0.00000000000E+00  0.00000000000E+00 -0.15164075429E+04  0.15164075429E+04  0.25500000920E-02 0. -1.
    10030    2    1    2    0    0  0.00000000000E+00  0.00000000000E+00 -0.83906849852E+03  0.21937465873E+04  0.20269405872E+04 0.  0.
        1    1    3    3  502    0  0.44856998215E+03 -0.31922106092E+03  0.50137365020E+03  0.74464263359E+03  0.50400001928E-02 0.  1.
       -1    1    3    3    0  502 -0.44856998215E+03  0.31922106092E+03 -0.13404421487E+04  0.14491039537E+04  0.50400001928E-02 0. -1.
</event>
<event>
 5   0  0.1643565E-04  0.2019467E+04  0.7818609E-02  0.8597573E-01
        1   -1    0    0  501    0  0.00000000000E+00  0.00000000000E+00  0.11746520987E+04  0.11746520987E+04  0.50400001928E-02 0. -1.
       -1   -1    0    0    0  501  0.00000000000E+00  0.00000000000E+00 -0.86796888351E+03  0.86796888352E+03  0.50400001928E-02 0.  1.
    10030    2    1    2    0    0  0.00000000000E+00  0.00000000000E+00  0.30668321517E+03  0.20426209822E+04  0.20194667322E+04 0.  0.
        2    1    3    3  502    0  0.71111547169E+03  0.70604436329E+03  0.27876991381E+03  0.10401425488E+04  0.25500000920E-02 0. -1.
       -2    1    3    3    0  502 -0.71111547169E+03 -0.70604436329E+03  0.27913301357E+02  0.10024784334E+04  0.25500000920E-02 0.  1.
</event>
<event>
 5   0  0.3431030E-04  0.2001768E+04  0.7818609E-02  0.8605795E-01
       -2   -1    0    0    0  501  0.00000000000E+00  0.00000000000E+00  0.72151728017E+03  0.72151728017E+03  0.25500000920E-02 0.  1.
        2   -1    0    0  501    0  0.00000000000E+00  0.00000000000E+00 -0.13884193159E+04  0.13884193159E+04  0.25500000920E-02 0. -1.
    10030    2    1    2    0    0  0.00000000000E+00  0.00000000000E+00 -0.66690203571E+03  0.21099365961E+04  0.20017677473E+04 0.  0.
        3    1    3    3  502    0 -0.54195761133E+03  0.71398332186E+03  0.13589516581E+03  0.90661885192E+03  0.10100000352E+00 0.  1.
       -3    1    3    3    0  502  0.54195761133E+03 -0.71398332186E+03 -0.80279720153E+03  0.12033177441E+04  0.10100000352E+00 0. -1.
</event>
<event>
 5   0  0.1696052E-04  0.1431971E+04  0.7818609E-02  0.8930996E-01
        1   -1    0    0  501    0  0.00000000000E+00  0.00000000000E+00  0.95589662233E+03  0.95589662234E+03  0.50400001928E-02 0. -1.
       -1   -1    0    0    0  501  0.00000000000E+00  0.00000000000E+00 -0.53628744963E+03  0.53628744966E+03  0.50400001928E-02 0.  1.
    10030    2    1    2    0    0  0.00000000000E+00  0.00000000000E+00  0.41960917269E+03  0.14921840720E+04  0.14319711753E+04 0.  0.
        4    1    3    3  502    0 -0.62588528302E+03  0.11190217535E+03  0.55285758791E+03  0.84256015202E+03  0.12699999809E+01 0. -1.
       -4    1    3    3    0  502  0.62588528302E+03 -0.11190217535E+03 -0.13324841522E+03  0.64962391998E+03  0.12699999809E+01 0.  1.
</event>
<event>
 5   0  0.1650221E-04  0.2028920E+04  0.7818609E-02  0.8593218E-01
       -1   -1    0    0    0  501  0.00000000000E+00  0.00000000000E+00  0.58326626977E+03  0.58326626979E+03  0.50400001928E-02 0. -1.
        1   -1    0    0  501    0  0.00000000000E+00  0.00000000000E+00 -0.17644240817E+04  0.17644240817E+04  0.50400001928E-02 0.  1.
    10030    2    1    2    0    0  0.00000000000E+00  0.00000000000E+00 -0.11811578119E+04  0.23476903515E+04  0.20289199614E+04 0.  0.
        1    1    3    3  502    0  0.16115236441E+03  0.98972423558E+03 -0.76835650319E+03  0.12632877198E+04  0.50400001928E-02 0. -1.
       -1    1    3    3    0  502 -0.16115236441E+03 -0.98972423558E+03 -0.41280130876E+03  0.10844026317E+04  0.50400001928E-02 0.  1.
</event>
<event>
 5   0  0.1664168E-04  0.2007356E+04  0.7818609E-02  0.8603189E-01
        1   -1    0    0  501    0  0.00000000000E+00  0.00000000000E+00  0.11805728703E+04  0.11805728703E+04  0.50400001928E-02 0. -1.
       -1   -1    0    0    0  501  0.00000000000E+00  0.00000000000E+00 -0.85328843743E+03  0.85328843745E+03  0.50400001928E-02 0.  1.
    10030    2    1    2    0    0  0.00000000000E+00  0.00000000000E+00  0.32728443287E+03  0.20338613078E+04  0.20073556534E+04 0.  0.
        5    1    3    3  502    0  0.22729822527E+03  0.96825408584E+03  0.30020558361E+03  0.10389061268E+04  0.46999998093E+01 0. -1.
       -5    1    3    3    0  502 -0.22729822527E+03 -0.96825408584E+03  0.27078849262E+02  0.99495518092E+03  0.46999998093E+01 0.  1.
</event>
<event>
 5   0  0.3395569E-04  0.1981248E+04  0.7818609E-02  0.8615438E-01
        2   -1    0    0  501    0  0.00000000000E+00  0.00000000000E+00  0.20413487583E+04  0.20413487583E+04  0.25500000920E-02 0. -1.
       -2   -1    0    0    0  501  0.00000000000E+00  0.00000000000E+00 -0.48072923516E+03  0.48072923517E+03  0.25500000920E-02 0.  1.
    10030    2    1    2    0    0  0.00000000000E+00  0.00000000000E+00  0.15606195231E+04  0.25220779935E+04  0.19812481190E+04 0.  0.
        4    1    3    3  502    0  0.30835673768E+03  0.82778423669E+03  0.13510564211E+04  0.16142074483E+04  0.12699999809E+01 0. -1.
       -4    1    3    3    0  502 -0.30835673768E+03 -0.82778423669E+03  0.20956310204E+03  0.90787054519E+03  0.12699999809E+01 0.  1.
</event>
<event>
 5   0  0.1643565E-04  0.1975461E+04  0.7818609E-02  0.8618180E-01
        1   -1    0    0  501    0  0.00000000000E+00  0.00000000000E+00  0.20953519463E+04  0.20953519463E+04  0.50400001928E-02 0.  1.
       -1   -1    0    0    0  501  0.00000000000E+00  0.00000000000E+00 -0.46560725787E+03  0.46560725790E+03  0.50400001928E-02 0. -1.
    10030    2    1    2    0    0  0.00000000000E+00  0.00000000000E+00  0.16297446884E+04  0.25609592042E+04  0.19754605276E+04 0.  0.
        2    1    3    3  502    0 -0.31548758472E+03 -0.28391071060E+03 -0.34136535544E+03  0.54467239108E+03  0.25500000920E-02 0. -1.
       -2    1    3    3    0  502  0.31548758472E+03  0.28391071060E+03  0.19711100439E+04  0.20162868131E+04  0.25500000920E-02 0.  1.
</event>
<event>
 5   0  0.3371947E-04  0.1993765E+04  0.7818609E-02  0.8609541E-01
        2   -1    0    0  501    0  0.00000000000E+00  0.00000000000E+00  0.22328882766E+04  0.22328882766E+04  0.25500000920E-02 0. -1.
       -2   -1    0    0    0  501  0.00000000000E+00  0.00000000000E+00 -0.44506227677E+03  0.44506227678E+03  0.25500000920E-02 0.  1.
    10030    2    1    2    0    0  0.00000000000E+00  0.00000000000E+00  0.17878259999E+04  0.26779505534E+04  0.19937646202E+04 0.  0.
        2    1    3    3  502    0 -0.55414093637E+03 -0.64599413309E+03  0.15910568825E+04  0.18043953560E+04  0.25500000920E-02 0. -1.
       -2    1    3    3    0  502  0.55414093637E+03  0.64599413309E+03  0.19676911732E+03  0.87355519739E+03  0.25500000920E-02 0.  1.
</event>
<event>
 5   0  0.3387881E-04  0.1993670E+04  0.7818609E-02  0.8609586E-01
       -2   -1    0    0    0  501  0.00000000000E+00  0.00000000000E+00  0.58540545611E+03  0.58540545612E+03  0.25500000920E-02 0. -1.
        2   -1    0    0  501    0  0.00000000000E+00  0.00000000000E+00 -0.16974218548E+04  0.16974218548E+04  0.25500000920E-02 0.  1.
    10030    2    1    2    0    0  0.00000000000E+00  0.00000000000E+00 -0.11120163986E+04  0.22828273109E+04  0.19936699979E+04 0.  0.
        1    1    3    3  502    0  0.41420888571E+03  0.16596563438E+03  0.46466072054E+03  0.64422292574E+03  0.50400001928E-02 0. -1.
       -1    1    3    3    0  502 -0.41420888571E+03 -0.16596563438E+03 -0.15766771192E+04  0.16386043851E+04  0.50400001928E-02 0.  1.
</event>
<event>
 5   0  0.3460648E-04  0.1854894E+04  0.7818609E-02  0.8677640E-01
        2   -1    0    0  501    0  0.00000000000E+00  0.00000000000E+00  0.12226377623E+04  0.12226377623E+04  0.25500000920E-02 0. -1.
       -2   -1    0    0    0  501  0.00000000000E+00  0.00000000000E+00 -0.70352620343E+03  0.70352620344E+03  0.25500000920E-02 0.  1.
    10030    2    1    2    0    0  0.00000000000E+00  0.00000000000E+00  0.51911155890E+03  0.19261639658E+04  0.18548937469E+04 0.  0.
        5    1    3    3  502    0 -0.22225553090E+03 -0.13420694757E+03 -0.66500598459E+03  0.71390760980E+03  0.46999998093E+01 0.  1.
       -5    1    3    3    0  502  0.22225553090E+03  0.13420694757E+03  0.11841175435E+04  0.12122563560E+04  0.46999998093E+01 0. -1.
</event>
<event>
 5   0  0.1643565E-04  0.1187249E+04  0.7818609E-02  0.9124091E-01
       -1   -1    0    0    0  501  0.00000000000E+00  0.00000000000E+00  0.63406734092E+03  0.63406734094E+03  0.50400001928E-02 0. -1.
        1   -1    0    0  501    0  0.00000000000E+00  0.00000000000E+00 -0.55576136685E+03  0.55576136688E+03  0.50400001928E-02 0.  1.
    10030    2    1    2    0    0  0.00000000000E+00  0.00000000000E+00  0.78305974062E+02  0.11898287078E+04  0.11872491433E+04 0.  0.
        2    1    3    3  502    0 -0.46699538955E+03 -0.36558271336E+03  0.13509936370E+02  0.59322671261E+03  0.25500000920E-02 0.  1.
       -2    1    3    3    0  502  0.46699538955E+03  0.36558271336E+03  0.64796037692E+02  0.59660199520E+03  0.25500000920E-02 0. -1.
</event>
<event>
 5   0  0.1696052E-04  0.1374051E+04  0.7818609E-02  0.8972819E-01
        1   -1    0    0  501    0  0.00000000000E+00  0.00000000000E+00  0.55223189870E+03  0.55223189872E+03  0.50400001928E-02 0.  1.
       -1   -1    0    0    0  501  0.00000000000E+00  0.00000000000E+00 -0.85472085885E+03  0.85472085887E+03  0.50400001928E-02 0. -1.
    10030    2    1    2    0    0  0.00000000000E+00  0.00000000000E+00 -0.30248896015E+03  0.14069527576E+04  0.13740511239E+04 0.  0.
        4    1    3    3  502    0 -0.25616480664E+03  0.35682505325E+03 -0.69215303326E+03  0.81976945609E+03  0.12699999809E+01 0. -1.
       -4    1    3    3    0  502  0.25616480664E+03 -0.35682505325E+03  0.38966407311E+03  0.58718330150E+03  0.12699999809E+01 0.  1.
</event>
<event>
 5   0  0.3395569E-04  0.1979824E+04  0.7818609E-02  0.8616112E-01
       -2   -1    0    0    0  501  0.00000000000E+00  0.00000000000E+00  0.99482899730E+03  0.99482899730E+03  0.25500000920E-02 0. -1.
        2   -1    0    0  501    0  0.00000000000E+00  0.00000000000E+00 -0.98501892810E+03  0.98501892811E+03  0.25500000920E-02 0.  1.
    10030    2    1    2    0    0  0.00000000000E+00  0.00000000000E+00  0.98100691960E+01  0.19798479254E+04  0.19798236210E+04 0.  0.
        4    1    3    3  502    0  0.37899797984E+03  0.89602091865E+03 -0.17793819082E+03  0.98901798166E+03  0.12699999809E+01 0.  1.
       -4    1    3    3    0  502 -0.37899797984E+03 -0.89602091865E+03  0.18774826002E+03  0.99082994375E+03  0.12699999809E+01 0. -1.
</event>
<event>
 5   0  0.3431030E-04  0.1996432E+04  0.7818609E-02  0.8608291E-01
        2   -1    0    0  501    0  0.00000000000E+00  0.00000000000E+00  0.84506782751E+03  0.84506782751E+03  0.25500000920E-02 0.  1.
       -2   -1    0    0    0  501  0.00000000000E+00  0.00000000000E+00 -0.11791183637E+04  0.11791183637E+04  0.25500000920E-02 0. -1.
    10030    2    1    2    0    0  0.00000000000E+00  0.00000000000E+00 -0.33405053620E+03  0.20241861912E+04  0.19964318110E+04 0.  0.
        3    1    3    3  502    0 -0.27418798268E+03 -0.35554769596E+03 -0.10709584260E+04  0.11612687779E+04  0.10100000352E+00 0. -1.
       -3    1    3    3    0  502  0.27418798268E+03  0.35554769596E+03  0.73690788985E+03  0.86291741335E+03  0.10100000352E+00 0.  1.
</event>
<event>
 5   0  0.1650221E-04  0.2010287E+04  0.7818609E-02  0.8601826E-01
        1   -1    0    0  501    0  0.00000000000E+00  0.00000000000E+00  0.63914413173E+03  0.63914413175E+03  0.50400001928E-02 0. -1.
       -1   -1    0    0    0  501  0.00000000000E+00  0.00000000000E+00 -0.15807279467E+04  0.15807279467E+04  0.50400001928E-02 0.  1.
    10030    2    1    2    0    0  0.00000000000E+00  0.00000000000E+00 -0.94158381502E+03  0.22198720785E+04  0.20102865378E+04 0.  0.
        1    1    3    3  502    0 -0.53238981166E+03 -0.84939801295E+03 -0.38966778389E+03  0.10755263259E+04  0.50400001928E-02 0. -1.
       -1    1    3    3    0  502  0.53238981166E+03  0.84939801295E+03 -0.55191603113E+03  0.11443457526E+04  0.50400001928E-02 0.  1.
</event>
<event>
 5   0  0.1708578E-04  0.2058354E+04  0.7818609E-02  0.8579814E-01
        1   -1    0    0  501    0  0.00000000000E+00  0.00000000000E+00  0.10032898526E+04  0.10032898526E+04  0.50400001928E-02 0. -1.
       -1   -1    0    0    0  501  0.00000000000E+00  0.00000000000E+00 -0.10557316318E+04  0.10557316318E+04  0.50400001928E-02 0.  1.
    10030    2    1    2    0    0  0.00000000000E+00  0.00000000000E+00 -0.52441779204E+02  0.20590214843E+04  0.20583535490E+04 0.  0.
        3    1    3    3  502    0 -0.75276525388E+03  0.22306123255E+03 -0.69186373765E+03  0.10464641812E+04  0.10100000352E+00 0.  1.
       -3    1    3    3    0  502  0.75276525388E+03 -0.22306123255E+03  0.63942195844E+03  0.10125573031E+04  0.10100000352E+00 0. -1.
</event>
<event>
 5   0  0.1643565E-04  0.2036229E+04  0.7818609E-02  0.8589867E-01
       -1   -1    0    0    0  501  0.00000000000E+00  0.00000000000E+00  0.10183216596E+04  0.10183216596E+04  0.50400001928E-02 0.  1.
        1   -1    0    0  501    0  0.00000000000E+00  0.00000000000E+00 -0.10179072657E+04  0.10179072657E+04  0.50400001928E-02 0. -1.
    10030    2    1    2    0    0  0.00000000000E+00  0.00000000000E+00  0.41439385418E+00  0.20362289253E+04  0.20362288832E+04 0.  0.
        2    1    3    3  502    0  0.20679861229E+03  0.71738966923E+03  0.69240906954E+03  0.10182553330E+04  0.25500000920E-02 0.  1.
       -2    1    3    3    0  502 -0.20679861229E+03 -0.71738966923E+03 -0.69199467569E+03  0.10179735924E+04  0.25500000920E-02 0. -1.
</event>
<event>
 5   0  0.1643565E-04  0.1977378E+04  0.7818609E-02  0.8617271E-01
        1   -1    0    0  501    0  0.00000000000E+00  0.00000000000E+00  0.92131644195E+03  0.92131644196E+03  0.50400001928E-02 0.  1.
       -1   -1    0    0    0  501  0.00000000000E+00  0.00000000000E+00 -0.10609877585E+04  0.10609877585E+04  0.50400001928E-02 0. -1.
    10030    2    1    2    0    0  0.00000000000E+00  0.00000000000E+00 -0.13967131658E+03  0.19823042005E+04  0.19773775225E+04 0.  0.
        2    1    3    3  502    0  0.78920749576E+03 -0.47883299599E+03 -0.42480254301E+03  0.10161627379E+04  0.25500000920E-02 0. -1.
       -2    1    3    3    0  502 -0.78920749576E+03  0.47883299599E+03  0.28513122643E+03  0.96614146257E+03  0.25500000920E-02 0.  1.
</event>
<event>
 5   0  0.3460648E-04  0.2734057E+04  0.7818609E-02  0.8324039E-01
        2   -1    0    0  501    0  0.00000000000E+00  0.00000000000E+00  0.19649493966E+04  0.19649493966E+04  0.25500000920E-02 0. -1.
       -2   -1    0    0    0  501  0.00000000000E+00  0.00000000000E+00 -0.95105063499E+03  0.95105063499E+03  0.25500000920E-02 0.  1.
    10030    2    1    2    0    0  0.00000000000E+00  0.00000000000E+00  0.10138987616E+04  0.29160000316E+04  0.27340565988E+04 0.  0.
        5    1    3    3  502    0  0.45751632503E+03 -0.98490758547E+03 -0.37859311680E+03  0.11500952037E+04  0.46999998093E+01 0.  1.
       -5    1    3    3    0  502 -0.45751632503E+03  0.98490758547E+03  0.13924918784E+04  0.17659048278E+04  0.46999998093E+01 0. -1.
</event>
<event>
 5   0  0.1664168E-04  0.2059570E+04  0.7818609E-02  0.8579265E-01
        1   -1    0    0  501    0  0.00000000000E+00  0.00000000000E+00  0.15501762305E+04  0.15501762305E+04  0.50400001928E-02 0. -1.
       -1   -1    0    0    0  501  0.00000000000E+00  0.00000000000E+00 -0.68408803464E+03  0.68408803465E+03  0.50400001928E-02 0.  1.
    10030    2    1    2    0    0  0.00000000000E+00  0.00000000000E+00  0.86608819586E+03  0.22342642652E+04  0.20595698686E+04 0.  0.
        5    1    3    3  502    0 -0.34438145040E+03 -0.95772533075E+03  0.26290169082E+03  0.10511782825E+04  0.46999998093E+01 0.  1.
       -5    1    3    3    0  502  0.34438145040E+03  0.95772533075E+03  0.60318650503E+03  0.11830859827E+04  0.46999998093E+01 0. -1.
</event>
<event>
 5   0  0.1708578E-04  0.1886606E+04  0.7818609E-02  0.8661552E-01
       -1   -1    0    0    0  501  0.00000000000E+00  0.00000000000E+00  0.11244895817E+04  0.11244895818E+04  0.50400001928E-02 0. -1.
        1   -1    0    0  501    0  0.00000000000E+00  0.00000000000E+00 -0.79131048551E+03  0.79131048553E+03  0.50400001928E-02 0.  1.
    10030    2    1    2    0    0  0.00000000000E+00  0.00000000000E+00  0.33317909623E+03  0.19158000673E+04  0.18866058379E+04 0.  0.
        3    1    3    3  502    0 -0.37401726642E+03 -0.84510269767E+03  0.35854619340E+03  0.99128344493E+03  0.10100000352E+00 0.  1.
       -3    1    3    3    0  502  0.37401726642E+03  0.84510269767E+03 -0.25367097172E+02  0.92451662236E+03  0.10100000352E+00 0. -1.
</event>
<event>
 5   0  0.1664168E-04  0.2007736E+04  0.7818609E-02  0.8603012E-01
       -1   -1    0    0    0  501  0.00000000000E+00  0.00000000000E+00  0.12076690156E+04  0.12076690156E+04  0.50400001928E-02 0. -1.
        1   -1    0    0  501    0  0.00000000000E+00  0.00000000000E+00 -0.83445990335E+03  0.83445990336E+03  0.50400001928E-02 0.  1.
    10030    2    1    2    0    0  0.00000000000E+00  0.00000000000E+00  0.37320911222E+03  0.20421289189E+04  0.20077364070E+04 0.  0.
        5    1    3    3  502    0 -0.71201925411E+03 -0.65490181116E+03 -0.86057395248E+02  0.97123414569E+03  0.46999998093E+01 0. -1.
       -5    1    3    3    0  502  0.71201925411E+03  0.65490181116E+03  0.45926650747E+03  0.10708947732E+04  0.46999998093E+01 0.  1.
</event>
<event>
 5   0  0.1650221E-04  0.1989523E+04  0.7818609E-02  0.8611535E-01
       -1   -1    0    0    0  501  0.00000000000E+00  0.00000000000E+00  0.52028109118E+03  0.52028109121E+03  0.50400001928E-02 0. -1.
        1   -1    0    0  501    0  0.00000000000E+00  0.00000000000E+00 -0.19019535791E+04  0.19019535791E+04  0.50400001928E-02 0.  1.
    10030    2    1    2    0    0  0.00000000000E+00  0.00000000000E+00 -0.13816724879E+04  0.24222346703E+04  0.19895230419E+04 0.  0.
        1    1    3    3  502    0 -0.21673358227E+03 -0.69078296177E+03 -0.15214106355E+04  0.16848871974E+04  0.50400001928E-02 0.  1.
       -1    1    3    3    0  502  0.21673358227E+03  0.69078296177E+03  0.13973814759E+03  0.73734747296E+03  0.50400001928E-02 0. -1.
</event>
<event>
 5   0  0.3371947E-04  0.2072847E+04  0.7818609E-02  0.8573299E-01
       -2   -1    0    0    0  501  0.00000000000E+00  0.00000000000E+00  0.13098170943E+04  0.13098170943E+04  0.25500000920E-02 0. -1.
        2   -1    0    0  501    0  0.00000000000E+00  0.00000000000E+00 -0.82009479580E+03  0.82009479581E+03  0.25500000920E-02 0.  1.
    10030    2    1    2    0    0  0.00000000000E+00  0.00000000000E+00  0.48972229847E+03  0.21299118901E+04  0.20728474932E+04 0.  0.
        2    1    3    3  502    0  0.70109056838E+03  0.10910974269E+03  0.10211331514E+04  0.12434411260E+04  0.25500000920E-02 0. -1.
       -2    1    3    3    0  502 -0.70109056838E+03 -0.10910974269E+03 -0.53141085288E+03  0.88647076409E+03  0.25500000920E-02 0.  1.
</event>
<event>
 5   0  0.3387881E-04  0.2010491E+04  0.7818609E-02  0.8601731E-01
        2   -1    0    0  501    0  0.00000000000E+00  0.00000000000E+00  0.60868293771E+03  0.60868293772E+03  0.25500000920E-02 0.  1.
       -2   -1    0    0    0  501  0.00000000000E+00  0.00000000000E+00 -0.16601723367E+04  0.16601723367E+04  0.25500000920E-02 0. -1.
    10030    2    1    2    0    0  0.00000000000E+00  0.00000000000E+00 -0.10514893989E+04  0.22688552744E+04  0.20104910594E+04 0.  0.
        1    1    3    3  502    0 -0.59098957200E+03  0.65779294059E+03  0.13769888511E+02  0.88439235453E+03  0.50400001928E-02 0.  1.
       -1    1    3    3    0  502  0.59098957200E+03 -0.65779294059E+03 -0.10652592875E+04  0.13844629198E+04  0.50400001928E-02 0. -1.
</event>
<event>
 5   0  0.1222488E-04  0.1990847E+04  0.7818609E-02  0.8610912E-01
        3   -1    0    0  501    0  0.00000000000E+00  0.00000000000E+00  0.99389974319E+03  0.99389974832E+03  0.10100000352E+00 0.  1.
       -3   -1    0    0    0  501  0.00000000000E+00  0.00000000000E+00 -0.99694991133E+03  0.99694991645E+03  0.10100000352E+00 0. -1.
    10030    2    1    2    0    0  0.00000000000E+00  0.00000000000E+00 -0.30501681454E+01  0.19908496648E+04  0.19908473282E+04 0.  0.
        2    1    3    3  502    0 -0.24494542462E+03  0.18244852035E+03 -0.94893452794E+03  0.99687635239E+03  0.25500000920E-02 0. -1.
       -2    1    3    3    0  502  0.24494542462E+03 -0.18244852035E+03  0.94588435979E+03  0.99397331238E+03  0.25500000920E-02 0.  1.
</event>
<event>
 5   0  0.1643565E-04  0.2017373E+04  0.7818609E-02  0.8598541E-01
       -1   -1    0    0    0  501  0.00000000000E+00  0.00000000000E+00  0.78877214388E+03  0.78877214390E+03  0.50400001928E-02 0.  1.
        1   -1    0    0  501    0  0.00000000000E+00  0.00000000000E+00 -0.12899145470E+04  0.12899145470E+04  0.50400001928E-02 0. -1.
    10030    2    1    2    0    0  0.00000000000E+00  0.00000000000E+00 -0.50114240309E+03  0.20786866909E+04  0.20173732056E+04 0.  0.
        2    1    3    3  502    0 -0.58656950198E+03  0.79868070305E+03 -0.56446696685E+02  0.99254263165E+03  0.25500000920E-02 0. -1.
       -2    1    3    3    0  502  0.58656950198E+03 -0.79868070305E+03 -0.44469570640E+03  0.10861440592E+04  0.25500000920E-02 0.  1.
</event>
<event>
 5   0  0.1708578E-04  0.2002766E+04  0.7818609E-02  0.8605328E-01
        1   -1    0    0  501    0  0.00000000000E+00  0.00000000000E+00  0.15831233429E+04  0.15831233429E+04  0.50400001928E-02 0.  1.
       -1   -1    0    0    0  501  0.00000000000E+00  0.00000000000E+00 -0.63341137490E+03  0.63341137492E+03  0.50400001928E-02 0. -1.
    10030    2    1    2    0    0  0.00000000000E+00  0.00000000000E+00  0.94971196800E+03  0.22165347178E+04  0.20027664200E+04 0.  0.
        3    1    3    3  502    0 -0.63776608322E+03  0.52342464435E+03  0.11029222621E+04  0.13773730292E+04  0.10100000352E+00 0.  1.
       -3    1    3    3    0  502  0.63776608322E+03 -0.52342464435E+03 -0.15321029408E+03  0.83916168861E+03  0.10100000352E+00 0. -1.
</event>
<event>
 5   0  0.3371947E-04  0.1788580E+04  0.7818609E-02  0.8712396E-01
       -2   -1    0    0    0  501  0.00000000000E+00  0.00000000000E+00  0.99468637714E+03  0.99468637715E+03  0.25500000920E-02 0.  1.
        2   -1    0    0  501    0  0.00000000000E+00  0.00000000000E+00 -0.80402732762E+03  0.80402732763E+03  0.25500000920E-02 0. -1.
    10030    2    1    2    0    0  0.00000000000E+00  0.00000000000E+00  0.19065904952E+03  0.17987137048E+04  0.17885804758E+04 0.  0.
        2    1    3    3  502    0 -0.15354021428E+03 -0.62326816733E+03  0.72152670140E+03  0.96573215058E+03  0.25500000920E-02 0.  1.
       -2    1    3    3    0  502  0.15354021428E+03  0.62326816733E+03 -0.53086765188E+03  0.83298155420E+03  0.25500000920E-02 0. -1.
</event>
<event>
 5   0  0.3387881E-04  0.2057143E+04  0.7818609E-02  0.8580361E-01
        2   -1    0    0  501    0  0.00000000000E+00  0.00000000000E+00  0.21854365111E+04  0.21854365111E+04  0.25500000920E-02 0.  1.
       -2   -1    0    0    0  501  0.00000000000E+00  0.00000000000E+00 -0.48409529461E+03  0.48409529462E+03  0.25500000920E-02 0. -1.
    10030    2    1    2    0    0  0.00000000000E+00  0.00000000000E+00  0.17013412165E+04  0.26695318057E+04  0.20571431955E+04 0.  0.
        1    1    3    3  502    0 -0.92426762524E+03  0.44491097453E+03  0.94901379356E+03  0.13974418051E+04  0.50400001928E-02 0. -1.
       -1    1    3    3    0  502  0.92426762524E+03 -0.44491097453E+03  0.75232742295E+03  0.12720900006E+04  0.50400001928E-02 0.  1.
</event>
<event>
 5   0  0.1650221E-04  0.1995412E+04  0.7818609E-02  0.8608769E-01
        1   -1    0    0  501    0  0.00000000000E+00  0.00000000000E+00  0.18588669654E+04  0.18588669654E+04  0.50400001928E-02 0. -1.
       -1   -1    0    0    0  501  0.00000000000E+00  0.00000000000E+00 -0.53549669883E+03  0.53549669886E+03  0.50400001928E-02 0.  1.
    10030    2    1    2    0    0  0.00000000000E+00  0.00000000000E+00  0.13233702666E+04  0.23943636643E+04  0.19954118608E+04 0.  0.
        1    1    3    3  502    0 -0.79222117634E+03 -0.59464056704E+03  0.80470065900E+03  0.12762268399E+04  0.50400001928E-02 0. -1.
       -1    1    3    3    0  502  0.79222117634E+03  0.59464056704E+03  0.51866960757E+03  0.11181368244E+04  0.50400001928E-02 0.  1.
</event>
<event>
 5   0  0.3371947E-04  0.1310600E+04  0.7818609E-02  0.9021201E-01
        2   -1    0    0  501    0  0.00000000000E+00  0.00000000000E+00  0.54561977845E+03  0.54561977845E+03  0.25500000920E-02 0.  1.
       -2   -1    0    0    0  501  0.00000000000E+00  0.00000000000E+00 -0.78702852276E+03  0.78702852276E+03  0.25500000920E-02 0. -1.
    10030    2    1    2    0    0  0.00000000000E+00  0.00000000000E+00 -0.24140874431E+03  0.13326483012E+04  0.13106003635E+04 0.  0.
        2    1    3    3  502    0 -0.28331895377E+03 -0.18694251525E+03  0.44926193271E+03  0.56307496638E+03  0.25500000920E-02 0.  1.
       -2    1    3    3    0  502  0.28331895377E+03  0.18694251525E+03 -0.69067067702E+03  0.76957333483E+03  0.25500000920E-02 0. -1.
</event>
<event>
 5   0  0.1696052E-04  0.1726582E+04  0.7818609E-02  0.8746347E-01
        1   -1    0    0  501    0  0.00000000000E+00  0.00000000000E+00  0.16819190590E+04  0.16819190590E+04  0.50400001928E-02 0.  1.
       -1   -1    0    0    0  501  0.00000000000E+00  0.00000000000E+00 -0.44310775036E+03  0.44310775039E+03  0.50400001928E-02 0. -1.
    10030    2    1    2    0    0  0.00000000000E+00  0.00000000000E+00  0.12388113086E+04  0.21250268094E+04  0.17265820230E+04 0.  0.
        4    1    3    3  502    0  0.73498189175E+03  0.29008147710E+03  0.10473956862E+04  0.13120156176E+04  0.12699999809E+01 0.  1.
       -4    1    3    3    0  502 -0.73498189175E+03 -0.29008147710E+03  0.19141562250E+03  0.81301119180E+03  0.12699999809E+01 0. -1.
</event>
<event>
 5   0  0.1708578E-04  0.1992235E+04  0.7818609E-02  0.8610260E-01
        1   -1    0    0  501    0  0.00000000000E+00  0.00000000000E+00  0.10035465090E+04  0.10035465090E+04  0.50400001928E-02 0.  1.
       -1   -1    0    0    0  501  0.00000000000E+00  0.00000000000E+00 -0.98874306813E+03  0.98874306814E+03  0.50400001928E-02 0. -1.
    10030    2    1    2    0    0  0.00000000000E+00  0.00000000000E+00  0.14803440830E+02  0.19922895771E+04  0.19922345789E+04 0.  0.
        3    1    3    3  502    0  0.17834523848E+03  0.94951080476E+03  0.25004364213E+03  0.99794770685E+03  0.10100000352E+00 0.  1.
       -3    1    3    3    0  502 -0.17834523848E+03 -0.94951080476E+03 -0.23524020130E+03  0.99434187026E+03  0.10100000352E+00 0. -1.
</event>
<event>
 5   0  0.3460648E-04  0.1797843E+04  0.7818609E-02  0.8707448E-01
       -2   -1    0    0    0  501  0.00000000000E+00  0.00000000000E+00  0.33919353865E+03  0.33919353866E+03  0.25500000920E-02 0.  1.
        2   -1    0    0  501    0  0.00000000000E+00  0.00000000000E+00 -0.23822966773E+04  0.23822966773E+04  0.25500000920E-02 0. -1.
    10030    2    1    2    0    0  0.00000000000E+00  0.00000000000E+00 -0.20431031386E+04  0.27214902159E+04  0.17978427519E+04 0.  0.
        5    1    3    3  502    0  0.19674310447E+02  0.83923965009E+03 -0.15081408923E+04  0.17260420938E+04  0.46999998093E+01 0. -1.
       -5    1    3    3    0  502 -0.19674310447E+02 -0.83923965009E+03 -0.53496224635E+03  0.99544812210E+03  0.46999998093E+01 0.  1.
</event>
<event>
 5   0  0.3371947E-04  0.2029543E+04  0.7818609E-02  0.8592932E-01
       -2   -1    0    0    0  501  0.00000000000E+00  0.00000000000E+00  0.12195100400E+04  0.12195100400E+04  0.25500000920E-02 0. -1.
        2   -1    0    0  501    0  0.00000000000E+00  0.00000000000E+00 -0.84440550626E+03  0.84440550626E+03  0.25500000920E-02 0.  1.
    10030    2    1    2    0    0  0.00000000000E+00  0.00000000000E+00  0.37510453376E+03  0.20639155463E+04  0.20295427985E+04 0.  0.
        2    1    3    3  502    0  0.55126377231E+02  0.54125270036E+03  0.10586622099E+04  0.11902768912E+04  0.25500000920E-02 0. -1.
       -2    1    3    3    0  502 -0.55126377231E+02 -0.54125270036E+03 -0.68355767609E+03  0.87363865509E+03  0.25500000920E-02 0.  1.
</event>
<event>
 5   0  0.1222488E-04  0.2031749E+04  0.7818609E-02  0.8591919E-01
        3   -1    0    0  501    0  0.00000000000E+00  0.00000000000E+00  0.66740331511E+03  0.66740332275E+03  0.10100000352E+00 0. -1.
       -3   -1    0    0    0  501  0.00000000000E+00  0.00000000000E+00 -0.15462930910E+04  0.15462930943E+04  0.10100000352E+00 0.  1.
    10030    2    1    2    0    0  0.00000000000E+00  0.00000000000E+00 -0.87888977589E+03  0.22136964170E+04  0.20317491451E+04 0.  0.
        3    1    3    3  502    0 -0.48277021838E+03  0.80291069950E+03 -0.11501272815E+02  0.93694448320E+03  0.10100000352E+00 0. -1.
       -3    1    3    3    0  502  0.48277021838E+03 -0.80291069950E+03 -0.86738850308E+03  0.12767519338E+04  0.10100000352E+00 0.  1.
</event>
<event>
 5   0  0.1664168E-04  0.1964766E+04  0.7818609E-02  0.8623273E-01
       -1   -1    0    0    0  501  0.00000000000E+00  0.00000000000E+00  0.45611037959E+03  0.45611037961E+03  0.50400001928E-02 0.  1.
        1   -1    0    0  501    0  0.00000000000E+00  0.00000000000E+00 -0.21158843854E+04  0.21158843854E+04  0.50400001928E-02 0. -1.
    10030    2    1    2    0    0  0.00000000000E+00  0.00000000000E+00 -0.16597740058E+04  0.25719947650E+04  0.19647664800E+04 0.  0.
        5    1    3    3  502    0 -0.17938139924E+03 -0.96293271788E+03 -0.73159739451E+03  0.12225685843E+04  0.46999998093E+01 0. -1.
       -5    1    3    3    0  502  0.17938139924E+03  0.96293271788E+03 -0.92817661128E+03  0.13494261807E+04  0.46999998093E+01 0.  1.
</event>
<event>
 5   0  0.1643565E-04  0.1935315E+04  0.7818609E-02  0.8637475E-01
        1   -1    0    0  501    0  0.00000000000E+00  0.00000000000E+00  0.19311020728E+04  0.19311020728E+04  0.50400001928E-02 0. -1.
       -1   -1    0    0    0  501  0.00000000000E+00  0.00000000000E+00 -0.48488427676E+03  0.48488427679E+03  0.50400001928E-02 0.  1.
    10030    2    1    2    0    0  0.00000000000E+00  0.00000000000E+00  0.14462177961E+04  0.24159863496E+04  0.19353149945E+04 0.  0.
        2    1    3    3  502    0  0.49054510819E+01 -0.22040177810E+03 -0.45311664751E+03  0.50390048967E+03  0.25500000920E-02 0.  1.
       -2    1    3    3    0  502 -0.49054510819E+01  0.22040177810E+03  0.18993344436E+04  0.19120858599E+04  0.25500000920E-02 0. -1.
</event>
<event>
 5   0  0.1650221E-04  0.1529821E+04  0.7818609E-02  0.8864861E-01
        1   -1    0    0  501    0  0.00000000000E+00  0.00000000000E+00  0.13445596485E+04  0.13445596485E+04  0.50400001928E-02 0.  1.
       -1   -1    0    0    0  501  0.00000000000E+00  0.00000000000E+00 -0.43515197715E+03  0.43515197718E+03  0.50400001928E-02 0. -1.
    10030    2    1    2    0    0  0.00000000000E+00  0.00000000000E+00  0.90940767138E+03  0.17797116257E+04  0.15298206293E+04 0.  0.
        1    1    3    3  502    0  0.10117216447E+03 -0.34683326073E+03  0.12390433558E+04  0.12906423033E+04  0.50400001928E-02 0.  1.
       -1    1    3    3    0  502 -0.10117216447E+03  0.34683326073E+03 -0.32963568442E+03  0.48906932237E+03  0.50400001928E-02 0. -1.
</event>
<event>
 5   0  0.3371947E-04  0.1286439E+04  0.7818609E-02  0.9040389E-01
        2   -1    0    0  501    0  0.00000000000E+00  0.00000000000E+00  0.88755872791E+03  0.88755872792E+03  0.25500000920E-02 0.  1.
       -2   -1    0    0    0  501  0.00000000000E+00  0.00000000000E+00 -0.46614554593E+03  0.46614554594E+03  0.25500000920E-02 0. -1.
    10030    2    1    2    0    0  0.00000000000E+00  0.00000000000E+00  0.42141318199E+03  0.13537042739E+04  0.12864393461E+04 0.  0.
        2    1    3    3  502    0  0.40703432284E+03  0.18983845384E+03  0.69523447167E+03  0.82768747069E+03  0.25500000920E-02 0.  1.
       -2    1    3    3    0  502 -0.40703432284E+03 -0.18983845384E+03 -0.27382128969E+03  0.52601680317E+03  0.25500000920E-02 0. -1.
</event>
<event>
 5   0  0.1650221E-04  0.1927995E+04  0.7818609E-02  0.8641046E-01
        1   -1    0    0  501    0  0.00000000000E+00  0.00000000000E+00  0.17235090240E+04  0.17235090240E+04  0.50400001928E-02 0.  1.
       -1   -1    0    0    0  501  0.00000000000E+00  0.00000000000E+00 -0.53918537556E+03  0.53918537558E+03  0.50400001928E-02 0. -1.
    10030    2    1    2    0    0  0.00000000000E+00  0.00000000000E+00  0.11843236485E+04  0.22626943996E+04  0.19279946685E+04 0.  0.
        1    1    3    3  502    0  0.86018383098E+03 -0.50663387818E+02  0.84916976766E+02  0.86584865590E+03  0.50400001928E-02 0. -1.
       -1    1    3    3    0  502 -0.86018383098E+03  0.50663387818E+02  0.10994066717E+04  0.13968457437E+04  0.50400001928E-02 0.  1.
</event>
<event>
 5   0  0.3460648E-04  0.1611369E+04  0.7818609E-02  0.8813594E-01
        2   -1    0    0  501    0  0.00000000000E+00  0.00000000000E+00  0.75190883446E+03  0.75190883447E+03  0.25500000920E-02 0.  1.
       -2   -1    0    0    0  501  0.00000000000E+00  0.00000000000E+00 -0.86330594551E+03  0.86330594551E+03  0.25500000920E-02 0. -1.
    10030    2    1    2    0    0  0.00000000000E+00  0.00000000000E+00 -0.11139711105E+03  0.16152147800E+04  0.16113688185E+04 0.  0.
        5    1    3    3  502    0 -0.42505187331E+03 -0.37973362964E+03  0.51508000353E+03  0.76824229544E+03  0.46999998093E+01 0.  1.
       -5    1    3    3    0  502  0.42505187331E+03  0.37973362964E+03 -0.62647711457E+03  0.84697248454E+03  0.46999998093E+01 0. -1.
</event>
<event>
 5   0  0.1708578E-04  0.1966693E+04  0.7818609E-02  0.8622353E-01
        1   -1    0    0  501    0  0.00000000000E+00  0.00000000000E+00  0.49348158026E+03  0.49348158029E+03  0.50400001928E-02 0. -1.
       -1   -1    0    0    0  501  0.00000000000E+00  0.00000000000E+00 -0.19594857253E+04  0.19594857253E+04  0.50400001928E-02 0.  1.
    10030    2    1    2    0    0  0.00000000000E+00  0.00000000000E+00 -0.14660041450E+04  0.24529673056E+04  0.19666927694E+04 0.  0.
        3    1    3    3  502    0 -0.64660978975E+03  0.27796559340E+03 -0.15895321189E+04  0.17383847269E+04  0.10100000352E+00 0.  1.
       -3    1    3    3    0  502  0.64660978975E+03 -0.27796559340E+03  0.12352797387E+03  0.71458257875E+03  0.10100000352E+00 0. -1.
</event>
<event>
 5   0  0.1222488E-04  0.2006211E+04  0.7818609E-02  0.8603722E-01
        3   -1    0    0  501    0  0.00000000000E+00  0.00000000000E+00  0.13741702738E+04  0.13741702776E+04  0.10100000352E+00 0.  1.
       -3   -1    0    0    0  501  0.00000000000E+00  0.00000000000E+00 -0.73223861309E+03  0.73223862006E+03  0.10100000352E+00 0. -1.
    10030    2    1    2    0    0  0.00000000000E+00  0.00000000000E+00  0.64193166075E+03  0.21064088976E+04  0.20062109029E+04 0.  0.
        1    1    3    3  502    0  0.80432564602E+03 -0.26029836841E+03  0.88786316408E+03  0.12259673664E+04  0.50400001928E-02 0.  1.
       -1    1    3    3    0  502 -0.80432564602E+03  0.26029836841E+03 -0.24593150333E+03  0.88044153116E+03  0.50400001928E-02 0. -1.
</event>
<event>
 5   0  0.1664168E-04  0.1126585E+04  0.7818609E-02  0.9179661E-01
        1   -1    0    0  501    0  0.00000000000E+00  0.00000000000E+00  0.38428373628E+03  0.38428373632E+03  0.50400001928E-02 0.  1.
       -1   -1    0    0    0  501  0.00000000000E+00  0.00000000000E+00 -0.82568809449E+03  0.82568809450E+03  0.50400001928E-02 0. -1.
    10030    2    1    2    0    0  0.00000000000E+00  0.00000000000E+00 -0.44140435820E+03  0.12099718308E+04  0.11265851162E+04 0.  0.
        5    1    3    3  502    0  0.70710647943E+02  0.55881500781E+03 -0.22229784573E+03  0.60556802335E+03  0.46999998093E+01 0. -1.
       -5    1    3    3    0  502 -0.70710647943E+02 -0.55881500781E+03 -0.21910651247E+03  0.60440380747E+03  0.46999998093E+01 0.  1.
</event>
<event>
 5   0  0.3371947E-04  0.2015501E+04  0.7818609E-02  0.8599407E-01
        2   -1    0    0  501    0  0.00000000000E+00  0.00000000000E+00  0.88677891792E+03  0.88677891792E+03  0.25500000920E-02 0.  1.
       -2   -1    0    0    0  501  0.00000000000E+00  0.00000000000E+00 -0.11452248192E+04  0.11452248192E+04  0.25500000920E-02 0. -1.
    10030    2    1    2    0    0  0.00000000000E+00  0.00000000000E+00 -0.25844590131E+03  0.20320037372E+04  0.20155011545E+04 0.  0.
        2    1    3    3  502    0  0.17610694024E+03  0.75506978518E+03 -0.77824631665E+03  0.10985496640E+04  0.25500000920E-02 0. -1.
       -2    1    3    3    0  502 -0.17610694024E+03 -0.75506978518E+03  0.51980041534E+03  0.93345407315E+03  0.25500000920E-02 0.  1.
</event>
<event>
 5   0  0.1222488E-04  0.1953045E+04  0.7818609E-02  0.8628894E-01
       -3   -1    0    0    0  501  0.00000000000E+00  0.00000000000E+00  0.57171882232E+03  0.57171883124E+03  0.10100000352E+00 0. -1.
        3   -1    0    0  501    0  0.00000000000E+00  0.00000000000E+00 -0.16679461056E+04  0.16679461087E+04  0.10100000352E+00 0.  1.
    10030    2    1    2    0    0  0.00000000000E+00  0.00000000000E+00 -0.10962272833E+04  0.22396649399E+04  0.19530450037E+04 0.  0.
        3    1    3    3  502    0  0.42465942803E+03 -0.74280557669E+03 -0.10878206895E+04  0.13839976941E+04  0.10100000352E+00 0.  1.
       -3    1    3    3    0  502 -0.42465942803E+03  0.74280557669E+03 -0.84065938133E+01  0.85566724584E+03  0.10100000352E+00 0. -1.
</event>
<event>
 5   0  0.1650221E-04  0.1940646E+04  0.7818609E-02  0.8634885E-01
       -1   -1    0    0    0  501  0.00000000000E+00  0.00000000000E+00  0.11679656684E+04  0.11679656684E+04  0.50400001928E-02 0. -1.
        1   -1    0    0  501    0  0.00000000000E+00  0.00000000000E+00 -0.80612520970E+03  0.80612520971E+03  0.50400001928E-02 0.  1.
    10030    2    1    2    0    0  0.00000000000E+00  0.00000000000E+00  0.36184045873E+03  0.19740908781E+04  0.19406458403E+04 0.  0.
        1    1    3    3  502    0  0.88361797085E+03 -0.21218088154E+03 -0.16512644854E+03  0.92361690594E+03  0.50400001928E-02 0. -1.
       -1    1    3    3    0  502 -0.88361797085E+03  0.21218088154E+03  0.52696690728E+03  0.10504739722E+04  0.50400001928E-02 0.  1.
</event>
<event>
 5   0  0.3371947E-04  0.1837886E+04  0.7818609E-02  0.8686407E-01
       -2   -1    0    0    0  501  0.00000000000E+00  0.00000000000E+00  0.19516423307E+04  0.19516423307E+04  0.25500000920E-02 0.  1.
        2   -1    0    0  501    0  0.00000000000E+00  0.00000000000E+00 -0.43269022550E+03  0.43269022550E+03  0.25500000920E-02 0. -1.
    10030    2    1    2    0    0  0.00000000000E+00  0.00000000000E+00  0.15189521052E+04  0.23843325562E+04  0.18378863514E+04 0.  0.
        2    1    3    3  502    0 -0.43656366076E+03  0.14583141115E+02 -0.28939674663E+03  0.52397612051E+03  0.25500000920E-02 0. -1.
       -2    1    3    3    0  502  0.43656366076E+03 -0.14583141115E+02  0.18083488519E+04  0.18603564357E+04  0.25500000920E-02 0.  1.
</event>
<event>
 5   0  0.1643565E-04  0.1889953E+04  0.7818609E-02  0.8659873E-01
        1   -1    0    0  501    0  0.00000000000E+00  0.00000000000E+00  0.81749970826E+03  0.81749970827E+03  0.50400001928E-02 0. -1.
       -1   -1    0    0    0  501  0.00000000000E+00  0.00000000000E+00 -0.10923317131E+04  0.10923317131E+04  0.50400001928E-02 0.  1.
    10030    2    1    2    0    0  0.00000000000E+00  0.00000000000E+00 -0.27483200487E+03  0.19098314214E+04  0.18899532871E+04 0.  0.
        2    1    3    3  502    0 -0.79324262493E+03  0.42377202740E+03  0.15574610039E+03  0.91272856918E+03  0.25500000920E-02 0.  1.
       -2    1    3    3    0  502  0.79324262493E+03 -0.42377202740E+03 -0.43057810526E+03  0.99710285224E+03  0.25500000920E-02 0. -1.
</event>
<event>
 5   0  0.1643565E-04  0.2007467E+04  0.7818609E-02  0.8603138E-01
       -1   -1    0    0    0  501  0.00000000000E+00  0.00000000000E+00  0.10323737023E+04  0.10323737024E+04  0.50400001928E-02 0.  1.
        1   -1    0    0  501    0  0.00000000000E+00  0.00000000000E+00 -0.97588760684E+03  0.97588760685E+03  0.50400001928E-02 0. -1.
    10030    2    1    2    0    0  0.00000000000E+00  0.00000000000E+00  0.56486095504E+02  0.20082613092E+04  0.20074667636E+04 0.  0.
        2    1    3    3  502    0  0.38021396427E+03  0.31849619340E+03  0.90121562233E+03  0.10286846367E+04  0.25500000920E-02 0.  1.
       -2    1    3    3    0  502 -0.38021396427E+03 -0.31849619340E+03 -0.84472952683E+03  0.97957667252E+03  0.25500000920E-02 0. -1.
</event>
<event>
 5   0  0.1696052E-04  0.1912587E+04  0.7818609E-02  0.8648616E-01
        1   -1    0    0  501    0  0.00000000000E+00  0.00000000000E+00  0.79727084300E+03  0.79727084302E+03  0.50400001928E-02 0.  1.
       -1   -1    0    0    0  501  0.00000000000E+00  0.00000000000E+00 -0.11470350996E+04  0.11470350996E+04  0.50400001928E-02 0. -1.
    10030    2    1    2    0    0  0.00000000000E+00  0.00000000000E+00 -0.34976425660E+03  0.19443059426E+04  0.19125874002E+04 0.  0.
        4    1    3    3  502    0  0.68027342920E+02 -0.78443698803E+03  0.37682146345E+03  0.87290614375E+03  0.12699999809E+01 0.  1.
       -4    1    3    3    0  502 -0.68027342920E+02  0.78443698803E+03 -0.72658572005E+03  0.10713997989E+04  0.12699999809E+01 0. -1.
</event>
<event>
 5   0  0.1696052E-04  0.1969621E+04  0.7818609E-02  0.8620957E-01
        1   -1    0    0  501    0  0.00000000000E+00  0.00000000000E+00  0.15883382774E+04  0.15883382774E+04  0.50400001928E-02 0.  1.
       -1   -1    0    0    0  501  0.00000000000E+00  0.00000000000E+00 -0.61060773420E+03  0.61060773423E+03  0.50400001928E-02 0. -1.
    10030    2    1    2    0    0  0.00000000000E+00  0.00000000000E+00  0.97773054322E+03  0.21989460117E+04  0.19696209146E+04 0.  0.
        4    1    3    3  502    0  0.44986412763E+02  0.71880957300E+03  0.12387372537E+04  0.14328930791E+04  0.12699999809E+01 0. -1.
       -4    1    3    3    0  502 -0.44986412763E+02 -0.71880957300E+03 -0.26100671052E+03  0.76605293251E+03  0.12699999809E+01 0.  1.
</event>
<event>
 5   0  0.1664168E-04  0.1841248E+04  0.7818609E-02  0.8684667E-01
       -1   -1    0    0    0  501  0.00000000000E+00  0.00000000000E+00  0.38958660386E+03  0.38958660389E+03  0.50400001928E-02 0. -1.
        1   -1    0    0  501    0  0.00000000000E+00  0.00000000000E+00 -0.21755079851E+04  0.21755079851E+04  0.50400001928E-02 0.  1.
    10030    2    1    2    0    0  0.00000000000E+00  0.00000000000E+00 -0.17859213812E+04  0.25650945890E+04  0.18412482371E+04 0.  0.
        5    1    3    3  502    0 -0.33133082713E+03 -0.24948929767E+02 -0.20890437771E+04  0.21153081474E+04  0.46999998093E+01 0.  1.
       -5    1    3    3    0  502  0.33133082713E+03  0.24948929767E+02  0.30312239586E+03  0.44978644152E+03  0.46999998093E+01 0. -1.
</event>
<event>
 5   0  0.1708578E-04  0.1272131E+04  0.7818609E-02  0.9051963E-01
        1   -1    0    0  501    0  0.00000000000E+00  0.00000000000E+00  0.85749663230E+03  0.85749663231E+03  0.50400001928E-02 0. -1.
       -1   -1    0    0    0  501  0.00000000000E+00  0.00000000000E+00 -0.47181410441E+03  0.47181410444E+03  0.50400001928E-02 0.  1.
    10030    2    1    2    0    0  0.00000000000E+00  0.00000000000E+00  0.38568252788E+03  0.13293107368E+04  0.12721305053E+04 0.  0.
        3    1    3    3  502    0 -0.12095309830E+03 -0.23136804688E+03  0.79892770416E+03  0.84050360605E+03  0.10100000352E+00 0. -1.
       -3    1    3    3    0  502  0.12095309830E+03  0.23136804688E+03 -0.41324517628E+03  0.48880713070E+03  0.10100000352E+00 0.  1.
</event>
<event>
 5   0  0.3460648E-04  0.2063371E+04  0.7818609E-02  0.8577553E-01
       -2   -1    0    0    0  501  0.00000000000E+00  0.00000000000E+00  0.47982213534E+03  0.47982213534E+03  0.25500000920E-02 0.  1.
        2   -1    0    0  501    0  0.00000000000E+00  0.00000000000E+00 -0.22182697455E+04  0.22182697455E+04  0.25500000920E-02 0. -1.
    10030    2    1    2    0    0  0.00000000000E+00  0.00000000000E+00 -0.17384476101E+04  0.26980918808E+04  0.20633709565E+04 0.  0.
        5    1    3    3  502    0  0.23056768719E+03  0.98560743593E+03 -0.60845614963E+03  0.11810268634E+04  0.46999998093E+01 0.  1.
       -5    1    3    3    0  502 -0.23056768719E+03 -0.98560743593E+03 -0.11299914605E+04  0.15170650174E+04  0.46999998093E+01 0. -1.
</event>
<event>
 5   0  0.1664168E-04  0.1879502E+04  0.7818609E-02  0.8665127E-01
       -1   -1    0    0    0  501  0.00000000000E+00  0.00000000000E+00  0.55375544181E+03  0.55375544183E+03  0.50400001928E-02 0. -1.
        1   -1    0    0  501    0  0.00000000000E+00  0.00000000000E+00 -0.15948047017E+04  0.15948047017E+04  0.50400001928E-02 0.  1.
    10030    2    1    2    0    0  0.00000000000E+00  0.00000000000E+00 -0.10410492599E+04  0.21485601435E+04  0.18795018300E+04 0.  0.
        5    1    3    3  502    0  0.76180819691E+03 -0.45521744656E+03 -0.16719007956E+03  0.90307766291E+03  0.46999998093E+01 0. -1.
       -5    1    3    3    0  502 -0.76180819691E+03  0.45521744656E+03 -0.87385918033E+03  0.12454824806E+04  0.46999998093E+01 0.  1.
</event>
<event>
 5   0  0.3387881E-04  0.1187757E+04  0.7818609E-02  0.9123641E-01
       -2   -1    0    0    0  501  0.00000000000E+00  0.00000000000E+00  0.35817638810E+03  0.35817638811E+03  0.25500000920E-02 0.  1.
        2   -1    0    0  501    0  0.00000000000E+00  0.00000000000E+00 -0.98468742093E+03  0.98468742093E+03  0.25500000920E-02 0. -1.
    10030    2    1    2    0    0  0.00000000000E+00  0.00000000000E+00 -0.62651103282E+03  0.13428638090E+04  0.11877571871E+04 0.  0.
        1    1    3    3  502    0 -0.44357572144E+03  0.11801199850E+03  0.11279091614E+03  0.47266060047E+03  0.50400001928E-02 0.  1.
       -1    1    3    3    0  502  0.44357572144E+03 -0.11801199850E+03 -0.73930194897E+03  0.87020320858E+03  0.50400001928E-02 0. -1.
</event>
<event>
 5   0  0.1708578E-04  0.2019253E+04  0.7818609E-02  0.8597672E-01
        1   -1    0    0  501    0  0.00000000000E+00  0.00000000000E+00  0.15387238411E+04  0.15387238411E+04  0.50400001928E-02 0.  1.
       -1   -1    0    0    0  501  0.00000000000E+00  0.00000000000E+00 -0.66246167652E+03  0.66246167654E+03  0.50400001928E-02 0. -1.
    10030    2    1    2    0    0  0.00000000000E+00  0.00000000000E+00  0.87626216461E+03  0.22011855177E+04  0.20192529069E+04 0.  0.
        3    1    3    3  502    0  0.49446942254E+03  0.97484988441E+02  0.13917915267E+04  0.14802320753E+04  0.10100000352E+00 0.  1.
       -3    1    3    3    0  502 -0.49446942254E+03 -0.97484988441E+02 -0.51552936204E+03  0.72095344241E+03  0.10100000352E+00 0. -1.
</event>
<event>
 5   0  0.1696052E-04  0.2009503E+04  0.7818609E-02  0.8602191E-01
        1   -1    0    0  501    0  0.00000000000E+00  0.00000000000E+00  0.91607995392E+03  0.91607995393E+03  0.50400001928E-02 0.  1.
       -1   -1    0    0    0  501  0.00000000000E+00  0.00000000000E+00 -0.11020057251E+04  0.11020057251E+04  0.50400001928E-02 0. -1.
    10030    2    1    2    0    0  0.00000000000E+00  0.00000000000E+00 -0.18592577116E+03  0.20180856790E+04  0.20095027782E+04 0.  0.
        4    1    3    3  502    0  0.97553751666E+02 -0.91020801952E+03  0.32296588942E+03  0.97072341678E+03  0.12699999809E+01 0.  1.
       -4    1    3    3    0  502 -0.97553751666E+02  0.91020801952E+03 -0.50889166058E+03  0.10473622622E+04  0.12699999809E+01 0. -1.
</event>
<event>
 5   0  0.3387881E-04  0.1956781E+04  0.7818609E-02  0.8627098E-01
        2   -1    0    0  501    0  0.00000000000E+00  0.00000000000E+00  0.10820988307E+04  0.10820988307E+04  0.25500000920E-02 0.  1.
       -2   -1    0    0    0  501  0.00000000000E+00  0.00000000000E+00 -0.88462129034E+03  0.88462129034E+03  0.25500000920E-02 0. -1.
    10030    2    1    2    0    0  0.00000000000E+00  0.00000000000E+00  0.19747754039E+03  0.19667201211E+04  0.19567806867E+04 0.  0.
        1    1    3    3  502    0 -0.60659113906E+03 -0.73056654663E+03  0.33566347475E+03  0.10071495705E+04  0.50400001928E-02 0.  1.
       -1    1    3    3    0  502  0.60659113906E+03  0.73056654663E+03 -0.13818593437E+03  0.95957055057E+03  0.50400001928E-02 0. -1.
</event>
<event>
 5   0  0.3431030E-04  0.2053357E+04  0.7818609E-02  0.8582073E-01
        2   -1    0    0  501    0  0.00000000000E+00  0.00000000000E+00  0.19454819485E+04  0.19454819486E+04  0.25500000920E-02 0.  1.
       -2   -1    0    0    0  501  0.00000000000E+00  0.00000000000E+00 -0.54180341861E+03  0.54180341861E+03  0.25500000920E-02 0. -1.
    10030    2    1    2    0    0  0.00000000000E+00  0.00000000000E+00  0.14036785299E+04  0.24872853672E+04  0.20533570275E+04 0.  0.
        3    1    3    3  502    0 -0.42982668941E+03  0.61745259503E+03 -0.14441765739E+03  0.76606472312E+03  0.10100000352E+00 0. -1.
       -3    1    3    3    0  502  0.42982668941E+03 -0.61745259503E+03  0.15480961873E+04  0.17212206440E+04  0.10100000352E+00 0.  1.
</event>
<event>
 5   0  0.3387881E-04  0.1776110E+04  0.7818609E-02  0.8719108E-01
       -2   -1    0    0    0  501  0.00000000000E+00  0.00000000000E+00  0.13456382129E+04  0.13456382129E+04  0.25500000920E-02 0.  1.
        2   -1    0    0  501    0  0.00000000000E+00  0.00000000000E+00 -0.58607243982E+03  0.58607243983E+03  0.25500000920E-02 0. -1.
    10030    2    1    2    0    0  0.00000000000E+00  0.00000000000E+00  0.75956577307E+03  0.19317106527E+04  0.17761097607E+04 0.  0.
        1    1    3    3  502    0 -0.78116746707E+03  0.16489492144E+03  0.80273298487E+03  0.11321630588E+04  0.50400001928E-02 0.  1.
       -1    1    3    3    0  502  0.78116746707E+03 -0.16489492144E+03 -0.43167211792E+02  0.79954759391E+03  0.50400001928E-02 0. -1.
</event>
<event>
 5   0  0.3431030E-04  0.2006320E+04  0.7818609E-02  0.8603671E-01
       -2   -1    0    0    0  501  0.00000000000E+00  0.00000000000E+00  0.60395887532E+03  0.60395887533E+03  0.25500000920E-02 0. -1.
        2   -1    0    0  501    0  0.00000000000E+00  0.00000000000E+00 -0.16662231631E+04  0.16662231631E+04  0.25500000920E-02 0.  1.
    10030    2    1    2    0    0  0.00000000000E+00  0.00000000000E+00 -0.10622642877E+04  0.22701820384E+04  0.20063202811E+04 0.  0.
        3    1    3    3  502    0  0.30429375045E+03 -0.29151615090E+03  0.49895321347E+03  0.65309315739E+03  0.10100000352E+00 0.  1.
       -3    1    3    3    0  502 -0.30429375045E+03  0.29151615090E+03 -0.15612175012E+04  0.16170888810E+04  0.10100000352E+00 0. -1.
</event>
<event>
 5   0  0.3371947E-04  0.2008746E+04  0.7818609E-02  0.8602543E-01
       -2   -1    0    0    0  501  0.00000000000E+00  0.00000000000E+00  0.54627072588E+03  0.54627072588E+03  0.25500000920E-02 0.  1.
        2   -1    0    0  501    0  0.00000000000E+00  0.00000000000E+00 -0.18466387907E+04  0.18466387907E+04  0.25500000920E-02 0. -1.
    10030    2    1    2    0    0  0.00000000000E+00  0.00000000000E+00 -0.13003680648E+04  0.23929095166E+04  0.20087455913E+04 0.  0.
        2    1    3    3  502    0 -0.57405236487E+01  0.70255050909E+03 -0.15051918912E+04  0.16610878366E+04  0.25500000920E-02 0. -1.
       -2    1    3    3    0  502  0.57405236487E+01 -0.70255050909E+03  0.20482382641E+03  0.73182167999E+03  0.25500000920E-02 0.  1.
</event>
<event>
 5   0  0.3387881E-04  0.2013048E+04  0.7818609E-02  0.8600545E-01
        2   -1    0    0  501    0  0.00000000000E+00  0.00000000000E+00  0.86984560936E+03  0.86984560937E+03  0.25500000920E-02 0.  1.
       -2   -1    0    0    0  501  0.00000000000E+00  0.00000000000E+00 -0.11646783707E+04  0.11646783707E+04  0.25500000920E-02 0. -1.
    10030    2    1    2    0    0  0.00000000000E+00  0.00000000000E+00 -0.29483276135E+03  0.20345239801E+04  0.20130478058E+04 0.  0.
        1    1    3    3  502    0 -0.79065239713E+03 -0.34981476314E+03  0.37343472558E+03  0.94178292397E+03  0.50400001928E-02 0.  1.
       -1    1    3    3    0  502  0.79065239713E+03  0.34981476314E+03 -0.66826748693E+03  0.10927410561E+04  0.50400001928E-02 0. -1.
</event>
<event>
 5   0  0.1664168E-04  0.2015628E+04  0.7818609E-02  0.8599349E-01
       -1   -1    0    0    0  501  0.00000000000E+00  0.00000000000E+00  0.66573088659E+03  0.66573088660E+03  0.50400001928E-02 0.  1.
        1   -1    0    0  501    0  0.00000000000E+00  0.00000000000E+00 -0.15256751188E+04  0.15256751188E+04  0.50400001928E-02 0. -1.
    10030    2    1    2    0    0  0.00000000000E+00  0.00000000000E+00 -0.85994423217E+03  0.21914060054E+04  0.20156279910E+04 0.  0.
        5    1    3    3  502    0 -0.93512407887E+02 -0.10994003565E+03  0.65442441799E+03  0.67016773328E+03  0.46999998093E+01 0.  1.
       -5    1    3    3    0  502  0.93512407887E+02  0.10994003565E+03 -0.15143686502E+04  0.15212382721E+04  0.46999998093E+01 0. -1.
</event>
<event>
 5   0  0.1664168E-04  0.1973271E+04  0.7818609E-02  0.8619220E-01
        1   -1    0    0  501    0  0.00000000000E+00  0.00000000000E+00  0.17841019606E+04  0.17841019606E+04  0.50400001928E-02 0. -1.
       -1   -1    0    0    0  501  0.00000000000E+00  0.00000000000E+00 -0.54562439299E+03  0.54562439302E+03  0.50400001928E-02 0.  1.
    10030    2    1    2    0    0  0.00000000000E+00  0.00000000000E+00  0.12384775676E+04  0.23297263536E+04  0.19732709386E+04 0.  0.
        5    1    3    3  502    0  0.28101380958E+03 -0.31693794239E+03  0.16712755454E+04  0.17241236786E+04  0.46999998093E+01 0. -1.
       -5    1    3    3    0  502 -0.28101380958E+03  0.31693794239E+03 -0.43279797774E+03  0.60560267506E+03  0.46999998093E+01 0.  1.
</event>
<event>
 5   0  0.3371947E-04  0.1934033E+04  0.7818609E-02  0.8638099E-01
        2   -1    0    0  501    0  0.00000000000E+00  0.00000000000E+00  0.16656677423E+04  0.16656677423E+04  0.25500000920E-02 0. -1.
       -2   -1    0    0    0  501  0.00000000000E+00  0.00000000000E+00 -0.56140887947E+03  0.56140887947E+03  0.25500000920E-02 0.  1.
    10030    2    1    2    0    0  0.00000000000E+00  0.00000000000E+00  0.11042588629E+04  0.22270766218E+04  0.19340327410E+04 0.  0.
        2    1    3    3  502    0  0.11692379383E+03  0.48316232111E+03  0.15072687230E+04  0.15871282259E+04  0.25500000920E-02 0. -1.
       -2    1    3    3    0  502 -0.11692379383E+03 -0.48316232111E+03 -0.40300986011E+03  0.63994839593E+03  0.25500000920E-02 0.  1.
</event>
<event>
 5   0  0.1708578E-04  0.2066678E+04  0.7818609E-02  0.8576066E-01
       -1   -1    0    0    0  501  0.00000000000E+00  0.00000000000E+00  0.12571416377E+04  0.12571416377E+04  0.50400001928E-02 0. -1.
        1   -1    0    0  501    0  0.00000000000E+00  0.00000000000E+00 -0.84937888362E+03  0.84937888364E+03  0.50400001928E-02 0.  1.
    10030    2    1    2    0    0  0.00000000000E+00  0.00000000000E+00  0.40776275412E+03  0.21065205214E+04  0.20666780696E+04 0.  0.
        3    1    3    3  502    0  0.77853851441E+03 -0.50223026779E+03 -0.26257869712E+03  0.96296679210E+03  0.10100000352E+00 0. -1.
       -3    1    3    3    0  502 -0.77853851441E+03  0.50223026779E+03  0.67034145124E+03  0.11435537293E+04  0.10100000352E+00 0.  1.
</event>
<event>
 5   0  0.1664168E-04  0.1724343E+04  0.7818609E-02  0.8747601E-01
       -1   -1    0    0    0  501  0.00000000000E+00  0.00000000000E+00  0.14622498972E+04  0.14622498973E+04  0.50400001928E-02 0. -1.
        1   -1    0    0  501    0  0.00000000000E+00  0.00000000000E+00 -0.50835325777E+03  0.50835325780E+03  0.50400001928E-02 0.  1.
    10030    2    1    2    0    0  0.00000000000E+00  0.00000000000E+00  0.95389663947E+03  0.19706031550E+04  0.17243427722E+04 0.  0.
        5    1    3    3  502    0 -0.14298554516E+03  0.59248919200E+03  0.11738110861E+04  0.13226272584E+04  0.46999998093E+01 0. -1.
       -5    1    3    3    0  502  0.14298554516E+03 -0.59248919200E+03 -0.21991444667E+03  0.64797589663E+03  0.46999998093E+01 0.  1.
</event>
<event>
 5   0  0.1222488E-04  0.1966075E+04  0.7818609E-02  0.8622648E-01
        4   -1    0    0  501    0  0.00000000000E+00  0.00000000000E+00  0.13003479301E+04  0.13003485503E+04  0.12699999809E+01 0. -1.
       -4   -1    0    0    0  501  0.00000000000E+00  0.00000000000E+00 -0.74315596945E+03  0.74315705462E+03  0.12699999809E+01 0.  1.
    10030    2    1    2    0    0  0.00000000000E+00  0.00000000000E+00  0.55719196064E+03  0.20435056049E+04  0.19660753486E+04 0.  0.
        2    1    3    3  502    0  0.18211862634E+03 -0.91359697043E+03 -0.47671758106E+02  0.93279108860E+03  0.25500000920E-02 0.  1.
       -2    1    3    3    0  502 -0.18211862634E+03  0.91359697043E+03  0.60486371874E+03  0.11107145163E+04  0.25500000920E-02 0. -1.
</event>
<event>
 5   0  0.3431030E-04  0.1995500E+04  0.7818609E-02  0.8608728E-01
        2   -1    0    0  501    0  0.00000000000E+00  0.00000000000E+00  0.17491687415E+04  0.17491687415E+04  0.25500000920E-02 0. -1.
       -2   -1    0    0    0  501  0.00000000000E+00  0.00000000000E+00 -0.56913019052E+03  0.56913019052E+03  0.25500000920E-02 0.  1.
    10030    2    1    2    0    0  0.00000000000E+00  0.00000000000E+00  0.11800385510E+04  0.23182989320E+04  0.19954996759E+04 0.  0.
        3    1    3    3  502    0  0.13690682546E+03 -0.47342838833E+03  0.15978964649E+04  0.16721695609E+04  0.10100000352E+00 0. -1.
       -3    1    3    3    0  502 -0.13690682546E+03  0.47342838833E+03 -0.41785791394E+03  0.64612937108E+03  0.10100000352E+00 0.  1.
</event>
<event>
 5   0  0.1664168E-04  0.2019830E+04  0.7818609E-02  0.8597405E-01
       -1   -1    0    0    0  501  0.00000000000E+00  0.00000000000E+00  0.60265819491E+03  0.60265819493E+03  0.50400001928E-02 0. -1.
        1   -1    0    0  501    0  0.00000000000E+00  0.00000000000E+00 -0.16923828250E+04  0.16923828250E+04  0.50400001928E-02 0.  1.
    10030    2    1    2    0    0  0.00000000000E+00  0.00000000000E+00 -0.10897246301E+04  0.22950410200E+04  0.20198300705E+04 0.  0.
        5    1    3    3  502    0 -0.13077240040E+03  0.29413720525E+03  0.54279393292E+03  0.63108276782E+03  0.46999998093E+01 0. -1.
       -5    1    3    3    0  502  0.13077240040E+03 -0.29413720525E+03 -0.16325185630E+04  0.16639582521E+04  0.46999998093E+01 0.  1.
</event>
<event>
 5   0  0.3371947E-04  0.1944446E+04  0.7818609E-02  0.8633044E-01
        2   -1    0    0  501    0  0.00000000000E+00  0.00000000000E+00  0.11544347359E+04  0.11544347359E+04  0.25500000920E-02 0.  1.
       -2   -1    0    0    0  501  0.00000000000E+00  0.00000000000E+00 -0.81877088040E+03  0.81877088041E+03  0.25500000920E-02 0. -1.
    10030    2    1    2    0    0  0.00000000000E+00  0.00000000000E+00  0.33566385552E+03  0.19732056163E+04  0.19444459829E+04 0.  0.
        2    1    3    3  502    0 -0.96155343761E+03  0.13460917408E+03  0.21870222019E+03  0.99525640126E+03  0.25500000920E-02 0. -1.
       -2    1    3    3    0  502  0.96155343761E+03 -0.13460917408E+03  0.11696163532E+03  0.97794921507E+03  0.25500000920E-02 0.  1.
</event>
<event>
 5   0  0.1650221E-04  0.1985951E+04  0.7818609E-02  0.8613217E-01
       -1   -1    0    0    0  501  0.00000000000E+00  0.00000000000E+00  0.96641601768E+03  0.96641601769E+03  0.50400001928E-02 0. -1.
        1   -1    0    0  501    0  0.00000000000E+00  0.00000000000E+00 -0.10202650919E+04  0.10202650919E+04  0.50400001928E-02 0.  1.
    10030    2    1    2    0    0  0.00000000000E+00  0.00000000000E+00 -0.53849074200E+02  0.19866811096E+04  0.19859511848E+04 0.  0.
        1    1    3    3  502    0 -0.28132064690E+03  0.56359723064E+03 -0.79481163085E+03  0.10141541664E+04  0.50400001928E-02 0.  1.
       -1    1    3    3    0  502  0.28132064690E+03 -0.56359723064E+03  0.74096255665E+03  0.97252694314E+03  0.50400001928E-02 0. -1.
</event>
<event>
 5   0  0.3431030E-04  0.1968148E+04  0.7818609E-02  0.8621659E-01
       -2   -1    0    0    0  501  0.00000000000E+00  0.00000000000E+00  0.78889441501E+03  0.78889441501E+03  0.25500000920E-02 0. -1.
        2   -1    0    0  501    0  0.00000000000E+00  0.00000000000E+00 -0.12275422009E+04  0.12275422009E+04  0.25500000920E-02 0.  1.
    10030    2    1    2    0    0  0.00000000000E+00  0.00000000000E+00 -0.43864778587E+03  0.20164366159E+04  0.19681475417E+04 0.  0.
        3    1    3    3  502    0  0.32347174767E+02 -0.98065251340E+03 -0.14213969519E+03  0.99142795749E+03  0.10100000352E+00 0.  1.
       -3    1    3    3    0  502 -0.32347174767E+02  0.98065251340E+03 -0.29650809069E+03  0.10250086584E+04  0.10100000352E+00 0. -1.
</event>
<event>
 5   0  0.1643565E-04  0.1977509E+04  0.7818609E-02  0.8617209E-01
       -1   -1    0    0    0  501  0.00000000000E+00  0.00000000000E+00  0.12733725186E+04  0.12733725186E+04  0.50400001928E-02 0. -1.
        1   -1    0    0  501    0  0.00000000000E+00  0.00000000000E+00 -0.76775288888E+03  0.76775288890E+03  0.50400001928E-02 0.  1.
    10030    2    1    2    0    0  0.00000000000E+00  0.00000000000E+00  0.50561962972E+03  0.20411254075E+04  0.19775089682E+04 0.  0.
        2    1    3    3  502    0 -0.49463502272E+03  0.48770817249E+03  0.97908818827E+03  0.12004735514E+04  0.25500000920E-02 0. -1.
       -2    1    3    3    0  502  0.49463502272E+03 -0.48770817249E+03 -0.47346855855E+03  0.84065185610E+03  0.25500000920E-02 0.  1.
</event>
<event>
 5   0  0.1708578E-04  0.2010809E+04  0.7818609E-02  0.8601584E-01
       -1   -1    0    0    0  501  0.00000000000E+00  0.00000000000E+00  0.18758665362E+04  0.18758665362E+04  0.50400001928E-02 0.  1.
        1   -1    0    0  501    0  0.00000000000E+00  0.00000000000E+00 -0.53886488120E+03  0.53886488122E+03  0.50400001928E-02 0. -1.
    10030    2    1    2    0    0  0.00000000000E+00  0.00000000000E+00  0.13370016550E+04  0.24147314174E+04  0.20108093875E+04 0.  0.
        3    1    3    3  502    0  0.42264135407E+03 -0.75462625593E+03  0.52939941234E+02  0.86653860150E+03  0.10100000352E+00 0. -1.
       -3    1    3    3    0  502 -0.42264135407E+03  0.75462625593E+03  0.12840617137E+04  0.15481928159E+04  0.10100000352E+00 0.  1.
</event>
<event>
 5   0  0.1664168E-04  0.1994501E+04  0.7818609E-02  0.8609196E-01
        1   -1    0    0  501    0  0.00000000000E+00  0.00000000000E+00  0.14658451029E+04  0.14658451029E+04  0.50400001928E-02 0. -1.
       -1   -1    0    0    0  501  0.00000000000E+00  0.00000000000E+00 -0.67845382308E+03  0.67845382310E+03  0.50400001928E-02 0.  1.
    10030    2    1    2    0    0  0.00000000000E+00  0.00000000000E+00  0.78739127981E+03  0.21442989260E+04  0.19945006534E+04 0.  0.
        5    1    3    3  502    0 -0.93911206835E+02 -0.57823119267E+03 -0.47395891498E+03  0.75354480293E+03  0.46999998093E+01 0.  1.
       -5    1    3    3    0  502  0.93911206835E+02  0.57823119267E+03  0.12613501948E+04  0.13907541231E+04  0.46999998093E+01 0. -1.
</event>
<event>
 5   0  0.1643565E-04  0.1951393E+04  0.7818609E-02  0.8629689E-01
        1   -1    0    0  501    0  0.00000000000E+00  0.00000000000E+00  0.10319403407E+04  0.10319403407E+04  0.50400001928E-02 0. -1.
       -1   -1    0    0    0  501  0.00000000000E+00  0.00000000000E+00 -0.92251830150E+03  0.92251830152E+03  0.50400001928E-02 0.  1.
    10030    2    1    2    0    0  0.00000000000E+00  0.00000000000E+00  0.10942203921E+03  0.19544586422E+04  0.19513931950E+04 0.  0.
        2    1    3    3  502    0 -0.14418292329E+03  0.15500586834E+02 -0.91166470529E+03  0.92312594939E+03  0.25500000920E-02 0.  1.
       -2    1    3    3    0  502  0.14418292329E+03 -0.15500586834E+02  0.10210867445E+04  0.10313326929E+04  0.25500000920E-02 0. -1.
</event>
<event>
 5   0  0.3395569E-04  0.1994277E+04  0.7818609E-02  0.8609301E-01
       -2   -1    0    0    0  501  0.00000000000E+00  0.00000000000E+00  0.95830965257E+03  0.95830965257E+03  0.25500000920E-02 0. -1.
        2   -1    0    0  501    0  0.00000000000E+00  0.00000000000E+00 -0.10375406149E+04  0.10375406149E+04  0.25500000920E-02 0.  1.
    10030    2    1    2    0    0  0.00000000000E+00  0.00000000000E+00 -0.79230962281E+02  0.19958502674E+04  0.19942769980E+04 0.  0.
        4    1    3    3  502    0 -0.68724850016E+03  0.65593606929E+03  0.26347809887E+03  0.98589297058E+03  0.12699999809E+01 0. -1.
       -4    1    3    3    0  502  0.68724850016E+03 -0.65593606929E+03 -0.34270906115E+03  0.10099572968E+04  0.12699999809E+01 0.  1.
</event>
<event>
 5   0  0.1696052E-04  0.1999650E+04  0.7818609E-02  0.8606784E-01
        1   -1    0    0  501    0  0.00000000000E+00  0.00000000000E+00  0.18028659302E+04  0.18028659302E+04  0.50400001928E-02 0.  1.
       -1   -1    0    0    0  501  0.00000000000E+00  0.00000000000E+00 -0.55447838463E+03  0.55447838465E+03  0.50400001928E-02 0. -1.
    10030    2    1    2    0    0  0.00000000000E+00  0.00000000000E+00  0.12483875456E+04  0.23573443149E+04  0.19996501581E+04 0.  0.
        4    1    3    3  502    0  0.70358741349E+03 -0.24692129525E+03  0.14094039391E+04  0.15944988087E+04  0.12699999809E+01 0.  1.
       -4    1    3    3    0  502 -0.70358741349E+03  0.24692129525E+03 -0.16101639349E+03  0.76284550621E+03  0.12699999809E+01 0. -1.
</event>
<event>
 5   0  0.1664168E-04  0.2008323E+04  0.7818609E-02  0.8602739E-01
        1   -1    0    0  501    0  0.00000000000E+00  0.00000000000E+00  0.12161730064E+04  0.12161730064E+04  0.50400001928E-02 0. -1.
       -1   -1    0    0    0  501  0.00000000000E+00  0.00000000000E+00 -0.82910948123E+03  0.82910948124E+03  0.50400001928E-02 0.  1.
    10030    2    1    2    0    0  0.00000000000E+00  0.00000000000E+00  0.38706352516E+03  0.20452824876E+04  0.20083232513E+04 0.  0.
        5    1    3    3  502    0 -0.32573018711E+03 -0.94968611031E+03  0.21159564680E+03  0.10260597793E+04  0.46999998093E+01 0. -1.
       -5    1    3    3    0  502  0.32573018711E+03  0.94968611031E+03  0.17546787836E+03  0.10192227084E+04  0.46999998093E+01 0.  1.
</event>
<event>
 5   0  0.1643565E-04  0.1969075E+04  0.7818609E-02  0.8621217E-01
       -1   -1    0    0    0  501  0.00000000000E+00  0.00000000000E+00  0.57209029366E+03  0.57209029368E+03  0.50400001928E-02 0.  1.
        1   -1    0    0  501    0  0.00000000000E+00  0.00000000000E+00 -0.16943377116E+04  0.16943377116E+04  0.50400001928E-02 0. -1.
    10030    2    1    2    0    0  0.00000000000E+00  0.00000000000E+00 -0.11222474179E+04  0.22664280053E+04  0.19690750712E+04 0.  0.
        2    1    3    3  502    0 -0.90610886172E+03 -0.23467653858E+03 -0.91252698866E+03  0.13072153044E+04  0.25500000920E-02 0. -1.
       -2    1    3    3    0  502  0.90610886172E+03  0.23467653858E+03 -0.20972042926E+03  0.95921270086E+03  0.25500000920E-02 0.  1.
</event>
<event>
 5   0  0.3387881E-04  0.2012979E+04  0.7818609E-02  0.8600577E-01
       -2   -1    0    0    0  501  0.00000000000E+00  0.00000000000E+00  0.79317185264E+03  0.79317185265E+03  0.25500000920E-02 0. -1.
        2   -1    0    0  501    0  0.00000000000E+00  0.00000000000E+00 -0.12771769638E+04  0.12771769638E+04  0.25500000920E-02 0.  1.
    10030    2    1    2    0    0  0.00000000000E+00  0.00000000000E+00 -0.48400511114E+03  0.20703488164E+04  0.20129787068E+04 0.  0.
        1    1    3    3  502    0  0.13234074540E+03  0.94107756982E+03  0.98925843439E+02  0.95547233756E+03  0.50400001928E-02 0.  1.
       -1    1    3    3    0  502 -0.13234074540E+03 -0.94107756982E+03 -0.58293095458E+03  0.11148764789E+04  0.50400001928E-02 0. -1.
</event>
<event>
 5   0  0.3431030E-04  0.2004321E+04  0.7818609E-02  0.8604603E-01
       -2   -1    0    0    0  501  0.00000000000E+00  0.00000000000E+00  0.46119360782E+03  0.46119360782E+03  0.25500000920E-02 0.  1.
        2   -1    0    0  501    0  0.00000000000E+00  0.00000000000E+00 -0.21776652938E+04  0.21776652938E+04  0.25500000920E-02 0. -1.
    10030    2    1    2    0    0  0.00000000000E+00  0.00000000000E+00 -0.17164716860E+04  0.26388589017E+04  0.20043206465E+04 0.  0.
        3    1    3    3  502    0 -0.68134994175E+03  0.73107545050E+03 -0.95690286584E+03  0.13836083847E+04  0.10100000352E+00 0.  1.
       -3    1    3    3    0  502  0.68134994175E+03 -0.73107545050E+03 -0.75956882017E+03  0.12552505169E+04  0.10100000352E+00 0. -1.
</event>
<event>
 5   0  0.3431030E-04  0.2000755E+04  0.7818609E-02  0.8606268E-01
        2   -1    0    0  501    0  0.00000000000E+00  0.00000000000E+00  0.99979434515E+03  0.99979434515E+03  0.25500000920E-02 0. -1.
       -2   -1    0    0    0  501  0.00000000000E+00  0.00000000000E+00 -0.10009605102E+04  0.10009605102E+04  0.25500000920E-02 0.  1.
    10030    2    1    2    0    0  0.00000000000E+00  0.00000000000E+00 -0.11661650385E+01  0.20007548553E+04  0.20007545155E+04 0.  0.
        3    1    3    3  502    0 -0.16907295481E+03 -0.31719272033E+03  0.93298965584E+03  0.99983328310E+03  0.10100000352E+00 0. -1.
       -3    1    3    3    0  502  0.16907295481E+03  0.31719272033E+03 -0.93415582088E+03  0.10009215722E+04  0.10100000352E+00 0.  1.
</event>
<event>
 5   0  0.1696052E-04  0.2001835E+04  0.7818609E-02  0.8605763E-01
       -1   -1    0    0    0  501  0.00000000000E+00  0.00000000000E+00  0.63883313130E+03  0.63883313132E+03  0.50400001928E-02 0.  1.
        1   -1    0    0  501    0  0.00000000000E+00  0.00000000000E+00 -0.15682278818E+04  0.15682278818E+04  0.50400001928E-02 0. -1.
    10030    2    1    2    0    0  0.00000000000E+00  0.00000000000E+00 -0.92939475045E+03  0.22070610131E+04  0.20018350864E+04 0.  0.
        4    1    3    3  502    0 -0.99250566384E+03 -0.12276597194E+02 -0.60681590078E+03  0.11633767051E+04  0.12699999809E+01 0. -1.
       -4    1    3    3    0  502  0.99250566384E+03  0.12276597194E+02 -0.32257884968E+03  0.10436843080E+04  0.12699999809E+01 0.  1.
</event>
<event>
 5   0  0.3387881E-04  0.1771894E+04  0.7818609E-02  0.8721390E-01
       -2   -1    0    0    0  501  0.00000000000E+00  0.00000000000E+00  0.62170102199E+03  0.62170102200E+03  0.25500000920E-02 0. -1.
        2   -1    0    0  501    0  0.00000000000E+00  0.00000000000E+00 -0.12625079529E+04  0.12625079529E+04  0.25500000920E-02 0.  1.
    10030    2    1    2    0    0  0.00000000000E+00  0.00000000000E+00 -0.64080693087E+03  0.18842089749E+04  0.17718944490E+04 0.  0.
        1    1    3    3  502    0  0.40762655794E+03  0.48564087284E+03  0.33760524788E+03  0.71832010380E+03  0.50400001928E-02 0. -1.
       -1    1    3    3    0  502 -0.40762655794E+03 -0.48564087284E+03 -0.97841217875E+03  0.11658888711E+04  0.50400001928E-02 0.  1.
</event>
<event>
 5   0  0.1643565E-04  0.1933698E+04  0.7818609E-02  0.8638262E-01
        1   -1    0    0  501    0  0.00000000000E+00  0.00000000000E+00  0.10294195755E+04  0.10294195756E+04  0.50400001928E-02 0. -1.
       -1   -1    0    0    0  501  0.00000000000E+00  0.00000000000E+00 -0.90808123029E+03  0.90808123031E+03  0.50400001928E-02 0.  1.
    10030    2    1    2    0    0  0.00000000000E+00  0.00000000000E+00  0.12133834525E+03  0.19375008059E+04  0.19336975924E+04 0.  0.
        2    1    3    3  502    0 -0.44090048882E+03  0.34411941038E+03 -0.72954234525E+03  0.91926244520E+03  0.25500000920E-02 0.  1.
       -2    1    3    3    0  502  0.44090048882E+03 -0.34411941038E+03  0.85088069050E+03  0.10182383607E+04  0.25500000920E-02 0. -1.
</event>
<event>
 5   0  0.1650221E-04  0.1946456E+04  0.7818609E-02  0.8632072E-01
       -1   -1    0    0    0  501  0.00000000000E+00  0.00000000000E+00  0.45981078516E+03  0.45981078518E+03  0.50400001928E-02 0.  1.
        1   -1    0    0  501    0  0.00000000000E+00  0.00000000000E+00 -0.20599190273E+04  0.20599190273E+04  0.50400001928E-02 0. -1.
    10030    2    1    2    0    0  0.00000000000E+00  0.00000000000E+00 -0.16001082421E+04  0.25197298125E+04  0.19464562521E+04 0.  0.
        1    1    3    3  502    0  0.42555363474E+03  0.57357187328E+03  0.55792524172E+02  0.71637517799E+03  0.50400001928E-02 0.  1.
       -1    1    3    3    0  502 -0.42555363474E+03 -0.57357187328E+03 -0.16559007663E+04  0.18033546345E+04  0.50400001928E-02 0. -1.
</event>
<event>
 5   0  0.1664168E-04  0.2026204E+04  0.7818609E-02  0.8594466E-01
        1   -1    0    0  501    0  0.00000000000E+00  0.00000000000E+00  0.65844979326E+03  0.65844979328E+03  0.50400001928E-02 0. -1.
       -1   -1    0    0    0  501  0.00000000000E+00  0.00000000000E+00 -0.15587760665E+04  0.15587760665E+04  0.50400001928E-02 0.  1.
    10030    2    1    2    0    0  0.00000000000E+00  0.00000000000E+00 -0.90032627325E+03  0.22172258598E+04  0.20262041148E+04 0.  0.
        5    1    3    3  502    0 -0.57862032443E+03 -0.76147970471E+03 -0.84437826729E+02  0.96010658633E+03  0.46999998093E+01 0.  1.
       -5    1    3    3    0  502  0.57862032443E+03  0.76147970471E+03 -0.81588844652E+03  0.12571192735E+04  0.46999998093E+01 0. -1.
</event>
<event>
 5   0  0.3371947E-04  0.2103013E+04  0.7818609E-02  0.8559917E-01
        2   -1    0    0  501    0  0.00000000000E+00  0.00000000000E+00  0.14052168835E+04  0.14052168835E+04  0.25500000920E-02 0.  1.
       -2   -1    0    0    0  501  0.00000000000E+00  0.00000000000E+00 -0.78682902098E+03  0.78682902099E+03  0.25500000920E-02 0. -1.
    10030    2    1    2    0    0  0.00000000000E+00  0.00000000000E+00  0.61838786256E+03  0.21920459045E+04  0.21030125294E+04 0.  0.
        2    1    3    3  502    0  0.17772877312E+03 -0.96959536416E+03 -0.72310680047E+02  0.98839846289E+03  0.25500000920E-02 0.  1.
       -2    1    3    3    0  502 -0.17772877312E+03  0.96959536416E+03  0.69069854261E+03  0.12036474416E+04  0.25500000920E-02 0. -1.
</event>
<event>
 5   0  0.3387881E-04  0.1983122E+04  0.7818609E-02  0.8614553E-01
       -2   -1    0    0    0  501  0.00000000000E+00  0.00000000000E+00  0.82373742164E+03  0.82373742164E+03  0.25500000920E-02 0. -1.
        2   -1    0    0  501    0  0.00000000000E+00  0.00000000000E+00 -0.11935754866E+04  0.11935754866E+04  0.25500000920E-02 0.  1.
    10030    2    1    2    0    0  0.00000000000E+00  0.00000000000E+00 -0.36983806493E+03  0.20173129082E+04  0.19831215735E+04 0.  0.
        1    1    3    3  502    0 -0.41004329588E+03 -0.18063695429E+02  0.73326777169E+03  0.84032340596E+03  0.50400001928E-02 0. -1.
       -1    1    3    3    0  502  0.41004329588E+03  0.18063695429E+02 -0.11031058366E+04  0.11769895022E+04  0.50400001928E-02 0.  1.
</event>
<event>
 5   0  0.3460648E-04  0.2015222E+04  0.7818609E-02  0.8599537E-01
       -2   -1    0    0    0  501  0.00000000000E+00  0.00000000000E+00  0.75622352141E+03  0.75622352141E+03  0.25500000920E-02 0.  1.
        2   -1    0    0  501    0  0.00000000000E+00  0.00000000000E+00 -0.13425655989E+04  0.13425655989E+04  0.25500000920E-02 0. -1.
    10030    2    1    2    0    0  0.00000000000E+00  0.00000000000E+00 -0.58634207751E+03  0.20987891203E+04  0.20152217595E+04 0.  0.
        5    1    3    3  502    0 -0.19772787397E+03 -0.61004027776E+03  0.51623938873E+03  0.82326827286E+03  0.46999998093E+01 0.  1.
       -5    1    3    3    0  502  0.19772787397E+03  0.61004027776E+03 -0.11025814662E+04  0.12755208475E+04  0.46999998093E+01 0. -1.
</event>
<event>
 5   0  0.1222488E-04  0.1912701E+04  0.7818609E-02  0.8648560E-01
        3   -1    0    0  501    0  0.00000000000E+00  0.00000000000E+00  0.87106412580E+03  0.87106413165E+03  0.10100000352E+00 0.  1.
       -3   -1    0    0    0  501  0.00000000000E+00  0.00000000000E+00 -0.10499869711E+04  0.10499869759E+04  0.10100000352E+00 0. -1.
    10030    2    1    2    0    0  0.00000000000E+00  0.00000000000E+00 -0.17892284528E+03  0.19210511076E+04  0.19127007015E+04 0.  0.
        5    1    3    3  502    0  0.87858142397E+02 -0.14452852920E+03  0.85591108288E+03  0.87247545566E+03  0.46999998093E+01 0.  1.
       -5    1    3    3    0  502 -0.87858142397E+02  0.14452852920E+03 -0.10348339282E+04  0.10485756519E+04  0.46999998093E+01 0. -1.
</event>
<event>
 5   0  0.1222488E-04  0.2033266E+04  0.7818609E-02  0.8591224E-01
        4   -1    0    0  501    0  0.00000000000E+00  0.00000000000E+00  0.87357573050E+03  0.87357665365E+03  0.12699999809E+01 0. -1.
       -4   -1    0    0    0  501  0.00000000000E+00  0.00000000000E+00 -0.11831151606E+04  0.11831158423E+04  0.12699999809E+01 0.  1.
    10030    2    1    2    0    0  0.00000000000E+00  0.00000000000E+00 -0.30953943013E+03  0.20566924959E+04  0.20332656895E+04 0.  0.
        5    1    3    3  502    0  0.17010808441E+03 -0.74210065727E+03 -0.83623073732E+03  0.11309085206E+04  0.46999998093E+01 0.  1.
       -5    1    3    3    0  502 -0.17010808441E+03  0.74210065727E+03  0.52669130719E+03  0.92578397532E+03  0.46999998093E+01 0. -1.
</event>
<event>
 5   0  0.3395569E-04  0.1873728E+04  0.7818609E-02  0.8668045E-01
       -2   -1    0    0    0  501  0.00000000000E+00  0.00000000000E+00  0.82783551967E+03  0.82783551967E+03  0.25500000920E-02 0. -1.
        2   -1    0    0  501    0  0.00000000000E+00  0.00000000000E+00 -0.10602518866E+04  0.10602518866E+04  0.25500000920E-02 0.  1.
    10030    2    1    2    0    0  0.00000000000E+00  0.00000000000E+00 -0.23241636698E+03  0.18880874063E+04  0.18737280182E+04 0.  0.
        4    1    3    3  502    0 -0.45673986763E+03  0.67064654269E+03 -0.58812883868E+03  0.10021353380E+04  0.12699999809E+01 0.  1.
       -4    1    3    3    0  502  0.45673986763E+03 -0.67064654269E+03  0.35571247170E+03  0.88595206830E+03  0.12699999809E+01 0. -1.
</event>
<event>
 5   0  0.3387881E-04  0.2005848E+04  0.7818609E-02  0.8603891E-01
       -2   -1    0    0    0  501  0.00000000000E+00  0.00000000000E+00  0.71485180912E+03  0.71485180912E+03  0.25500000920E-02 0.  1.
        2   -1    0    0  501    0  0.00000000000E+00  0.00000000000E+00 -0.14070845116E+04  0.14070845116E+04  0.25500000920E-02 0. -1.
    10030    2    1    2    0    0  0.00000000000E+00  0.00000000000E+00 -0.69223270246E+03  0.21219363207E+04  0.20058483579E+04 0.  0.
        1    1    3    3  502    0 -0.97276059300E+03 -0.51270458971E+02 -0.59860310302E+03  0.11433361300E+04  0.50400001928E-02 0.  1.
       -1    1    3    3    0  502  0.97276059300E+03  0.51270458971E+02 -0.93629599436E+02  0.97860019067E+03  0.50400001928E-02 0. -1.
</event>
<event>
 5   0  0.1650221E-04  0.1906153E+04  0.7818609E-02  0.8651800E-01
       -1   -1    0    0    0  501  0.00000000000E+00  0.00000000000E+00  0.45629298747E+03  0.45629298749E+03  0.50400001928E-02 0.  1.
        1   -1    0    0  501    0  0.00000000000E+00  0.00000000000E+00 -0.19907261827E+04  0.19907261827E+04  0.50400001928E-02 0. -1.
    10030    2    1    2    0    0  0.00000000000E+00  0.00000000000E+00 -0.15344331953E+04  0.24470191702E+04  0.19061525618E+04 0.  0.
        1    1    3    3  502    0  0.21105790165E+02  0.56729027197E+03  0.21557656404E+03  0.60723715469E+03  0.50400001928E-02 0.  1.
       -1    1    3    3    0  502 -0.21105790165E+02 -0.56729027197E+03 -0.17500097593E+04  0.18397820155E+04  0.50400001928E-02 0. -1.
</event>
<event>
 5   0  0.1664168E-04  0.1995708E+04  0.7818609E-02  0.8608630E-01
       -1   -1    0    0    0  501  0.00000000000E+00  0.00000000000E+00  0.56283563121E+03  0.56283563123E+03  0.50400001928E-02 0. -1.
        1   -1    0    0  501    0  0.00000000000E+00  0.00000000000E+00 -0.17690997782E+04  0.17690997782E+04  0.50400001928E-02 0.  1.
    10030    2    1    2    0    0  0.00000000000E+00  0.00000000000E+00 -0.12062641469E+04  0.23319354094E+04  0.19957077846E+04 0.  0.
        5    1    3    3  502    0  0.93124666677E+03 -0.35821423919E+03 -0.58870223897E+03  0.11585034362E+04  0.46999998093E+01 0.  1.
       -5    1    3    3    0  502 -0.93124666677E+03  0.35821423919E+03 -0.61756190798E+03  0.11734319732E+04  0.46999998093E+01 0. -1.
</event>
<event>
 5   0  0.3460648E-04  0.2039497E+04  0.7818609E-02  0.8588374E-01
        2   -1    0    0  501    0  0.00000000000E+00  0.00000000000E+00  0.88967764639E+03  0.88967764640E+03  0.25500000920E-02 0.  1.
       -2   -1    0    0    0  501  0.00000000000E+00  0.00000000000E+00 -0.11688360753E+04  0.11688360753E+04  0.25500000920E-02 0. -1.
    10030    2    1    2    0    0  0.00000000000E+00  0.00000000000E+00 -0.27915842889E+03  0.20585137217E+04  0.20394973189E+04 0.  0.
        5    1    3    3  502    0  0.58066592205E+03  0.19419202753E+03  0.68348837638E+03  0.91763931217E+03  0.46999998093E+01 0.  1.
       -5    1    3    3    0  502 -0.58066592205E+03 -0.19419202753E+03 -0.96264680528E+03  0.11408744095E+04  0.46999998093E+01 0. -1.
</event>
<event>
 5   0  0.3460648E-04  0.2047928E+04  0.7818609E-02  0.8584535E-01
        2   -1    0    0  501    0  0.00000000000E+00  0.00000000000E+00  0.10121860574E+04  0.10121860574E+04  0.25500000920E-02 0.  1.
       -2   -1    0    0    0  501  0.00000000000E+00  0.00000000000E+00 -0.10358792615E+04  0.10358792615E+04  0.25500000920E-02 0. -1.
    10030    2    1    2    0    0  0.00000000000E+00  0.00000000000E+00 -0.23693204053E+02  0.20480653189E+04  0.20479282660E+04 0.  0.
        5    1    3    3  502    0  0.16114882276E+03  0.84250683510E+03  0.54738107918E+03  0.10175631902E+04  0.46999998093E+01 0.  1.
       -5    1    3    3    0  502 -0.16114882276E+03 -0.84250683510E+03 -0.57107428323E+03  0.10305021287E+04  0.46999998093E+01 0. -1.
</event>
<event>
 5   0  0.3460648E-04  0.1971112E+04  0.7818609E-02  0.8620247E-01
        2   -1    0    0  501    0  0.00000000000E+00  0.00000000000E+00  0.10127734883E+04  0.10127734883E+04  0.25500000920E-02 0. -1.
       -2   -1    0    0    0  501  0.00000000000E+00  0.00000000000E+00 -0.95907007332E+03  0.95907007332E+03  0.25500000920E-02 0.  1.
    10030    2    1    2    0    0  0.00000000000E+00  0.00000000000E+00  0.53703414936E+02  0.19718435616E+04  0.19711121162E+04 0.  0.
        5    1    3    3  502    0 -0.79273415380E+03 -0.79150777639E+02  0.60724487880E+03  0.10017288640E+04  0.46999998093E+01 0. -1.
       -5    1    3    3    0  502  0.79273415380E+03  0.79150777639E+02 -0.55354146386E+03  0.97011469755E+03  0.46999998093E+01 0.  1.
</event>
<event>
 5   0  0.3395569E-04  0.1987253E+04  0.7818609E-02  0.8612603E-01
        2   -1    0    0  501    0  0.00000000000E+00  0.00000000000E+00  0.26893985679E+04  0.26893985679E+04  0.25500000920E-02 0.  1.
       -2   -1    0    0    0  501  0.00000000000E+00  0.00000000000E+00 -0.36710587424E+03  0.36710587425E+03  0.25500000920E-02 0. -1.
    10030    2    1    2    0    0  0.00000000000E+00  0.00000000000E+00  0.23222926937E+04  0.30565044422E+04  0.19872533935E+04 0.  0.
        4    1    3    3  502    0  0.21930458455E+03  0.34545407295E+03  0.25537946987E+04  0.25863684953E+04  0.12699999809E+01 0.  1.
       -4    1    3    3    0  502 -0.21930458455E+03 -0.34545407295E+03 -0.23150200503E+03  0.47013594689E+03  0.12699999809E+01 0. -1.
</event>
<event>
 5   0  0.3395569E-04  0.1945627E+04  0.7818609E-02  0.8632472E-01
       -2   -1    0    0    0  501  0.00000000000E+00  0.00000000000E+00  0.93771518096E+03  0.93771518096E+03  0.25500000920E-02 0. -1.
        2   -1    0    0  501    0  0.00000000000E+00  0.00000000000E+00 -0.10092259580E+04  0.10092259580E+04  0.25500000920E-02 0.  1.
    10030    2    1    2    0    0  0.00000000000E+00  0.00000000000E+00 -0.71510777075E+02  0.19469411390E+04  0.19456274072E+04 0.  0.
        4    1    3    3  502    0 -0.56843331860E+03 -0.60641463414E+03 -0.54157641543E+03  0.99204927944E+03  0.12699999809E+01 0.  1.
       -4    1    3    3    0  502  0.56843331860E+03  0.60641463414E+03  0.47006563835E+03  0.95489185956E+03  0.12699999809E+01 0. -1.
</event>
<event>
 5   0  0.1664168E-04  0.1899451E+04  0.7818609E-02  0.8655130E-01
        1   -1    0    0  501    0  0.00000000000E+00  0.00000000000E+00  0.13434229614E+04  0.13434229615E+04  0.50400001928E-02 0.  1.
       -1   -1    0    0    0  501  0.00000000000E+00  0.00000000000E+00 -0.67140331049E+03  0.67140331051E+03  0.50400001928E-02 0. -1.
    10030    2    1    2    0    0  0.00000000000E+00  0.00000000000E+00  0.67201965095E+03  0.20148262720E+04  0.18994511036E+04 0.  0.
        5    1    3    3  502    0  0.42089410711E+02 -0.79338348903E+03  0.88792940017E+03  0.11914988833E+04  0.46999998093E+01 0.  1.
       -5    1    3    3    0  502 -0.42089410711E+02  0.79338348903E+03 -0.21590974922E+03  0.82332738869E+03  0.46999998093E+01 0. -1.
</event>
<event>
 5   0  0.3431030E-04  0.2023696E+04  0.7818609E-02  0.8595621E-01
       -2   -1    0    0    0  501  0.00000000000E+00  0.00000000000E+00  0.91652575135E+03  0.91652575136E+03  0.25500000920E-02 0. -1.
        2   -1    0    0  501    0  0.00000000000E+00  0.00000000000E+00 -0.11170844936E+04  0.11170844936E+04  0.25500000920E-02 0.  1.
    10030    2    1    2    0    0  0.00000000000E+00  0.00000000000E+00 -0.20055874226E+03  0.20336102450E+04  0.20236963259E+04 0.  0.
        3    1    3    3  502    0  0.72733844044E+03  0.38209479202E+03 -0.69378177201E+03  0.10753375258E+04  0.10100000352E+00 0.  1.
       -3    1    3    3    0  502 -0.72733844044E+03 -0.38209479202E+03  0.49322302974E+03  0.95827271917E+03  0.10100000352E+00 0. -1.
</event>
<event>
 5   0  0.3371947E-04  0.2012191E+04  0.7818609E-02  0.8600942E-01
        2   -1    0    0  501    0  0.00000000000E+00  0.00000000000E+00  0.44176905751E+03  0.44176905752E+03  0.25500000920E-02 0.  1.
       -2   -1    0    0    0  501  0.00000000000E+00  0.00000000000E+00 -0.22913051874E+04  0.22913051874E+04  0.25500000920E-02 0. -1.
    10030    2    1    2    0    0  0.00000000000E+00  0.00000000000E+00 -0.18495361298E+04  0.27330742449E+04  0.20121905805E+04 0.  0.
        2    1    3    3  502    0  0.86231348184E+03 -0.23831565411E+03 -0.15499340845E+04  0.17896017877E+04  0.25500000920E-02 0. -1.
       -2    1    3    3    0  502 -0.86231348184E+03  0.23831565411E+03 -0.29960204529E+03  0.94347245721E+03  0.25500000920E-02 0.  1.
</event>
<event>
 5   0  0.1708578E-04  0.2046792E+04  0.7818609E-02  0.8585051E-01
        1   -1    0    0  501    0  0.00000000000E+00  0.00000000000E+00  0.75369131014E+03  0.75369131016E+03  0.50400001928E-02 0. -1.
       -1   -1    0    0    0  501  0.00000000000E+00  0.00000000000E+00 -0.13896133015E+04  0.13896133015E+04  0.50400001928E-02 0.  1.
    10030    2    1    2    0    0  0.00000000000E+00  0.00000000000E+00 -0.63592199139E+03  0.21433046117E+04  0.20467920948E+04 0.  0.
        3    1    3    3  502    0  0.52693618242E+03 -0.80970881348E+03  0.35675100238E+02  0.96672789654E+03  0.10100000352E+00 0. -1.
       -3    1    3    3    0  502 -0.52693618242E+03  0.80970881348E+03 -0.67159709163E+03  0.11765767152E+04  0.10100000352E+00 0.  1.
</event>
<event>
 5   0  0.3460648E-04  0.2196951E+04  0.7818609E-02  0.8519698E-01
       -2   -1    0    0    0  501  0.00000000000E+00  0.00000000000E+00  0.14384064700E+04  0.14384064700E+04  0.25500000920E-02 0.  1.
        2   -1    0    0  501    0  0.00000000000E+00  0.00000000000E+00 -0.83887846402E+03  0.83887846402E+03  0.25500000920E-02 0. -1.
    10030    2    1    2    0    0  0.00000000000E+00  0.00000000000E+00  0.59952800596E+03  0.22772849340E+04  0.21969508052E+04 0.  0.
        5    1    3    3  502    0  0.68990914498E+03  0.21399314014E+03  0.11575865223E+04  0.13644765806E+04  0.46999998093E+01 0.  1.
       -5    1    3    3    0  502 -0.68990914498E+03 -0.21399314014E+03 -0.55805851636E+03  0.91280835340E+03  0.46999998093E+01 0. -1.
</event>
<event>
 5   0  0.3371947E-04  0.1892387E+04  0.7818609E-02  0.8658655E-01
        2   -1    0    0  501    0  0.00000000000E+00  0.00000000000E+00  0.11248003115E+04  0.11248003115E+04  0.25500000920E-02 0. -1.
       -2   -1    0    0    0  501  0.00000000000E+00  0.00000000000E+00 -0.79594769865E+03  0.79594769865E+03  0.25500000920E-02 0.  1.
    10030    2    1    2    0    0  0.00000000000E+00  0.00000000000E+00  0.32885261288E+03  0.19207480102E+04  0.18923870845E+04 0.  0.
        2    1    3    3  502    0 -0.12067359153E+02  0.54384911828E+03 -0.62136281095E+03  0.82583849962E+03  0.25500000920E-02 0.  1.
       -2    1    3    3    0  502  0.12067359153E+02 -0.54384911828E+03  0.95021542383E+03  0.10949095106E+04  0.25500000920E-02 0. -1.
</event>
<event>
 5   0  0.1650221E-04  0.2010687E+04  0.7818609E-02  0.8601640E-01
        1   -1    0    0  501    0  0.00000000000E+00  0.00000000000E+00  0.21150725865E+04  0.21150725865E+04  0.50400001928E-02 0.  1.
       -1   -1    0    0    0  501  0.00000000000E+00  0.00000000000E+00 -0.47786342004E+03  0.47786342007E+03  0.50400001928E-02 0. -1.
    10030    2    1    2    0    0  0.00000000000E+00  0.00000000000E+00  0.16372091664E+04  0.25929360065E+04  0.20106872654E+04 0.  0.
        1    1    3    3  502    0 -0.27535217217E+03  0.87431016834E+03  0.13510589249E+04  0.16326657061E+04  0.50400001928E-02 0.  1.
       -1    1    3    3    0  502  0.27535217217E+03 -0.87431016834E+03  0.28615024148E+03  0.96027030044E+03  0.50400001928E-02 0. -1.
</event>
<event>
 5   0  0.3460648E-04  0.2036701E+04  0.7818609E-02  0.8589651E-01
       -2   -1    0    0    0  501  0.00000000000E+00  0.00000000000E+00  0.93904890033E+03  0.93904890034E+03  0.25500000920E-02 0.  1.
        2   -1    0    0  501    0  0.00000000000E+00  0.00000000000E+00 -0.11043489440E+04  0.11043489440E+04  0.25500000920E-02 0. -1.
    10030    2    1    2    0    0  0.00000000000E+00  0.00000000000E+00 -0.16530004365E+03  0.20433978443E+04  0.20367009220E+04 0.  0.
        5    1    3    3  502    0  0.14312056965E+03 -0.94060817000E+03  0.28157029863E+03  0.99223543073E+03  0.46999998093E+01 0.  1.
       -5    1    3    3    0  502 -0.14312056965E+03  0.94060817000E+03 -0.44687034228E+03  0.10511624136E+04  0.46999998093E+01 0. -1.
</event>
<event>
 5   0  0.1222488E-04  0.2009808E+04  0.7818609E-02  0.8602049E-01
       -4   -1    0    0    0  501  0.00000000000E+00  0.00000000000E+00  0.10122165391E+04  0.10122173358E+04  0.12699999809E+01 0. -1.
        4   -1    0    0  501    0  0.00000000000E+00  0.00000000000E+00 -0.99764317851E+03  0.99764398686E+03  0.12699999809E+01 0.  1.
    10030    2    1    2    0    0  0.00000000000E+00  0.00000000000E+00  0.14573360583E+02  0.20098613227E+04  0.20098084868E+04 0.  0.
        2    1    3    3  502    0 -0.96041651607E+03  0.82306877058E+02 -0.27672471548E+03  0.10028713150E+04  0.25500000920E-02 0.  1.
       -2    1    3    3    0  502  0.96041651607E+03 -0.82306877058E+02  0.29129807606E+03  0.10069900076E+04  0.25500000920E-02 0. -1.
</event>
<event>
 5   0  0.3431030E-04  0.2106445E+04  0.7818609E-02  0.8558410E-01
        2   -1    0    0  501    0  0.00000000000E+00  0.00000000000E+00  0.18074034575E+04  0.18074034575E+04  0.25500000920E-02 0.  1.
       -2   -1    0    0    0  501  0.00000000000E+00  0.00000000000E+00 -0.61374087448E+03  0.61374087448E+03  0.25500000920E-02 0. -1.
    10030    2    1    2    0    0  0.00000000000E+00  0.00000000000E+00  0.11936625830E+04  0.24211443320E+04  0.21064447570E+04 0.  0.
        3    1    3    3  502    0  0.62074428674E+03 -0.48055587264E+03 -0.21022319012E+03  0.81268149733E+03  0.10100000352E+00 0. -1.
       -3    1    3    3    0  502 -0.62074428674E+03  0.48055587264E+03  0.14038857731E+04  0.16084628346E+04  0.10100000352E+00 0.  1.
</event>
<event>
 5   0  0.1643565E-04  0.1951829E+04  0.7818609E-02  0.8629479E-01
       -1   -1    0    0    0  501  0.00000000000E+00  0.00000000000E+00  0.86171521575E+03  0.86171521576E+03  0.50400001928E-02 0.  1.
        1   -1    0    0  501    0  0.00000000000E+00  0.00000000000E+00 -0.11052485699E+04  0.11052485699E+04  0.50400001928E-02 0. -1.
    10030    2    1    2    0    0  0.00000000000E+00  0.00000000000E+00 -0.24353335412E+03  0.19669637856E+04  0.19518294084E+04 0.  0.
        2    1    3    3  502    0 -0.25980454348E+03  0.88011956697E+03  0.21292395462E+03  0.94204323863E+03  0.25500000920E-02 0.  1.
       -2    1    3    3    0  502  0.25980454348E+03 -0.88011956697E+03 -0.45645730874E+03  0.10249205470E+04  0.25500000920E-02 0. -1.
</event>
<event>
 5   0  0.1664168E-04  0.2007270E+04  0.7818609E-02  0.8603229E-01
       -1   -1    0    0    0  501  0.00000000000E+00  0.00000000000E+00  0.62464606983E+03  0.62464606985E+03  0.50400001928E-02 0. -1.
        1   -1    0    0  501    0  0.00000000000E+00  0.00000000000E+00 -0.16125662036E+04  0.16125662036E+04  0.50400001928E-02 0.  1.
    10030    2    1    2    0    0  0.00000000000E+00  0.00000000000E+00 -0.98792013381E+03  0.22372122735E+04  0.20072699285E+04 0.  0.
        5    1    3    3  502    0 -0.92785347443E+03 -0.15098734414E+03 -0.10219477337E+03  0.94560832791E+03  0.46999998093E+01 0.  1.
       -5    1    3    3    0  502  0.92785347443E+03  0.15098734414E+03 -0.88572536044E+03  0.12916039456E+04  0.46999998093E+01 0. -1.
</event>
<event>
 5   0  0.3371947E-04  0.1995935E+04  0.7818609E-02  0.8608524E-01
        2   -1    0    0  501    0  0.00000000000E+00  0.00000000000E+00  0.82285252848E+03  0.82285252848E+03  0.25500000920E-02 0. -1.
       -2   -1    0    0    0  501  0.00000000000E+00  0.00000000000E+00 -0.12103493180E+04  0.12103493180E+04  0.25500000920E-02 0.  1.
    10030    2    1    2    0    0  0.00000000000E+00  0.00000000000E+00 -0.38749678952E+03  0.20332018465E+04  0.19959348653E+04 0.  0.
        2    1    3    3  502    0  0.19059928294E+02  0.64751294356E+03 -0.96706878142E+03  0.11639838147E+04  0.25500000920E-02 0.  1.
       -2    1    3    3    0  502 -0.19059928294E+02 -0.64751294356E+03  0.57957199190E+03  0.86921803176E+03  0.25500000920E-02 0. -1.
</event>
<event>
 5   0  0.3387881E-04  0.1741597E+04  0.7818609E-02  0.8737989E-01
       -2   -1    0    0    0  501  0.00000000000E+00  0.00000000000E+00  0.48482538352E+03  0.48482538352E+03  0.25500000920E-02 0. -1.
        2   -1    0    0  501    0  0.00000000000E+00  0.00000000000E+00 -0.15640484155E+04  0.15640484155E+04  0.25500000920E-02 0.  1.
    10030    2    1    2    0    0  0.00000000000E+00  0.00000000000E+00 -0.10792230320E+04  0.20488737991E+04  0.17415973965E+04 0.  0.
        1    1    3    3  502    0  0.31148291390E+03  0.73704455577E+03 -0.94378811959E+03  0.12373327352E+04  0.50400001928E-02 0.  1.
       -1    1    3    3    0  502 -0.31148291390E+03 -0.73704455577E+03 -0.13543491244E+03  0.81154106389E+03  0.50400001928E-02 0. -1.
</event>
<event>
 5   0  0.1643565E-04  0.2014223E+04  0.7818609E-02  0.8600000E-01
       -1   -1    0    0    0  501  0.00000000000E+00  0.00000000000E+00  0.11847402358E+04  0.11847402358E+04  0.50400001928E-02 0. -1.
        1   -1    0    0  501    0  0.00000000000E+00  0.00000000000E+00 -0.85611462337E+03  0.85611462339E+03  0.50400001928E-02 0.  1.
    10030    2    1    2    0    0  0.00000000000E+00  0.00000000000E+00  0.32862561245E+03  0.20408548592E+04  0.20142228683E+04 0.  0.
        2    1    3    3  502    0  0.57941648966E+03  0.81106550732E+03  0.31017002431E+03  0.10439138708E+04  0.25500000920E-02 0.  1.
       -2    1    3    3    0  502 -0.57941648966E+03 -0.81106550732E+03  0.18455588136E+02  0.99694098842E+03  0.25500000920E-02 0. -1.
</event>
<event>
 5   0  0.1708578E-04  0.1993999E+04  0.7818609E-02  0.8609432E-01
        1   -1    0    0  501    0  0.00000000000E+00  0.00000000000E+00  0.21503744869E+04  0.21503744869E+04  0.50400001928E-02 0.  1.
       -1   -1    0    0    0  501  0.00000000000E+00  0.00000000000E+00 -0.46224872282E+03  0.46224872285E+03  0.50400001928E-02 0. -1.
    10030    2    1    2    0    0  0.00000000000E+00  0.00000000000E+00  0.16881257641E+04  0.26126232098E+04  0.19939988568E+04 0.  0.
        3    1    3    3  502    0  0.92866356906E+03 -0.24398393286E+03  0.49233236414E+03  0.10790437206E+04  0.10100000352E+00 0. -1.
       -3    1    3    3    0  502 -0.92866356906E+03  0.24398393286E+03  0.11957933999E+04  0.15335794892E+04  0.10100000352E+00 0.  1.
</event>
<event>
 5   0  0.3371947E-04  0.2138249E+04  0.7818609E-02  0.8544579E-01
       -2   -1    0    0    0  501  0.00000000000E+00  0.00000000000E+00  0.63267156303E+03  0.63267156303E+03  0.25500000920E-02 0. -1.
        2   -1    0    0  501    0  0.00000000000E+00  0.00000000000E+00 -0.18066674527E+04  0.18066674527E+04  0.25500000920E-02 0.  1.
    10030    2    1    2    0    0  0.00000000000E+00  0.00000000000E+00 -0.11739958896E+04  0.24393390157E+04  0.21382489295E+04 0.  0.
        2    1    3    3  502    0  0.70809204608E+03  0.62290462251E+03 -0.12474336078E+02  0.94316495034E+03  0.25500000920E-02 0. -1.
       -2    1    3    3    0  502 -0.70809204608E+03 -0.62290462251E+03 -0.11615215536E+04  0.14961740654E+04  0.25500000920E-02 0.  1.
</event>
<event>
 5   0  0.1650221E-04  0.2013871E+04  0.7818609E-02  0.8600163E-01
        1   -1    0    0  501    0  0.00000000000E+00  0.00000000000E+00  0.80683924820E+03  0.80683924822E+03  0.50400001928E-02 0. -1.
       -1   -1    0    0    0  501  0.00000000000E+00  0.00000000000E+00 -0.12566560435E+04  0.12566560435E+04  0.50400001928E-02 0.  1.
    10030    2    1    2    0    0  0.00000000000E+00  0.00000000000E+00 -0.44981679533E+03  0.20634952918E+04  0.20138713141E+04 0.  0.
        1    1    3    3  502    0 -0.28152136973E+03 -0.14269820287E+03  0.75484479323E+03  0.81817340498E+03  0.50400001928E-02 0. -1.
       -1    1    3    3    0  502  0.28152136973E+03  0.14269820287E+03 -0.12046615886E+04  0.12453218868E+04  0.50400001928E-02 0.  1.
</event>
<event>
 5   0  0.1650221E-04  0.1982584E+04  0.7818609E-02  0.8614807E-01
        1   -1    0    0  501    0  0.00000000000E+00  0.00000000000E+00  0.13431746127E+04  0.13431746127E+04  0.50400001928E-02 0.  1.
       -1   -1    0    0    0  501  0.00000000000E+00  0.00000000000E+00 -0.73159471266E+03  0.73159471268E+03  0.50400001928E-02 0. -1.
    10030    2    1    2    0    0  0.00000000000E+00  0.00000000000E+00  0.61157990005E+03  0.20747693254E+04  0.19825836122E+04 0.  0.
        1    1    3    3  502    0  0.13592783260E+03 -0.96991336122E+03  0.46604816253E+03  0.10846239873E+04  0.50400001928E-02 0. -1.
       -1    1    3    3    0  502 -0.13592783260E+03  0.96991336122E+03  0.14553173752E+03  0.99014533812E+03  0.50400001928E-02 0.  1.
</event>
<event>
 5   0  0.1643565E-04  0.1986588E+04  0.7818609E-02  0.8612917E-01
        1   -1    0    0  501    0  0.00000000000E+00  0.00000000000E+00  0.15980824543E+04  0.15980824543E+04  0.50400001928E-02 0.  1.
       -1   -1    0    0    0  501  0.00000000000E+00  0.00000000000E+00 -0.61738581421E+03  0.61738581423E+03  0.50400001928E-02 0. -1.
    10030    2    1    2    0    0  0.00000000000E+00  0.00000000000E+00  0.98069664005E+03  0.22154682685E+04  0.19865884700E+04 0.  0.
        2    1    3    3  502    0 -0.10020408906E+03 -0.68276600145E+03 -0.30640303675E+03  0.75504509345E+03  0.25500000920E-02 0. -1.
       -2    1    3    3    0  502  0.10020408906E+03  0.68276600145E+03  0.12870996768E+04  0.14604231751E+04  0.25500000920E-02 0.  1.
</event>
<event>
 5   0  0.3395569E-04  0.2024829E+04  0.7818609E-02  0.8595099E-01
       -2   -1    0    0    0  501  0.00000000000E+00  0.00000000000E+00  0.76748384954E+03  0.76748384955E+03  0.25500000920E-02 0. -1.
        2   -1    0    0  501    0  0.00000000000E+00  0.00000000000E+00 -0.13355110079E+04  0.13355110079E+04  0.25500000920E-02 0.  1.
    10030    2    1    2    0    0  0.00000000000E+00  0.00000000000E+00 -0.56802715832E+03  0.21029948574E+04  0.20248290095E+04 0.  0.
        4    1    3    3  502    0  0.62055093127E+03 -0.63190395560E+03 -0.79345418779E+03  0.11890993350E+04  0.12699999809E+01 0.  1.
       -4    1    3    3    0  502 -0.62055093127E+03  0.63190395560E+03  0.22542702948E+03  0.91389552243E+03  0.12699999809E+01 0. -1.
</event>
<event>
 5   0  0.1222488E-04  0.1601104E+04  0.7818609E-02  0.8819870E-01
        4   -1    0    0  501    0  0.00000000000E+00  0.00000000000E+00  0.11817921635E+04  0.11817928459E+04  0.12699999809E+01 0. -1.
       -4   -1    0    0    0  501  0.00000000000E+00  0.00000000000E+00 -0.54229606354E+03  0.54229755064E+03  0.12699999809E+01 0.  1.
    10030    2    1    2    0    0  0.00000000000E+00  0.00000000000E+00  0.63949609996E+03  0.17240903965E+04  0.16011035049E+04 0.  0.
        4    1    3    3  502    0 -0.49287827171E+03  0.16682700074E+03 -0.33535955115E+03  0.61905402054E+03  0.12699999809E+01 0.  1.
       -4    1    3    3    0  502  0.49287827171E+03 -0.16682700074E+03  0.97485565110E+03  0.11050363760E+04  0.12699999809E+01 0. -1.
</event>
<event>
 5   0  0.3395569E-04  0.1987960E+04  0.7818609E-02  0.8612271E-01
        2   -1    0    0  501    0  0.00000000000E+00  0.00000000000E+00  0.68021209009E+03  0.68021209009E+03  0.25500000920E-02 0.  1.
       -2   -1    0    0    0  501  0.00000000000E+00  0.00000000000E+00 -0.14524820952E+04  0.14524820952E+04  0.25500000920E-02 0. -1.
    10030    2    1    2    0    0  0.00000000000E+00  0.00000000000E+00 -0.77227000509E+03  0.21326941853E+04  0.19879596392E+04 0.  0.
        4    1    3    3  502    0  0.34976711587E+03 -0.86223062841E+03 -0.11089205223E+02  0.93053923898E+03  0.12699999809E+01 0.  1.
       -4    1    3    3    0  502 -0.34976711587E+03  0.86223062841E+03 -0.76118079987E+03  0.12021549463E+04  0.12699999809E+01 0. -1.
</event>
<event>
 5   0  0.3387881E-04  0.1155522E+04  0.7818609E-02  0.9152704E-01
        2   -1    0    0  501    0  0.00000000000E+00  0.00000000000E+00  0.24058674979E+04  0.24058674979E+04  0.25500000920E-02 0. -1.
       -2   -1    0    0    0  501  0.00000000000E+00  0.00000000000E+00 -0.13874735686E+03  0.13874735689E+03  0.25500000920E-02 0.  1.
    10030    2    1    2    0    0  0.00000000000E+00  0.00000000000E+00  0.22671201410E+04  0.25446148547E+04  0.11555219709E+04 0.  0.
        1    1    3    3  502    0 -0.42702722390E+03  0.29401056345E+03  0.57206630415E+03  0.77204554124E+03  0.50400001928E-02 0.  1.
       -1    1    3    3    0  502  0.42702722390E+03 -0.29401056345E+03  0.16950538368E+04  0.17725693135E+04  0.50400001928E-02 0. -1.
</event>
<event>
 5   0  0.3460648E-04  0.1002612E+04  0.7818609E-02  0.9305684E-01
        2   -1    0    0  501    0  0.00000000000E+00  0.00000000000E+00  0.54994339783E+03  0.54994339784E+03  0.25500000920E-02 0.  1.
       -2   -1    0    0    0  501  0.00000000000E+00  0.00000000000E+00 -0.45697029848E+03  0.45697029848E+03  0.25500000920E-02 0. -1.
    10030    2    1    2    0    0  0.00000000000E+00  0.00000000000E+00  0.92973099358E+02  0.10069136963E+04  0.10026121856E+04 0.  0.
        5    1    3    3  502    0 -0.24103136404E+03 -0.14757314246E+03 -0.36930874846E+03  0.46506450361E+03  0.46999998093E+01 0. -1.
       -5    1    3    3    0  502  0.24103136404E+03  0.14757314246E+03  0.46228184782E+03  0.54184919272E+03  0.46999998093E+01 0.  1.
</event>
<event>
 5   0  0.3431030E-04  0.1967405E+04  0.7818609E-02  0.8622013E-01
        2   -1    0    0  501    0  0.00000000000E+00  0.00000000000E+00  0.14868135868E+04  0.14868135868E+04  0.25500000920E-02 0.  1.
       -2   -1    0    0    0  501  0.00000000000E+00  0.00000000000E+00 -0.65083501901E+03  0.65083501901E+03  0.25500000920E-02 0. -1.
    10030    2    1    2    0    0  0.00000000000E+00  0.00000000000E+00  0.83597856778E+03  0.21376486058E+04  0.19674047362E+04 0.  0.
        3    1    3    3  502    0 -0.77415441066E+03  0.31901383605E+02 -0.24054029830E+03  0.81129057380E+03  0.10100000352E+00 0. -1.
       -3    1    3    3    0  502  0.77415441066E+03 -0.31901383605E+02  0.10765188661E+04  0.13263580320E+04  0.10100000352E+00 0.  1.
</event>
<event>
 5   0  0.3395569E-04  0.1843576E+04  0.7818609E-02  0.8683464E-01
        2   -1    0    0  501    0  0.00000000000E+00  0.00000000000E+00  0.90229591884E+03  0.90229591884E+03  0.25500000920E-02 0.  1.
       -2   -1    0    0    0  501  0.00000000000E+00  0.00000000000E+00 -0.94170077656E+03  0.94170077657E+03  0.25500000920E-02 0. -1.
    10030    2    1    2    0    0  0.00000000000E+00  0.00000000000E+00 -0.39404857723E+02  0.18439966954E+04  0.18435756209E+04 0.  0.
        4    1    3    3  502    0  0.34706784545E+03  0.45551799185E+03 -0.74218203599E+03  0.93743720733E+03  0.12699999809E+01 0. -1.
       -4    1    3    3    0  502 -0.34706784545E+03 -0.45551799185E+03  0.70277717826E+03  0.90655948808E+03  0.12699999809E+01 0.  1.
</event>
<event>
 5   0  0.1708578E-04  0.1983997E+04  0.7818609E-02  0.8614139E-01
        1   -1    0    0  501    0  0.00000000000E+00  0.00000000000E+00  0.97999997969E+03  0.97999997970E+03  0.50400001928E-02 0.  1.
       -1   -1    0    0    0  501  0.00000000000E+00  0.00000000000E+00 -0.10041439064E+04  0.10041439064E+04  0.50400001928E-02 0. -1.
    10030    2    1    2    0    0  0.00000000000E+00  0.00000000000E+00 -0.24143926718E+02  0.19841438861E+04  0.19839969838E+04 0.  0.
        3    1    3    3  502    0  0.10463639268E+03 -0.33519310383E+03 -0.93991100014E+03  0.10033622924E+04  0.10100000352E+00 0. -1.
       -3    1    3    3    0  502 -0.10463639268E+03  0.33519310383E+03  0.91576707342E+03  0.98078159367E+03  0.10100000352E+00 0.  1.
</event>
<event>
 5   0  0.1643565E-04  0.1515588E+04  0.7818609E-02  0.8874153E-01
       -1   -1    0    0    0  501  0.00000000000E+00  0.00000000000E+00  0.11115814760E+04  0.11115814760E+04  0.50400001928E-02 0.  1.
        1   -1    0    0  501    0  0.00000000000E+00  0.00000000000E+00 -0.51660763251E+03  0.51660763253E+03  0.50400001928E-02 0. -1.
    10030    2    1    2    0    0  0.00000000000E+00  0.00000000000E+00  0.59497384352E+03  0.16281891086E+04  0.15155876414E+04 0.  0.
        2    1    3    3  502    0 -0.69624372515E+03  0.12874475116E+03  0.73854607190E+01  0.70808550388E+03  0.25500000920E-02 0. -1.
       -2    1    3    3    0  502  0.69624372515E+03 -0.12874475116E+03  0.58758838280E+03  0.92010360470E+03  0.25500000920E-02 0.  1.
</event>
<event>
 5   0  0.1664168E-04  0.2028883E+04  0.7818609E-02  0.8593235E-01
       -1   -1    0    0    0  501  0.00000000000E+00  0.00000000000E+00  0.47411320436E+03  0.47411320438E+03  0.50400001928E-02 0. -1.
        1   -1    0    0  501    0  0.00000000000E+00  0.00000000000E+00 -0.21705604661E+04  0.21705604662E+04  0.50400001928E-02 0.  1.
    10030    2    1    2    0    0  0.00000000000E+00  0.00000000000E+00 -0.16964472618E+04  0.26446736705E+04  0.20288828235E+04 0.  0.
        5    1    3    3  502    0 -0.75046487002E+03  0.58051894205E+03 -0.13161637050E+04  0.16225007709E+04  0.46999998093E+01 0.  1.
       -5    1    3    3    0  502  0.75046487002E+03 -0.58051894205E+03 -0.38028355682E+03  0.10221728997E+04  0.46999998093E+01 0. -1.
</event>
<event>
 5   0  0.3395569E-04  0.2102007E+04  0.7818609E-02  0.8560360E-01
        2   -1    0    0  501    0  0.00000000000E+00  0.00000000000E+00  0.23830598685E+04  0.23830598685E+04  0.25500000920E-02 0.  1.
       -2   -1    0    0    0  501  0.00000000000E+00  0.00000000000E+00 -0.46352510728E+03  0.46352510728E+03  0.25500000920E-02 0. -1.
    10030    2    1    2    0    0  0.00000000000E+00  0.00000000000E+00  0.19195347612E+04  0.28465849757E+04  0.21020067376E+04 0.  0.
        4    1    3    3  502    0  0.47169787106E+02  0.15381133655E+02 -0.46193731172E+03  0.46459580385E+03  0.12699999809E+01 0. -1.
       -4    1    3    3    0  502 -0.47169787106E+02 -0.15381133655E+02  0.23814720729E+04  0.23819891719E+04  0.12699999809E+01 0.  1.
</event>
<event>
 5   0  0.1650221E-04  0.2039491E+04  0.7818609E-02  0.8588377E-01
       -1   -1    0    0    0  501  0.00000000000E+00  0.00000000000E+00  0.38630541424E+03  0.38630541427E+03  0.50400001928E-02 0.  1.
        1   -1    0    0  501    0  0.00000000000E+00  0.00000000000E+00 -0.26918628116E+04  0.26918628116E+04  0.50400001928E-02 0. -1.
    10030    2    1    2    0    0  0.00000000000E+00  0.00000000000E+00 -0.23055573974E+04  0.30781682259E+04  0.20394912881E+04 0.  0.
        1    1    3    3  502    0 -0.80894561362E+02  0.41640284131E+03 -0.25523855737E+04  0.25873939347E+04  0.50400001928E-02 0. -1.
       -1    1    3    3    0  502  0.80894561362E+02 -0.41640284131E+03  0.24682817630E+03  0.49077429125E+03  0.50400001928E-02 0.  1.
</event>
<event>
 5   0  0.1664168E-04  0.2014760E+04  0.7818609E-02  0.8599751E-01
       -1   -1    0    0    0  501  0.00000000000E+00  0.00000000000E+00  0.77143665674E+03  0.77143665675E+03  0.50400001928E-02 0. -1.
        1   -1    0    0  501    0  0.00000000000E+00  0.00000000000E+00 -0.13154863294E+04  0.13154863294E+04  0.50400001928E-02 0.  1.
    10030    2    1    2    0    0  0.00000000000E+00  0.00000000000E+00 -0.54404967264E+03  0.20869229861E+04  0.20147599122E+04 0.  0.
        5    1    3    3  502    0 -0.87440748338E+03  0.49004599348E+03 -0.16813922156E+03  0.10163790683E+04  0.46999998093E+01 0.  1.
       -5    1    3    3    0  502  0.87440748338E+03 -0.49004599348E+03 -0.37591045108E+03  0.10705439178E+04  0.46999998093E+01 0. -1.
</event>
<event>
 5   0  0.1650221E-04  0.2022879E+04  0.7818609E-02  0.8595998E-01
       -1   -1    0    0    0  501  0.00000000000E+00  0.00000000000E+00  0.91183987841E+03  0.91183987843E+03  0.50400001928E-02 0.  1.
        1   -1    0    0  501    0  0.00000000000E+00  0.00000000000E+00 -0.11219182003E+04  0.11219182003E+04  0.50400001928E-02 0. -1.
    10030    2    1    2    0    0  0.00000000000E+00  0.00000000000E+00 -0.21007832185E+03  0.20337580787E+04  0.20228788944E+04 0.  0.
        1    1    3    3  502    0 -0.86659778141E+02  0.95350984930E+03 -0.43285841074E+03  0.10507413353E+04  0.50400001928E-02 0. -1.
       -1    1    3    3    0  502  0.86659778141E+02 -0.95350984930E+03  0.22278008889E+03  0.98301674344E+03  0.50400001928E-02 0.  1.
</event>
<event>
 5   0  0.1643565E-04  0.2043220E+04  0.7818609E-02  0.8586676E-01
        1   -1    0    0  501    0  0.00000000000E+00  0.00000000000E+00  0.75254690950E+03  0.75254690952E+03  0.50400001928E-02 0.  1.
       -1   -1    0    0    0  501  0.00000000000E+00  0.00000000000E+00 -0.13868724474E+04  0.13868724474E+04  0.50400001928E-02 0. -1.
    10030    2    1    2    0    0  0.00000000000E+00  0.00000000000E+00 -0.63432553793E+03  0.21394193570E+04  0.20432195910E+04 0.  0.
        2    1    3    3  502    0  0.12225988063E+03  0.92065443611E+03 -0.76280000421E+03  0.12018385564E+04  0.25500000920E-02 0. -1.
       -2    1    3    3    0  502 -0.12225988063E+03 -0.92065443611E+03  0.12847446628E+03  0.93758080059E+03  0.25500000920E-02 0.  1.
</event>
<event>
 5   0  0.3460648E-04  0.2008359E+04  0.7818609E-02  0.8602722E-01
        2   -1    0    0  501    0  0.00000000000E+00  0.00000000000E+00  0.23554462293E+04  0.23554462293E+04  0.25500000920E-02 0. -1.
       -2   -1    0    0    0  501  0.00000000000E+00  0.00000000000E+00 -0.42810436602E+03  0.42810436602E+03  0.25500000920E-02 0.  1.
    10030    2    1    2    0    0  0.00000000000E+00  0.00000000000E+00  0.19273418633E+04  0.27835505953E+04  0.20083593450E+04 0.  0.
        5    1    3    3  502    0  0.61403433628E+03 -0.75459725947E+03  0.61884383142E+03  0.11530155974E+04  0.46999998093E+01 0.  1.
       -5    1    3    3    0  502 -0.61403433628E+03  0.75459725947E+03  0.13084980319E+04  0.16305349979E+04  0.46999998093E+01 0. -1.
</event>
<event>
 5   0  0.3395569E-04  0.1962272E+04  0.7818609E-02  0.8624466E-01
        2   -1    0    0  501    0  0.00000000000E+00  0.00000000000E+00  0.98970411907E+03  0.98970411907E+03  0.25500000920E-02 0.  1.
       -2   -1    0    0    0  501  0.00000000000E+00  0.00000000000E+00 -0.97264166639E+03  0.97264166639E+03  0.25500000920E-02 0. -1.
    10030    2    1    2    0    0  0.00000000000E+00  0.00000000000E+00  0.17062452682E+02  0.19623457855E+04  0.19622716057E+04 0.  0.
        4    1    3    3  502    0  0.62948091526E+03 -0.71977598475E+03 -0.21125460535E+03  0.97926187105E+03  0.12699999809E+01 0. -1.
       -4    1    3    3    0  502 -0.62948091526E+03  0.71977598475E+03  0.22831705803E+03  0.98308391442E+03  0.12699999809E+01 0.  1.
</event>
<event>
 5   0  0.1708578E-04  0.1911863E+04  0.7818609E-02  0.8648974E-01
       -1   -1    0    0    0  501  0.00000000000E+00  0.00000000000E+00  0.47613345426E+03  0.47613345429E+03  0.50400001928E-02 0. -1.
        1   -1    0    0  501    0  0.00000000000E+00  0.00000000000E+00 -0.19192197810E+04  0.19192197811E+04  0.50400001928E-02 0.  1.
    10030    2    1    2    0    0  0.00000000000E+00  0.00000000000E+00 -0.14430863268E+04  0.23953532353E+04  0.19118626979E+04 0.  0.
        3    1    3    3  502    0 -0.30691319483E+03 -0.38115988494E+03  0.30729691290E+03  0.57784943534E+03  0.10100000352E+00 0. -1.
       -3    1    3    3    0  502  0.30691319483E+03  0.38115988494E+03 -0.17503832397E+04  0.18175038000E+04  0.10100000352E+00 0.  1.
</event>
<event>
 5   0  0.1643565E-04  0.2137456E+04  0.7818609E-02  0.8544921E-01
        1   -1    0    0  501    0  0.00000000000E+00  0.00000000000E+00  0.88023410713E+03  0.88023410714E+03  0.50400001928E-02 0. -1.
       -1   -1    0    0    0  501  0.00000000000E+00  0.00000000000E+00 -0.12975862838E+04  0.12975862839E+04  0.50400001928E-02 0.  1.
    10030    2    1    2    0    0  0.00000000000E+00  0.00000000000E+00 -0.41735217672E+03  0.21778203910E+04  0.21374561554E+04 0.  0.
        2    1    3    3  502    0  0.59448709654E+03  0.81439354286E+03  0.15231382640E+03  0.10197309706E+04  0.25500000920E-02 0. -1.
       -2    1    3    3    0  502 -0.59448709654E+03 -0.81439354286E+03 -0.56966600312E+03  0.11580894204E+04  0.25500000920E-02 0.  1.
</event>
<event>
 5   0  0.3395569E-04  0.1848213E+04  0.7818609E-02  0.8681072E-01
       -2   -1    0    0    0  501  0.00000000000E+00  0.00000000000E+00  0.43324342747E+03  0.43324342748E+03  0.25500000920E-02 0. -1.
        2   -1    0    0  501    0  0.00000000000E+00  0.00000000000E+00 -0.19711156457E+04  0.19711156457E+04  0.25500000920E-02 0.  1.
    10030    2    1    2    0    0  0.00000000000E+00  0.00000000000E+00 -0.15378722182E+04  0.24043590732E+04  0.18482130811E+04 0.  0.
        4    1    3    3  502    0 -0.61785607352E+03  0.12925027200E+03 -0.16469487844E+04  0.17637725680E+04  0.12699999809E+01 0.  1.
       -4    1    3    3    0  502  0.61785607352E+03 -0.12925027200E+03  0.10907656617E+03  0.64058650516E+03  0.12699999809E+01 0. -1.
</event>
<event>
 5   0  0.1650221E-04  0.1997905E+04  0.7818609E-02  0.8607601E-01
       -1   -1    0    0    0  501  0.00000000000E+00  0.00000000000E+00  0.10297158339E+04  0.10297158339E+04  0.50400001928E-02 0. -1.
        1   -1    0    0  501    0  0.00000000000E+00  0.00000000000E+00 -0.96910864968E+03  0.96910864969E+03  0.50400001928E-02 0.  1.
    10030    2    1    2    0    0  0.00000000000E+00  0.00000000000E+00  0.60607184247E+02  0.19988244836E+04  0.19979054246E+04 0.  0.
        1    1    3    3  502    0  0.75458013478E+03  0.65090349441E+03  0.99905578123E+02  0.10015226724E+04  0.50400001928E-02 0.  1.
       -1    1    3    3    0  502 -0.75458013478E+03 -0.65090349441E+03 -0.39298393875E+02  0.99730181120E+03  0.50400001928E-02 0. -1.
</event>
<event>
 5   0  0.3387881E-04  0.2047465E+04  0.7818609E-02  0.8584745E-01
       -2   -1    0    0    0  501  0.00000000000E+00  0.00000000000E+00  0.10224057257E+04  0.10224057257E+04  0.25500000920E-02 0. -1.
        2   -1    0    0  501    0  0.00000000000E+00  0.00000000000E+00 -0.10250608677E+04  0.10250608677E+04  0.25500000920E-02 0.  1.
    10030    2    1    2    0    0  0.00000000000E+00  0.00000000000E+00 -0.26551419856E+01  0.20474665933E+04  0.20474648717E+04 0.  0.
        1    1    3    3  502    0  0.39040700730E+03 -0.11402571945E+03 -0.94080087474E+03  0.10249515998E+04  0.50400001928E-02 0.  1.
       -1    1    3    3    0  502 -0.39040700730E+03  0.11402571945E+03  0.93814573275E+03  0.10225149935E+04  0.50400001928E-02 0. -1.
</event>
<event>
 5   0  0.1650221E-04  0.2034136E+04  0.7818609E-02  0.8590825E-01
       -1   -1    0    0    0  501  0.00000000000E+00  0.00000000000E+00  0.91078114403E+03  0.91078114404E+03  0.50400001928E-02 0.  1.
        1   -1    0    0  501    0  0.00000000000E+00  0.00000000000E+00 -0.11357587915E+04  0.11357587915E+04  0.50400001928E-02 0. -1.
    10030    2    1    2    0    0  0.00000000000E+00  0.00000000000E+00 -0.22497764742E+03  0.20465399355E+04  0.20341363685E+04 0.  0.
        1    1    3    3  502    0 -0.59780554986E+03  0.16025294587E+03 -0.92448834263E+03  0.11125336749E+04  0.50400001928E-02 0. -1.
       -1    1    3    3    0  502  0.59780554986E+03 -0.16025294587E+03  0.69951069521E+03  0.93400626060E+03  0.50400001928E-02 0.  1.
</event>
<event>
 5   0  0.1650221E-04  0.1973410E+04  0.7818609E-02  0.8619154E-01
        1   -1    0    0  501    0  0.00000000000E+00  0.00000000000E+00  0.10914890746E+04  0.10914890746E+04  0.50400001928E-02 0.  1.
       -1   -1    0    0    0  501  0.00000000000E+00  0.00000000000E+00 -0.89198007841E+03  0.89198007843E+03  0.50400001928E-02 0. -1.
    10030    2    1    2    0    0  0.00000000000E+00  0.00000000000E+00  0.19950899619E+03  0.19834691530E+04  0.19734097500E+04 0.  0.
        1    1    3    3  502    0 -0.11016834568E+03  0.63873761407E+03  0.84749818434E+03  0.10669470355E+04  0.50400001928E-02 0.  1.
       -1    1    3    3    0  502  0.11016834568E+03 -0.63873761407E+03 -0.64798918815E+03  0.91652211757E+03  0.50400001928E-02 0. -1.
</event>
<event>
 5   0  0.3431030E-04  0.2016099E+04  0.7818609E-02  0.8599131E-01
        2   -1    0    0  501    0  0.00000000000E+00  0.00000000000E+00  0.22672543774E+04  0.22672543774E+04  0.25500000920E-02 0.  1.
       -2   -1    0    0    0  501  0.00000000000E+00  0.00000000000E+00 -0.44819121099E+03  0.44819121100E+03  0.25500000920E-02 0. -1.
    10030    2    1    2    0    0  0.00000000000E+00  0.00000000000E+00  0.18190631664E+04  0.27154455884E+04  0.20160986931E+04 0.  0.
        3    1    3    3  502    0 -0.66620903620E+03 -0.11742858088E+03 -0.97066900438E+02  0.68340759791E+03  0.10100000352E+00 0. -1.
       -3    1    3    3    0  502  0.66620903620E+03  0.11742858088E+03  0.19161300669E+04  0.20320379905E+04  0.10100000352E+00 0.  1.
</event>
<event>
 5   0  0.1664168E-04  0.1534417E+04  0.7818609E-02  0.8861883E-01
        1   -1    0    0  501    0  0.00000000000E+00  0.00000000000E+00  0.97146915487E+03  0.97146915488E+03  0.50400001928E-02 0.  1.
       -1   -1    0    0    0  501  0.00000000000E+00  0.00000000000E+00 -0.60589555216E+03  0.60589555218E+03  0.50400001928E-02 0. -1.
    10030    2    1    2    0    0  0.00000000000E+00  0.00000000000E+00  0.36557360271E+03  0.15773647071E+04  0.15344169447E+04 0.  0.
        5    1    3    3  502    0  0.37329462401E+03 -0.44334933196E+03 -0.33395490820E+03  0.66892112927E+03  0.46999998093E+01 0. -1.
       -5    1    3    3    0  502 -0.37329462401E+03  0.44334933196E+03  0.69952851091E+03  0.90844357780E+03  0.46999998093E+01 0.  1.
</event>
<event>
 5   0  0.3431030E-04  0.1717162E+04  0.7818609E-02  0.8751636E-01
       -2   -1    0    0    0  501  0.00000000000E+00  0.00000000000E+00  0.46213900760E+03  0.46213900761E+03  0.25500000920E-02 0.  1.
        2   -1    0    0  501    0  0.00000000000E+00  0.00000000000E+00 -0.15951069824E+04  0.15951069824E+04  0.25500000920E-02 0. -1.
    10030    2    1    2    0    0  0.00000000000E+00  0.00000000000E+00 -0.11329679748E+04  0.20572459900E+04  0.17171617954E+04 0.  0.
        3    1    3    3  502    0 -0.58103813120E+03  0.38656885259E+01  0.19079451051E+03  0.61157404204E+03  0.10100000352E+00 0.  1.
       -3    1    3    3    0  502  0.58103813120E+03 -0.38656885259E+01 -0.13237624853E+04  0.14456719480E+04  0.10100000352E+00 0. -1.
</event>
<event>
 5   0  0.3395569E-04  0.1861819E+04  0.7818609E-02  0.8674099E-01
        2   -1    0    0  501    0  0.00000000000E+00  0.00000000000E+00  0.18473242402E+04  0.18473242402E+04  0.25500000920E-02 0.  1.
       -2   -1    0    0    0  501  0.00000000000E+00  0.00000000000E+00 -0.46910663552E+03  0.46910663553E+03  0.25500000920E-02 0. -1.
    10030    2    1    2    0    0  0.00000000000E+00  0.00000000000E+00  0.13782176047E+04  0.23164308758E+04  0.18618185294E+04 0.  0.
        4    1    3    3  502    0 -0.20427446027E+03 -0.29798278882E+03 -0.37832550498E+03  0.52311910514E+03  0.12699999809E+01 0. -1.
       -4    1    3    3    0  502  0.20427446027E+03  0.29798278882E+03  0.17565431097E+04  0.17933117706E+04  0.12699999809E+01 0.  1.
</event>
<event>
 5   0  0.3431030E-04  0.2015900E+04  0.7818609E-02  0.8599223E-01
        2   -1    0    0  501    0  0.00000000000E+00  0.00000000000E+00  0.20112896695E+04  0.20112896695E+04  0.25500000920E-02 0.  1.
       -2   -1    0    0    0  501  0.00000000000E+00  0.00000000000E+00 -0.50513037724E+03  0.50513037724E+03  0.25500000920E-02 0. -1.
    10030    2    1    2    0    0  0.00000000000E+00  0.00000000000E+00  0.15061592923E+04  0.25164200468E+04  0.20159003046E+04 0.  0.
        3    1    3    3  502    0  0.41327951711E+03 -0.36745176931E+03 -0.29885052289E+03  0.62859558323E+03  0.10100000352E+00 0. -1.
       -3    1    3    3    0  502 -0.41327951711E+03  0.36745176931E+03  0.18050098152E+04  0.18878244635E+04  0.10100000352E+00 0.  1.
</event>
<event>
 5   0  0.3387881E-04  0.1632050E+04  0.7818609E-02  0.8801097E-01
       -2   -1    0    0    0  501  0.00000000000E+00  0.00000000000E+00  0.10405402290E+04  0.10405402290E+04  0.25500000920E-02 0.  1.
        2   -1    0    0  501    0  0.00000000000E+00  0.00000000000E+00 -0.63995300745E+03  0.63995300745E+03  0.25500000920E-02 0. -1.
    10030    2    1    2    0    0  0.00000000000E+00  0.00000000000E+00  0.40058722152E+03  0.16804932364E+04  0.16320500592E+04 0.  0.
        1    1    3    3  502    0  0.63457444457E+03  0.26637119277E+03 -0.25119425265E+03  0.73262329380E+03  0.50400001928E-02 0. -1.
       -1    1    3    3    0  502 -0.63457444457E+03 -0.26637119277E+03  0.65178147417E+03  0.94786994262E+03  0.50400001928E-02 0.  1.
</event>
<event>
 5   0  0.1643565E-04  0.2042351E+04  0.7818609E-02  0.8587072E-01
       -1   -1    0    0    0  501  0.00000000000E+00  0.00000000000E+00  0.62734861264E+03  0.62734861266E+03  0.50400001928E-02 0.  1.
        1   -1    0    0  501    0  0.00000000000E+00  0.00000000000E+00 -0.16622320356E+04  0.16622320356E+04  0.50400001928E-02 0. -1.
    10030    2    1    2    0    0  0.00000000000E+00  0.00000000000E+00 -0.10348834230E+04  0.22895806483E+04  0.20423505688E+04 0.  0.
        2    1    3    3  502    0 -0.72825342278E+02  0.31439854009E+02 -0.16587731172E+04  0.16606686151E+04  0.25500000920E-02 0. -1.
       -2    1    3    3    0  502  0.72825342278E+02 -0.31439854009E+02  0.62388969422E+03  0.62891203316E+03  0.25500000920E-02 0.  1.
</event>
<event>
 5   0  0.1696052E-04  0.1988419E+04  0.7818609E-02  0.8612054E-01
       -1   -1    0    0    0  501  0.00000000000E+00  0.00000000000E+00  0.54811090581E+03  0.54811090583E+03  0.50400001928E-02 0.  1.
        1   -1    0    0  501    0  0.00000000000E+00  0.00000000000E+00 -0.18033808314E+04  0.18033808314E+04  0.50400001928E-02 0. -1.
    10030    2    1    2    0    0  0.00000000000E+00  0.00000000000E+00 -0.12552699256E+04  0.23514917372E+04  0.19884191721E+04 0.  0.
        4    1    3    3  502    0 -0.76081135498E+03 -0.60582006941E+03 -0.87171727398E+03  0.13060415357E+04  0.12699999809E+01 0.  1.
       -4    1    3    3    0  502  0.76081135498E+03  0.60582006941E+03 -0.38355265160E+03  0.10454502015E+04  0.12699999809E+01 0. -1.
</event>
<event>
 5   0  0.3460648E-04  0.2038461E+04  0.7818609E-02  0.8588847E-01
       -2   -1    0    0    0  501  0.00000000000E+00  0.00000000000E+00  0.62867362831E+03  0.62867362831E+03  0.25500000920E-02 0. -1.
        2   -1    0    0  501    0  0.00000000000E+00  0.00000000000E+00 -0.16524165686E+04  0.16524165686E+04  0.25500000920E-02 0.  1.
    10030    2    1    2    0    0  0.00000000000E+00  0.00000000000E+00 -0.10237429403E+04  0.22810901969E+04  0.20384609093E+04 0.  0.
        5    1    3    3  502    0 -0.83617550256E+03 -0.54785201648E+03 -0.28953334557E+03  0.10407607560E+04  0.46999998093E+01 0. -1.
       -5    1    3    3    0  502  0.83617550256E+03  0.54785201648E+03 -0.73420959475E+03  0.12403294409E+04  0.46999998093E+01 0.  1.
</event>
<event>
 5   0  0.1650221E-04  0.1426950E+04  0.7818609E-02  0.8934538E-01
       -1   -1    0    0    0  501  0.00000000000E+00  0.00000000000E+00  0.44599767226E+03  0.44599767229E+03  0.50400001928E-02 0.  1.
        1   -1    0    0  501    0  0.00000000000E+00  0.00000000000E+00 -0.11413663232E+04  0.11413663232E+04  0.50400001928E-02 0. -1.
    10030    2    1    2    0    0  0.00000000000E+00  0.00000000000E+00 -0.69536865093E+03  0.15873639955E+04  0.14269502071E+04 0.  0.
        1    1    3    3  502    0  0.53778170645E+03  0.44309039410E+03 -0.17712329267E+03  0.71896517437E+03  0.50400001928E-02 0.  1.
       -1    1    3    3    0  502 -0.53778170645E+03 -0.44309039410E+03 -0.51824535827E+03  0.86839882112E+03  0.50400001928E-02 0. -1.
</event>
<event>
 5   0  0.1696052E-04  0.2010077E+04  0.7818609E-02  0.8601924E-01
        1   -1    0    0  501    0  0.00000000000E+00  0.00000000000E+00  0.14019342891E+04  0.14019342891E+04  0.50400001928E-02 0.  1.
       -1   -1    0    0    0  501  0.00000000000E+00  0.00000000000E+00 -0.72050641389E+03  0.72050641391E+03  0.50400001928E-02 0. -1.
    10030    2    1    2    0    0  0.00000000000E+00  0.00000000000E+00  0.68142787522E+03  0.21224407030E+04  0.20100772594E+04 0.  0.
        4    1    3    3  502    0 -0.48237050207E+03 -0.86179234658E+03  0.14392610508E+03  0.99803992230E+03  0.12699999809E+01 0. -1.
       -4    1    3    3    0  502  0.48237050207E+03  0.86179234658E+03  0.53750177014E+03  0.11244007807E+04  0.12699999809E+01 0.  1.
</event>
<event>
 5   0  0.1664168E-04  0.2028006E+04  0.7818609E-02  0.8593638E-01
       -1   -1    0    0    0  501  0.00000000000E+00  0.00000000000E+00  0.56829185819E+03  0.56829185822E+03  0.50400001928E-02 0. -1.
        1   -1    0    0  501    0  0.00000000000E+00  0.00000000000E+00 -0.18092860804E+04  0.18092860804E+04  0.50400001928E-02 0.  1.
    10030    2    1    2    0    0  0.00000000000E+00  0.00000000000E+00 -0.12409942222E+04  0.23775779386E+04  0.20280064582E+04 0.  0.
        5    1    3    3  502    0 -0.36301841369E+03 -0.88385854665E+03 -0.10183998134E+04  0.13964771996E+04  0.46999998093E+01 0.  1.
       -5    1    3    3    0  502  0.36301841369E+03  0.88385854665E+03 -0.22259440879E+03  0.98110073896E+03  0.46999998093E+01 0. -1.
</event>
<event>
 5   0  0.3395569E-04  0.1577532E+04  0.7818609E-02  0.8834471E-01
        2   -1    0    0  501    0  0.00000000000E+00  0.00000000000E+00  0.15876167664E+04  0.15876167664E+04  0.25500000920E-02 0.  1.
       -2   -1    0    0    0  501  0.00000000000E+00  0.00000000000E+00 -0.39187773497E+03  0.39187773498E+03  0.25500000920E-02 0. -1.
    10030    2    1    2    0    0  0.00000000000E+00  0.00000000000E+00  0.11957390315E+04  0.19794945014E+04  0.15775318221E+04 0.  0.
        4    1    3    3  502    0 -0.66807061827E+03 -0.41860890923E+03  0.62856173503E+03  0.10082872793E+04  0.12699999809E+01 0.  1.
       -4    1    3    3    0  502  0.66807061827E+03  0.41860890923E+03  0.56717729642E+03  0.97120722215E+03  0.12699999809E+01 0. -1.
</event>
<event>
 5   0  0.1650221E-04  0.2014191E+04  0.7818609E-02  0.8600015E-01
        1   -1    0    0  501    0  0.00000000000E+00  0.00000000000E+00  0.20713939736E+04  0.20713939736E+04  0.50400001928E-02 0.  1.
       -1   -1    0    0    0  501  0.00000000000E+00  0.00000000000E+00 -0.48964175476E+03  0.48964175478E+03  0.50400001928E-02 0. -1.
    10030    2    1    2    0    0  0.00000000000E+00  0.00000000000E+00  0.15817522189E+04  0.25610357284E+04  0.20141906365E+04 0.  0.
        1    1    3    3  502    0 -0.60796097589E+03  0.60827758075E+03  0.14571969134E+04  0.16920523065E+04  0.50400001928E-02 0.  1.
       -1    1    3    3    0  502  0.60796097589E+03 -0.60827758075E+03  0.12455530547E+03  0.86898342193E+03  0.50400001928E-02 0. -1.
</event>
<event>
 5   0  0.3371947E-04  0.1912439E+04  0.7818609E-02  0.8648689E-01
       -2   -1    0    0    0  501  0.00000000000E+00  0.00000000000E+00  0.39652896800E+03  0.39652896801E+03  0.25500000920E-02 0. -1.
        2   -1    0    0  501    0  0.00000000000E+00  0.00000000000E+00 -0.23058991745E+04  0.23058991745E+04  0.25500000920E-02 0.  1.
    10030    2    1    2    0    0  0.00000000000E+00  0.00000000000E+00 -0.19093702065E+04  0.27024281425E+04  0.19124390918E+04 0.  0.
        2    1    3    3  502    0  0.92718261299E+02 -0.68205162604E+02  0.38670399463E+03  0.40347069243E+03  0.25500000920E-02 0. -1.
       -2    1    3    3    0  502 -0.92718261299E+02  0.68205162604E+02 -0.22960742011E+04  0.22989574501E+04  0.25500000920E-02 0.  1.
</event>
<event>
 5   0  0.3460648E-04  0.2023839E+04  0.7818609E-02  0.8595555E-01
       -2   -1    0    0    0  501  0.00000000000E+00  0.00000000000E+00  0.61739759443E+03  0.61739759443E+03  0.25500000920E-02 0. -1.
        2   -1    0    0  501    0  0.00000000000E+00  0.00000000000E+00 -0.16585448014E+04  0.16585448014E+04  0.25500000920E-02 0.  1.
    10030    2    1    2    0    0  0.00000000000E+00  0.00000000000E+00 -0.10411472070E+04  0.22759423959E+04  0.20238394903E+04 0.  0.
        5    1    3    3  502    0 -0.49238430882E+03 -0.40761355338E+03  0.36159740845E+03  0.73441534043E+03  0.46999998093E+01 0. -1.
       -5    1    3    3    0  502  0.49238430882E+03  0.40761355338E+03 -0.14027446155E+04  0.15415270554E+04  0.46999998093E+01 0.  1.
</event>
<event>
 5   0  0.1708578E-04  0.2033429E+04  0.7818609E-02  0.8591149E-01
        1   -1    0    0  501    0  0.00000000000E+00  0.00000000000E+00  0.15692323704E+04  0.15692323704E+04  0.50400001928E-02 0.  1.
       -1   -1    0    0    0  501  0.00000000000E+00  0.00000000000E+00 -0.65873534068E+03  0.65873534070E+03  0.50400001928E-02 0. -1.
    10030    2    1    2    0    0  0.00000000000E+00  0.00000000000E+00  0.91049702975E+03  0.22279677111E+04  0.20334294383E+04 0.  0.
        3    1    3    3  502    0 -0.45582402256E+03  0.88933881496E+02  0.14462237879E+04  0.15189628138E+04  0.10100000352E+00 0.  1.
       -3    1    3    3    0  502  0.45582402256E+03 -0.88933881496E+02 -0.53572675816E+03  0.70900489732E+03  0.10100000352E+00 0. -1.
</event>
<event>
 5   0  0.1664168E-04  0.2012096E+04  0.7818609E-02  0.8600986E-01
        1   -1    0    0  501    0  0.00000000000E+00  0.00000000000E+00  0.71355861950E+03  0.71355861952E+03  0.50400001928E-02 0. -1.
       -1   -1    0    0    0  501  0.00000000000E+00  0.00000000000E+00 -0.14184296554E+04  0.14184296554E+04  0.50400001928E-02 0.  1.
    10030    2    1    2    0    0  0.00000000000E+00  0.00000000000E+00 -0.70487103592E+03  0.21319882749E+04  0.20120961277E+04 0.  0.
        5    1    3    3  502    0  0.60551924031E+03  0.10633157782E+03  0.49135047502E+03  0.78702435422E+03  0.46999998093E+01 0. -1.
       -5    1    3    3    0  502 -0.60551924031E+03 -0.10633157782E+03 -0.11962215109E+04  0.13449639207E+04  0.46999998093E+01 0.  1.
</event>
<event>
 5   0  0.3371947E-04  0.1955255E+04  0.7818609E-02  0.8627831E-01
       -2   -1    0    0    0  501  0.00000000000E+00  0.00000000000E+00  0.62201862685E+03  0.62201862686E+03  0.25500000920E-02 0.  1.
        2   -1    0    0  501    0  0.00000000000E+00  0.00000000000E+00 -0.15365385969E+04  0.15365385969E+04  0.25500000920E-02 0. -1.
    10030    2    1    2    0    0  0.00000000000E+00  0.00000000000E+00 -0.91451997001E+03  0.21585572237E+04  0.19552551017E+04 0.  0.
        2    1    3    3  502    0 -0.10495390087E+03 -0.39885180757E+03  0.52127595390E+03  0.66470046324E+03  0.25500000920E-02 0.  1.
       -2    1    3    3    0  502  0.10495390087E+03  0.39885180757E+03 -0.14357959239E+04  0.14938567605E+04  0.25500000920E-02 0. -1.
</event>
<event>
 5   0  0.1696052E-04  0.1985188E+04  0.7818609E-02  0.8613577E-01
        1   -1    0    0  501    0  0.00000000000E+00  0.00000000000E+00  0.22174000440E+04  0.22174000440E+04  0.50400001928E-02 0. -1.
       -1   -1    0    0    0  501  0.00000000000E+00  0.00000000000E+00 -0.44432338810E+03  0.44432338813E+03  0.50400001928E-02 0.  1.
    10030    2    1    2    0    0  0.00000000000E+00  0.00000000000E+00  0.17730766559E+04  0.26617234321E+04  0.19851878504E+04 0.  0.
        4    1    3    3  502    0 -0.11505943380E+03  0.90402135766E+03  0.35909772441E+03  0.97951318367E+03  0.12699999809E+01 0.  1.
       -4    1    3    3    0  502  0.11505943380E+03 -0.90402135766E+03  0.14139789315E+04  0.16822102485E+04  0.12699999809E+01 0. -1.
</event>
<event>
 5   0  0.3431030E-04  0.1970888E+04  0.7818609E-02  0.8620354E-01
        2   -1    0    0  501    0  0.00000000000E+00  0.00000000000E+00  0.13391087939E+04  0.13391087939E+04  0.25500000920E-02 0.  1.
       -2   -1    0    0    0  501  0.00000000000E+00  0.00000000000E+00 -0.72518380385E+03  0.72518380386E+03  0.25500000920E-02 0. -1.
    10030    2    1    2    0    0  0.00000000000E+00  0.00000000000E+00  0.61392499008E+03  0.20642925978E+04  0.19708881338E+04 0.  0.
        3    1    3    3  502    0 -0.77510207583E+03  0.55191892070E+03  0.57543479720E+03  0.11119905301E+04  0.10100000352E+00 0.  1.
       -3    1    3    3    0  502  0.77510207583E+03 -0.55191892070E+03  0.38490192876E+02  0.95230206769E+03  0.10100000352E+00 0. -1.
</event>
<event>
 5   0  0.3460648E-04  0.1969346E+04  0.7818609E-02  0.8621088E-01
       -2   -1    0    0    0  501  0.00000000000E+00  0.00000000000E+00  0.86528955215E+03  0.86528955216E+03  0.25500000920E-02 0.  1.
        2   -1    0    0  501    0  0.00000000000E+00  0.00000000000E+00 -0.11205273510E+04  0.11205273510E+04  0.25500000920E-02 0. -1.
    10030    2    1    2    0    0  0.00000000000E+00  0.00000000000E+00 -0.25523779881E+03  0.19858169031E+04  0.19693456880E+04 0.  0.
        5    1    3    3  502    0 -0.86920876099E+03  0.44043642975E+03  0.15164848137E+02  0.97455640240E+03  0.46999998093E+01 0. -1.
       -5    1    3    3    0  502  0.86920876099E+03 -0.44043642975E+03 -0.27040264695E+03  0.10112605007E+04  0.46999998093E+01 0.  1.
</event>
<event>
 5   0  0.3387881E-04  0.2065211E+04  0.7818609E-02  0.8576725E-01
       -2   -1    0    0    0  501  0.00000000000E+00  0.00000000000E+00  0.36552069437E+03  0.36552069438E+03  0.25500000920E-02 0. -1.
        2   -1    0    0  501    0  0.00000000000E+00  0.00000000000E+00 -0.29171378119E+04  0.29171378120E+04  0.25500000920E-02 0.  1.
    10030    2    1    2    0    0  0.00000000000E+00  0.00000000000E+00 -0.25516171176E+04  0.32826585063E+04  0.20652111162E+04 0.  0.
        1    1    3    3  502    0  0.64781306252E+03  0.77196134824E+03 -0.91794747064E+03  0.13631631032E+04  0.50400001928E-02 0. -1.
       -1    1    3    3    0  502 -0.64781306252E+03 -0.77196134824E+03 -0.16336696469E+04  0.19194954031E+04  0.50400001928E-02 0.  1.
</event>
<event>
 5   0  0.1696052E-04  0.2179432E+04  0.7818609E-02  0.8527038E-01
       -1   -1    0    0    0  501  0.00000000000E+00  0.00000000000E+00  0.38640846395E+03  0.38640846399E+03  0.50400001928E-02 0.  1.
        1   -1    0    0  501    0  0.00000000000E+00  0.00000000000E+00 -0.30731238033E+04  0.30731238033E+04  0.50400001928E-02 0. -1.
    10030    2    1    2    0    0  0.00000000000E+00  0.00000000000E+00 -0.26867153394E+04  0.34595322673E+04  0.21794320806E+04 0.  0.
        4    1    3    3  502    0 -0.72595346767E+03  0.57219334690E+03 -0.42726575853E+03  0.10183178800E+04  0.12699999809E+01 0.  1.
       -4    1    3    3    0  502  0.72595346767E+03 -0.57219334690E+03 -0.22594495809E+04  0.24412143873E+04  0.12699999809E+01 0. -1.
</event>
<event>
 5   0  0.3387881E-04  0.1935472E+04  0.7818609E-02  0.8637398E-01
       -2   -1    0    0    0  501  0.00000000000E+00  0.00000000000E+00  0.12140778661E+04  0.12140778661E+04  0.25500000920E-02 0.  1.
        2   -1    0    0  501    0  0.00000000000E+00  0.00000000000E+00 -0.77137829147E+03  0.77137829148E+03  0.25500000920E-02 0. -1.
    10030    2    1    2    0    0  0.00000000000E+00  0.00000000000E+00  0.44269957463E+03  0.19854561576E+04  0.19354723559E+04 0.  0.
        1    1    3    3  502    0  0.24510376966E+03  0.27285174349E+03  0.11400157739E+04  0.11975641513E+04  0.50400001928E-02 0.  1.
       -1    1    3    3    0  502 -0.24510376966E+03 -0.27285174349E+03 -0.69731619922E+03  0.78789200628E+03  0.50400001928E-02 0. -1.
</event>
<event>
 5   0  0.1650221E-04  0.1985877E+04  0.7818609E-02  0.8613252E-01
        1   -1    0    0  501    0  0.00000000000E+00  0.00000000000E+00  0.87106885790E+03  0.87106885791E+03  0.50400001928E-02 0.  1.
       -1   -1    0    0    0  501  0.00000000000E+00  0.00000000000E+00 -0.11318583202E+04  0.11318583202E+04  0.50400001928E-02 0. -1.
    10030    2    1    2    0    0  0.00000000000E+00  0.00000000000E+00 -0.26078946232E+03  0.20029271781E+04  0.19858766672E+04 0.  0.
        1    1    3    3  502    0  0.29993032059E+03  0.93493064603E+03 -0.27955985849E+03  0.10208855100E+04  0.50400001928E-02 0. -1.
       -1    1    3    3    0  502 -0.29993032059E+03 -0.93493064603E+03  0.18770396174E+02  0.98204166810E+03  0.50400001928E-02 0.  1.
</event>
<event>
 5   0  0.3395569E-04  0.2004947E+04  0.7818609E-02  0.8604311E-01
        2   -1    0    0  501    0  0.00000000000E+00  0.00000000000E+00  0.12546994025E+04  0.12546994025E+04  0.25500000920E-02 0. -1.
       -2   -1    0    0    0  501  0.00000000000E+00  0.00000000000E+00 -0.80095150210E+03  0.80095150210E+03  0.25500000920E-02 0.  1.
    10030    2    1    2    0    0  0.00000000000E+00  0.00000000000E+00  0.45374790043E+03  0.20556509046E+04  0.20049472523E+04 0.  0.
        4    1    3    3  502    0  0.15442684740E+03 -0.91724950614E+03 -0.15642170564E+03  0.94321984214E+03  0.12699999809E+01 0.  1.
       -4    1    3    3    0  502 -0.15442684740E+03  0.91724950614E+03  0.61016960607E+03  0.11124310625E+04  0.12699999809E+01 0. -1.
</event>
<event>
 5   0  0.1650221E-04  0.2007920E+04  0.7818609E-02  0.8602927E-01
        1   -1    0    0  501    0  0.00000000000E+00  0.00000000000E+00  0.17954189935E+04  0.17954189935E+04  0.50400001928E-02 0. -1.
       -1   -1    0    0    0  501  0.00000000000E+00  0.00000000000E+00 -0.56139293210E+03  0.56139293212E+03  0.50400001928E-02 0.  1.
    10030    2    1    2    0    0  0.00000000000E+00  0.00000000000E+00  0.12340260614E+04  0.23568119256E+04  0.20079198521E+04 0.  0.
        1    1    3    3  502    0 -0.28931517911E+03 -0.72675235126E+03 -0.12167462830E+03  0.79162931232E+03  0.50400001928E-02 0.  1.
       -1    1    3    3    0  502  0.28931517911E+03  0.72675235126E+03  0.13557006897E+04  0.15651826133E+04  0.50400001928E-02 0. -1.
</event>
<event>
 5   0  0.3460648E-04  0.1653891E+04  0.7818609E-02  0.8788108E-01
        2   -1    0    0  501    0  0.00000000000E+00  0.00000000000E+00  0.11101319798E+04  0.11101319798E+04  0.25500000920E-02 0.  1.
       -2   -1    0    0    0  501  0.00000000000E+00  0.00000000000E+00 -0.61599792074E+03  0.61599792075E+03  0.25500000920E-02 0. -1.
    10030    2    1    2    0    0  0.00000000000E+00  0.00000000000E+00  0.49413405904E+03  0.17261299005E+04  0.16538911588E+04 0.  0.
        5    1    3    3  502    0 -0.25535443140E+03  0.22366331350E+03  0.10340485434E+04  0.10883518013E+04  0.46999998093E+01 0.  1.
       -5    1    3    3    0  502  0.25535443140E+03 -0.22366331350E+03 -0.53991448432E+03  0.63777809920E+03  0.46999998093E+01 0. -1.
</event>
<event>
 5   0  0.3460648E-04  0.2044218E+04  0.7818609E-02  0.8586222E-01
        2   -1    0    0  501    0  0.00000000000E+00  0.00000000000E+00  0.51455474366E+03  0.51455474367E+03  0.25500000920E-02 0.  1.
       -2   -1    0    0    0  501  0.00000000000E+00  0.00000000000E+00 -0.20303129322E+04  0.20303129322E+04  0.25500000920E-02 0. -1.
    10030    2    1    2    0    0  0.00000000000E+00  0.00000000000E+00 -0.15157581885E+04  0.25448676758E+04  0.20442183351E+04 0.  0.
        5    1    3    3  502    0 -0.65330332574E+03 -0.27459623919E+03 -0.16747928393E+04  0.18185602752E+04  0.46999998093E+01 0. -1.
       -5    1    3    3    0  502  0.65330332574E+03  0.27459623919E+03  0.15903465082E+03  0.72630740060E+03  0.46999998093E+01 0.  1.
</event>
<event>
 5   0  0.3371947E-04  0.2011066E+04  0.7818609E-02  0.8601465E-01
       -2   -1    0    0    0  501  0.00000000000E+00  0.00000000000E+00  0.78590863308E+03  0.78590863308E+03  0.25500000920E-02 0. -1.
        2   -1    0    0  501    0  0.00000000000E+00  0.00000000000E+00 -0.12865314945E+04  0.12865314945E+04  0.25500000920E-02 0.  1.
    10030    2    1    2    0    0  0.00000000000E+00  0.00000000000E+00 -0.50062286141E+03  0.20724401276E+04  0.20110655964E+04 0.  0.
        2    1    3    3  502    0  0.30177133404E+03  0.93711157645E+03 -0.46113284026E+03  0.10871465132E+04  0.25500000920E-02 0. -1.
       -2    1    3    3    0  502 -0.30177133404E+03 -0.93711157645E+03 -0.39490021149E+02  0.98529361438E+03  0.25500000920E-02 0.  1.
</event>
<event>
 5   0  0.3371947E-04  0.2063701E+04  0.7818609E-02  0.8577404E-01
       -2   -1    0    0    0  501  0.00000000000E+00  0.00000000000E+00  0.49555234565E+03  0.49555234566E+03  0.25500000920E-02 0.  1.
        2   -1    0    0  501    0  0.00000000000E+00  0.00000000000E+00 -0.21485436620E+04  0.21485436620E+04  0.25500000920E-02 0. -1.
    10030    2    1    2    0    0  0.00000000000E+00  0.00000000000E+00 -0.16529913164E+04  0.26440960077E+04  0.20637013848E+04 0.  0.
        2    1    3    3  502    0 -0.28903076063E+03 -0.22764017371E+02  0.44229316809E+03  0.52884801940E+03  0.25500000920E-02 0.  1.
       -2    1    3    3    0  502  0.28903076063E+03  0.22764017371E+02 -0.20952844844E+04  0.21152479883E+04  0.25500000920E-02 0. -1.
</event>
<event>
 5   0  0.3387881E-04  0.1907664E+04  0.7818609E-02  0.8651051E-01
        2   -1    0    0  501    0  0.00000000000E+00  0.00000000000E+00  0.70067878593E+03  0.70067878594E+03  0.25500000920E-02 0. -1.
       -2   -1    0    0    0  501  0.00000000000E+00  0.00000000000E+00 -0.12984486080E+04  0.12984486080E+04  0.25500000920E-02 0.  1.
    10030    2    1    2    0    0  0.00000000000E+00  0.00000000000E+00 -0.59776982203E+03  0.19991273939E+04  0.19076639057E+04 0.  0.
        1    1    3    3  502    0 -0.81520454216E+03  0.20877182692E+03 -0.76947100735E+03  0.11402761738E+04  0.50400001928E-02 0.  1.
       -1    1    3    3    0  502  0.81520454216E+03 -0.20877182692E+03  0.17170118532E+03  0.85885122014E+03  0.50400001928E-02 0. -1.
</event>
<event>
 5   0  0.1664168E-04  0.1997361E+04  0.7818609E-02  0.8607856E-01
       -1   -1    0    0    0  501  0.00000000000E+00  0.00000000000E+00  0.12892864192E+04  0.12892864192E+04  0.50400001928E-02 0.  1.
        1   -1    0    0  501    0  0.00000000000E+00  0.00000000000E+00 -0.77357697151E+03  0.77357697153E+03  0.50400001928E-02 0. -1.
    10030    2    1    2    0    0  0.00000000000E+00  0.00000000000E+00  0.51570944765E+03  0.20628633907E+04  0.19973605419E+04 0.  0.
        5    1    3    3  502    0 -0.64950936039E+03  0.47148045369E+03 -0.35592776250E+03  0.87798797802E+03  0.46999998093E+01 0. -1.
       -5    1    3    3    0  502  0.64950936039E+03 -0.47148045369E+03  0.87163721014E+03  0.11848754127E+04  0.46999998093E+01 0.  1.
</event>
<event>
 5   0  0.1708578E-04  0.1979138E+04  0.7818609E-02  0.8616437E-01
       -1   -1    0    0    0  501  0.00000000000E+00  0.00000000000E+00  0.10052694329E+04  0.10052694329E+04  0.50400001928E-02 0. -1.
        1   -1    0    0  501    0  0.00000000000E+00  0.00000000000E+00 -0.97411412915E+03  0.97411412916E+03  0.50400001928E-02 0.  1.
    10030    2    1    2    0    0  0.00000000000E+00  0.00000000000E+00  0.31155303781E+02  0.19793835621E+04  0.19791383562E+04 0.  0.
        3    1    3    3  502    0  0.40134775779E+03  0.74608406329E+03 -0.49588153854E+03  0.98164146339E+03  0.10100000352E+00 0.  1.
       -3    1    3    3    0  502 -0.40134775779E+03 -0.74608406329E+03  0.52703684232E+03  0.99774209871E+03  0.10100000352E+00 0. -1.
</event>
<event>
 5   0  0.3431030E-04  0.2160296E+04  0.7818609E-02  0.8535138E-01
        2   -1    0    0  501    0  0.00000000000E+00  0.00000000000E+00  0.14828614919E+04  0.14828614919E+04  0.25500000920E-02 0. -1.
       -2   -1    0    0    0  501  0.00000000000E+00  0.00000000000E+00 -0.78680315903E+03  0.78680315903E+03  0.25500000920E-02 0.  1.
    10030    2    1    2    0    0  0.00000000000E+00  0.00000000000E+00  0.69605833290E+03  0.22696646510E+04  0.21602963743E+04 0.  0.
        3    1    3    3  502    0 -0.25376278169E+03  0.10498713860E+04  0.33780945639E+03  0.11316981557E+04  0.10100000352E+00 0.  1.
       -3    1    3    3    0  502  0.25376278169E+03 -0.10498713860E+04  0.35824887652E+03  0.11379664953E+04  0.10100000352E+00 0. -1.
</event>
<event>
 5   0  0.1650221E-04  0.1981071E+04  0.7818609E-02  0.8615522E-01
        1   -1    0    0  501    0  0.00000000000E+00  0.00000000000E+00  0.13461202197E+04  0.13461202197E+04  0.50400001928E-02 0. -1.
       -1   -1    0    0    0  501  0.00000000000E+00  0.00000000000E+00 -0.72888052684E+03  0.72888052686E+03  0.50400001928E-02 0.  1.
    10030    2    1    2    0    0  0.00000000000E+00  0.00000000000E+00  0.61723969281E+03  0.20750007465E+04  0.19810712404E+04 0.  0.
        1    1    3    3  502    0  0.30558640041E+03  0.94221802048E+03  0.31042452044E+03  0.10380372003E+04  0.50400001928E-02 0.  1.
       -1    1    3    3    0  502 -0.30558640041E+03 -0.94221802048E+03  0.30681517237E+03  0.10369635463E+04  0.50400001928E-02 0. -1.
</event>
<event>
 5   0  0.3371947E-04  0.1968621E+04  0.7818609E-02  0.8621434E-01
       -2   -1    0    0    0  501  0.00000000000E+00  0.00000000000E+00  0.92897025390E+03  0.92897025390E+03  0.25500000920E-02 0.  1.
        2   -1    0    0  501    0  0.00000000000E+00  0.00000000000E+00 -0.10429471057E+04  0.10429471057E+04  0.25500000920E-02 0. -1.
    10030    2    1    2    0    0  0.00000000000E+00  0.00000000000E+00 -0.11397685179E+03  0.19719173596E+04  0.19686206720E+04 0.  0.
        2    1    3    3  502    0  0.49749354025E+03  0.36662578723E+03  0.71042283003E+03  0.94160229815E+03  0.25500000920E-02 0.  1.
       -2    1    3    3    0  502 -0.49749354025E+03 -0.36662578723E+03 -0.82439968182E+03  0.10303150614E+04  0.25500000920E-02 0. -1.
</event>
<event>
 5   0  0.1696052E-04  0.1974767E+04  0.7818609E-02  0.8618509E-01
       -1   -1    0    0    0  501  0.00000000000E+00  0.00000000000E+00  0.89689002751E+03  0.89689002753E+03  0.50400001928E-02 0. -1.
        1   -1    0    0  501    0  0.00000000000E+00  0.00000000000E+00 -0.10870077913E+04  0.10870077913E+04  0.50400001928E-02 0.  1.
    10030    2    1    2    0    0  0.00000000000E+00  0.00000000000E+00 -0.19011776377E+03  0.19838978188E+04  0.19747672753E+04 0.  0.
        4    1    3    3  502    0  0.89526080134E+03 -0.12238532122E+03  0.30484537860E+03  0.95362591566E+03  0.12699999809E+01 0. -1.
       -4    1    3    3    0  502 -0.89526080134E+03  0.12238532122E+03 -0.49496314237E+03  0.10302719032E+04  0.12699999809E+01 0.  1.
</event>
<event>
 5   0  0.1650221E-04  0.1990489E+04  0.7818609E-02  0.8611080E-01
        1   -1    0    0  501    0  0.00000000000E+00  0.00000000000E+00  0.11470353631E+04  0.11470353631E+04  0.50400001928E-02 0. -1.
       -1   -1    0    0    0  501  0.00000000000E+00  0.00000000000E+00 -0.86354044025E+03  0.86354044027E+03  0.50400001928E-02 0.  1.
    10030    2    1    2    0    0  0.00000000000E+00  0.00000000000E+00  0.28349492288E+03  0.20105758034E+04  0.19904888068E+04 0.  0.
        1    1    3    3  502    0  0.72202831251E+03  0.66758594091E+03 -0.13147853269E+02  0.98344737462E+03  0.50400001928E-02 0. -1.
       -1    1    3    3    0  502 -0.72202831251E+03 -0.66758594091E+03  0.29664277614E+03  0.10271284288E+04  0.50400001928E-02 0.  1.
</event>
<event>
 5   0  0.1643565E-04  0.2019445E+04  0.7818609E-02  0.8597583E-01
        1   -1    0    0  501    0  0.00000000000E+00  0.00000000000E+00  0.17169567823E+04  0.17169567823E+04  0.50400001928E-02 0.  1.
       -1   -1    0    0    0  501  0.00000000000E+00  0.00000000000E+00 -0.59380591219E+03  0.59380591221E+03  0.50400001928E-02 0. -1.
    10030    2    1    2    0    0  0.00000000000E+00  0.00000000000E+00  0.11231508701E+04  0.23107626945E+04  0.20194445655E+04 0.  0.
        2    1    3    3  502    0  0.31282141399E+03 -0.41896711893E+03 -0.42683203452E+03  0.67496390236E+03  0.25500000920E-02 0. -1.
       -2    1    3    3    0  502 -0.31282141399E+03  0.41896711893E+03  0.15499829046E+04  0.16357987921E+04  0.25500000920E-02 0.  1.
</event>
<event>
 5   0  0.1664168E-04  0.2003528E+04  0.7818609E-02  0.8604973E-01
       -1   -1    0    0    0  501  0.00000000000E+00  0.00000000000E+00  0.88233540847E+03  0.88233540849E+03  0.50400001928E-02 0. -1.
        1   -1    0    0  501    0  0.00000000000E+00  0.00000000000E+00 -0.11373577564E+04  0.11373577564E+04  0.50400001928E-02 0.  1.
    10030    2    1    2    0    0  0.00000000000E+00  0.00000000000E+00 -0.25502234790E+03  0.20196931649E+04  0.20035279090E+04 0.  0.
        5    1    3    3  502    0 -0.97390170850E+03  0.22819324109E+03 -0.18228406230E+03  0.10167626382E+04  0.46999998093E+01 0.  1.
       -5    1    3    3    0  502  0.97390170850E+03 -0.22819324109E+03 -0.72738285604E+02  0.10029305267E+04  0.46999998093E+01 0. -1.
</event>
<event>
 5   0  0.3395569E-04  0.2051455E+04  0.7818609E-02  0.8582934E-01
        2   -1    0    0  501    0  0.00000000000E+00  0.00000000000E+00  0.12520203293E+04  0.12520203293E+04  0.25500000920E-02 0. -1.
       -2   -1    0    0    0  501  0.00000000000E+00  0.00000000000E+00 -0.84033564561E+03  0.84033564561E+03  0.25500000920E-02 0.  1.
    10030    2    1    2    0    0  0.00000000000E+00  0.00000000000E+00  0.41168468372E+03  0.20923559749E+04  0.20514553973E+04 0.  0.
        4    1    3    3  502    0  0.13006893994E+03  0.20358624468E+03 -0.81090291503E+03  0.84612672730E+03  0.12699999809E+01 0.  1.
       -4    1    3    3    0  502 -0.13006893994E+03 -0.20358624468E+03  0.12225875987E+04  0.12462292476E+04  0.12699999809E+01 0. -1.
</event>
<event>
 5   0  0.3395569E-04  0.2183487E+04  0.7818609E-02  0.8525333E-01
       -2   -1    0    0    0  501  0.00000000000E+00  0.00000000000E+00  0.67924429081E+03  0.67924429082E+03  0.25500000920E-02 0. -1.
        2   -1    0    0  501    0  0.00000000000E+00  0.00000000000E+00 -0.17547494566E+04  0.17547494566E+04  0.25500000920E-02 0.  1.
    10030    2    1    2    0    0  0.00000000000E+00  0.00000000000E+00 -0.10755051658E+04  0.24339937474E+04  0.21834867073E+04 0.  0.
        4    1    3    3  502    0  0.45799225133E+03  0.23279843618E+03  0.53606664442E+03  0.74250998264E+03  0.12699999809E+01 0. -1.
       -4    1    3    3    0  502 -0.45799225133E+03 -0.23279843618E+03 -0.16115718102E+04  0.16914837648E+04  0.12699999809E+01 0.  1.
</event>
<event>
 5   0  0.1643565E-04  0.2120351E+04  0.7818609E-02  0.8552331E-01
        1   -1    0    0  501    0  0.00000000000E+00  0.00000000000E+00  0.90085054938E+03  0.90085054939E+03  0.50400001928E-02 0.  1.
       -1   -1    0    0    0  501  0.00000000000E+00  0.00000000000E+00 -0.12476785254E+04  0.12476785255E+04  0.50400001928E-02 0. -1.
    10030    2    1    2    0    0  0.00000000000E+00  0.00000000000E+00 -0.34682797606E+03  0.21485290748E+04  0.21203508060E+04 0.  0.
        2    1    3    3  502    0 -0.17326992821E+03 -0.78591456530E+03 -0.87272151781E+03  0.11871507990E+04  0.25500000920E-02 0. -1.
       -2    1    3    3    0  502  0.17326992821E+03  0.78591456530E+03  0.52589354175E+03  0.96137827582E+03  0.25500000920E-02 0.  1.
</event>
<event>
 5   0  0.3395569E-04  0.1969353E+04  0.7818609E-02  0.8621085E-01
        2   -1    0    0  501    0  0.00000000000E+00  0.00000000000E+00  0.18427443322E+04  0.18427443322E+04  0.25500000920E-02 0. -1.
       -2   -1    0    0    0  501  0.00000000000E+00  0.00000000000E+00 -0.52616497196E+03  0.52616497196E+03  0.25500000920E-02 0.  1.
    10030    2    1    2    0    0  0.00000000000E+00  0.00000000000E+00  0.13165793603E+04  0.23689093042E+04  0.19693527057E+04 0.  0.
        4    1    3    3  502    0 -0.79799498590E+03 -0.57479877023E+03  0.59940612777E+03  0.11517286758E+04  0.12699999809E+01 0.  1.
       -4    1    3    3    0  502  0.79799498590E+03  0.57479877023E+03  0.71717323251E+03  0.12171806284E+04  0.12699999809E+01 0. -1.
</event>
<event>
 5   0  0.3387881E-04  0.2015674E+04  0.7818609E-02  0.8599327E-01
        2   -1    0    0  501    0  0.00000000000E+00  0.00000000000E+00  0.73740640846E+03  0.73740640846E+03  0.25500000920E-02 0.  1.
       -2   -1    0    0    0  501  0.00000000000E+00  0.00000000000E+00 -0.13774432829E+04  0.13774432829E+04  0.25500000920E-02 0. -1.
    10030    2    1    2    0    0  0.00000000000E+00  0.00000000000E+00 -0.64003687448E+03  0.21148496914E+04  0.20156740849E+04 0.  0.
        1    1    3    3  502    0  0.97875265998E+03 -0.23932484491E+03 -0.29650241691E+03  0.10503079711E+04  0.50400001928E-02 0.  1.
       -1    1    3    3    0  502 -0.97875265998E+03  0.23932484491E+03 -0.34353445757E+03  0.10645417204E+04  0.50400001928E-02 0. -1.
</event>
<event>
 5   0  0.3395569E-04  0.1662792E+04  0.7818609E-02  0.8782875E-01
        2   -1    0    0  501    0  0.00000000000E+00  0.00000000000E+00  0.23931417970E+04  0.23931417970E+04  0.25500000920E-02 0. -1.
       -2   -1    0    0    0  501  0.00000000000E+00  0.00000000000E+00 -0.28883339391E+03  0.28883339392E+03  0.25500000920E-02 0.  1.
    10030    2    1    2    0    0  0.00000000000E+00  0.00000000000E+00  0.21043084030E+04  0.26819751909E+04  0.16627919501E+04 0.  0.
        4    1    3    3  502    0  0.56475997079E+03 -0.57753293296E+03  0.13695359467E+04  0.15900089420E+04  0.12699999809E+01 0.  1.
       -4    1    3    3    0  502 -0.56475997079E+03  0.57753293296E+03  0.73477245630E+03  0.10919662489E+04  0.12699999809E+01 0. -1.
</event>
<event>
 5   0  0.1664168E-04  0.1876834E+04  0.7818609E-02  0.8666475E-01
       -1   -1    0    0    0  501  0.00000000000E+00  0.00000000000E+00  0.77812843093E+03  0.77812843094E+03  0.50400001928E-02 0. -1.
        1   -1    0    0  501    0  0.00000000000E+00  0.00000000000E+00 -0.11317232073E+04  0.11317232073E+04  0.50400001928E-02 0.  1.
    10030    2    1    2    0    0  0.00000000000E+00  0.00000000000E+00 -0.35359477636E+03  0.19098516382E+04  0.18768335073E+04 0.  0.
        5    1    3    3  502    0  0.22826994885E+03  0.86181962298E+02  0.74527245882E+03  0.78421146895E+03  0.46999998093E+01 0. -1.
       -5    1    3    3    0  502 -0.22826994885E+03 -0.86181962298E+02 -0.10988672352E+04  0.11256401693E+04  0.46999998093E+01 0.  1.
</event>
<event>
 5   0  0.3460648E-04  0.1894556E+04  0.7818609E-02  0.8657571E-01
       -2   -1    0    0    0  501  0.00000000000E+00  0.00000000000E+00  0.92867250516E+03  0.92867250516E+03  0.25500000920E-02 0. -1.
        2   -1    0    0  501    0  0.00000000000E+00  0.00000000000E+00 -0.96625623253E+03  0.96625623253E+03  0.25500000920E-02 0.  1.
    10030    2    1    2    0    0  0.00000000000E+00  0.00000000000E+00 -0.37583727368E+02  0.18949287377E+04  0.18945559861E+04 0.  0.
        5    1    3    3  502    0 -0.45613020743E+03  0.23075580973E+03  0.77886770622E+03  0.93164371068E+03  0.46999998093E+01 0. -1.
       -5    1    3    3    0  502  0.45613020743E+03 -0.23075580973E+03 -0.81645143359E+03  0.96328502701E+03  0.46999998093E+01 0.  1.
</event>
<event>
 5   0  0.1664168E-04  0.2034394E+04  0.7818609E-02  0.8590707E-01
       -1   -1    0    0    0  501  0.00000000000E+00  0.00000000000E+00  0.98434160029E+03  0.98434160031E+03  0.50400001928E-02 0. -1.
        1   -1    0    0  501    0  0.00000000000E+00  0.00000000000E+00 -0.10511488523E+04  0.10511488523E+04  0.50400001928E-02 0.  1.
    10030    2    1    2    0    0  0.00000000000E+00  0.00000000000E+00 -0.66807252043E+02  0.20354904527E+04  0.20343938099E+04 0.  0.
        5    1    3    3  502    0 -0.80812427854E+03 -0.57183031472E+03  0.20041593913E+03  0.10100709861E+04  0.46999998093E+01 0. -1.
       -5    1    3    3    0  502  0.80812427854E+03  0.57183031472E+03 -0.26722319118E+03  0.10254194665E+04  0.46999998093E+01 0.  1.
</event>
<event>
 5   0  0.1708578E-04  0.2003856E+04  0.7818609E-02  0.8604820E-01
        1   -1    0    0  501    0  0.00000000000E+00  0.00000000000E+00  0.11069544950E+04  0.11069544950E+04  0.50400001928E-02 0. -1.
       -1   -1    0    0    0  501  0.00000000000E+00  0.00000000000E+00 -0.90686604202E+03  0.90686604204E+03  0.50400001928E-02 0.  1.
    10030    2    1    2    0    0  0.00000000000E+00  0.00000000000E+00  0.20008845301E+03  0.20138205371E+04  0.20038557250E+04 0.  0.
        3    1    3    3  502    0 -0.66911431457E+03 -0.65121059338E+03  0.46526610045E+03  0.10431978515E+04  0.10100000352E+00 0. -1.
       -3    1    3    3    0  502  0.66911431457E+03  0.65121059338E+03 -0.26517764744E+03  0.97062268560E+03  0.10100000352E+00 0.  1.
</event>
<event>
 5   0  0.3431030E-04  0.1960474E+04  0.7818609E-02  0.8625327E-01
        2   -1    0    0  501    0  0.00000000000E+00  0.00000000000E+00  0.65937667784E+03  0.65937667784E+03  0.25500000920E-02 0. -1.
       -2   -1    0    0    0  501  0.00000000000E+00  0.00000000000E+00 -0.14572311559E+04  0.14572311559E+04  0.25500000920E-02 0.  1.
    10030    2    1    2    0    0  0.00000000000E+00  0.00000000000E+00 -0.79785447804E+03  0.21166078337E+04  0.19604736554E+04 0.  0.
        3    1    3    3  502    0  0.25252139631E+03 -0.94686791605E+03 -0.37387765513E+03  0.10488614862E+04  0.10100000352E+00 0. -1.
       -3    1    3    3    0  502 -0.25252139631E+03  0.94686791605E+03 -0.42397682290E+03  0.10677463475E+04  0.10100000352E+00 0.  1.
</event>
<event>
 5   0  0.1650221E-04  0.1972132E+04  0.7818609E-02  0.8619762E-01
       -1   -1    0    0    0  501  0.00000000000E+00  0.00000000000E+00  0.54365621331E+03  0.54365621333E+03  0.50400001928E-02 0.  1.
        1   -1    0    0  501    0  0.00000000000E+00  0.00000000000E+00 -0.17884941005E+04  0.17884941005E+04  0.50400001928E-02 0. -1.
    10030    2    1    2    0    0  0.00000000000E+00  0.00000000000E+00 -0.12448378872E+04  0.23321503139E+04  0.19721317707E+04 0.  0.
        1    1    3    3  502    0 -0.27028719553E+03  0.98281433727E+02 -0.17377936933E+04  0.17614316134E+04  0.50400001928E-02 0. -1.
       -1    1    3    3    0  502  0.27028719553E+03 -0.98281433727E+02  0.49295580607E+03  0.57071870045E+03  0.50400001928E-02 0.  1.
</event>
<event>
 5   0  0.1696052E-04  0.1727066E+04  0.7818609E-02  0.8746077E-01
        1   -1    0    0  501    0  0.00000000000E+00  0.00000000000E+00  0.11605832491E+04  0.11605832491E+04  0.50400001928E-02 0. -1.
       -1   -1    0    0    0  501  0.00000000000E+00  0.00000000000E+00 -0.64251234811E+03  0.64251234813E+03  0.50400001928E-02 0.  1.
    10030    2    1    2    0    0  0.00000000000E+00  0.00000000000E+00  0.51807090102E+03  0.18030955973E+04  0.17270657991E+04 0.  0.
        4    1    3    3  502    0  0.36490900788E+03  0.72657169913E+03 -0.44670034073E+02  0.81428621679E+03  0.12699999809E+01 0.  1.
       -4    1    3    3    0  502 -0.36490900788E+03 -0.72657169913E+03  0.56274093509E+03  0.98880938049E+03  0.12699999809E+01 0. -1.
</event>
<event>
 5   0  0.1664168E-04  0.1958378E+04  0.7818609E-02  0.8626331E-01
        1   -1    0    0  501    0  0.00000000000E+00  0.00000000000E+00  0.10735615302E+04  0.10735615302E+04  0.50400001928E-02 0.  1.
       -1   -1    0    0    0  501  0.00000000000E+00  0.00000000000E+00 -0.89311220192E+03  0.89311220194E+03  0.50400001928E-02 0. -1.
    10030    2    1    2    0    0  0.00000000000E+00  0.00000000000E+00  0.18044932823E+03  0.19666737321E+04  0.19583778002E+04 0.  0.
        5    1    3    3  502    0  0.10783448119E+02 -0.53523685527E+03  0.91357215791E+03  0.10588819347E+04  0.46999998093E+01 0.  1.
       -5    1    3    3    0  502 -0.10783448119E+02  0.53523685527E+03 -0.73312282968E+03  0.90779179737E+03  0.46999998093E+01 0. -1.
</event>
<event>
 5   0  0.1650221E-04  0.2060036E+04  0.7818609E-02  0.8579055E-01
       -1   -1    0    0    0  501  0.00000000000E+00  0.00000000000E+00  0.50180506133E+03  0.50180506135E+03  0.50400001928E-02 0.  1.
        1   -1    0    0  501    0  0.00000000000E+00  0.00000000000E+00 -0.21142413008E+04  0.21142413008E+04  0.50400001928E-02 0. -1.
    10030    2    1    2    0    0  0.00000000000E+00  0.00000000000E+00 -0.16124362395E+04  0.26160463622E+04  0.20600359081E+04 0.  0.
        1    1    3    3  502    0 -0.33579877120E+03  0.20488673286E+03  0.40265883652E+03  0.56291520382E+03  0.50400001928E-02 0.  1.
       -1    1    3    3    0  502  0.33579877120E+03 -0.20488673286E+03 -0.20150950760E+04  0.20531311584E+04  0.50400001928E-02 0. -1.
</event>
<event>
 5   0  0.1650221E-04  0.1950703E+04  0.7818609E-02  0.8630022E-01
       -1   -1    0    0    0  501  0.00000000000E+00  0.00000000000E+00  0.45985729568E+03  0.45985729571E+03  0.50400001928E-02 0.  1.
        1   -1    0    0  501    0  0.00000000000E+00  0.00000000000E+00 -0.20687078134E+04  0.20687078134E+04  0.50400001928E-02 0. -1.
    10030    2    1    2    0    0  0.00000000000E+00  0.00000000000E+00 -0.16088505177E+04  0.25285651091E+04  0.19507028279E+04 0.  0.
        1    1    3    3  502    0  0.53012957160E+03 -0.66326744774E+03 -0.18230193177E+03  0.86844404787E+03  0.50400001928E-02 0.  1.
       -1    1    3    3    0  502 -0.53012957160E+03  0.66326744774E+03 -0.14265485860E+04  0.16601210613E+04  0.50400001928E-02 0. -1.
</event>
<event>
 5   0  0.3395569E-04  0.1955831E+04  0.7818609E-02  0.8627554E-01
       -2   -1    0    0    0  501  0.00000000000E+00  0.00000000000E+00  0.61259421566E+03  0.61259421567E+03  0.25500000920E-02 0. -1.
        2   -1    0    0  501    0  0.00000000000E+00  0.00000000000E+00 -0.15610959976E+04  0.15610959976E+04  0.25500000920E-02 0.  1.
    10030    2    1    2    0    0  0.00000000000E+00  0.00000000000E+00 -0.94850178195E+03  0.21736902133E+04  0.19558306453E+04 0.  0.
        4    1    3    3  502    0  0.59890234111E+03  0.41943544626E+03 -0.11959756963E+04  0.14017737288E+04  0.12699999809E+01 0.  1.
       -4    1    3    3    0  502 -0.59890234111E+03 -0.41943544626E+03  0.24747391437E+03  0.77191648445E+03  0.12699999809E+01 0. -1.
</event>
<event>
 5   0  0.1696052E-04  0.1739800E+04  0.7818609E-02  0.8738985E-01
       -1   -1    0    0    0  501  0.00000000000E+00  0.00000000000E+00  0.11924174287E+04  0.11924174287E+04  0.50400001928E-02 0.  1.
        1   -1    0    0  501    0  0.00000000000E+00  0.00000000000E+00 -0.63461522904E+03  0.63461522906E+03  0.50400001928E-02 0. -1.
    10030    2    1    2    0    0  0.00000000000E+00  0.00000000000E+00  0.55780219968E+03  0.18270326578E+04  0.17398002870E+04 0.  0.
        4    1    3    3  502    0 -0.83753867710E+02 -0.68987166549E+02  0.11852818651E+04  0.11902389055E+04  0.12699999809E+01 0.  1.
       -4    1    3    3    0  502  0.83753867710E+02  0.68987166549E+02 -0.62747966544E+03  0.63679375228E+03  0.12699999809E+01 0. -1.
</event>
<event>
 5   0  0.1650221E-04  0.1851812E+04  0.7818609E-02  0.8679222E-01
        1   -1    0    0  501    0  0.00000000000E+00  0.00000000000E+00  0.13658039623E+04  0.13658039623E+04  0.50400001928E-02 0.  1.
       -1   -1    0    0    0  501  0.00000000000E+00  0.00000000000E+00 -0.62769015540E+03  0.62769015542E+03  0.50400001928E-02 0. -1.
    10030    2    1    2    0    0  0.00000000000E+00  0.00000000000E+00  0.73811380687E+03  0.19934941177E+04  0.18518117629E+04 0.  0.
        1    1    3    3  502    0  0.72778261465E+02  0.78173910573E+03 -0.15929904509E+03  0.80111727641E+03  0.50400001928E-02 0. -1.
       -1    1    3    3    0  502 -0.72778261465E+02 -0.78173910573E+03  0.89741285195E+03  0.11923768413E+04  0.50400001928E-02 0.  1.
</event>
<event>
 5   0  0.1708578E-04  0.1977007E+04  0.7818609E-02  0.8617447E-01
        1   -1    0    0  501    0  0.00000000000E+00  0.00000000000E+00  0.11857815176E+04  0.11857815176E+04  0.50400001928E-02 0.  1.
       -1   -1    0    0    0  501  0.00000000000E+00  0.00000000000E+00 -0.82404685421E+03  0.82404685423E+03  0.50400001928E-02 0. -1.
    10030    2    1    2    0    0  0.00000000000E+00  0.00000000000E+00  0.36173466339E+03  0.20098283718E+04  0.19770073641E+04 0.  0.
        3    1    3    3  502    0  0.49825017222E+03 -0.45843377468E+03 -0.55131488180E+03  0.87313393530E+03  0.10100000352E+00 0. -1.
       -3    1    3    3    0  502 -0.49825017222E+03  0.45843377468E+03  0.91304954519E+03  0.11366944365E+04  0.10100000352E+00 0.  1.
</event>
<event>
 5   0  0.1708578E-04  0.2008393E+04  0.7818609E-02  0.8602707E-01
        1   -1    0    0  501    0  0.00000000000E+00  0.00000000000E+00  0.24146531580E+04  0.24146531580E+04  0.50400001928E-02 0.  1.
       -1   -1    0    0    0  501  0.00000000000E+00  0.00000000000E+00 -0.41762118469E+03  0.41762118472E+03  0.50400001928E-02 0. -1.
    10030    2    1    2    0    0  0.00000000000E+00  0.00000000000E+00  0.19970319733E+04  0.28322743428E+04  0.20083927032E+04 0.  0.
        3    1    3    3  502    0 -0.12698778108E+03  0.26411992787E+03 -0.35597391571E+03  0.46108857253E+03  0.10100000352E+00 0. -1.
       -3    1    3    3    0  502  0.12698778108E+03 -0.26411992787E+03  0.23530058890E+04  0.23711857702E+04  0.10100000352E+00 0.  1.
</event>
<event>
 5   0  0.3395569E-04  0.2082099E+04  0.7818609E-02  0.8569170E-01
       -2   -1    0    0    0  501  0.00000000000E+00  0.00000000000E+00  0.16379583294E+04  0.16379583294E+04  0.25500000920E-02 0. -1.
        2   -1    0    0  501    0  0.00000000000E+00  0.00000000000E+00 -0.66166736197E+03  0.66166736198E+03  0.25500000920E-02 0.  1.
    10030    2    1    2    0    0  0.00000000000E+00  0.00000000000E+00  0.97629096740E+03  0.22996256914E+04  0.20820985249E+04 0.  0.
        4    1    3    3  502    0  0.25652846590E+03 -0.89742638496E+02 -0.62179490299E+03  0.67859495228E+03  0.12699999809E+01 0.  1.
       -4    1    3    3    0  502 -0.25652846590E+03  0.89742638496E+02  0.15980858704E+04  0.16210307391E+04  0.12699999809E+01 0. -1.
</event>
<event>
 5   0  0.1643565E-04  0.1725510E+04  0.7818609E-02  0.8746947E-01
        1   -1    0    0  501    0  0.00000000000E+00  0.00000000000E+00  0.10127612535E+04  0.10127612536E+04  0.50400001928E-02 0.  1.
       -1   -1    0    0    0  501  0.00000000000E+00  0.00000000000E+00 -0.73496687771E+03  0.73496687772E+03  0.50400001928E-02 0. -1.
    10030    2    1    2    0    0  0.00000000000E+00  0.00000000000E+00  0.27779437584E+03  0.17477281313E+04  0.17255097524E+04 0.  0.
        2    1    3    3  502    0  0.21110646038E+02 -0.69888851687E+02 -0.73183247453E+03  0.73546507854E+03  0.25500000920E-02 0. -1.
       -2    1    3    3    0  502 -0.21110646038E+02  0.69888851687E+02  0.10096268504E+04  0.10122630527E+04  0.25500000920E-02 0.  1.
</event>
<event>
 5   0  0.1696052E-04  0.1947814E+04  0.7818609E-02  0.8631416E-01
       -1   -1    0    0    0  501  0.00000000000E+00  0.00000000000E+00  0.95440577409E+03  0.95440577410E+03  0.50400001928E-02 0.  1.
        1   -1    0    0  501    0  0.00000000000E+00  0.00000000000E+00 -0.99380661829E+03  0.99380661830E+03  0.50400001928E-02 0. -1.
    10030    2    1    2    0    0  0.00000000000E+00  0.00000000000E+00 -0.39400844203E+02  0.19482123924E+04  0.19478139283E+04 0.  0.
        4    1    3    3  502    0 -0.30443665070E+03 -0.73543361260E+03  0.54161745613E+03  0.96275404674E+03  0.12699999809E+01 0.  1.
       -4    1    3    3    0  502  0.30443665070E+03  0.73543361260E+03 -0.58101830033E+03  0.98545834567E+03  0.12699999809E+01 0. -1.
</event>
<event>
 5   0  0.3395569E-04  0.1984064E+04  0.7818609E-02  0.8614107E-01
        2   -1    0    0  501    0  0.00000000000E+00  0.00000000000E+00  0.18460161939E+04  0.18460161939E+04  0.25500000920E-02 0. -1.
       -2   -1    0    0    0  501  0.00000000000E+00  0.00000000000E+00 -0.53310903090E+03  0.53310903091E+03  0.25500000920E-02 0.  1.
    10030    2    1    2    0    0  0.00000000000E+00  0.00000000000E+00  0.13129071630E+04  0.23791252248E+04  0.19840644184E+04 0.  0.
        4    1    3    3  502    0 -0.57811500663E+02  0.36101855706E+03 -0.44937002047E+03  0.57931994299E+03  0.12699999809E+01 0.  1.
       -4    1    3    3    0  502  0.57811500663E+02 -0.36101855706E+03  0.17622771834E+04  0.17998052818E+04  0.12699999809E+01 0. -1.
</event>
<event>
 5   0  0.3460648E-04  0.1466133E+04  0.7818609E-02  0.8907292E-01
       -2   -1    0    0    0  501  0.00000000000E+00  0.00000000000E+00  0.65447555083E+03  0.65447555083E+03  0.25500000920E-02 0.  1.
        2   -1    0    0  501    0  0.00000000000E+00  0.00000000000E+00 -0.82109456520E+03  0.82109456520E+03  0.25500000920E-02 0. -1.
    10030    2    1    2    0    0  0.00000000000E+00  0.00000000000E+00 -0.16661901437E+03  0.14755701160E+04  0.14661327605E+04 0.  0.
        5    1    3    3  502    0 -0.43349198605E+03 -0.25511084460E+03  0.45338412630E+03  0.67718247244E+03  0.46999998093E+01 0.  1.
       -5    1    3    3    0  502  0.43349198605E+03  0.25511084460E+03 -0.62000314067E+03  0.79838764359E+03  0.46999998093E+01 0. -1.
</event>
<event>
 5   0  0.1696052E-04  0.2016290E+04  0.7818609E-02  0.8599042E-01
        1   -1    0    0  501    0  0.00000000000E+00  0.00000000000E+00  0.85642443073E+03  0.85642443075E+03  0.50400001928E-02 0. -1.
       -1   -1    0    0    0  501  0.00000000000E+00  0.00000000000E+00 -0.11867438419E+04  0.11867438419E+04  0.50400001928E-02 0.  1.
    10030    2    1    2    0    0  0.00000000000E+00  0.00000000000E+00 -0.33031941119E+03  0.20431682727E+04  0.20162900776E+04 0.  0.
        4    1    3    3  502    0 -0.57204940267E+03 -0.61398894661E+03 -0.73129492565E+03  0.11131113272E+04  0.12699999809E+01 0.  1.
       -4    1    3    3    0  502  0.57204940267E+03  0.61398894661E+03  0.40097551446E+03  0.93005694544E+03  0.12699999809E+01 0. -1.
</event>
<event>
 5   0  0.3395569E-04  0.2005811E+04  0.7818609E-02  0.8603908E-01
        2   -1    0    0  501    0  0.00000000000E+00  0.00000000000E+00  0.12044957802E+04  0.12044957802E+04  0.25500000920E-02 0.  1.
       -2   -1    0    0    0  501  0.00000000000E+00  0.00000000000E+00 -0.83505468174E+03  0.83505468174E+03  0.25500000920E-02 0. -1.
    10030    2    1    2    0    0  0.00000000000E+00  0.00000000000E+00  0.36944109845E+03  0.20395504619E+04  0.20058113973E+04 0.  0.
        4    1    3    3  502    0  0.12617509127E+03  0.94002943734E+03 -0.14671109603E+03  0.95974020199E+03  0.12699999809E+01 0. -1.
       -4    1    3    3    0  502 -0.12617509127E+03 -0.94002943734E+03  0.51615219448E+03  0.10798102599E+04  0.12699999809E+01 0.  1.
</event>
<event>
 5   0  0.3431030E-04  0.1718251E+04  0.7818609E-02  0.8751023E-01
       -2   -1    0    0    0  501  0.00000000000E+00  0.00000000000E+00  0.59256772675E+03  0.59256772675E+03  0.25500000920E-02 0. -1.
        2   -1    0    0  501    0  0.00000000000E+00  0.00000000000E+00 -0.12455900673E+04  0.12455900673E+04  0.25500000920E-02 0.  1.
    10030    2    1    2    0    0  0.00000000000E+00  0.00000000000E+00 -0.65302234060E+03  0.18381577941E+04  0.17182508253E+04 0.  0.
        3    1    3    3  502    0  0.59170559140E+03  0.50254029640E+03 -0.72020663805E+03  0.10589428068E+04  0.10100000352E+00 0.  1.
       -3    1    3    3    0  502 -0.59170559140E+03 -0.50254029640E+03  0.67184297449E+02  0.77921498729E+03  0.10100000352E+00 0. -1.
</event>
<event>
 5   0  0.1664168E-04  0.1208443E+04  0.7818609E-02  0.9105498E-01
       -1   -1    0    0    0  501  0.00000000000E+00  0.00000000000E+00  0.50283791464E+03  0.50283791467E+03  0.50400001928E-02 0.  1.
        1   -1    0    0  501    0  0.00000000000E+00  0.00000000000E+00 -0.72604690814E+03  0.72604690816E+03  0.50400001928E-02 0. -1.
    10030    2    1    2    0    0  0.00000000000E+00  0.00000000000E+00 -0.22320899350E+03  0.12288848228E+04  0.12084434836E+04 0.  0.
        5    1    3    3  502    0  0.23217386102E+03  0.46434868932E+03 -0.42592418300E+03  0.67153399518E+03  0.46999998093E+01 0. -1.
       -5    1    3    3    0  502 -0.23217386102E+03 -0.46434868932E+03  0.20271518951E+03  0.55735082764E+03  0.46999998093E+01 0.  1.
</event>
<event>
 5   0  0.3371947E-04  0.2048415E+04  0.7818609E-02  0.8584314E-01
       -2   -1    0    0    0  501  0.00000000000E+00  0.00000000000E+00  0.53876006870E+03  0.53876006870E+03  0.25500000920E-02 0.  1.
        2   -1    0    0  501    0  0.00000000000E+00  0.00000000000E+00 -0.19470648698E+04  0.19470648698E+04  0.25500000920E-02 0. -1.
    10030    2    1    2    0    0  0.00000000000E+00  0.00000000000E+00 -0.14083048011E+04  0.24858249385E+04  0.20484148047E+04 0.  0.
        2    1    3    3  502    0 -0.41956626253E+03 -0.85407076971E+03 -0.11639016875E+04  0.15033761560E+04  0.25500000920E-02 0. -1.
       -2    1    3    3    0  502  0.41956626253E+03  0.85407076971E+03 -0.24440311365E+03  0.98244878253E+03  0.25500000920E-02 0.  1.
</event>
<event>
 5   0  0.1222488E-04  0.1916371E+04  0.7818609E-02  0.8646750E-01
        3   -1    0    0  501    0  0.00000000000E+00  0.00000000000E+00  0.66706897714E+03  0.66706898479E+03  0.10100000352E+00 0. -1.
       -3   -1    0    0    0  501  0.00000000000E+00  0.00000000000E+00 -0.13763485062E+04  0.13763485099E+04  0.10100000352E+00 0.  1.
    10030    2    1    2    0    0  0.00000000000E+00  0.00000000000E+00 -0.70927952907E+03  0.20434174947E+04  0.19163709472E+04 0.  0.
        4    1    3    3  502    0  0.44180904133E+03 -0.78524023411E+03 -0.70232455798E+03  0.11423917244E+04  0.12699999809E+01 0. -1.
       -4    1    3    3    0  502 -0.44180904133E+03  0.78524023411E+03 -0.69549710903E+01  0.90102577033E+03  0.12699999809E+01 0.  1.
</event>
<event>
 5   0  0.3371947E-04  0.1992095E+04  0.7818609E-02  0.8610325E-01
       -2   -1    0    0    0  501  0.00000000000E+00  0.00000000000E+00  0.52136434497E+03  0.52136434497E+03  0.25500000920E-02 0. -1.
        2   -1    0    0  501    0  0.00000000000E+00  0.00000000000E+00 -0.19029120763E+04  0.19029120763E+04  0.25500000920E-02 0.  1.
    10030    2    1    2    0    0  0.00000000000E+00  0.00000000000E+00 -0.13815477314E+04  0.24242764213E+04  0.19920948855E+04 0.  0.
        2    1    3    3  502    0  0.44979844861E+02 -0.70454067444E+03  0.16430854579E+03  0.72484346352E+03  0.25500000920E-02 0. -1.
       -2    1    3    3    0  502 -0.44979844861E+02  0.70454067444E+03 -0.15458562771E+04  0.16994329578E+04  0.25500000920E-02 0.  1.
</event>
<event>
 5   0  0.1708578E-04  0.2010038E+04  0.7818609E-02  0.8601942E-01
        1   -1    0    0  501    0  0.00000000000E+00  0.00000000000E+00  0.67559658174E+03  0.67559658176E+03  0.50400001928E-02 0. -1.
       -1   -1    0    0    0  501  0.00000000000E+00  0.00000000000E+00 -0.14950681356E+04  0.14950681356E+04  0.50400001928E-02 0.  1.
    10030    2    1    2    0    0  0.00000000000E+00  0.00000000000E+00 -0.81947155382E+03  0.21706647173E+04  0.20100377329E+04 0.  0.
        3    1    3    3  502    0  0.13769092594E+03  0.23091334684E+03  0.63604281896E+03  0.69052895854E+03  0.10100000352E+00 0. -1.
       -3    1    3    3    0  502 -0.13769092594E+03 -0.23091334684E+03 -0.14555143728E+04  0.14801357588E+04  0.10100000352E+00 0.  1.
</event>
<event>
 5   0  0.3431030E-04  0.2075830E+04  0.7818609E-02  0.8571966E-01
       -2   -1    0    0    0  501  0.00000000000E+00  0.00000000000E+00  0.17813630478E+04  0.17813630478E+04  0.25500000920E-02 0.  1.
        2   -1    0    0  501    0  0.00000000000E+00  0.00000000000E+00 -0.60474341891E+03  0.60474341892E+03  0.25500000920E-02 0. -1.
    10030    2    1    2    0    0  0.00000000000E+00  0.00000000000E+00  0.11766196289E+04  0.23861064667E+04  0.20758300315E+04 0.  0.
        3    1    3    3  502    0 -0.96435339994E+03  0.13509154071E+03  0.17539466309E+03  0.98943948899E+03  0.10100000352E+00 0. -1.
       -3    1    3    3    0  502  0.96435339994E+03 -0.13509154071E+03  0.10012249658E+04  0.13966669777E+04  0.10100000352E+00 0.  1.
</event>
<event>
 5   0  0.1696052E-04  0.1920793E+04  0.7818609E-02  0.8644575E-01
       -1   -1    0    0    0  501  0.00000000000E+00  0.00000000000E+00  0.12520490427E+04  0.12520490427E+04  0.50400001928E-02 0. -1.
        1   -1    0    0  501    0  0.00000000000E+00  0.00000000000E+00 -0.73668120932E+03  0.73668120934E+03  0.50400001928E-02 0.  1.
    10030    2    1    2    0    0  0.00000000000E+00  0.00000000000E+00  0.51536783338E+03  0.19887302521E+04  0.19207925478E+04 0.  0.
        4    1    3    3  502    0 -0.64748887513E+03  0.54473614152E+03 -0.21267492173E+03  0.87247437930E+03  0.12699999809E+01 0. -1.
       -4    1    3    3    0  502  0.64748887513E+03 -0.54473614152E+03  0.72804275512E+03  0.11162558728E+04  0.12699999809E+01 0.  1.
</event>
<event>
 5   0  0.1650221E-04  0.1909773E+04  0.7818609E-02  0.8650007E-01
        1   -1    0    0  501    0  0.00000000000E+00  0.00000000000E+00  0.13383077276E+04  0.13383077276E+04  0.50400001928E-02 0.  1.
       -1   -1    0    0    0  501  0.00000000000E+00  0.00000000000E+00 -0.68131444029E+03  0.68131444031E+03  0.50400001928E-02 0. -1.
    10030    2    1    2    0    0  0.00000000000E+00  0.00000000000E+00  0.65699328726E+03  0.20196221679E+04  0.19097731597E+04 0.  0.
        1    1    3    3  502    0 -0.54659987248E+03  0.76152320678E+03  0.52095170903E+03  0.10724176883E+04  0.50400001928E-02 0.  1.
       -1    1    3    3    0  502  0.54659987248E+03 -0.76152320678E+03  0.13604157823E+03  0.94720447955E+03  0.50400001928E-02 0. -1.
</event>
<event>
 5   0  0.3371947E-04  0.1966111E+04  0.7818609E-02  0.8622631E-01
       -2   -1    0    0    0  501  0.00000000000E+00  0.00000000000E+00  0.71818713478E+03  0.71818713478E+03  0.25500000920E-02 0.  1.
        2   -1    0    0  501    0  0.00000000000E+00  0.00000000000E+00 -0.13456078432E+04  0.13456078432E+04  0.25500000920E-02 0. -1.
    10030    2    1    2    0    0  0.00000000000E+00  0.00000000000E+00 -0.62742070841E+03  0.20637949780E+04  0.19661111275E+04 0.  0.
        2    1    3    3  502    0  0.38115762204E+03 -0.53275176781E+03 -0.10831311940E+04  0.12658115035E+04  0.25500000920E-02 0. -1.
       -2    1    3    3    0  502 -0.38115762204E+03  0.53275176781E+03  0.45571048555E+03  0.79798347451E+03  0.25500000920E-02 0.  1.
</event>
<event>
 5   0  0.1708578E-04  0.1876829E+04  0.7818609E-02  0.8666477E-01
        1   -1    0    0  501    0  0.00000000000E+00  0.00000000000E+00  0.16288913785E+04  0.16288913785E+04  0.50400001928E-02 0.  1.
       -1   -1    0    0    0  501  0.00000000000E+00  0.00000000000E+00 -0.54062654496E+03  0.54062654499E+03  0.50400001928E-02 0. -1.
    10030    2    1    2    0    0  0.00000000000E+00  0.00000000000E+00  0.10882648336E+04  0.21695179235E+04  0.18768291538E+04 0.  0.
        3    1    3    3  502    0 -0.59329527677E+02 -0.54607813138E+03 -0.33537700733E+03  0.64358299051E+03  0.10100000352E+00 0. -1.
       -3    1    3    3    0  502  0.59329527677E+02  0.54607813138E+03  0.14236418409E+04  0.15259349330E+04  0.10100000352E+00 0.  1.
</event>
<event>
 5   0  0.3395569E-04  0.1912221E+04  0.7818609E-02  0.8648797E-01
       -2   -1    0    0    0  501  0.00000000000E+00  0.00000000000E+00  0.11526049692E+04  0.11526049692E+04  0.25500000920E-02 0. -1.
        2   -1    0    0  501    0  0.00000000000E+00  0.00000000000E+00 -0.79311400268E+03  0.79311400268E+03  0.25500000920E-02 0.  1.
    10030    2    1    2    0    0  0.00000000000E+00  0.00000000000E+00  0.35949096650E+03  0.19457189719E+04  0.19122208456E+04 0.  0.
        4    1    3    3  502    0 -0.32771992494E+02 -0.79904123735E+03 -0.35346169723E+03  0.87434414665E+03  0.12699999809E+01 0. -1.
       -4    1    3    3    0  502  0.32771992494E+02  0.79904123735E+03  0.71295266373E+03  0.10713748252E+04  0.12699999809E+01 0.  1.
</event>
<event>
 5   0  0.3431030E-04  0.1984060E+04  0.7818609E-02  0.8614109E-01
        2   -1    0    0  501    0  0.00000000000E+00  0.00000000000E+00  0.12610282832E+04  0.12610282832E+04  0.25500000920E-02 0.  1.
       -2   -1    0    0    0  501  0.00000000000E+00  0.00000000000E+00 -0.78041367942E+03  0.78041367942E+03  0.25500000920E-02 0. -1.
    10030    2    1    2    0    0  0.00000000000E+00  0.00000000000E+00  0.48061460382E+03  0.20414419627E+04  0.19840602031E+04 0.  0.
        3    1    3    3  502    0 -0.79959628891E+03 -0.58006483793E+03  0.33401414247E+03  0.10427822874E+04  0.10100000352E+00 0. -1.
       -3    1    3    3    0  502  0.79959628891E+03  0.58006483793E+03  0.14660046134E+03  0.99865967522E+03  0.10100000352E+00 0.  1.
</event>
<event>
 5   0  0.3460648E-04  0.1149538E+04  0.7818609E-02  0.9158210E-01
        2   -1    0    0  501    0  0.00000000000E+00  0.00000000000E+00  0.90219675895E+03  0.90219675896E+03  0.25500000920E-02 0.  1.
       -2   -1    0    0    0  501  0.00000000000E+00  0.00000000000E+00 -0.36617227354E+03  0.36617227355E+03  0.25500000920E-02 0. -1.
    10030    2    1    2    0    0  0.00000000000E+00  0.00000000000E+00  0.53602448542E+03  0.12683690325E+04  0.11495380610E+04 0.  0.
        5    1    3    3  502    0  0.38261292303E+03 -0.41249277043E+03  0.39760296218E+03  0.68895075300E+03  0.46999998093E+01 0. -1.
       -5    1    3    3    0  502 -0.38261292303E+03  0.41249277043E+03  0.13842152324E+03  0.57941827950E+03  0.46999998093E+01 0.  1.
</event>
<event>
 5   0  0.1696052E-04  0.1992135E+04  0.7818609E-02  0.8610307E-01
       -1   -1    0    0    0  501  0.00000000000E+00  0.00000000000E+00  0.73743498542E+03  0.73743498544E+03  0.50400001928E-02 0. -1.
        1   -1    0    0  501    0  0.00000000000E+00  0.00000000000E+00 -0.13454070621E+04  0.13454070622E+04  0.50400001928E-02 0.  1.
    10030    2    1    2    0    0  0.00000000000E+00  0.00000000000E+00 -0.60797207672E+03  0.20828420476E+04  0.19921347718E+04 0.  0.
        4    1    3    3  502    0  0.41156862412E+02  0.74559410546E+02  0.73362056283E+03  0.73854839796E+03  0.12699999809E+01 0. -1.
       -4    1    3    3    0  502 -0.41156862412E+02 -0.74559410546E+02 -0.13415926396E+04  0.13442936496E+04  0.12699999809E+01 0.  1.
</event>
<event>
 5   0  0.1708578E-04  0.1461272E+04  0.7818609E-02  0.8910623E-01
       -1   -1    0    0    0  501  0.00000000000E+00  0.00000000000E+00  0.37433698456E+03  0.37433698459E+03  0.50400001928E-02 0. -1.
        1   -1    0    0  501    0  0.00000000000E+00  0.00000000000E+00 -0.14260650029E+04  0.14260650029E+04  0.50400001928E-02 0.  1.
    10030    2    1    2    0    0  0.00000000000E+00  0.00000000000E+00 -0.10517280184E+04  0.18004019875E+04  0.14612718748E+04 0.  0.
        3    1    3    3  502    0  0.11560691122E+03  0.20754246672E+02 -0.14143569456E+04  0.14192255904E+04  0.10100000352E+00 0.  1.
       -3    1    3    3    0  502 -0.11560691122E+03 -0.20754246672E+02  0.36262892722E+03  0.38117639714E+03  0.10100000352E+00 0. -1.
</event>
<event>
 5   0  0.1664168E-04  0.1838252E+04  0.7818609E-02  0.8686218E-01
       -1   -1    0    0    0  501  0.00000000000E+00  0.00000000000E+00  0.49733043861E+03  0.49733043864E+03  0.50400001928E-02 0. -1.
        1   -1    0    0  501    0  0.00000000000E+00  0.00000000000E+00 -0.16986537660E+04  0.16986537660E+04  0.50400001928E-02 0.  1.
    10030    2    1    2    0    0  0.00000000000E+00  0.00000000000E+00 -0.12013233274E+04  0.21959842046E+04  0.18382515851E+04 0.  0.
        5    1    3    3  502    0 -0.84138569315E+03 -0.33734095177E+03 -0.41932816703E+03  0.99879277333E+03  0.46999998093E+01 0. -1.
       -5    1    3    3    0  502  0.84138569315E+03  0.33734095177E+03 -0.78199516034E+03  0.11971914313E+04  0.46999998093E+01 0.  1.
</event>
<event>
 5   0  0.3395569E-04  0.1656493E+04  0.7818609E-02  0.8786575E-01
        2   -1    0    0  501    0  0.00000000000E+00  0.00000000000E+00  0.10018373918E+04  0.10018373919E+04  0.25500000920E-02 0.  1.
       -2   -1    0    0    0  501  0.00000000000E+00  0.00000000000E+00 -0.68473408477E+03  0.68473408477E+03  0.25500000920E-02 0. -1.
    10030    2    1    2    0    0  0.00000000000E+00  0.00000000000E+00  0.31710330708E+03  0.16865714766E+04  0.16564929334E+04 0.  0.
        4    1    3    3  502    0 -0.53507497242E+03  0.44934349334E+03  0.61134676961E+03  0.92841870227E+03  0.12699999809E+01 0. -1.
       -4    1    3    3    0  502  0.53507497242E+03 -0.44934349334E+03 -0.29424346253E+03  0.75815277435E+03  0.12699999809E+01 0.  1.
</event>
<event>
 5   0  0.3387881E-04  0.1978750E+04  0.7818609E-02  0.8616620E-01
       -2   -1    0    0    0  501  0.00000000000E+00  0.00000000000E+00  0.69040074965E+03  0.69040074965E+03  0.25500000920E-02 0. -1.
        2   -1    0    0  501    0  0.00000000000E+00  0.00000000000E+00 -0.14178188958E+04  0.14178188958E+04  0.25500000920E-02 0.  1.
    10030    2    1    2    0    0  0.00000000000E+00  0.00000000000E+00 -0.72741814613E+03  0.21082196454E+04  0.19787503415E+04 0.  0.
        1    1    3    3  502    0 -0.27471520690E+03  0.21351100998E+03 -0.13504879782E+04  0.13945870986E+04  0.50400001928E-02 0.  1.
       -1    1    3    3    0  502  0.27471520690E+03 -0.21351100998E+03  0.62306983205E+03  0.71363254685E+03  0.50400001928E-02 0. -1.
</event>
<event>
 5   0  0.3460648E-04  0.1992211E+04  0.7818609E-02  0.8610271E-01
        2   -1    0    0  501    0  0.00000000000E+00  0.00000000000E+00  0.92425222135E+03  0.92425222135E+03  0.25500000920E-02 0. -1.
       -2   -1    0    0    0  501  0.00000000000E+00  0.00000000000E+00 -0.10735447423E+04  0.10735447423E+04  0.25500000920E-02 0.  1.
    10030    2    1    2    0    0  0.00000000000E+00  0.00000000000E+00 -0.14929252093E+03  0.19977969636E+04  0.19922109454E+04 0.  0.
        5    1    3    3  502    0 -0.57198428306E+03 -0.11316866570E+03  0.73522632321E+03  0.93837785742E+03  0.46999998093E+01 0. -1.
       -5    1    3    3    0  502  0.57198428306E+03  0.11316866570E+03 -0.88451884414E+03  0.10594191062E+04  0.46999998093E+01 0.  1.
</event>
<event>
 5   0  0.3395569E-04  0.2023413E+04  0.7818609E-02  0.8595752E-01
       -2   -1    0    0    0  501  0.00000000000E+00  0.00000000000E+00  0.78323982837E+03  0.78323982838E+03  0.25500000920E-02 0. -1.
        2   -1    0    0  501    0  0.00000000000E+00  0.00000000000E+00 -0.13068156146E+04  0.13068156146E+04  0.25500000920E-02 0.  1.
    10030    2    1    2    0    0  0.00000000000E+00  0.00000000000E+00 -0.52357578623E+03  0.20900554430E+04  0.20234129956E+04 0.  0.
        4    1    3    3  502    0 -0.10784796697E+03 -0.75130062368E+03 -0.95274743706E+03  0.12181186735E+04  0.12699999809E+01 0.  1.
       -4    1    3    3    0  502  0.10784796697E+03  0.75130062368E+03  0.42917165083E+03  0.87193676944E+03  0.12699999809E+01 0. -1.
</event>
<event>
 5   0  0.3371947E-04  0.2066374E+04  0.7818609E-02  0.8576202E-01
        2   -1    0    0  501    0  0.00000000000E+00  0.00000000000E+00  0.13836505413E+04  0.13836505413E+04  0.25500000920E-02 0.  1.
       -2   -1    0    0    0  501  0.00000000000E+00  0.00000000000E+00 -0.77149239548E+03  0.77149239548E+03  0.25500000920E-02 0. -1.
    10030    2    1    2    0    0  0.00000000000E+00  0.00000000000E+00  0.61215814580E+03  0.21551429368E+04  0.20663744778E+04 0.  0.
        2    1    3    3  502    0  0.60832560507E+03  0.82465487888E+03  0.16866098340E+03  0.10385385108E+04  0.25500000920E-02 0.  1.
       -2    1    3    3    0  502 -0.60832560507E+03 -0.82465487888E+03  0.44349716240E+03  0.11166044260E+04  0.25500000920E-02 0. -1.
</event>
<event>
 5   0  0.3460648E-04  0.2030534E+04  0.7818609E-02  0.8592476E-01
       -2   -1    0    0    0  501  0.00000000000E+00  0.00000000000E+00  0.48533036292E+03  0.48533036293E+03  0.25500000920E-02 0.  1.
        2   -1    0    0  501    0  0.00000000000E+00  0.00000000000E+00 -0.21238469170E+04  0.21238469170E+04  0.25500000920E-02 0. -1.
    10030    2    1    2    0    0  0.00000000000E+00  0.00000000000E+00 -0.16385165541E+04  0.26091772799E+04  0.20305343090E+04 0.  0.
        5    1    3    3  502    0 -0.70202601744E+03 -0.37438048946E+03 -0.16296501710E+04  0.18135002206E+04  0.46999998093E+01 0. -1.
       -5    1    3    3    0  502  0.70202601744E+03  0.37438048946E+03 -0.88663830400E+01  0.79567705936E+03  0.46999998093E+01 0.  1.
</event>
<event>
 5   0  0.3460648E-04  0.2043759E+04  0.7818609E-02  0.8586431E-01
       -2   -1    0    0    0  501  0.00000000000E+00  0.00000000000E+00  0.10571495423E+04  0.10571495423E+04  0.25500000920E-02 0.  1.
        2   -1    0    0  501    0  0.00000000000E+00  0.00000000000E+00 -0.98778579309E+03  0.98778579309E+03  0.25500000920E-02 0. -1.
    10030    2    1    2    0    0  0.00000000000E+00  0.00000000000E+00  0.69363749179E+02  0.20449353354E+04  0.20437585954E+04 0.  0.
        5    1    3    3  502    0 -0.98078185374E+02  0.79304282518E+03  0.67197791889E+03  0.10440846070E+04  0.46999998093E+01 0.  1.
       -5    1    3    3    0  502  0.98078185374E+02 -0.79304282518E+03 -0.60261416971E+03  0.10008507284E+04  0.46999998093E+01 0. -1.
</event>
<event>
 5   0  0.1643565E-04  0.2071230E+04  0.7818609E-02  0.8574024E-01
       -1   -1    0    0    0  501  0.00000000000E+00  0.00000000000E+00  0.71349257036E+03  0.71349257038E+03  0.50400001928E-02 0. -1.
        1   -1    0    0  501    0  0.00000000000E+00  0.00000000000E+00 -0.15031662214E+04  0.15031662214E+04  0.50400001928E-02 0.  1.
    10030    2    1    2    0    0  0.00000000000E+00  0.00000000000E+00 -0.78967365104E+03  0.22166587918E+04  0.20712295199E+04 0.  0.
        2    1    3    3  502    0  0.18349689225E+03  0.98273114431E+02  0.69087361537E+03  0.72155046040E+03  0.25500000920E-02 0. -1.
       -2    1    3    3    0  502 -0.18349689225E+03 -0.98273114431E+02 -0.14805472664E+04  0.14951083314E+04  0.25500000920E-02 0.  1.
</event>
<event>
 5   0  0.1643565E-04  0.2191975E+04  0.7818609E-02  0.8521776E-01
        1   -1    0    0  501    0  0.00000000000E+00  0.00000000000E+00  0.83034648379E+03  0.83034648380E+03  0.50400001928E-02 0.  1.
       -1   -1    0    0    0  501  0.00000000000E+00  0.00000000000E+00 -0.14466111273E+04  0.14466111273E+04  0.50400001928E-02 0. -1.
    10030    2    1    2    0    0  0.00000000000E+00  0.00000000000E+00 -0.61626464351E+03  0.22769576111E+04  0.21919748748E+04 0.  0.
        2    1    3    3  502    0 -0.37099313500E+03  0.67594783478E+03 -0.11172048034E+04  0.13574564282E+04  0.25500000920E-02 0. -1.
       -2    1    3    3    0  502  0.37099313500E+03 -0.67594783478E+03  0.50094015993E+03  0.91950118293E+03  0.25500000920E-02 0.  1.
</event>
<event>
 5   0  0.1643565E-04  0.1973440E+04  0.7818609E-02  0.8619140E-01
        1   -1    0    0  501    0  0.00000000000E+00  0.00000000000E+00  0.92344369610E+03  0.92344369611E+03  0.50400001928E-02 0. -1.
       -1   -1    0    0    0  501  0.00000000000E+00  0.00000000000E+00 -0.10543318568E+04  0.10543318568E+04  0.50400001928E-02 0.  1.
    10030    2    1    2    0    0  0.00000000000E+00  0.00000000000E+00 -0.13088816066E+03  0.19777755529E+04  0.19734397449E+04 0.  0.
        2    1    3    3  502    0  0.49788408257E+03  0.54659536907E+03  0.58941410814E+03  0.94554960105E+03  0.25500000920E-02 0. -1.
       -2    1    3    3    0  502 -0.49788408257E+03 -0.54659536907E+03 -0.72030226880E+03  0.10322259518E+04  0.25500000920E-02 0.  1.
</event>
<event>
 5   0  0.1664168E-04  0.1988842E+04  0.7818609E-02  0.8611855E-01
       -1   -1    0    0    0  501  0.00000000000E+00  0.00000000000E+00  0.61876780763E+03  0.61876780765E+03  0.50400001928E-02 0. -1.
        1   -1    0    0  501    0  0.00000000000E+00  0.00000000000E+00 -0.15981324444E+04  0.15981324444E+04  0.50400001928E-02 0.  1.
    10030    2    1    2    0    0  0.00000000000E+00  0.00000000000E+00 -0.97936463676E+03  0.22169002521E+04  0.19888417825E+04 0.  0.
        5    1    3    3  502    0  0.29821319006E+03 -0.74502717666E+03  0.16489912415E+03  0.81927432026E+03  0.46999998093E+01 0. -1.
       -5    1    3    3    0  502 -0.29821319006E+03  0.74502717666E+03 -0.11442637609E+04  0.13976259318E+04  0.46999998093E+01 0.  1.
</event>
<event>
 5   0  0.3431030E-04  0.2041623E+04  0.7818609E-02  0.8587404E-01
       -2   -1    0    0    0  501  0.00000000000E+00  0.00000000000E+00  0.85233337361E+03  0.85233337362E+03  0.25500000920E-02 0. -1.
        2   -1    0    0  501    0  0.00000000000E+00  0.00000000000E+00 -0.12225917715E+04  0.12225917715E+04  0.25500000920E-02 0.  1.
    10030    2    1    2    0    0  0.00000000000E+00  0.00000000000E+00 -0.37025839792E+03  0.20749251452E+04  0.20416226578E+04 0.  0.
        3    1    3    3  502    0 -0.74661232044E+03 -0.22984859704E+03  0.48270087873E+03  0.91829215565E+03  0.10100000352E+00 0. -1.
       -3    1    3    3    0  502  0.74661232044E+03  0.22984859704E+03 -0.85295927665E+03  0.11566329895E+04  0.10100000352E+00 0.  1.
</event>
<event>
 5   0  0.1650221E-04  0.1994028E+04  0.7818609E-02  0.8609418E-01
        1   -1    0    0  501    0  0.00000000000E+00  0.00000000000E+00  0.58681851161E+03  0.58681851163E+03  0.50400001928E-02 0. -1.
       -1   -1    0    0    0  501  0.00000000000E+00  0.00000000000E+00 -0.16939434505E+04  0.16939434505E+04  0.50400001928E-02 0.  1.
    10030    2    1    2    0    0  0.00000000000E+00  0.00000000000E+00 -0.11071249389E+04  0.22807619621E+04  0.19940284596E+04 0.  0.
        1    1    3    3  502    0 -0.44766420699E+03  0.71602222245E+03  0.52699427958E+02  0.84609000408E+03  0.50400001928E-02 0. -1.
       -1    1    3    3    0  502  0.44766420699E+03 -0.71602222245E+03 -0.11598243668E+04  0.14346719580E+04  0.50400001928E-02 0.  1.
</event>
<event>
 5   0  0.1643565E-04  0.1866355E+04  0.7818609E-02  0.8671787E-01
        1   -1    0    0  501    0  0.00000000000E+00  0.00000000000E+00  0.59247812811E+03  0.59247812813E+03  0.50400001928E-02 0.  1.
       -1   -1    0    0    0  501  0.00000000000E+00  0.00000000000E+00 -0.14697933917E+04  0.14697933917E+04  0.50400001928E-02 0. -1.
    10030    2    1    2    0    0  0.00000000000E+00  0.00000000000E+00 -0.87731526358E+03  0.20622715198E+04  0.18663552046E+04 0.  0.
        2    1    3    3  502    0  0.12277652402E+03 -0.64066032882E+03 -0.11760153553E+04  0.13448166595E+04  0.25500000920E-02 0. -1.
       -2    1    3    3    0  502 -0.12277652402E+03  0.64066032882E+03  0.29870009174E+03  0.71745486031E+03  0.25500000920E-02 0.  1.
</event>
<event>
 5   0  0.1664168E-04  0.2025802E+04  0.7818609E-02  0.8594652E-01
        1   -1    0    0  501    0  0.00000000000E+00  0.00000000000E+00  0.12376601063E+04  0.12376601063E+04  0.50400001928E-02 0. -1.
       -1   -1    0    0    0  501  0.00000000000E+00  0.00000000000E+00 -0.82895809539E+03  0.82895809541E+03  0.50400001928E-02 0.  1.
    10030    2    1    2    0    0  0.00000000000E+00  0.00000000000E+00  0.40870201089E+03  0.20666182017E+04  0.20258019296E+04 0.  0.
        5    1    3    3  502    0 -0.94189678238E+03 -0.37036600359E+03  0.24523018084E+03  0.10413935168E+04  0.46999998093E+01 0. -1.
       -5    1    3    3    0  502  0.94189678238E+03  0.37036600359E+03  0.16347183005E+03  0.10252246849E+04  0.46999998093E+01 0.  1.
</event>
<event>
 5   0  0.3371947E-04  0.2021913E+04  0.7818609E-02  0.8596443E-01
       -2   -1    0    0    0  501  0.00000000000E+00  0.00000000000E+00  0.81553164737E+03  0.81553164737E+03  0.25500000920E-02 0. -1.
        2   -1    0    0  501    0  0.00000000000E+00  0.00000000000E+00 -0.12532113329E+04  0.12532113329E+04  0.25500000920E-02 0.  1.
    10030    2    1    2    0    0  0.00000000000E+00  0.00000000000E+00 -0.43767968554E+03  0.20687429803E+04  0.20219134530E+04 0.  0.
        2    1    3    3  502    0  0.16667889482E+03  0.85157790675E+03 -0.74957024447E+03  0.11466570266E+04  0.25500000920E-02 0.  1.
       -2    1    3    3    0  502 -0.16667889482E+03 -0.85157790675E+03  0.31189055893E+03  0.92208595369E+03  0.25500000920E-02 0. -1.
</event>
<event>
 5   0  0.3395569E-04  0.1919983E+04  0.7818609E-02  0.8644973E-01
       -2   -1    0    0    0  501  0.00000000000E+00  0.00000000000E+00  0.38545525875E+03  0.38545525876E+03  0.25500000920E-02 0.  1.
        2   -1    0    0  501    0  0.00000000000E+00  0.00000000000E+00 -0.23908961446E+04  0.23908961446E+04  0.25500000920E-02 0. -1.
    10030    2    1    2    0    0  0.00000000000E+00  0.00000000000E+00 -0.20054408859E+04  0.27763514034E+04  0.19199828042E+04 0.  0.
        4    1    3    3  502    0  0.62452628020E+03  0.21685926457E+03  0.38248827969E+01  0.66111818756E+03  0.12699999809E+01 0. -1.
       -4    1    3    3    0  502 -0.62452628020E+03 -0.21685926457E+03 -0.20092657687E+04  0.21152332158E+04  0.12699999809E+01 0.  1.
</event>
<event>
 5   0  0.1708578E-04  0.2104503E+04  0.7818609E-02  0.8559263E-01
       -1   -1    0    0    0  501  0.00000000000E+00  0.00000000000E+00  0.10387659862E+04  0.10387659862E+04  0.50400001928E-02 0.  1.
        1   -1    0    0  501    0  0.00000000000E+00  0.00000000000E+00 -0.10659116138E+04  0.10659116138E+04  0.50400001928E-02 0. -1.
    10030    2    1    2    0    0  0.00000000000E+00  0.00000000000E+00 -0.27145627607E+02  0.21046776000E+04  0.21045025338E+04 0.  0.
        3    1    3    3  502    0  0.39887608138E+03  0.92006372424E+03 -0.33236779494E+03  0.10564505413E+04  0.10100000352E+00 0. -1.
       -3    1    3    3    0  502 -0.39887608138E+03 -0.92006372424E+03  0.30522216733E+03  0.10482270587E+04  0.10100000352E+00 0.  1.
</event>
<event>
 5   0  0.3371947E-04  0.1968962E+04  0.7818609E-02  0.8621271E-01
        2   -1    0    0  501    0  0.00000000000E+00  0.00000000000E+00  0.15541189522E+04  0.15541189522E+04  0.25500000920E-02 0. -1.
       -2   -1    0    0    0  501  0.00000000000E+00  0.00000000000E+00 -0.62363475505E+03  0.62363475506E+03  0.25500000920E-02 0.  1.
    10030    2    1    2    0    0  0.00000000000E+00  0.00000000000E+00  0.93048419718E+03  0.21777537073E+04  0.19689617489E+04 0.  0.
        2    1    3    3  502    0 -0.51434534811E+03  0.81706682919E+03  0.67814650274E+03  0.11798440658E+04  0.25500000920E-02 0.  1.
       -2    1    3    3    0  502  0.51434534811E+03 -0.81706682919E+03  0.25233769444E+03  0.99790964146E+03  0.25500000920E-02 0. -1.
</event>
<event>
 5   0  0.1664168E-04  0.2084232E+04  0.7818609E-02  0.8568221E-01
        1   -1    0    0  501    0  0.00000000000E+00  0.00000000000E+00  0.73446229120E+03  0.73446229122E+03  0.50400001928E-02 0. -1.
       -1   -1    0    0    0  501  0.00000000000E+00  0.00000000000E+00 -0.14786408146E+04  0.14786408146E+04  0.50400001928E-02 0.  1.
    10030    2    1    2    0    0  0.00000000000E+00  0.00000000000E+00 -0.74417852336E+03  0.22131031058E+04  0.20842321565E+04 0.  0.
        5    1    3    3  502    0  0.15973219159E+03 -0.48224374175E+03 -0.13382452116E+04  0.14314313591E+04  0.46999998093E+01 0.  1.
       -5    1    3    3    0  502 -0.15973219159E+03  0.48224374175E+03  0.59406668823E+03  0.78167174668E+03  0.46999998093E+01 0. -1.
</event>
<event>
 5   0  0.1696052E-04  0.1995158E+04  0.7818609E-02  0.8608888E-01
        1   -1    0    0  501    0  0.00000000000E+00  0.00000000000E+00  0.13515262665E+04  0.13515262665E+04  0.50400001928E-02 0. -1.
       -1   -1    0    0    0  501  0.00000000000E+00  0.00000000000E+00 -0.73632563870E+03  0.73632563872E+03  0.50400001928E-02 0.  1.
    10030    2    1    2    0    0  0.00000000000E+00  0.00000000000E+00  0.61520062779E+03  0.20878519052E+04  0.19951575792E+04 0.  0.
        4    1    3    3  502    0 -0.49300984233E+03 -0.14503040545E+03 -0.58714980117E+03  0.78028137556E+03  0.12699999809E+01 0.  1.
       -4    1    3    3    0  502  0.49300984233E+03  0.14503040545E+03  0.12023504290E+04  0.13075705297E+04  0.12699999809E+01 0. -1.
</event>
<event>
 5   0  0.1643565E-04  0.2048074E+04  0.7818609E-02  0.8584469E-01
        1   -1    0    0  501    0  0.00000000000E+00  0.00000000000E+00  0.16504507183E+04  0.16504507183E+04  0.50400001928E-02 0. -1.
       -1   -1    0    0    0  501  0.00000000000E+00  0.00000000000E+00 -0.63537290183E+03  0.63537290185E+03  0.50400001928E-02 0.  1.
    10030    2    1    2    0    0  0.00000000000E+00  0.00000000000E+00  0.10150778165E+04  0.22858236202E+04  0.20480738876E+04 0.  0.
        2    1    3    3  502    0 -0.30409551357E+03 -0.26776007778E+03  0.15571819353E+04  0.16090323553E+04  0.25500000920E-02 0. -1.
       -2    1    3    3    0  502  0.30409551357E+03  0.26776007778E+03 -0.54210411881E+03  0.67679126492E+03  0.25500000920E-02 0.  1.
</event>
<event>
 5   0  0.1664168E-04  0.2019600E+04  0.7818609E-02  0.8597512E-01
       -1   -1    0    0    0  501  0.00000000000E+00  0.00000000000E+00  0.67099871004E+03  0.67099871006E+03  0.50400001928E-02 0.  1.
        1   -1    0    0  501    0  0.00000000000E+00  0.00000000000E+00 -0.15196686726E+04  0.15196686726E+04  0.50400001928E-02 0. -1.
    10030    2    1    2    0    0  0.00000000000E+00  0.00000000000E+00 -0.84866996256E+03  0.21906673827E+04  0.20195996821E+04 0.  0.
        5    1    3    3  502    0 -0.48698359224E+03  0.38811849357E+03 -0.12865787198E+04  0.14293690484E+04  0.46999998093E+01 0. -1.
       -5    1    3    3    0  502  0.48698359224E+03 -0.38811849357E+03  0.43790875723E+03  0.76129833431E+03  0.46999998093E+01 0.  1.
</event>
<event>
 5   0  0.1650221E-04  0.1769589E+04  0.7818609E-02  0.8722641E-01
        1   -1    0    0  501    0  0.00000000000E+00  0.00000000000E+00  0.28516792502E+04  0.28516792502E+04  0.50400001928E-02 0.  1.
       -1   -1    0    0    0  501  0.00000000000E+00  0.00000000000E+00 -0.27452634056E+03  0.27452634061E+03  0.50400001928E-02 0. -1.
    10030    2    1    2    0    0  0.00000000000E+00  0.00000000000E+00  0.25771529096E+04  0.31262055908E+04  0.17695887308E+04 0.  0.
        1    1    3    3  502    0  0.12999798379E+03 -0.87290979721E+03  0.14001691971E+04  0.16550966046E+04  0.50400001928E-02 0.  1.
       -1    1    3    3    0  502 -0.12999798379E+03  0.87290979721E+03  0.11769837124E+04  0.14711089862E+04  0.50400001928E-02 0. -1.
</event>
<event>
 5   0  0.3431030E-04  0.1946024E+04  0.7818609E-02  0.8632280E-01
       -2   -1    0    0    0  501  0.00000000000E+00  0.00000000000E+00  0.12255836810E+04  0.12255836810E+04  0.25500000920E-02 0.  1.
        2   -1    0    0  501    0  0.00000000000E+00  0.00000000000E+00 -0.77249091483E+03  0.77249091484E+03  0.25500000920E-02 0. -1.
    10030    2    1    2    0    0  0.00000000000E+00  0.00000000000E+00  0.45309276618E+03  0.19980745959E+04  0.19460239042E+04 0.  0.
        3    1    3    3  502    0 -0.37997903072E+02  0.34646063396E+03  0.11592903762E+04  0.12105507003E+04  0.10100000352E+00 0.  1.
       -3    1    3    3    0  502  0.37997903072E+02 -0.34646063396E+03 -0.70619760998E+03  0.78752389556E+03  0.10100000352E+00 0. -1.
</event>
<event>
 5   0  0.3431030E-04  0.2009424E+04  0.7818609E-02  0.8602227E-01
       -2   -1    0    0    0  501  0.00000000000E+00  0.00000000000E+00  0.93221568472E+03  0.93221568473E+03  0.25500000920E-02 0.  1.
        2   -1    0    0  501    0  0.00000000000E+00  0.00000000000E+00 -0.10828460884E+04  0.10828460884E+04  0.25500000920E-02 0. -1.
    10030    2    1    2    0    0  0.00000000000E+00  0.00000000000E+00 -0.15063040369E+03  0.20150617731E+04  0.20094239053E+04 0.  0.
        3    1    3    3  502    0 -0.21874723545E+03 -0.98057132701E+03 -0.66594989833E+02  0.10068790311E+04  0.10100000352E+00 0. -1.
       -3    1    3    3    0  502  0.21874723545E+03  0.98057132701E+03 -0.84035413856E+02  0.10081827420E+04  0.10100000352E+00 0.  1.
</event>
<event>
 5   0  0.1664168E-04  0.1737490E+04  0.7818609E-02  0.8740266E-01
       -1   -1    0    0    0  501  0.00000000000E+00  0.00000000000E+00  0.40691951081E+03  0.40691951084E+03  0.50400001928E-02 0. -1.
        1   -1    0    0  501    0  0.00000000000E+00  0.00000000000E+00 -0.18547110772E+04  0.18547110772E+04  0.50400001928E-02 0.  1.
    10030    2    1    2    0    0  0.00000000000E+00  0.00000000000E+00 -0.14477915664E+04  0.22616305881E+04  0.17374902869E+04 0.  0.
        5    1    3    3  502    0 -0.36072839786E+03 -0.54608264211E+03  0.19724013821E+02  0.65478420548E+03  0.46999998093E+01 0. -1.
       -5    1    3    3    0  502  0.36072839786E+03  0.54608264211E+03 -0.14675155802E+04  0.16068463826E+04  0.46999998093E+01 0.  1.
</event>
<event>
 5   0  0.1708578E-04  0.1705948E+04  0.7818609E-02  0.8757979E-01
        1   -1    0    0  501    0  0.00000000000E+00  0.00000000000E+00  0.92315662149E+03  0.92315662150E+03  0.50400001928E-02 0.  1.
       -1   -1    0    0    0  501  0.00000000000E+00  0.00000000000E+00 -0.78812740461E+03  0.78812740463E+03  0.50400001928E-02 0. -1.
    10030    2    1    2    0    0  0.00000000000E+00  0.00000000000E+00  0.13502921687E+03  0.17112840261E+04  0.17059484543E+04 0.  0.
        3    1    3    3  502    0  0.49574834307E+03  0.15442941078E+03 -0.61132206884E+03  0.80207826589E+03  0.10100000352E+00 0. -1.
       -3    1    3    3    0  502 -0.49574834307E+03 -0.15442941078E+03  0.74635128571E+03  0.90920576024E+03  0.10100000352E+00 0.  1.
</event>
<event>
 5   0  0.1708578E-04  0.1403565E+04  0.7818609E-02  0.8951242E-01
       -1   -1    0    0    0  501  0.00000000000E+00  0.00000000000E+00  0.10289537858E+04  0.10289537858E+04  0.50400001928E-02 0.  1.
        1   -1    0    0  501    0  0.00000000000E+00  0.00000000000E+00 -0.47864007449E+03  0.47864007452E+03  0.50400001928E-02 0. -1.
    10030    2    1    2    0    0  0.00000000000E+00  0.00000000000E+00  0.55031371126E+03  0.15075938603E+04  0.14035647711E+04 0.  0.
        3    1    3    3  502    0  0.30532385413E+03 -0.75616166981E+02  0.94899609708E+03  0.99976700439E+03  0.10100000352E+00 0.  1.
       -3    1    3    3    0  502 -0.30532385413E+03  0.75616166981E+02 -0.39868238581E+03  0.50782685589E+03  0.10100000352E+00 0. -1.
</event>
<event>
 5   0  0.3371947E-04  0.2101084E+04  0.7818609E-02  0.8560766E-01
        2   -1    0    0  501    0  0.00000000000E+00  0.00000000000E+00  0.11975022232E+04  0.11975022232E+04  0.25500000920E-02 0.  1.
       -2   -1    0    0    0  501  0.00000000000E+00  0.00000000000E+00 -0.92161667282E+03  0.92161667282E+03  0.25500000920E-02 0. -1.
    10030    2    1    2    0    0  0.00000000000E+00  0.00000000000E+00  0.27588555038E+03  0.21191188960E+04  0.21010835439E+04 0.  0.
        2    1    3    3  502    0  0.33319503768E+03 -0.72640911571E+03  0.82566744716E+03  0.11490934992E+04  0.25500000920E-02 0. -1.
       -2    1    3    3    0  502 -0.33319503768E+03  0.72640911571E+03 -0.54978189678E+03  0.97002539686E+03  0.25500000920E-02 0.  1.
</event>
<event>
 5   0  0.3371947E-04  0.2027287E+04  0.7818609E-02  0.8593968E-01
        2   -1    0    0  501    0  0.00000000000E+00  0.00000000000E+00  0.21270244314E+04  0.21270244314E+04  0.25500000920E-02 0.  1.
       -2   -1    0    0    0  501  0.00000000000E+00  0.00000000000E+00 -0.48305659763E+03  0.48305659763E+03  0.25500000920E-02 0. -1.
    10030    2    1    2    0    0  0.00000000000E+00  0.00000000000E+00  0.16439678338E+04  0.26100810290E+04  0.20272870393E+04 0.  0.
        2    1    3    3  502    0 -0.65991168878E+03 -0.22868093267E+01  0.18125738742E+04  0.19289667483E+04  0.25500000920E-02 0.  1.
       -2    1    3    3    0  502  0.65991168878E+03  0.22868093267E+01 -0.16860604049E+03  0.68111428071E+03  0.25500000920E-02 0. -1.
</event>
<event>
 5   0  0.1696052E-04  0.2074854E+04  0.7818609E-02  0.8572402E-01
       -1   -1    0    0    0  501  0.00000000000E+00  0.00000000000E+00  0.64981114301E+03  0.64981114303E+03  0.50400001928E-02 0.  1.
        1   -1    0    0  501    0  0.00000000000E+00  0.00000000000E+00 -0.16562576385E+04  0.16562576385E+04  0.50400001928E-02 0. -1.
    10030    2    1    2    0    0  0.00000000000E+00  0.00000000000E+00 -0.10064464955E+04  0.23060687815E+04  0.20748538929E+04 0.  0.
        4    1    3    3  502    0  0.38696210840E+03 -0.52634368086E+03 -0.13989307136E+04  0.15439514558E+04  0.12699999809E+01 0. -1.
       -4    1    3    3    0  502 -0.38696210840E+03  0.52634368086E+03  0.39248421812E+03  0.76211732567E+03  0.12699999809E+01 0.  1.
</event>
<event>
 5   0  0.3387881E-04  0.1832556E+04  0.7818609E-02  0.8689176E-01
        2   -1    0    0  501    0  0.00000000000E+00  0.00000000000E+00  0.14644563524E+04  0.14644563524E+04  0.25500000920E-02 0.  1.
       -2   -1    0    0    0  501  0.00000000000E+00  0.00000000000E+00 -0.57329474533E+03  0.57329474534E+03  0.25500000920E-02 0. -1.
    10030    2    1    2    0    0  0.00000000000E+00  0.00000000000E+00  0.89116160703E+03  0.20377510977E+04  0.18325557362E+04 0.  0.
        1    1    3    3  502    0  0.74309682573E+03  0.53469294810E+03  0.40286470603E+03  0.10001946873E+04  0.50400001928E-02 0.  1.
       -1    1    3    3    0  502 -0.74309682573E+03 -0.53469294810E+03  0.48829690099E+03  0.10375564104E+04  0.50400001928E-02 0. -1.
</event>
<event>
 5   0  0.3460648E-04  0.2083402E+04  0.7818609E-02  0.8568590E-01
       -2   -1    0    0    0  501  0.00000000000E+00  0.00000000000E+00  0.10170618628E+04  0.10170618628E+04  0.25500000920E-02 0.  1.
        2   -1    0    0  501    0  0.00000000000E+00  0.00000000000E+00 -0.10669370401E+04  0.10669370401E+04  0.25500000920E-02 0. -1.
    10030    2    1    2    0    0  0.00000000000E+00  0.00000000000E+00 -0.49875177298E+02  0.20839989030E+04  0.20834020002E+04 0.  0.
        5    1    3    3  502    0  0.29969441445E+03 -0.89723685059E+03 -0.46125996516E+03  0.10524417103E+04  0.46999998093E+01 0. -1.
       -5    1    3    3    0  502 -0.29969441445E+03  0.89723685059E+03  0.41138478786E+03  0.10315571927E+04  0.46999998093E+01 0.  1.
</event>
<event>
 5   0  0.3460648E-04  0.2004061E+04  0.7818609E-02  0.8604724E-01
       -2   -1    0    0    0  501  0.00000000000E+00  0.00000000000E+00  0.61025267744E+03  0.61025267744E+03  0.25500000920E-02 0. -1.
        2   -1    0    0  501    0  0.00000000000E+00  0.00000000000E+00 -0.16453273398E+04  0.16453273398E+04  0.25500000920E-02 0.  1.
    10030    2    1    2    0    0  0.00000000000E+00  0.00000000000E+00 -0.10350746623E+04  0.22555800172E+04  0.20040612908E+04 0.  0.
        5    1    3    3  502    0 -0.51204341778E+03 -0.49742301011E+03  0.27386539674E+03  0.76461915893E+03  0.46999998093E+01 0. -1.
       -5    1    3    3    0  502  0.51204341778E+03  0.49742301011E+03 -0.13089400591E+04  0.14909608583E+04  0.46999998093E+01 0.  1.
</event>
<event>
 5   0  0.3371947E-04  0.1828837E+04  0.7818609E-02  0.8691113E-01
       -2   -1    0    0    0  501  0.00000000000E+00  0.00000000000E+00  0.32950754414E+03  0.32950754415E+03  0.25500000920E-02 0. -1.
        2   -1    0    0  501    0  0.00000000000E+00  0.00000000000E+00 -0.25376080065E+04  0.25376080065E+04  0.25500000920E-02 0.  1.
    10030    2    1    2    0    0  0.00000000000E+00  0.00000000000E+00 -0.22081004623E+04  0.28671155506E+04  0.18288367693E+04 0.  0.
        2    1    3    3  502    0  0.86158638482E+03  0.30584500256E+03 -0.10774118843E+04  0.14130423322E+04  0.25500000920E-02 0. -1.
       -2    1    3    3    0  502 -0.86158638482E+03 -0.30584500256E+03 -0.11306885780E+04  0.14540732184E+04  0.25500000920E-02 0.  1.
</event>
<event>
 5   0  0.1664168E-04  0.1986853E+04  0.7818609E-02  0.8612792E-01
        1   -1    0    0  501    0  0.00000000000E+00  0.00000000000E+00  0.78778595698E+03  0.78778595700E+03  0.50400001928E-02 0. -1.
       -1   -1    0    0    0  501  0.00000000000E+00  0.00000000000E+00 -0.12527461189E+04  0.12527461189E+04  0.50400001928E-02 0.  1.
    10030    2    1    2    0    0  0.00000000000E+00  0.00000000000E+00 -0.46496016195E+03  0.20405320759E+04  0.19868525866E+04 0.  0.
        5    1    3    3  502    0 -0.30309753479E+03 -0.46662838205E+03 -0.10776745192E+04  0.12128539162E+04  0.46999998093E+01 0.  1.
       -5    1    3    3    0  502  0.30309753479E+03  0.46662838205E+03  0.61271435730E+03  0.82767815977E+03  0.46999998093E+01 0. -1.
</event>
<event>
 5   0  0.3431030E-04  0.2032361E+04  0.7818609E-02  0.8591638E-01
       -2   -1    0    0    0  501  0.00000000000E+00  0.00000000000E+00  0.90708418702E+03  0.90708418702E+03  0.25500000920E-02 0. -1.
        2   -1    0    0  501    0  0.00000000000E+00  0.00000000000E+00 -0.11383981821E+04  0.11383981821E+04  0.25500000920E-02 0.  1.
    10030    2    1    2    0    0  0.00000000000E+00  0.00000000000E+00 -0.23131399512E+03  0.20454823692E+04  0.20323611781E+04 0.  0.
        3    1    3    3  502    0  0.29756195604E+03 -0.96616448409E+03 -0.12006423205E+02  0.10110198279E+04  0.10100000352E+00 0. -1.
       -3    1    3    3    0  502 -0.29756195604E+03  0.96616448409E+03 -0.21930757192E+03  0.10344625413E+04  0.10100000352E+00 0.  1.
</event>
<event>
 5   0  0.1708578E-04  0.1709885E+04  0.7818609E-02  0.8755746E-01
        1   -1    0    0  501    0  0.00000000000E+00  0.00000000000E+00  0.16856735183E+04  0.16856735183E+04  0.50400001928E-02 0. -1.
       -1   -1    0    0    0  501  0.00000000000E+00  0.00000000000E+00 -0.43361114343E+03  0.43361114346E+03  0.50400001928E-02 0.  1.
    10030    2    1    2    0    0  0.00000000000E+00  0.00000000000E+00  0.12520623748E+04  0.21192846617E+04  0.17098851678E+04 0.  0.
        3    1    3    3  502    0 -0.10070303792E+03  0.60210226754E+03  0.13678889466E+04  0.14979280432E+04  0.10100000352E+00 0. -1.
       -3    1    3    3    0  502  0.10070303792E+03 -0.60210226754E+03 -0.11582657172E+03  0.62135661849E+03  0.10100000352E+00 0.  1.
</event>
<event>
 5   0  0.3395569E-04  0.2061531E+04  0.7818609E-02  0.8578381E-01
       -2   -1    0    0    0  501  0.00000000000E+00  0.00000000000E+00  0.12111792276E+04  0.12111792276E+04  0.25500000920E-02 0.  1.
        2   -1    0    0  501    0  0.00000000000E+00  0.00000000000E+00 -0.87722529132E+03  0.87722529133E+03  0.25500000920E-02 0. -1.
    10030    2    1    2    0    0  0.00000000000E+00  0.00000000000E+00  0.33395393628E+03  0.20884045189E+04  0.20615305487E+04 0.  0.
        4    1    3    3  502    0  0.14947488700E+03 -0.47507709685E+03  0.10812015971E+04  0.11903946809E+04  0.12699999809E+01 0.  1.
       -4    1    3    3    0  502 -0.14947488700E+03  0.47507709685E+03 -0.74724766080E+03  0.89800983807E+03  0.12699999809E+01 0. -1.
</event>
<event>
 5   0  0.1643565E-04  0.1781260E+04  0.7818609E-02  0.8716329E-01
        1   -1    0    0  501    0  0.00000000000E+00  0.00000000000E+00  0.13232272309E+04  0.13232272309E+04  0.50400001928E-02 0.  1.
       -1   -1    0    0    0  501  0.00000000000E+00  0.00000000000E+00 -0.59946013334E+03  0.59946013336E+03  0.50400001928E-02 0. -1.
    10030    2    1    2    0    0  0.00000000000E+00  0.00000000000E+00  0.72376709760E+03  0.19226873643E+04  0.17812601970E+04 0.  0.
        2    1    3    3  502    0 -0.41814490351E+03 -0.49917318941E+02  0.12089766561E+04  0.12802192992E+04  0.25500000920E-02 0.  1.
       -2    1    3    3    0  502  0.41814490351E+03  0.49917318941E+02 -0.48520955847E+03  0.64246806512E+03  0.25500000920E-02 0. -1.
</event>
<event>
 5   0  0.1650221E-04  0.2002681E+04  0.7818609E-02  0.8605368E-01
       -1   -1    0    0    0  501  0.00000000000E+00  0.00000000000E+00  0.78882499322E+03  0.78882499323E+03  0.50400001928E-02 0.  1.
        1   -1    0    0  501    0  0.00000000000E+00  0.00000000000E+00 -0.12711097303E+04  0.12711097303E+04  0.50400001928E-02 0. -1.
    10030    2    1    2    0    0  0.00000000000E+00  0.00000000000E+00 -0.48228473712E+03  0.20599347236E+04  0.20026813271E+04 0.  0.
        1    1    3    3  502    0  0.63723228924E+03  0.37685586032E+03 -0.93465643163E+03  0.11923371902E+04  0.50400001928E-02 0. -1.
       -1    1    3    3    0  502 -0.63723228924E+03 -0.37685586032E+03  0.45237169451E+03  0.86759753338E+03  0.50400001928E-02 0.  1.
</event>
<event>
 5   0  0.3460648E-04  0.1995897E+04  0.7818609E-02  0.8608541E-01
       -2   -1    0    0    0  501  0.00000000000E+00  0.00000000000E+00  0.85087497514E+03  0.85087497514E+03  0.25500000920E-02 0.  1.
        2   -1    0    0  501    0  0.00000000000E+00  0.00000000000E+00 -0.11704439177E+04  0.11704439177E+04  0.25500000920E-02 0. -1.
    10030    2    1    2    0    0  0.00000000000E+00  0.00000000000E+00 -0.31956894259E+03  0.20213188929E+04  0.19958972312E+04 0.  0.
        5    1    3    3  502    0  0.58570808509E+03 -0.79158833607E+03 -0.32375185399E+03  0.10365825619E+04  0.46999998093E+01 0.  1.
       -5    1    3    3    0  502 -0.58570808509E+03  0.79158833607E+03  0.41829114015E+01  0.98473633095E+03  0.46999998093E+01 0. -1.
</event>
<event>
 5   0  0.1664168E-04  0.2036761E+04  0.7818609E-02  0.8589624E-01
       -1   -1    0    0    0  501  0.00000000000E+00  0.00000000000E+00  0.11518095238E+04  0.11518095238E+04  0.50400001928E-02 0. -1.
        1   -1    0    0  501    0  0.00000000000E+00  0.00000000000E+00 -0.90040834970E+03  0.90040834971E+03  0.50400001928E-02 0.  1.
    10030    2    1    2    0    0  0.00000000000E+00  0.00000000000E+00  0.25140117412E+03  0.20522178735E+04  0.20367610685E+04 0.  0.
        5    1    3    3  502    0  0.86413189950E+03  0.22674815520E+03  0.61822315517E+03  0.10864440277E+04  0.46999998093E+01 0. -1.
       -5    1    3    3    0  502 -0.86413189950E+03 -0.22674815520E+03 -0.36682198105E+03  0.96577384589E+03  0.46999998093E+01 0.  1.
</event>
<event>
 5   0  0.3431030E-04  0.1477721E+04  0.7818609E-02  0.8899405E-01
       -2   -1    0    0    0  501  0.00000000000E+00  0.00000000000E+00  0.34636200394E+03  0.34636200394E+03  0.25500000920E-02 0.  1.
        2   -1    0    0  501    0  0.00000000000E+00  0.00000000000E+00 -0.15761391971E+04  0.15761391971E+04  0.25500000920E-02 0. -1.
    10030    2    1    2    0    0  0.00000000000E+00  0.00000000000E+00 -0.12297771932E+04  0.19225012010E+04  0.14777208543E+04 0.  0.
        3    1    3    3  502    0 -0.36011882881E+03 -0.49374345250E+03 -0.74630261177E+02  0.61566050209E+03  0.10100000352E+00 0.  1.
       -3    1    3    3    0  502  0.36011882881E+03  0.49374345250E+03 -0.11551469320E+04  0.13068406989E+04  0.10100000352E+00 0. -1.
</event>
<event>
 5   0  0.3387881E-04  0.2019832E+04  0.7818609E-02  0.8597404E-01
        2   -1    0    0  501    0  0.00000000000E+00  0.00000000000E+00  0.81096406319E+03  0.81096406319E+03  0.25500000920E-02 0. -1.
       -2   -1    0    0    0  501  0.00000000000E+00  0.00000000000E+00 -0.12576766596E+04  0.12576766596E+04  0.25500000920E-02 0.  1.
    10030    2    1    2    0    0  0.00000000000E+00  0.00000000000E+00 -0.44671259645E+03  0.20686407228E+04  0.20198322446E+04 0.  0.
        1    1    3    3  502    0  0.18013242088E+03 -0.49387577275E+03 -0.11064983884E+04  0.12250304697E+04  0.50400001928E-02 0.  1.
       -1    1    3    3    0  502 -0.18013242088E+03  0.49387577275E+03  0.65978579197E+03  0.84361025318E+03  0.50400001928E-02 0. -1.
</event>
<event>
 5   0  0.1643565E-04  0.1997973E+04  0.7818609E-02  0.8607569E-01
        1   -1    0    0  501    0  0.00000000000E+00  0.00000000000E+00  0.21220354718E+04  0.21220354719E+04  0.50400001928E-02 0. -1.
       -1   -1    0    0    0  501  0.00000000000E+00  0.00000000000E+00 -0.47029072998E+03  0.47029073001E+03  0.50400001928E-02 0.  1.
    10030    2    1    2    0    0  0.00000000000E+00  0.00000000000E+00  0.16517447419E+04  0.25923262019E+04  0.19979725835E+04 0.  0.
        2    1    3    3  502    0 -0.14225464768E+03  0.45641688828E+03  0.19639767661E+04  0.20213256785E+04  0.25500000920E-02 0. -1.
       -2    1    3    3    0  502  0.14225464768E+03 -0.45641688828E+03 -0.31223202426E+03  0.57100052336E+03  0.25500000920E-02 0.  1.
</event>
<event>
 5   0  0.1643565E-04  0.1456545E+04  0.7818609E-02  0.8913876E-01
       -1   -1    0    0    0  501  0.00000000000E+00  0.00000000000E+00  0.74419550023E+03  0.74419550025E+03  0.50400001928E-02 0. -1.
        1   -1    0    0  501    0  0.00000000000E+00  0.00000000000E+00 -0.71269023245E+03  0.71269023247E+03  0.50400001928E-02 0.  1.
    10030    2    1    2    0    0  0.00000000000E+00  0.00000000000E+00  0.31505267783E+02  0.14568857327E+04  0.14565450409E+04 0.  0.
        2    1    3    3  502    0 -0.45879587417E+03 -0.31599378490E+03  0.48494138490E+03  0.73858910975E+03  0.25500000920E-02 0. -1.
       -2    1    3    3    0  502  0.45879587417E+03  0.31599378490E+03 -0.45343611712E+03  0.71829662297E+03  0.25500000920E-02 0.  1.
</event>
<event>
 5   0  0.3431030E-04  0.1951859E+04  0.7818609E-02  0.8629465E-01
        2   -1    0    0  501    0  0.00000000000E+00  0.00000000000E+00  0.18373377866E+04  0.18373377866E+04  0.25500000920E-02 0.  1.
       -2   -1    0    0    0  501  0.00000000000E+00  0.00000000000E+00 -0.51837936146E+03  0.51837936147E+03  0.25500000920E-02 0. -1.
    10030    2    1    2    0    0  0.00000000000E+00  0.00000000000E+00  0.13189584251E+04  0.23557171480E+04  0.19518585898E+04 0.  0.
        3    1    3    3  502    0  0.68197142801E+03 -0.50904576208E+03  0.82902967802E+02  0.85503539622E+03  0.10100000352E+00 0. -1.
       -3    1    3    3    0  502 -0.68197142801E+03  0.50904576208E+03  0.12360554573E+04  0.15006817518E+04  0.10100000352E+00 0.  1.
</event>
<event>
 5   0  0.3431030E-04  0.1991735E+04  0.7818609E-02  0.8610495E-01
        2   -1    0    0  501    0  0.00000000000E+00  0.00000000000E+00  0.10782793754E+04  0.10782793754E+04  0.25500000920E-02 0.  1.
       -2   -1    0    0    0  501  0.00000000000E+00  0.00000000000E+00 -0.91975401568E+03  0.91975401568E+03  0.25500000920E-02 0. -1.
    10030    2    1    2    0    0  0.00000000000E+00  0.00000000000E+00  0.15852535977E+03  0.19980333911E+04  0.19917347068E+04 0.  0.
        3    1    3    3  502    0 -0.81207476295E+03 -0.57640786581E+03  0.72892242615E+02  0.99851126064E+03  0.10100000352E+00 0.  1.
       -3    1    3    3    0  502  0.81207476295E+03  0.57640786581E+03  0.85633117151E+02  0.99952213049E+03  0.10100000352E+00 0. -1.
</event>
<event>
 5   0  0.1696052E-04  0.1796484E+04  0.7818609E-02  0.8708171E-01
        1   -1    0    0  501    0  0.00000000000E+00  0.00000000000E+00  0.11766818174E+04  0.11766818174E+04  0.50400001928E-02 0. -1.
       -1   -1    0    0    0  501  0.00000000000E+00  0.00000000000E+00 -0.68569011014E+03  0.68569011016E+03  0.50400001928E-02 0.  1.
    10030    2    1    2    0    0  0.00000000000E+00  0.00000000000E+00  0.49099170729E+03  0.18623719276E+04  0.17964844391E+04 0.  0.
        4    1    3    3  502    0  0.50958073433E+03 -0.59983917516E+03 -0.20322781217E+03  0.81288542699E+03  0.12699999809E+01 0.  1.
       -4    1    3    3    0  502 -0.50958073433E+03  0.59983917516E+03  0.69421951946E+03  0.10494865006E+04  0.12699999809E+01 0. -1.
</event>
<event>
 5   0  0.1696052E-04  0.1966543E+04  0.7818609E-02  0.8622425E-01
        1   -1    0    0  501    0  0.00000000000E+00  0.00000000000E+00  0.15632073485E+04  0.15632073485E+04  0.50400001928E-02 0.  1.
       -1   -1    0    0    0  501  0.00000000000E+00  0.00000000000E+00 -0.61848659338E+03  0.61848659340E+03  0.50400001928E-02 0. -1.
    10030    2    1    2    0    0  0.00000000000E+00  0.00000000000E+00  0.94472075512E+03  0.21816939419E+04  0.19665429441E+04 0.  0.
        4    1    3    3  502    0  0.49696106512E+03 -0.82030632061E+03  0.71274177647E+03  0.11949373258E+04  0.12699999809E+01 0.  1.
       -4    1    3    3    0  502 -0.49696106512E+03  0.82030632061E+03  0.23197897865E+03  0.98675661605E+03  0.12699999809E+01 0. -1.
</event>
<event>
 5   0  0.1650221E-04  0.2113494E+04  0.7818609E-02  0.8555322E-01
       -1   -1    0    0    0  501  0.00000000000E+00  0.00000000000E+00  0.95933279136E+03  0.95933279138E+03  0.50400001928E-02 0. -1.
        1   -1    0    0  501    0  0.00000000000E+00  0.00000000000E+00 -0.11640531330E+04  0.11640531331E+04  0.50400001928E-02 0.  1.
    10030    2    1    2    0    0  0.00000000000E+00  0.00000000000E+00 -0.20472034168E+03  0.21233859244E+04  0.21134941130E+04 0.  0.
        1    1    3    3  502    0  0.54167554189E+03  0.35915073034E+03  0.73479400290E+03  0.98098107347E+03  0.50400001928E-02 0. -1.
       -1    1    3    3    0  502 -0.54167554189E+03 -0.35915073034E+03 -0.93951434459E+03  0.11424048510E+04  0.50400001928E-02 0.  1.
</event>
<event>
 5   0  0.1650221E-04  0.2212082E+04  0.7818609E-02  0.8513416E-01
        1   -1    0    0  501    0  0.00000000000E+00  0.00000000000E+00  0.14121306601E+04  0.14121306601E+04  0.50400001928E-02 0. -1.
       -1   -1    0    0    0  501  0.00000000000E+00  0.00000000000E+00 -0.86629872398E+03  0.86629872399E+03  0.50400001928E-02 0.  1.
    10030    2    1    2    0    0  0.00000000000E+00  0.00000000000E+00  0.54583193614E+03  0.22784293841E+04  0.22120822670E+04 0.  0.
        1    1    3    3  502    0  0.91266790077E+03  0.62411638960E+03  0.24301024623E+03  0.11320503278E+04  0.50400001928E-02 0.  1.
       -1    1    3    3    0  502 -0.91266790077E+03 -0.62411638960E+03  0.30282168991E+03  0.11463790563E+04  0.50400001928E-02 0. -1.
</event>
<event>
 5   0  0.1643565E-04  0.2046971E+04  0.7818609E-02  0.8584970E-01
       -1   -1    0    0    0  501  0.00000000000E+00  0.00000000000E+00  0.13477055898E+04  0.13477055898E+04  0.50400001928E-02 0. -1.
        1   -1    0    0  501    0  0.00000000000E+00  0.00000000000E+00 -0.77726336211E+03  0.77726336212E+03  0.50400001928E-02 0.  1.
    10030    2    1    2    0    0  0.00000000000E+00  0.00000000000E+00  0.57044222766E+03  0.21249689519E+04  0.20469706181E+04 0.  0.
        2    1    3    3  502    0  0.20024173098E+03 -0.73135495279E+03  0.99883407856E+03  0.12540519663E+04  0.25500000920E-02 0. -1.
       -2    1    3    3    0  502 -0.20024173098E+03  0.73135495279E+03 -0.42839185091E+03  0.87091698555E+03  0.25500000920E-02 0.  1.
</event>
<event>
 5   0  0.1664168E-04  0.1957461E+04  0.7818609E-02  0.8626771E-01
        1   -1    0    0  501    0  0.00000000000E+00  0.00000000000E+00  0.76535579778E+03  0.76535579780E+03  0.50400001928E-02 0. -1.
       -1   -1    0    0    0  501  0.00000000000E+00  0.00000000000E+00 -0.12515925471E+04  0.12515925471E+04  0.50400001928E-02 0.  1.
    10030    2    1    2    0    0  0.00000000000E+00  0.00000000000E+00 -0.48623674934E+03  0.20169483449E+04  0.19574612256E+04 0.  0.
        5    1    3    3  502    0 -0.92180720613E+02  0.75523232435E+03 -0.87747245764E+03  0.11614013746E+04  0.46999998093E+01 0.  1.
       -5    1    3    3    0  502  0.92180720613E+02 -0.75523232435E+03  0.39123570830E+03  0.85554697033E+03  0.46999998093E+01 0. -1.
</event>
<event>
 5   0  0.1643565E-04  0.1739274E+04  0.7818609E-02  0.8739276E-01
        1   -1    0    0  501    0  0.00000000000E+00  0.00000000000E+00  0.12315293709E+04  0.12315293709E+04  0.50400001928E-02 0.  1.
       -1   -1    0    0    0  501  0.00000000000E+00  0.00000000000E+00 -0.61408923129E+03  0.61408923131E+03  0.50400001928E-02 0. -1.
    10030    2    1    2    0    0  0.00000000000E+00  0.00000000000E+00  0.61744013964E+03  0.18456186022E+04  0.17392744749E+04 0.  0.
        2    1    3    3  502    0  0.19186837355E+03 -0.20857053954E+03 -0.56371343653E+03  0.63094213781E+03  0.25500000920E-02 0. -1.
       -2    1    3    3    0  502 -0.19186837355E+03  0.20857053954E+03  0.11811535762E+04  0.12146764644E+04  0.25500000920E-02 0.  1.
</event>
<event>
 5   0  0.3387881E-04  0.2016544E+04  0.7818609E-02  0.8598925E-01
       -2   -1    0    0    0  501  0.00000000000E+00  0.00000000000E+00  0.10161468144E+04  0.10161468144E+04  0.25500000920E-02 0. -1.
        2   -1    0    0  501    0  0.00000000000E+00  0.00000000000E+00 -0.10004582761E+04  0.10004582761E+04  0.25500000920E-02 0.  1.
    10030    2    1    2    0    0  0.00000000000E+00  0.00000000000E+00  0.15688538355E+02  0.20166050905E+04  0.20165440637E+04 0.  0.
        1    1    3    3  502    0 -0.44697850423E+03 -0.39169426440E+03 -0.80667305029E+03  0.10019658627E+04  0.50400001928E-02 0.  1.
       -1    1    3    3    0  502  0.44697850423E+03  0.39169426440E+03  0.82236158864E+03  0.10146392278E+04  0.50400001928E-02 0. -1.
</event>
<event>
 5   0  0.3387881E-04  0.2061021E+04  0.7818609E-02  0.8578611E-01
       -2   -1    0    0    0  501  0.00000000000E+00  0.00000000000E+00  0.12048444174E+04  0.12048444175E+04  0.25500000920E-02 0.  1.
        2   -1    0    0  501    0  0.00000000000E+00  0.00000000000E+00 -0.88140193959E+03  0.88140193959E+03  0.25500000920E-02 0. -1.
    10030    2    1    2    0    0  0.00000000000E+00  0.00000000000E+00  0.32344247786E+03  0.20862463570E+04  0.20610213065E+04 0.  0.
        1    1    3    3  502    0  0.41171362264E+03 -0.35426635037E+03  0.10481904360E+04  0.11805574718E+04  0.50400001928E-02 0.  1.
       -1    1    3    3    0  502 -0.41171362264E+03  0.35426635037E+03 -0.72474795811E+03  0.90568888526E+03  0.50400001928E-02 0. -1.
</event>
<event>
 5   0  0.3371947E-04  0.1634737E+04  0.7818609E-02  0.8799487E-01
        2   -1    0    0  501    0  0.00000000000E+00  0.00000000000E+00  0.12216385599E+04  0.12216385599E+04  0.25500000920E-02 0.  1.
       -2   -1    0    0    0  501  0.00000000000E+00  0.00000000000E+00 -0.54688141143E+03  0.54688141143E+03  0.25500000920E-02 0. -1.
    10030    2    1    2    0    0  0.00000000000E+00  0.00000000000E+00  0.67475714843E+03  0.17685199713E+04  0.16347371897E+04 0.  0.
        2    1    3    3  502    0  0.78976998349E+03  0.55730875803E+02  0.11765937158E+03  0.80042881324E+03  0.25500000920E-02 0. -1.
       -2    1    3    3    0  502 -0.78976998349E+03 -0.55730875803E+02  0.55709777685E+03  0.96809115806E+03  0.25500000920E-02 0.  1.
</event>
<event>
 5   0  0.1696052E-04  0.2019721E+04  0.7818609E-02  0.8597456E-01
       -1   -1    0    0    0  501  0.00000000000E+00  0.00000000000E+00  0.47733267047E+03  0.47733267050E+03  0.50400001928E-02 0.  1.
        1   -1    0    0  501    0  0.00000000000E+00  0.00000000000E+00 -0.21364930905E+04  0.21364930905E+04  0.50400001928E-02 0. -1.
    10030    2    1    2    0    0  0.00000000000E+00  0.00000000000E+00 -0.16591604200E+04  0.26138257610E+04  0.20197207256E+04 0.  0.
        4    1    3    3  502    0 -0.23916506877E+03  0.96436544325E+03 -0.59585870623E+03  0.11585550695E+04  0.12699999809E+01 0.  1.
       -4    1    3    3    0  502  0.23916506877E+03 -0.96436544325E+03 -0.10633017138E+04  0.14552706916E+04  0.12699999809E+01 0. -1.
</event>
<event>
 5   0  0.1696052E-04  0.2034601E+04  0.7818609E-02  0.8590612E-01
        1   -1    0    0  501    0  0.00000000000E+00  0.00000000000E+00  0.89525050473E+03  0.89525050475E+03  0.50400001928E-02 0. -1.
       -1   -1    0    0    0  501  0.00000000000E+00  0.00000000000E+00 -0.11559900789E+04  0.11559900790E+04  0.50400001928E-02 0.  1.
    10030    2    1    2    0    0  0.00000000000E+00  0.00000000000E+00 -0.26073957422E+03  0.20512405837E+04  0.20346013877E+04 0.  0.
        4    1    3    3  502    0 -0.53064299749E+03  0.66003336892E+03  0.43786451957E+03  0.95339026074E+03  0.12699999809E+01 0. -1.
       -4    1    3    3    0  502  0.53064299749E+03 -0.66003336892E+03 -0.69860409378E+03  0.10978503230E+04  0.12699999809E+01 0.  1.
</event>
<event>
 5   0  0.1650221E-04  0.1808903E+04  0.7818609E-02  0.8701579E-01
       -1   -1    0    0    0  501  0.00000000000E+00  0.00000000000E+00  0.64155518530E+03  0.64155518532E+03  0.50400001928E-02 0. -1.
        1   -1    0    0  501    0  0.00000000000E+00  0.00000000000E+00 -0.12750777066E+04  0.12750777066E+04  0.50400001928E-02 0.  1.
    10030    2    1    2    0    0  0.00000000000E+00  0.00000000000E+00 -0.63352252132E+03  0.19166328919E+04  0.18089032195E+04 0.  0.
        1    1    3    3  502    0  0.76592211100E+03  0.46130248679E+03 -0.17227253636E+03  0.91055724216E+03  0.50400001928E-02 0. -1.
       -1    1    3    3    0  502 -0.76592211100E+03 -0.46130248679E+03 -0.46124998496E+03  0.10060756498E+04  0.50400001928E-02 0.  1.
</event>
<event>
 5   0  0.1643565E-04  0.9920108E+03  0.7818609E-02  0.9317351E-01
        1   -1    0    0  501    0  0.00000000000E+00  0.00000000000E+00  0.10174902026E+04  0.10174902026E+04  0.50400001928E-02 0.  1.
       -1   -1    0    0    0  501  0.00000000000E+00  0.00000000000E+00 -0.24179238345E+03  0.24179238351E+03  0.50400001928E-02 0. -1.
    10030    2    1    2    0    0  0.00000000000E+00  0.00000000000E+00  0.77569781916E+03  0.12592825861E+04  0.99201084928E+03 0.  0.
        2    1    3    3  502    0 -0.14649393631E+03 -0.27960689541E+03  0.87352751231E+03  0.92881150085E+03  0.25500000920E-02 0.  1.
       -2    1    3    3    0  502  0.14649393631E+03  0.27960689541E+03 -0.97829693152E+02  0.33047108528E+03  0.25500000920E-02 0. -1.
</event>
<event>
 5   0  0.1643565E-04  0.1083437E+04  0.7818609E-02  0.9221487E-01
        1   -1    0    0  501    0  0.00000000000E+00  0.00000000000E+00  0.40368683451E+03  0.40368683454E+03  0.50400001928E-02 0.  1.
       -1   -1    0    0    0  501  0.00000000000E+00  0.00000000000E+00 -0.72694691263E+03  0.72694691265E+03  0.50400001928E-02 0. -1.
    10030    2    1    2    0    0  0.00000000000E+00  0.00000000000E+00 -0.32326007812E+03  0.11306337472E+04  0.10834369350E+04 0.  0.
        2    1    3    3  502    0 -0.11082928372E+03 -0.32823872994E+03  0.27296704683E+03  0.44106099649E+03  0.25500000920E-02 0.  1.
       -2    1    3    3    0  502  0.11082928372E+03  0.32823872994E+03 -0.59622712496E+03  0.68957275070E+03  0.25500000920E-02 0. -1.
</event>
<event>
 5   0  0.3431030E-04  0.1970517E+04  0.7818609E-02  0.8620530E-01
        2   -1    0    0  501    0  0.00000000000E+00  0.00000000000E+00  0.85367443472E+03  0.85367443473E+03  0.25500000920E-02 0.  1.
       -2   -1    0    0    0  501  0.00000000000E+00  0.00000000000E+00 -0.11371243359E+04  0.11371243359E+04  0.25500000920E-02 0. -1.
    10030    2    1    2    0    0  0.00000000000E+00  0.00000000000E+00 -0.28344990120E+03  0.19907987707E+04  0.19705166578E+04 0.  0.
        3    1    3    3  502    0 -0.41681015448E+02 -0.59222234670E+03 -0.93611923697E+03  0.11085052327E+04  0.10100000352E+00 0. -1.
       -3    1    3    3    0  502  0.41681015448E+02  0.59222234670E+03  0.65266933577E+03  0.88229353791E+03  0.10100000352E+00 0.  1.
</event>
<event>
 5   0  0.3387881E-04  0.1938780E+04  0.7818609E-02  0.8635790E-01
        2   -1    0    0  501    0  0.00000000000E+00  0.00000000000E+00  0.13212298463E+04  0.13212298463E+04  0.25500000920E-02 0. -1.
       -2   -1    0    0    0  501  0.00000000000E+00  0.00000000000E+00 -0.71124437069E+03  0.71124437070E+03  0.25500000920E-02 0.  1.
    10030    2    1    2    0    0  0.00000000000E+00  0.00000000000E+00  0.60998547559E+03  0.20324742170E+04  0.19387803285E+04 0.  0.
        1    1    3    3  502    0 -0.43711744137E+03 -0.72041446662E+03 -0.19738266711E+03  0.86546437164E+03  0.50400001928E-02 0. -1.
       -1    1    3    3    0  502  0.43711744137E+03  0.72041446662E+03  0.80736814270E+03  0.11670098454E+04  0.50400001928E-02 0.  1.
</event>
<event>
 5   0  0.3431030E-04  0.1100968E+04  0.7818609E-02  0.9204249E-01
       -2   -1    0    0    0  501  0.00000000000E+00  0.00000000000E+00  0.13845552935E+03  0.13845552938E+03  0.25500000920E-02 0. -1.
        2   -1    0    0  501    0  0.00000000000E+00  0.00000000000E+00 -0.21886630560E+04  0.21886630560E+04  0.25500000920E-02 0.  1.
    10030    2    1    2    0    0  0.00000000000E+00  0.00000000000E+00 -0.20502075266E+04  0.23271185853E+04  0.11009677598E+04 0.  0.
        3    1    3    3  502    0 -0.40541678102E+03  0.36225647045E+02 -0.24172825738E+03  0.47340006807E+03  0.10100000352E+00 0. -1.
       -3    1    3    3    0  502  0.40541678102E+03 -0.36225647045E+02 -0.18084792692E+04  0.18537185173E+04  0.10100000352E+00 0.  1.
</event>
<event>
 5   0  0.1650221E-04  0.2020928E+04  0.7818609E-02  0.8596898E-01
        1   -1    0    0  501    0  0.00000000000E+00  0.00000000000E+00  0.16760028857E+04  0.16760028857E+04  0.50400001928E-02 0.  1.
       -1   -1    0    0    0  501  0.00000000000E+00  0.00000000000E+00 -0.60920962187E+03  0.60920962189E+03  0.50400001928E-02 0. -1.
    10030    2    1    2    0    0  0.00000000000E+00  0.00000000000E+00  0.10667932639E+04  0.22852125076E+04  0.20209275933E+04 0.  0.
        1    1    3    3  502    0  0.12078154019E+03 -0.10020171508E+04  0.58891445345E+03  0.11685233350E+04  0.50400001928E-02 0. -1.
       -1    1    3    3    0  502 -0.12078154019E+03  0.10020171508E+04  0.47787881042E+03  0.11166891727E+04  0.50400001928E-02 0.  1.
</event>
<event>
 5   0  0.3371947E-04  0.2060915E+04  0.7818609E-02  0.8578659E-01
        2   -1    0    0  501    0  0.00000000000E+00  0.00000000000E+00  0.10382016108E+04  0.10382016108E+04  0.25500000920E-02 0.  1.
       -2   -1    0    0    0  501  0.00000000000E+00  0.00000000000E+00 -0.10227715215E+04  0.10227715215E+04  0.25500000920E-02 0. -1.
    10030    2    1    2    0    0  0.00000000000E+00  0.00000000000E+00  0.15430089342E+02  0.20609731323E+04  0.20609153706E+04 0.  0.
        2    1    3    3  502    0 -0.78350239014E+03  0.55514720379E+03  0.38159532396E+03  0.10332857323E+04  0.25500000920E-02 0.  1.
       -2    1    3    3    0  502  0.78350239014E+03 -0.55514720379E+03 -0.36616523462E+03  0.10276874001E+04  0.25500000920E-02 0. -1.
</event>
<event>
 5   0  0.3371947E-04  0.2004541E+04  0.7818609E-02  0.8604501E-01
       -2   -1    0    0    0  501  0.00000000000E+00  0.00000000000E+00  0.64809577449E+03  0.64809577450E+03  0.25500000920E-02 0. -1.
        2   -1    0    0  501    0  0.00000000000E+00  0.00000000000E+00 -0.15499964853E+04  0.15499964853E+04  0.25500000920E-02 0.  1.
    10030    2    1    2    0    0  0.00000000000E+00  0.00000000000E+00 -0.90190071078E+03  0.21980922598E+04  0.20045410174E+04 0.  0.
        2    1    3    3  502    0 -0.79385348237E+03  0.33568675983E+03  0.10996500282E+03  0.86889657269E+03  0.25500000920E-02 0. -1.
       -2    1    3    3    0  502  0.79385348237E+03 -0.33568675983E+03 -0.10118657136E+04  0.13291956871E+04  0.25500000920E-02 0.  1.
</event>
<event>
 5   0  0.1650221E-04  0.1988443E+04  0.7818609E-02  0.8612043E-01
        1   -1    0    0  501    0  0.00000000000E+00  0.00000000000E+00  0.93594246474E+03  0.93594246475E+03  0.50400001928E-02 0. -1.
       -1   -1    0    0    0  501  0.00000000000E+00  0.00000000000E+00 -0.10561294086E+04  0.10561294086E+04  0.50400001928E-02 0.  1.
    10030    2    1    2    0    0  0.00000000000E+00  0.00000000000E+00 -0.12018694383E+03  0.19920718733E+04  0.19884429705E+04 0.  0.
        1    1    3    3  502    0 -0.10971335649E+03 -0.76938558729E+03 -0.68129376847E+03  0.10335145870E+04  0.50400001928E-02 0.  1.
       -1    1    3    3    0  502  0.10971335649E+03  0.76938558729E+03  0.56110682464E+03  0.95855728635E+03  0.50400001928E-02 0. -1.
</event>
<event>
 5   0  0.1696052E-04  0.1785899E+04  0.7818609E-02  0.8713834E-01
        1   -1    0    0  501    0  0.00000000000E+00  0.00000000000E+00  0.10534933765E+04  0.10534933765E+04  0.50400001928E-02 0.  1.
       -1   -1    0    0    0  501  0.00000000000E+00  0.00000000000E+00 -0.75687104122E+03  0.75687104123E+03  0.50400001928E-02 0. -1.
    10030    2    1    2    0    0  0.00000000000E+00  0.00000000000E+00  0.29662233525E+03  0.18103644177E+04  0.17858987976E+04 0.  0.
        4    1    3    3  502    0  0.28396128254E+03  0.37585246846E+03 -0.62067043370E+03  0.77918706881E+03  0.12699999809E+01 0.  1.
       -4    1    3    3    0  502 -0.28396128254E+03 -0.37585246846E+03  0.91729276895E+03  0.10311773489E+04  0.12699999809E+01 0. -1.
</event>
<event>
 5   0  0.1664168E-04  0.2011656E+04  0.7818609E-02  0.8601190E-01
        1   -1    0    0  501    0  0.00000000000E+00  0.00000000000E+00  0.11970799849E+04  0.11970799849E+04  0.50400001928E-02 0. -1.
       -1   -1    0    0    0  501  0.00000000000E+00  0.00000000000E+00 -0.84513162031E+03  0.84513162033E+03  0.50400001928E-02 0.  1.
    10030    2    1    2    0    0  0.00000000000E+00  0.00000000000E+00  0.35194836460E+03  0.20422116053E+04  0.20116561807E+04 0.  0.
        5    1    3    3  502    0  0.56441901599E+03  0.59953635745E+03  0.76237700884E+03  0.11221646328E+04  0.46999998093E+01 0. -1.
       -5    1    3    3    0  502 -0.56441901599E+03 -0.59953635745E+03 -0.41042864423E+03  0.92004697245E+03  0.46999998093E+01 0.  1.
</event>
<event>
 5   0  0.3395569E-04  0.1995895E+04  0.7818609E-02  0.8608542E-01
       -2   -1    0    0    0  501  0.00000000000E+00  0.00000000000E+00  0.61489552032E+03  0.61489552032E+03  0.25500000920E-02 0.  1.
        2   -1    0    0  501    0  0.00000000000E+00  0.00000000000E+00 -0.16196229352E+04  0.16196229352E+04  0.25500000920E-02 0. -1.
    10030    2    1    2    0    0  0.00000000000E+00  0.00000000000E+00 -0.10047274149E+04  0.22345184555E+04  0.19958946740E+04 0.  0.
        4    1    3    3  502    0 -0.31359877799E+03  0.50427052703E+03  0.39556334711E+03  0.71351589503E+03  0.12699999809E+01 0.  1.
       -4    1    3    3    0  502  0.31359877799E+03 -0.50427052703E+03 -0.14002907620E+04  0.15210025605E+04  0.12699999809E+01 0. -1.
</event>
<event>
 5   0  0.1664168E-04  0.1921322E+04  0.7818609E-02  0.8644315E-01
        1   -1    0    0  501    0  0.00000000000E+00  0.00000000000E+00  0.12620807830E+04  0.12620807830E+04  0.50400001928E-02 0. -1.
       -1   -1    0    0    0  501  0.00000000000E+00  0.00000000000E+00 -0.73122859918E+03  0.73122859920E+03  0.50400001928E-02 0.  1.
    10030    2    1    2    0    0  0.00000000000E+00  0.00000000000E+00  0.53085218380E+03  0.19933093822E+04  0.19213220064E+04 0.  0.
        5    1    3    3  502    0  0.65049019330E+03 -0.60048949076E+03 -0.12154008865E+03  0.89359901703E+03  0.46999998093E+01 0.  1.
       -5    1    3    3    0  502 -0.65049019330E+03  0.60048949076E+03  0.65239227245E+03  0.10997103652E+04  0.46999998093E+01 0. -1.
</event>
<event>
 5   0  0.3387881E-04  0.2032472E+04  0.7818609E-02  0.8591588E-01
       -2   -1    0    0    0  501  0.00000000000E+00  0.00000000000E+00  0.15416133538E+04  0.15416133538E+04  0.25500000920E-02 0. -1.
        2   -1    0    0  501    0  0.00000000000E+00  0.00000000000E+00 -0.66990546405E+03  0.66990546405E+03  0.25500000920E-02 0.  1.
    10030    2    1    2    0    0  0.00000000000E+00  0.00000000000E+00  0.87170788975E+03  0.22115188179E+04  0.20324716078E+04 0.  0.
        1    1    3    3  502    0 -0.96343664988E+03 -0.15667984027E+03  0.74356793088E+03  0.12270501288E+04  0.50400001928E-02 0. -1.
       -1    1    3    3    0  502  0.96343664988E+03  0.15667984027E+03  0.12813995886E+03  0.98446868907E+03  0.50400001928E-02 0.  1.
</event>
<event>
 5   0  0.1664168E-04  0.1056109E+04  0.7818609E-02  0.9249060E-01
       -1   -1    0    0    0  501  0.00000000000E+00  0.00000000000E+00  0.42014575708E+03  0.42014575711E+03  0.50400001928E-02 0. -1.
        1   -1    0    0  501    0  0.00000000000E+00  0.00000000000E+00 -0.66367763665E+03  0.66367763667E+03  0.50400001928E-02 0.  1.
    10030    2    1    2    0    0  0.00000000000E+00  0.00000000000E+00 -0.24353187956E+03  0.10838233938E+04  0.10561085988E+04 0.  0.
        5    1    3    3  502    0  0.22327313635E+03 -0.25061324243E+03 -0.54009204238E+03  0.63590832274E+03  0.46999998093E+01 0.  1.
       -5    1    3    3    0  502 -0.22327313635E+03  0.25061324243E+03  0.29656016281E+03  0.44791507104E+03  0.46999998093E+01 0. -1.
</event>
<event>
 5   0  0.1708578E-04  0.1941881E+04  0.7818609E-02  0.8634286E-01
       -1   -1    0    0    0  501  0.00000000000E+00  0.00000000000E+00  0.72575505336E+03  0.72575505338E+03  0.50400001928E-02 0.  1.
        1   -1    0    0  501    0  0.00000000000E+00  0.00000000000E+00 -0.12989582961E+04  0.12989582961E+04  0.50400001928E-02 0. -1.
    10030    2    1    2    0    0  0.00000000000E+00  0.00000000000E+00 -0.57320324270E+03  0.20247133495E+04  0.19418810957E+04 0.  0.
        3    1    3    3  502    0  0.14992809070E+03  0.79178486084E+03 -0.85129746687E+03  0.11722239912E+04  0.10100000352E+00 0. -1.
       -3    1    3    3    0  502 -0.14992809070E+03 -0.79178486084E+03  0.27809422417E+03  0.85248935826E+03  0.10100000352E+00 0.  1.
</event>
<event>
 5   0  0.1708578E-04  0.2070995E+04  0.7818609E-02  0.8574129E-01
       -1   -1    0    0    0  501  0.00000000000E+00  0.00000000000E+00  0.94183053802E+03  0.94183053803E+03  0.50400001928E-02 0.  1.
        1   -1    0    0  501    0  0.00000000000E+00  0.00000000000E+00 -0.11384793198E+04  0.11384793198E+04  0.50400001928E-02 0. -1.
    10030    2    1    2    0    0  0.00000000000E+00  0.00000000000E+00 -0.19664878180E+03  0.20803098579E+04  0.20709945344E+04 0.  0.
        3    1    3    3  502    0  0.75649139680E+02 -0.63270834936E+03 -0.91821380258E+03  0.11176579285E+04  0.10100000352E+00 0. -1.
       -3    1    3    3    0  502 -0.75649139680E+02  0.63270834936E+03  0.72156502078E+03  0.96265192936E+03  0.10100000352E+00 0.  1.
</event>
<event>
 5   0  0.1664168E-04  0.1866014E+04  0.7818609E-02  0.8671961E-01
        1   -1    0    0  501    0  0.00000000000E+00  0.00000000000E+00  0.25111321737E+04  0.25111321737E+04  0.50400001928E-02 0.  1.
       -1   -1    0    0    0  501  0.00000000000E+00  0.00000000000E+00 -0.34665727837E+03  0.34665727841E+03  0.50400001928E-02 0. -1.
    10030    2    1    2    0    0  0.00000000000E+00  0.00000000000E+00  0.21644748953E+04  0.28577894521E+04  0.18660141961E+04 0.  0.
        5    1    3    3  502    0 -0.54602888119E+02  0.72744971919E+00  0.25086644921E+04  0.25092631645E+04  0.46999998093E+01 0.  1.
       -5    1    3    3    0  502  0.54602888119E+02 -0.72744971919E+00 -0.34418959684E+03  0.34852628759E+03  0.46999998093E+01 0. -1.
</event>
<event>
 5   0  0.3395569E-04  0.2004206E+04  0.7818609E-02  0.8604657E-01
       -2   -1    0    0    0  501  0.00000000000E+00  0.00000000000E+00  0.11315415324E+04  0.11315415324E+04  0.25500000920E-02 0. -1.
        2   -1    0    0  501    0  0.00000000000E+00  0.00000000000E+00 -0.88747086018E+03  0.88747086019E+03  0.25500000920E-02 0.  1.
    10030    2    1    2    0    0  0.00000000000E+00  0.00000000000E+00  0.24407067219E+03  0.20190123926E+04  0.20042057151E+04 0.  0.
        4    1    3    3  502    0  0.26679334525E+03  0.96372745143E+03  0.56290376468E+02  0.10015585400E+04  0.12699999809E+01 0. -1.
       -4    1    3    3    0  502 -0.26679334525E+03 -0.96372745143E+03  0.18778029572E+03  0.10174538525E+04  0.12699999809E+01 0.  1.
</event>
<event>
 5   0  0.3431030E-04  0.1918667E+04  0.7818609E-02  0.8645620E-01
        2   -1    0    0  501    0  0.00000000000E+00  0.00000000000E+00  0.21204705451E+04  0.21204705451E+04  0.25500000920E-02 0.  1.
       -2   -1    0    0    0  501  0.00000000000E+00  0.00000000000E+00 -0.43401719297E+03  0.43401719298E+03  0.25500000920E-02 0. -1.
    10030    2    1    2    0    0  0.00000000000E+00  0.00000000000E+00  0.16864533521E+04  0.25544877380E+04  0.19186669057E+04 0.  0.
        3    1    3    3  502    0 -0.88828756804E+03  0.35880676726E+03  0.77634434821E+03  0.12330886655E+04  0.10100000352E+00 0.  1.
       -3    1    3    3    0  502  0.88828756804E+03 -0.35880676726E+03  0.91010900388E+03  0.13213990725E+04  0.10100000352E+00 0. -1.
</event>
<event>
 5   0  0.3371947E-04  0.1075778E+04  0.7818609E-02  0.9229127E-01
       -2   -1    0    0    0  501  0.00000000000E+00  0.00000000000E+00  0.39287068088E+03  0.39287068089E+03  0.25500000920E-02 0. -1.
        2   -1    0    0  501    0  0.00000000000E+00  0.00000000000E+00 -0.73643703892E+03  0.73643703892E+03  0.25500000920E-02 0.  1.
    10030    2    1    2    0    0  0.00000000000E+00  0.00000000000E+00 -0.34356635804E+03  0.11293077198E+04  0.10757778970E+04 0.  0.
        2    1    3    3  502    0  0.39960605503E+03 -0.35847622884E+03 -0.20713864185E+03  0.57540996065E+03  0.25500000920E-02 0.  1.
       -2    1    3    3    0  502 -0.39960605503E+03  0.35847622884E+03 -0.13642771619E+03  0.55389775917E+03  0.25500000920E-02 0. -1.
</event>
<event>
 5   0  0.3387881E-04  0.2003829E+04  0.7818609E-02  0.8604833E-01
        2   -1    0    0  501    0  0.00000000000E+00  0.00000000000E+00  0.14787729217E+04  0.14787729217E+04  0.25500000920E-02 0. -1.
       -2   -1    0    0    0  501  0.00000000000E+00  0.00000000000E+00 -0.67882784410E+03  0.67882784410E+03  0.25500000920E-02 0.  1.
    10030    2    1    2    0    0  0.00000000000E+00  0.00000000000E+00  0.79994507763E+03  0.21576007658E+04  0.20038285699E+04 0.  0.
        1    1    3    3  502    0  0.77646136672E+03 -0.33135083928E+03 -0.18101442245E+03  0.86339553732E+03  0.50400001928E-02 0.  1.
       -1    1    3    3    0  502 -0.77646136672E+03  0.33135083928E+03  0.98095950008E+03  0.12942052285E+04  0.50400001928E-02 0. -1.
</event>
<event>
 5   0  0.3460648E-04  0.2013607E+04  0.7818609E-02  0.8600285E-01
       -2   -1    0    0    0  501  0.00000000000E+00  0.00000000000E+00  0.12047262854E+04  0.12047262854E+04  0.25500000920E-02 0.  1.
        2   -1    0    0  501    0  0.00000000000E+00  0.00000000000E+00 -0.84139715375E+03  0.84139715376E+03  0.25500000920E-02 0. -1.
    10030    2    1    2    0    0  0.00000000000E+00  0.00000000000E+00  0.36332913164E+03  0.20461234392E+04  0.20136069801E+04 0.  0.
        5    1    3    3  502    0  0.20690036083E+02  0.78322871822E+03  0.82413707585E+03  0.11371452468E+04  0.46999998093E+01 0.  1.
       -5    1    3    3    0  502 -0.20690036083E+02 -0.78322871822E+03 -0.46080794421E+03  0.90897819230E+03  0.46999998093E+01 0. -1.
</event>
<event>
 5   0  0.3431030E-04  0.2007140E+04  0.7818609E-02  0.8603290E-01
        2   -1    0    0  501    0  0.00000000000E+00  0.00000000000E+00  0.28026606385E+04  0.28026606385E+04  0.25500000920E-02 0.  1.
       -2   -1    0    0    0  501  0.00000000000E+00  0.00000000000E+00 -0.35935596651E+03  0.35935596652E+03  0.25500000920E-02 0. -1.
    10030    2    1    2    0    0  0.00000000000E+00  0.00000000000E+00  0.24433046720E+04  0.31620166050E+04  0.20071400774E+04 0.  0.
        3    1    3    3  502    0 -0.18349239228E+03  0.71473179603E+03  0.15011106051E+03  0.75302346509E+03  0.10100000352E+00 0. -1.
       -3    1    3    3    0  502  0.18349239228E+03 -0.71473179603E+03  0.22931936115E+04  0.24089931399E+04  0.10100000352E+00 0.  1.
</event>
<event>
 5   0  0.1650221E-04  0.2006663E+04  0.7818609E-02  0.8603512E-01
        1   -1    0    0  501    0  0.00000000000E+00  0.00000000000E+00  0.12051563644E+04  0.12051563644E+04  0.50400001928E-02 0.  1.
       -1   -1    0    0    0  501  0.00000000000E+00  0.00000000000E+00 -0.83530553735E+03  0.83530553737E+03  0.50400001928E-02 0. -1.
    10030    2    1    2    0    0  0.00000000000E+00  0.00000000000E+00  0.36985082704E+03  0.20404619018E+04  0.20066626867E+04 0.  0.
        1    1    3    3  502    0 -0.39524282086E+03  0.52691015905E+03 -0.58467302909E+03  0.88073478081E+03  0.50400001928E-02 0. -1.
       -1    1    3    3    0  502  0.39524282086E+03 -0.52691015905E+03  0.95452385613E+03  0.11597271210E+04  0.50400001928E-02 0.  1.
</event>
<event>
 5   0  0.1708578E-04  0.2068538E+04  0.7818609E-02  0.8575231E-01
       -1   -1    0    0    0  501  0.00000000000E+00  0.00000000000E+00  0.77819131945E+03  0.77819131947E+03  0.50400001928E-02 0.  1.
        1   -1    0    0  501    0  0.00000000000E+00  0.00000000000E+00 -0.13746130125E+04  0.13746130125E+04  0.50400001928E-02 0. -1.
    10030    2    1    2    0    0  0.00000000000E+00  0.00000000000E+00 -0.59642169306E+03  0.21528043320E+04  0.20685375645E+04 0.  0.
        3    1    3    3  502    0 -0.63578267343E+03 -0.63562363626E+03  0.23396620156E+03  0.92896566593E+03  0.10100000352E+00 0.  1.
       -3    1    3    3    0  502  0.63578267343E+03  0.63562363626E+03 -0.83038789462E+03  0.12238386661E+04  0.10100000352E+00 0. -1.
</event>
<event>
 5   0  0.1664168E-04  0.1735639E+04  0.7818609E-02  0.8741295E-01
        1   -1    0    0  501    0  0.00000000000E+00  0.00000000000E+00  0.14982889849E+04  0.14982889849E+04  0.50400001928E-02 0.  1.
       -1   -1    0    0    0  501  0.00000000000E+00  0.00000000000E+00 -0.50264697261E+03  0.50264697263E+03  0.50400001928E-02 0. -1.
    10030    2    1    2    0    0  0.00000000000E+00  0.00000000000E+00  0.99564201228E+03  0.20009359575E+04  0.17356386979E+04 0.  0.
        5    1    3    3  502    0  0.95507649201E+02  0.25731282400E+03 -0.45127639478E+03  0.52820836318E+03  0.46999998093E+01 0. -1.
       -5    1    3    3    0  502 -0.95507649201E+02 -0.25731282400E+03  0.14469184071E+04  0.14727275943E+04  0.46999998093E+01 0.  1.
</event>
<event>
 5   0  0.1708578E-04  0.1587552E+04  0.7818609E-02  0.8828232E-01
       -1   -1    0    0    0  501  0.00000000000E+00  0.00000000000E+00  0.11732876164E+04  0.11732876164E+04  0.50400001928E-02 0. -1.
        1   -1    0    0  501    0  0.00000000000E+00  0.00000000000E+00 -0.53702146453E+03  0.53702146455E+03  0.50400001928E-02 0.  1.
    10030    2    1    2    0    0  0.00000000000E+00  0.00000000000E+00  0.63626615182E+03  0.17103090809E+04  0.15875523728E+04 0.  0.
        3    1    3    3  502    0  0.64171221236E+02  0.67120401843E+03 -0.13312039763E+03  0.68728002332E+03  0.10100000352E+00 0.  1.
       -3    1    3    3    0  502 -0.64171221236E+02 -0.67120401843E+03  0.76938654945E+03  0.10230290576E+04  0.10100000352E+00 0. -1.
</event>
<event>
 5   0  0.3371947E-04  0.2006903E+04  0.7818609E-02  0.8603400E-01
       -2   -1    0    0    0  501  0.00000000000E+00  0.00000000000E+00  0.26309213544E+04  0.26309213544E+04  0.25500000920E-02 0. -1.
        2   -1    0    0  501    0  0.00000000000E+00  0.00000000000E+00 -0.38272334631E+03  0.38272334631E+03  0.25500000920E-02 0.  1.
    10030    2    1    2    0    0  0.00000000000E+00  0.00000000000E+00  0.22481980081E+04  0.30136447007E+04  0.20069031114E+04 0.  0.
        2    1    3    3  502    0  0.14278755231E+03  0.43154376332E+03  0.24674551333E+04  0.25089745196E+04  0.25500000920E-02 0. -1.
       -2    1    3    3    0  502 -0.14278755231E+03 -0.43154376332E+03 -0.21925712525E+03  0.50467018115E+03  0.25500000920E-02 0.  1.
</event>
<event>
 5   0  0.3431030E-04  0.1977133E+04  0.7818609E-02  0.8617387E-01
       -2   -1    0    0    0  501  0.00000000000E+00  0.00000000000E+00  0.65932297640E+03  0.65932297640E+03  0.25500000920E-02 0.  1.
        2   -1    0    0  501    0  0.00000000000E+00  0.00000000000E+00 -0.14822226503E+04  0.14822226503E+04  0.25500000920E-02 0. -1.
    10030    2    1    2    0    0  0.00000000000E+00  0.00000000000E+00 -0.82289967391E+03  0.21415456267E+04  0.19771327214E+04 0.  0.
        3    1    3    3  502    0 -0.17883400952E+03  0.71964213928E+03  0.29667080887E+03  0.79867389504E+03  0.10100000352E+00 0.  1.
       -3    1    3    3    0  502  0.17883400952E+03 -0.71964213928E+03 -0.11195704828E+04  0.13428717317E+04  0.10100000352E+00 0. -1.
</event>
<event>
 5   0  0.1708578E-04  0.1988453E+04  0.7818609E-02  0.8612038E-01
       -1   -1    0    0    0  501  0.00000000000E+00  0.00000000000E+00  0.14977959974E+04  0.14977959974E+04  0.50400001928E-02 0. -1.
        1   -1    0    0  501    0  0.00000000000E+00  0.00000000000E+00 -0.65996055111E+03  0.65996055113E+03  0.50400001928E-02 0.  1.
    10030    2    1    2    0    0  0.00000000000E+00  0.00000000000E+00  0.83783544627E+03  0.21577565485E+04  0.19884529383E+04 0.  0.
        3    1    3    3  502    0 -0.86896261273E+03  0.44836669964E+03  0.22371993661E+03  0.10030849116E+04  0.10100000352E+00 0.  1.
       -3    1    3    3    0  502  0.86896261273E+03 -0.44836669964E+03  0.61411550967E+03  0.11546716369E+04  0.10100000352E+00 0. -1.
</event>
<event>
 5   0  0.1643565E-04  0.1848437E+04  0.7818609E-02  0.8680957E-01
        1   -1    0    0  501    0  0.00000000000E+00  0.00000000000E+00  0.17842730096E+04  0.17842730096E+04  0.50400001928E-02 0.  1.
       -1   -1    0    0    0  501  0.00000000000E+00  0.00000000000E+00 -0.47872717203E+03  0.47872717205E+03  0.50400001928E-02 0. -1.
    10030    2    1    2    0    0  0.00000000000E+00  0.00000000000E+00  0.13055458376E+04  0.22630001817E+04  0.18484371475E+04 0.  0.
        2    1    3    3  502    0 -0.59577482420E+03  0.69570205714E+03  0.80386573100E+03  0.12186669385E+04  0.25500000920E-02 0.  1.
       -2    1    3    3    0  502  0.59577482420E+03 -0.69570205714E+03  0.50168010656E+03  0.10443332432E+04  0.25500000920E-02 0. -1.
</event>
<event>
 5   0  0.3371947E-04  0.2007963E+04  0.7818609E-02  0.8602907E-01
        2   -1    0    0  501    0  0.00000000000E+00  0.00000000000E+00  0.16207241035E+04  0.16207241035E+04  0.25500000920E-02 0. -1.
       -2   -1    0    0    0  501  0.00000000000E+00  0.00000000000E+00 -0.62193126632E+03  0.62193126632E+03  0.25500000920E-02 0.  1.
    10030    2    1    2    0    0  0.00000000000E+00  0.00000000000E+00  0.99879283714E+03  0.22426553698E+04  0.20079631411E+04 0.  0.
        2    1    3    3  502    0  0.89146952275E+03 -0.84545699661E+02 -0.76638833972E+01  0.89550244022E+03  0.25500000920E-02 0. -1.
       -2    1    3    3    0  502 -0.89146952275E+03  0.84545699661E+02  0.10064567205E+04  0.13471529296E+04  0.25500000920E-02 0.  1.
</event>
<event>
 5   0  0.1696052E-04  0.2014958E+04  0.7818609E-02  0.8599659E-01
       -1   -1    0    0    0  501  0.00000000000E+00  0.00000000000E+00  0.21882214932E+04  0.21882214932E+04  0.50400001928E-02 0. -1.
        1   -1    0    0  501    0  0.00000000000E+00  0.00000000000E+00 -0.46385315261E+03  0.46385315264E+03  0.50400001928E-02 0.  1.
    10030    2    1    2    0    0  0.00000000000E+00  0.00000000000E+00  0.17243683405E+04  0.26520746458E+04  0.20149575065E+04 0.  0.
        4    1    3    3  502    0 -0.76027896062E+03  0.65810905736E+03  0.94417148919E+03  0.13793451501E+04  0.12699999809E+01 0. -1.
       -4    1    3    3    0  502  0.76027896062E+03 -0.65810905736E+03  0.78019685136E+03  0.12727294957E+04  0.12699999809E+01 0.  1.
</event>
<event>
 5   0  0.3387881E-04  0.2003226E+04  0.7818609E-02  0.8605114E-01
        2   -1    0    0  501    0  0.00000000000E+00  0.00000000000E+00  0.83015275225E+03  0.83015275226E+03  0.25500000920E-02 0.  1.
       -2   -1    0    0    0  501  0.00000000000E+00  0.00000000000E+00 -0.12084869803E+04  0.12084869803E+04  0.25500000920E-02 0. -1.
    10030    2    1    2    0    0  0.00000000000E+00  0.00000000000E+00 -0.37833422804E+03  0.20386397325E+04  0.20032261907E+04 0.  0.
        1    1    3    3  502    0 -0.23254755406E+03  0.43159754841E+03 -0.10780343473E+04  0.11842773588E+04  0.50400001928E-02 0. -1.
       -1    1    3    3    0  502  0.23254755406E+03 -0.43159754841E+03  0.69970011926E+03  0.85436237371E+03  0.50400001928E-02 0.  1.
</event>
<event>
 5   0  0.1696052E-04  0.1576486E+04  0.7818609E-02  0.8835125E-01
        1   -1    0    0  501    0  0.00000000000E+00  0.00000000000E+00  0.94116159215E+03  0.94116159216E+03  0.50400001928E-02 0. -1.
       -1   -1    0    0    0  501  0.00000000000E+00  0.00000000000E+00 -0.66017014507E+03  0.66017014509E+03  0.50400001928E-02 0.  1.
    10030    2    1    2    0    0  0.00000000000E+00  0.00000000000E+00  0.28099144707E+03  0.16013317373E+04  0.15764856927E+04 0.  0.
        4    1    3    3  502    0 -0.21531173499E+03 -0.16495870216E+03  0.89226455550E+03  0.93258145304E+03  0.12699999809E+01 0. -1.
       -4    1    3    3    0  502  0.21531173499E+03  0.16495870216E+03 -0.61127310843E+03  0.66875028421E+03  0.12699999809E+01 0.  1.
</event>
<event>
 5   0  0.1708578E-04  0.1974955E+04  0.7818609E-02  0.8618420E-01
        1   -1    0    0  501    0  0.00000000000E+00  0.00000000000E+00  0.10731100559E+04  0.10731100560E+04  0.50400001928E-02 0.  1.
       -1   -1    0    0    0  501  0.00000000000E+00  0.00000000000E+00 -0.90867804365E+03  0.90867804367E+03  0.50400001928E-02 0. -1.
    10030    2    1    2    0    0  0.00000000000E+00  0.00000000000E+00  0.16443201229E+03  0.19817880996E+04  0.19749547299E+04 0.  0.
        3    1    3    3  502    0 -0.52810207761E+03  0.24989323964E+03  0.88106919328E+03  0.10571761297E+04  0.10100000352E+00 0.  1.
       -3    1    3    3    0  502  0.52810207761E+03 -0.24989323964E+03 -0.71663718099E+03  0.92461196995E+03  0.10100000352E+00 0. -1.
</event>
<event>
 5   0  0.1643565E-04  0.1944684E+04  0.7818609E-02  0.8632928E-01
       -1   -1    0    0    0  501  0.00000000000E+00  0.00000000000E+00  0.55475176369E+03  0.55475176371E+03  0.50400001928E-02 0. -1.
        1   -1    0    0  501    0  0.00000000000E+00  0.00000000000E+00 -0.17042745915E+04  0.17042745915E+04  0.50400001928E-02 0.  1.
    10030    2    1    2    0    0  0.00000000000E+00  0.00000000000E+00 -0.11495228278E+04  0.22590263552E+04  0.19446843810E+04 0.  0.
        2    1    3    3  502    0  0.57990526270E+03  0.31815118664E+02  0.33113066675E+03  0.66854306814E+03  0.25500000920E-02 0. -1.
       -2    1    3    3    0  502 -0.57990526270E+03 -0.31815118664E+02 -0.14806534945E+04  0.15904832871E+04  0.25500000920E-02 0.  1.
</event>
<event>
 5   0  0.3387881E-04  0.1914338E+04  0.7818609E-02  0.8647752E-01
       -2   -1    0    0    0  501  0.00000000000E+00  0.00000000000E+00  0.81600415069E+03  0.81600415070E+03  0.25500000920E-02 0. -1.
        2   -1    0    0  501    0  0.00000000000E+00  0.00000000000E+00 -0.11227546366E+04  0.11227546366E+04  0.25500000920E-02 0.  1.
    10030    2    1    2    0    0  0.00000000000E+00  0.00000000000E+00 -0.30675048595E+03  0.19387587873E+04  0.19143379469E+04 0.  0.
        1    1    3    3  502    0 -0.66770847538E+03  0.66411642229E+03 -0.32669345321E+03  0.99680180720E+03  0.50400001928E-02 0.  1.
       -1    1    3    3    0  502  0.66770847538E+03 -0.66411642229E+03  0.19942967258E+02  0.94195698013E+03  0.50400001928E-02 0. -1.
</event>
<event>
 5   0  0.3460648E-04  0.2017890E+04  0.7818609E-02  0.8598302E-01
       -2   -1    0    0    0  501  0.00000000000E+00  0.00000000000E+00  0.44810954336E+03  0.44810954336E+03  0.25500000920E-02 0. -1.
        2   -1    0    0  501    0  0.00000000000E+00  0.00000000000E+00 -0.22716999613E+04  0.22716999613E+04  0.25500000920E-02 0.  1.
    10030    2    1    2    0    0  0.00000000000E+00  0.00000000000E+00 -0.18235904180E+04  0.27198095047E+04  0.20178904156E+04 0.  0.
        5    1    3    3  502    0 -0.27944443812E+03 -0.96377470198E+03 -0.10531424530E+04  0.14546759043E+04  0.46999998093E+01 0.  1.
       -5    1    3    3    0  502  0.27944443812E+03  0.96377470198E+03 -0.77044796495E+03  0.12651336004E+04  0.46999998093E+01 0. -1.
</event>
<event>
 5   0  0.1664168E-04  0.1996724E+04  0.7818609E-02  0.8608154E-01
        1   -1    0    0  501    0  0.00000000000E+00  0.00000000000E+00  0.10880540797E+04  0.10880540797E+04  0.50400001928E-02 0.  1.
       -1   -1    0    0    0  501  0.00000000000E+00  0.00000000000E+00 -0.91606384362E+03  0.91606384363E+03  0.50400001928E-02 0. -1.
    10030    2    1    2    0    0  0.00000000000E+00  0.00000000000E+00  0.17199023607E+03  0.20041179233E+04  0.19967243198E+04 0.  0.
        5    1    3    3  502    0 -0.68033134503E+03 -0.63321336205E+03  0.45189267000E+03  0.10334597119E+04  0.46999998093E+01 0. -1.
       -5    1    3    3    0  502  0.68033134503E+03  0.63321336205E+03 -0.27990243393E+03  0.97065821144E+03  0.46999998093E+01 0.  1.
</event>
<event>
 5   0  0.3395569E-04  0.1829007E+04  0.7818609E-02  0.8691024E-01
        2   -1    0    0  501    0  0.00000000000E+00  0.00000000000E+00  0.87764885679E+03  0.87764885679E+03  0.25500000920E-02 0.  1.
       -2   -1    0    0    0  501  0.00000000000E+00  0.00000000000E+00 -0.95290574515E+03  0.95290574515E+03  0.25500000920E-02 0. -1.
    10030    2    1    2    0    0  0.00000000000E+00  0.00000000000E+00 -0.75256888361E+02  0.18305546019E+04  0.18290069851E+04 0.  0.
        4    1    3    3  502    0  0.40078456679E+03 -0.14482327060E+03  0.77219957316E+03  0.88198403748E+03  0.12699999809E+01 0.  1.
       -4    1    3    3    0  502 -0.40078456679E+03  0.14482327060E+03 -0.84745646152E+03  0.94857056446E+03  0.12699999809E+01 0. -1.
</event>
<event>
 5   0  0.1650221E-04  0.1773780E+04  0.7818609E-02  0.8720368E-01
       -1   -1    0    0    0  501  0.00000000000E+00  0.00000000000E+00  0.62699177269E+03  0.62699177271E+03  0.50400001928E-02 0.  1.
        1   -1    0    0  501    0  0.00000000000E+00  0.00000000000E+00 -0.12545207321E+04  0.12545207321E+04  0.50400001928E-02 0. -1.
    10030    2    1    2    0    0  0.00000000000E+00  0.00000000000E+00 -0.62752895942E+03  0.18815125048E+04  0.17737803446E+04 0.  0.
        1    1    3    3  502    0  0.71932901313E+03 -0.35466297397E+03  0.87852777341E+02  0.80680739012E+03  0.50400001928E-02 0.  1.
       -1    1    3    3    0  502 -0.71932901313E+03  0.35466297397E+03 -0.71538173676E+03  0.10747051147E+04  0.50400001928E-02 0. -1.
</event>
<event>
 5   0  0.1664168E-04  0.2009065E+04  0.7818609E-02  0.8602394E-01
       -1   -1    0    0    0  501  0.00000000000E+00  0.00000000000E+00  0.86668518935E+03  0.86668518937E+03  0.50400001928E-02 0.  1.
        1   -1    0    0  501    0  0.00000000000E+00  0.00000000000E+00 -0.11643044282E+04  0.11643044282E+04  0.50400001928E-02 0. -1.
    10030    2    1    2    0    0  0.00000000000E+00  0.00000000000E+00 -0.29761923885E+03  0.20309896176E+04  0.20090648609E+04 0.  0.
        5    1    3    3  502    0 -0.98794243343E+03  0.17667277482E+03 -0.10568505646E+03  0.10091753774E+04  0.46999998093E+01 0.  1.
       -5    1    3    3    0  502  0.98794243343E+03 -0.17667277482E+03 -0.19193418239E+03  0.10218142402E+04  0.46999998093E+01 0. -1.
</event>
<event>
 5   0  0.1643565E-04  0.2018167E+04  0.7818609E-02  0.8598174E-01
       -1   -1    0    0    0  501  0.00000000000E+00  0.00000000000E+00  0.50703052480E+03  0.50703052482E+03  0.50400001928E-02 0. -1.
        1   -1    0    0  501    0  0.00000000000E+00  0.00000000000E+00 -0.20082612046E+04  0.20082612046E+04  0.50400001928E-02 0.  1.
    10030    2    1    2    0    0  0.00000000000E+00  0.00000000000E+00 -0.15012306798E+04  0.25152917294E+04  0.20181672205E+04 0.  0.
        2    1    3    3  502    0 -0.97133917592E+02 -0.20782190653E+03  0.47410073471E+03  0.52668439263E+03  0.25500000920E-02 0. -1.
       -2    1    3    3    0  502  0.97133917592E+02  0.20782190653E+03 -0.19753314145E+04  0.19886073368E+04  0.25500000920E-02 0.  1.
</event>
<event>
 5   0  0.1643565E-04  0.2016163E+04  0.7818609E-02  0.8599101E-01
        1   -1    0    0  501    0  0.00000000000E+00  0.00000000000E+00  0.11426973773E+04  0.11426973773E+04  0.50400001928E-02 0. -1.
       -1   -1    0    0    0  501  0.00000000000E+00  0.00000000000E+00 -0.88932414466E+03  0.88932414467E+03  0.50400001928E-02 0.  1.
    10030    2    1    2    0    0  0.00000000000E+00  0.00000000000E+00  0.25337323261E+03  0.20320215220E+04  0.20161630566E+04 0.  0.
        2    1    3    3  502    0 -0.19702152373E+03 -0.16247377180E+03 -0.85618300995E+03  0.89345652041E+03  0.25500000920E-02 0.  1.
       -2    1    3    3    0  502  0.19702152373E+03  0.16247377180E+03  0.11095562426E+04  0.11385650015E+04  0.25500000920E-02 0. -1.
</event>
<event>
 5   0  0.1664168E-04  0.2021588E+04  0.7818609E-02  0.8596594E-01
       -1   -1    0    0    0  501  0.00000000000E+00  0.00000000000E+00  0.55741691397E+03  0.55741691400E+03  0.50400001928E-02 0. -1.
        1   -1    0    0  501    0  0.00000000000E+00  0.00000000000E+00 -0.18329264766E+04  0.18329264766E+04  0.50400001928E-02 0.  1.
    10030    2    1    2    0    0  0.00000000000E+00  0.00000000000E+00 -0.12755095626E+04  0.23903433906E+04  0.20215877128E+04 0.  0.
        5    1    3    3  502    0 -0.66219487985E+03 -0.42093142761E+03 -0.13911606753E+04  0.15971961183E+04  0.46999998093E+01 0.  1.
       -5    1    3    3    0  502  0.66219487985E+03  0.42093142761E+03  0.11565111275E+03  0.79314727228E+03  0.46999998093E+01 0. -1.
</event>
<event>
 5   0  0.1664168E-04  0.1986701E+04  0.7818609E-02  0.8612864E-01
       -1   -1    0    0    0  501  0.00000000000E+00  0.00000000000E+00  0.72919446252E+03  0.72919446253E+03  0.50400001928E-02 0. -1.
        1   -1    0    0  501    0  0.00000000000E+00  0.00000000000E+00 -0.13531985260E+04  0.13531985261E+04  0.50400001928E-02 0.  1.
    10030    2    1    2    0    0  0.00000000000E+00  0.00000000000E+00 -0.62400406353E+03  0.20823929886E+04  0.19867006538E+04 0.  0.
        5    1    3    3  502    0 -0.50814448876E+03 -0.82118910589E+03 -0.55593541602E+03  0.11142928905E+04  0.46999998093E+01 0.  1.
       -5    1    3    3    0  502  0.50814448876E+03  0.82118910589E+03 -0.68068647503E+02  0.96810009806E+03  0.46999998093E+01 0. -1.
</event>
<event>
 5   0  0.1643565E-04  0.1994208E+04  0.7818609E-02  0.8609333E-01
       -1   -1    0    0    0  501  0.00000000000E+00  0.00000000000E+00  0.57201307110E+03  0.57201307112E+03  0.50400001928E-02 0.  1.
        1   -1    0    0  501    0  0.00000000000E+00  0.00000000000E+00 -0.17381007518E+04  0.17381007518E+04  0.50400001928E-02 0. -1.
    10030    2    1    2    0    0  0.00000000000E+00  0.00000000000E+00 -0.11660876807E+04  0.23101138229E+04  0.19942079620E+04 0.  0.
        2    1    3    3  502    0 -0.62747694430E+03  0.18366835231E+03 -0.14551324243E+04  0.15952654172E+04  0.25500000920E-02 0. -1.
       -2    1    3    3    0  502  0.62747694430E+03 -0.18366835231E+03  0.28904474360E+03  0.71484840566E+03  0.25500000920E-02 0.  1.
</event>
<event>
 5   0  0.1643565E-04  0.1950755E+04  0.7818609E-02  0.8629997E-01
        1   -1    0    0  501    0  0.00000000000E+00  0.00000000000E+00  0.12285351821E+04  0.12285351821E+04  0.50400001928E-02 0. -1.
       -1   -1    0    0    0  501  0.00000000000E+00  0.00000000000E+00 -0.77438648038E+03  0.77438648040E+03  0.50400001928E-02 0.  1.
    10030    2    1    2    0    0  0.00000000000E+00  0.00000000000E+00  0.45414870169E+03  0.20029216625E+04  0.19507547623E+04 0.  0.
        2    1    3    3  502    0 -0.73209161188E+03 -0.47363816888E+03  0.67587895523E+03  0.11032241863E+04  0.25500000920E-02 0. -1.
       -2    1    3    3    0  502  0.73209161188E+03  0.47363816888E+03 -0.22173025354E+03  0.89969747613E+03  0.25500000920E-02 0.  1.
</event>
<event>
 5   0  0.1643565E-04  0.2004347E+04  0.7818609E-02  0.8604591E-01
        1   -1    0    0  501    0  0.00000000000E+00  0.00000000000E+00  0.14543035126E+04  0.14543035126E+04  0.50400001928E-02 0. -1.
       -1   -1    0    0    0  501  0.00000000000E+00  0.00000000000E+00 -0.69060637028E+03  0.69060637030E+03  0.50400001928E-02 0.  1.
    10030    2    1    2    0    0  0.00000000000E+00  0.00000000000E+00  0.76369714236E+03  0.21449098829E+04  0.20043465471E+04 0.  0.
        2    1    3    3  502    0  0.48488128185E+03 -0.76856683040E+03  0.83402907725E+03  0.12334542278E+04  0.25500000920E-02 0. -1.
       -2    1    3    3    0  502 -0.48488128185E+03  0.76856683040E+03 -0.70331934897E+02  0.91145565518E+03  0.25500000920E-02 0.  1.
</event>
<event>
 5   0  0.3387881E-04  0.1929583E+04  0.7818609E-02  0.8640269E-01
        2   -1    0    0  501    0  0.00000000000E+00  0.00000000000E+00  0.65659842767E+03  0.65659842768E+03  0.25500000920E-02 0.  1.
       -2   -1    0    0    0  501  0.00000000000E+00  0.00000000000E+00 -0.14176440636E+04  0.14176440636E+04  0.25500000920E-02 0. -1.
    10030    2    1    2    0    0  0.00000000000E+00  0.00000000000E+00 -0.76104563589E+03  0.20742424912E+04  0.19295832329E+04 0.  0.
        1    1    3    3  502    0  0.28248812427E+03 -0.88849618001E+03 -0.11372711824E+03  0.93923312319E+03  0.50400001928E-02 0.  1.
       -1    1    3    3    0  502 -0.28248812427E+03  0.88849618001E+03 -0.64731851766E+03  0.11350093681E+04  0.50400001928E-02 0. -1.
</event>
<event>
 5   0  0.1664168E-04  0.1832774E+04  0.7818609E-02  0.8689062E-01
        1   -1    0    0  501    0  0.00000000000E+00  0.00000000000E+00  0.96465611192E+03  0.96465611193E+03  0.50400001928E-02 0. -1.
       -1   -1    0    0    0  501  0.00000000000E+00  0.00000000000E+00 -0.87053293763E+03  0.87053293765E+03  0.50400001928E-02 0.  1.
    10030    2    1    2    0    0  0.00000000000E+00  0.00000000000E+00  0.94123174286E+02  0.18351890496E+04  0.18327737656E+04 0.  0.
        5    1    3    3  502    0 -0.99830467937E+02  0.35972702069E+03  0.88504746942E+03  0.96057314395E+03  0.46999998093E+01 0. -1.
       -5    1    3    3    0  502  0.99830467937E+02 -0.35972702069E+03 -0.79092429514E+03  0.87461590563E+03  0.46999998093E+01 0.  1.
</event>
<event>
 5   0  0.1643565E-04  0.2147480E+04  0.7818609E-02  0.8540612E-01
       -1   -1    0    0    0  501  0.00000000000E+00  0.00000000000E+00  0.52385648518E+03  0.52385648520E+03  0.50400001928E-02 0.  1.
        1   -1    0    0  501    0  0.00000000000E+00  0.00000000000E+00 -0.22008277494E+04  0.22008277494E+04  0.50400001928E-02 0. -1.
    10030    2    1    2    0    0  0.00000000000E+00  0.00000000000E+00 -0.16769712643E+04  0.27246842346E+04  0.21474802810E+04 0.  0.
        2    1    3    3  502    0  0.73786665257E+03  0.41696362088E+03 -0.16749315509E+04  0.18771525134E+04  0.25500000920E-02 0. -1.
       -2    1    3    3    0  502 -0.73786665257E+03 -0.41696362088E+03 -0.20397133110E+01  0.84753172126E+03  0.25500000920E-02 0.  1.
</event>
<event>
 5   0  0.1650221E-04  0.2003788E+04  0.7818609E-02  0.8604852E-01
        1   -1    0    0  501    0  0.00000000000E+00  0.00000000000E+00  0.13791207660E+04  0.13791207660E+04  0.50400001928E-02 0. -1.
       -1   -1    0    0    0  501  0.00000000000E+00  0.00000000000E+00 -0.72784894303E+03  0.72784894305E+03  0.50400001928E-02 0.  1.
    10030    2    1    2    0    0  0.00000000000E+00  0.00000000000E+00  0.65127182297E+03  0.21069697091E+04  0.20037880046E+04 0.  0.
        1    1    3    3  502    0  0.12101565625E+03  0.35548179957E+03 -0.65105338103E+03  0.75158672411E+03  0.50400001928E-02 0.  1.
       -1    1    3    3    0  502 -0.12101565625E+03 -0.35548179957E+03  0.13023252040E+04  0.13553829849E+04  0.50400001928E-02 0. -1.
</event>
<event>
 5   0  0.3460648E-04  0.2021525E+04  0.7818609E-02  0.8596623E-01
       -2   -1    0    0    0  501  0.00000000000E+00  0.00000000000E+00  0.86277026818E+03  0.86277026818E+03  0.25500000920E-02 0. -1.
        2   -1    0    0  501    0  0.00000000000E+00  0.00000000000E+00 -0.11841395741E+04  0.11841395741E+04  0.25500000920E-02 0.  1.
    10030    2    1    2    0    0  0.00000000000E+00  0.00000000000E+00 -0.32136930597E+03  0.20469098423E+04  0.20215245909E+04 0.  0.
        5    1    3    3  502    0  0.84552299964E+03  0.27834703254E+03  0.32410954751E+03  0.94734117520E+03  0.46999998093E+01 0. -1.
       -5    1    3    3    0  502 -0.84552299964E+03 -0.27834703254E+03 -0.64547885348E+03  0.10995686671E+04  0.46999998093E+01 0.  1.
</event>
<event>
 5   0  0.3460648E-04  0.1990957E+04  0.7818609E-02  0.8610860E-01
        2   -1    0    0  501    0  0.00000000000E+00  0.00000000000E+00  0.99744832228E+03  0.99744832228E+03  0.25500000920E-02 0. -1.
       -2   -1    0    0    0  501  0.00000000000E+00  0.00000000000E+00 -0.99351270627E+03  0.99351270628E+03  0.25500000920E-02 0.  1.
    10030    2    1    2    0    0  0.00000000000E+00  0.00000000000E+00  0.39356160052E+01  0.19909610286E+04  0.19909571387E+04 0.  0.
        5    1    3    3  502    0  0.48112117636E+03  0.45413060901E+03  0.74577252530E+03  0.99695082420E+03  0.46999998093E+01 0. -1.
       -5    1    3    3    0  502 -0.48112117636E+03 -0.45413060901E+03 -0.74183690929E+03  0.99401020436E+03  0.46999998093E+01 0.  1.
</event>
<event>
 5   0  0.3395569E-04  0.2042635E+04  0.7818609E-02  0.8586943E-01
       -2   -1    0    0    0  501  0.00000000000E+00  0.00000000000E+00  0.12113619133E+04  0.12113619133E+04  0.25500000920E-02 0.  1.
        2   -1    0    0  501    0  0.00000000000E+00  0.00000000000E+00 -0.86108832759E+03  0.86108832759E+03  0.25500000920E-02 0. -1.
    10030    2    1    2    0    0  0.00000000000E+00  0.00000000000E+00  0.35027358571E+03  0.20724502409E+04  0.20426351647E+04 0.  0.
        4    1    3    3  502    0 -0.71443434025E+03 -0.31935965371E+03 -0.49070515518E+03  0.92368835500E+03  0.12699999809E+01 0. -1.
       -4    1    3    3    0  502  0.71443434025E+03  0.31935965371E+03  0.84097874089E+03  0.11487618859E+04  0.12699999809E+01 0.  1.
</event>
<event>
 5   0  0.1664168E-04  0.2004613E+04  0.7818609E-02  0.8604467E-01
       -1   -1    0    0    0  501  0.00000000000E+00  0.00000000000E+00  0.75545748012E+03  0.75545748014E+03  0.50400001928E-02 0.  1.
        1   -1    0    0  501    0  0.00000000000E+00  0.00000000000E+00 -0.13298140343E+04  0.13298140344E+04  0.50400001928E-02 0. -1.
    10030    2    1    2    0    0  0.00000000000E+00  0.00000000000E+00 -0.57435655422E+03  0.20852715145E+04  0.20046126403E+04 0.  0.
        5    1    3    3  502    0  0.58833665672E+03  0.80676852737E+03 -0.37774693896E+03  0.10675815277E+04  0.46999998093E+01 0. -1.
       -5    1    3    3    0  502 -0.58833665672E+03 -0.80676852737E+03 -0.19660961526E+03  0.10176899868E+04  0.46999998093E+01 0.  1.
</event>
<event>
 5   0  0.3371947E-04  0.1928345E+04  0.7818609E-02  0.8640874E-01
        2   -1    0    0  501    0  0.00000000000E+00  0.00000000000E+00  0.16608348557E+04  0.16608348557E+04  0.25500000920E-02 0.  1.
       -2   -1    0    0    0  501  0.00000000000E+00  0.00000000000E+00 -0.55973582831E+03  0.55973582831E+03  0.25500000920E-02 0. -1.
    10030    2    1    2    0    0  0.00000000000E+00  0.00000000000E+00  0.11010990274E+04  0.22205706841E+04  0.19283451700E+04 0.  0.
        2    1    3    3  502    0 -0.30063041466E+03  0.21899682005E+03 -0.47379915893E+03  0.60234865021E+03  0.25500000920E-02 0. -1.
       -2    1    3    3    0  502  0.30063041466E+03 -0.21899682005E+03  0.15748981864E+04  0.16182220338E+04  0.25500000920E-02 0.  1.
</event>
<event>
 5   0  0.1643565E-04  0.1999163E+04  0.7818609E-02  0.8607012E-01
       -1   -1    0    0    0  501  0.00000000000E+00  0.00000000000E+00  0.70319124134E+03  0.70319124136E+03  0.50400001928E-02 0. -1.
        1   -1    0    0  501    0  0.00000000000E+00  0.00000000000E+00 -0.14208984396E+04  0.14208984397E+04  0.50400001928E-02 0.  1.
    10030    2    1    2    0    0  0.00000000000E+00  0.00000000000E+00 -0.71770719831E+03  0.21240896810E+04  0.19991631625E+04 0.  0.
        2    1    3    3  502    0  0.72833916865E+03  0.40198778547E+03 -0.94764072264E+03  0.12609897158E+04  0.25500000920E-02 0.  1.
       -2    1    3    3    0  502 -0.72833916865E+03 -0.40198778547E+03  0.22993352433E+03  0.86309996517E+03  0.25500000920E-02 0. -1.
</event>
<event>
 5   0  0.3371947E-04  0.1951319E+04  0.7818609E-02  0.8629725E-01
        2   -1    0    0  501    0  0.00000000000E+00  0.00000000000E+00  0.11621644362E+04  0.11621644362E+04  0.25500000920E-02 0.  1.
       -2   -1    0    0    0  501  0.00000000000E+00  0.00000000000E+00 -0.81908536589E+03  0.81908536590E+03  0.25500000920E-02 0. -1.
    10030    2    1    2    0    0  0.00000000000E+00  0.00000000000E+00  0.34307907033E+03  0.19812498021E+04  0.19513194331E+04 0.  0.
        2    1    3    3  502    0  0.40807428773E+02  0.26270988865E+03 -0.78159792916E+03  0.82557680122E+03  0.25500000920E-02 0. -1.
       -2    1    3    3    0  502 -0.40807428773E+02 -0.26270988865E+03  0.11246769995E+04  0.11556730009E+04  0.25500000920E-02 0.  1.
</event>
<event>
 5   0  0.1664168E-04  0.1986334E+04  0.7818609E-02  0.8613037E-01
        1   -1    0    0  501    0  0.00000000000E+00  0.00000000000E+00  0.56966545832E+03  0.56966545834E+03  0.50400001928E-02 0. -1.
       -1   -1    0    0    0  501  0.00000000000E+00  0.00000000000E+00 -0.17315080647E+04  0.17315080648E+04  0.50400001928E-02 0.  1.
    10030    2    1    2    0    0  0.00000000000E+00  0.00000000000E+00 -0.11618426064E+04  0.23011735231E+04  0.19863336430E+04 0.  0.
        5    1    3    3  502    0 -0.45913024035E+02  0.93344210384E+03 -0.19159520126E+03  0.95401938038E+03  0.46999998093E+01 0. -1.
       -5    1    3    3    0  502  0.45913024035E+02 -0.93344210384E+03 -0.97024740517E+03  0.13471541427E+04  0.46999998093E+01 0.  1.
</event>
<event>
 5   0  0.3395569E-04  0.2002619E+04  0.7818609E-02  0.8605397E-01
        2   -1    0    0  501    0  0.00000000000E+00  0.00000000000E+00  0.18176659674E+04  0.18176659674E+04  0.25500000920E-02 0. -1.
       -2   -1    0    0    0  501  0.00000000000E+00  0.00000000000E+00 -0.55159795246E+03  0.55159795247E+03  0.25500000920E-02 0.  1.
    10030    2    1    2    0    0  0.00000000000E+00  0.00000000000E+00  0.12660680150E+04  0.23692639199E+04  0.20026191110E+04 0.  0.
        4    1    3    3  502    0  0.22131907142E+03  0.58979180070E+03  0.15538514190E+04  0.16766908912E+04  0.12699999809E+01 0. -1.
       -4    1    3    3    0  502 -0.22131907142E+03 -0.58979180070E+03 -0.28778340400E+03  0.69257302869E+03  0.12699999809E+01 0.  1.
</event>
<event>
 5   0  0.1650221E-04  0.1828860E+04  0.7818609E-02  0.8691101E-01
       -1   -1    0    0    0  501  0.00000000000E+00  0.00000000000E+00  0.88926136555E+03  0.88926136556E+03  0.50400001928E-02 0. -1.
        1   -1    0    0  501    0  0.00000000000E+00  0.00000000000E+00 -0.94031108838E+03  0.94031108840E+03  0.50400001928E-02 0.  1.
    10030    2    1    2    0    0  0.00000000000E+00  0.00000000000E+00 -0.51049722838E+02  0.18295724540E+04  0.18288601068E+04 0.  0.
        1    1    3    3  502    0  0.77181737365E+03  0.12801190894E+03 -0.49909409556E+03  0.92800001258E+03  0.50400001928E-02 0.  1.
       -1    1    3    3    0  502 -0.77181737365E+03 -0.12801190894E+03  0.44804437272E+03  0.90157244138E+03  0.50400001928E-02 0. -1.
</event>
<event>
 5   0  0.1664168E-04  0.2019927E+04  0.7818609E-02  0.8597361E-01
       -1   -1    0    0    0  501  0.00000000000E+00  0.00000000000E+00  0.10406452891E+04  0.10406452891E+04  0.50400001928E-02 0. -1.
        1   -1    0    0  501    0  0.00000000000E+00  0.00000000000E+00 -0.98018614081E+03  0.98018614082E+03  0.50400001928E-02 0.  1.
    10030    2    1    2    0    0  0.00000000000E+00  0.00000000000E+00  0.60459148256E+02  0.20208314299E+04  0.20199268203E+04 0.  0.
        5    1    3    3  502    0 -0.65838055867E+03 -0.62394315737E+03 -0.41407963731E+03  0.99712289097E+03  0.46999998093E+01 0.  1.
       -5    1    3    3    0  502  0.65838055867E+03  0.62394315737E+03  0.47453878556E+03  0.10237085389E+04  0.46999998093E+01 0. -1.
</event>
<event>
 5   0  0.1650221E-04  0.1990038E+04  0.7818609E-02  0.8611292E-01
        1   -1    0    0  501    0  0.00000000000E+00  0.00000000000E+00  0.12453535457E+04  0.12453535457E+04  0.50400001928E-02 0. -1.
       -1   -1    0    0    0  501  0.00000000000E+00  0.00000000000E+00 -0.79500532723E+03  0.79500532724E+03  0.50400001928E-02 0.  1.
    10030    2    1    2    0    0  0.00000000000E+00  0.00000000000E+00  0.45034821848E+03  0.20403588730E+04  0.19900378922E+04 0.  0.
        1    1    3    3  502    0 -0.47807828563E+03 -0.26608639061E+03  0.10772740535E+04  0.12082550230E+04  0.50400001928E-02 0. -1.
       -1    1    3    3    0  502  0.47807828563E+03  0.26608639061E+03 -0.62692583497E+03  0.83210384991E+03  0.50400001928E-02 0.  1.
</event>
<event>
 5   0  0.3371947E-04  0.1998858E+04  0.7818609E-02  0.8607155E-01
       -2   -1    0    0    0  501  0.00000000000E+00  0.00000000000E+00  0.60324626650E+03  0.60324626650E+03  0.25500000920E-02 0. -1.
        2   -1    0    0  501    0  0.00000000000E+00  0.00000000000E+00 -0.16558057112E+04  0.16558057112E+04  0.25500000920E-02 0.  1.
    10030    2    1    2    0    0  0.00000000000E+00  0.00000000000E+00 -0.10525594447E+04  0.22590519777E+04  0.19988582874E+04 0.  0.
        2    1    3    3  502    0 -0.88967000019E+02 -0.99538717161E+03 -0.54002256699E+03  0.11359291885E+04  0.25500000920E-02 0.  1.
       -2    1    3    3    0  502  0.88967000019E+02  0.99538717161E+03 -0.51253687770E+03  0.11231227892E+04  0.25500000920E-02 0. -1.
</event>
<event>
 5   0  0.3431030E-04  0.1961806E+04  0.7818609E-02  0.8624689E-01
        2   -1    0    0  501    0  0.00000000000E+00  0.00000000000E+00  0.13136239612E+04  0.13136239612E+04  0.25500000920E-02 0.  1.
       -2   -1    0    0    0  501  0.00000000000E+00  0.00000000000E+00 -0.73245552839E+03  0.73245552839E+03  0.25500000920E-02 0. -1.
    10030    2    1    2    0    0  0.00000000000E+00  0.00000000000E+00  0.58116843277E+03  0.20460794896E+04  0.19618064457E+04 0.  0.
        3    1    3    3  502    0  0.47214490123E+03 -0.52245420054E+03  0.10027732649E+04  0.12253299272E+04  0.10100000352E+00 0.  1.
       -3    1    3    3    0  502 -0.47214490123E+03  0.52245420054E+03 -0.42160483215E+03  0.82074956236E+03  0.10100000352E+00 0. -1.
</event>
<event>
 5   0  0.1664168E-04  0.1384453E+04  0.7818609E-02  0.8965150E-01
       -1   -1    0    0    0  501  0.00000000000E+00  0.00000000000E+00  0.22174418033E+03  0.22174418039E+03  0.50400001928E-02 0. -1.
        1   -1    0    0  501    0  0.00000000000E+00  0.00000000000E+00 -0.21609483933E+04  0.21609483933E+04  0.50400001928E-02 0.  1.
    10030    2    1    2    0    0  0.00000000000E+00  0.00000000000E+00 -0.19392042130E+04  0.23826925737E+04  0.13844532932E+04 0.  0.
        5    1    3    3  502    0  0.48661764017E+03  0.46182986452E+03 -0.67615635859E+03  0.95251932408E+03  0.46999998093E+01 0. -1.
       -5    1    3    3    0  502 -0.48661764017E+03 -0.46182986452E+03 -0.12630478544E+04  0.14301732496E+04  0.46999998093E+01 0.  1.
</event>
<event>
 5   0  0.3460648E-04  0.1052040E+04  0.7818609E-02  0.9253241E-01
        2   -1    0    0  501    0  0.00000000000E+00  0.00000000000E+00  0.68686827874E+03  0.68686827875E+03  0.25500000920E-02 0. -1.
       -2   -1    0    0    0  501  0.00000000000E+00  0.00000000000E+00 -0.40283828096E+03  0.40283828097E+03  0.25500000920E-02 0.  1.
    10030    2    1    2    0    0  0.00000000000E+00  0.00000000000E+00  0.28402999778E+03  0.10897065597E+04  0.10520396127E+04 0.  0.
        5    1    3    3  502    0  0.29832542950E+03  0.22689008713E+03 -0.24024790715E+03  0.44521716095E+03  0.46999998093E+01 0.  1.
       -5    1    3    3    0  502 -0.29832542950E+03 -0.22689008713E+03  0.52427790493E+03  0.64448939876E+03  0.46999998093E+01 0. -1.
</event>
<event>
 5   0  0.3460648E-04  0.1955906E+04  0.7818609E-02  0.8627518E-01
       -2   -1    0    0    0  501  0.00000000000E+00  0.00000000000E+00  0.35682828270E+03  0.35682828271E+03  0.25500000920E-02 0.  1.
        2   -1    0    0  501    0  0.00000000000E+00  0.00000000000E+00 -0.26802578273E+04  0.26802578273E+04  0.25500000920E-02 0. -1.
    10030    2    1    2    0    0  0.00000000000E+00  0.00000000000E+00 -0.23234295446E+04  0.30370861100E+04  0.19559057214E+04 0.  0.
        5    1    3    3  502    0 -0.40783513189E+03  0.72450004761E+02 -0.25372960412E+04  0.25708892992E+04  0.46999998093E+01 0. -1.
       -5    1    3    3    0  502  0.40783513189E+03 -0.72450004761E+02  0.21386649664E+03  0.46619681077E+03  0.46999998093E+01 0.  1.
</event>
<event>
 5   0  0.3460648E-04  0.2003805E+04  0.7818609E-02  0.8604844E-01
       -2   -1    0    0    0  501  0.00000000000E+00  0.00000000000E+00  0.84566310742E+03  0.84566310742E+03  0.25500000920E-02 0. -1.
        2   -1    0    0  501    0  0.00000000000E+00  0.00000000000E+00 -0.11870077421E+04  0.11870077421E+04  0.25500000920E-02 0.  1.
    10030    2    1    2    0    0  0.00000000000E+00  0.00000000000E+00 -0.34134463471E+03  0.20326708496E+04  0.20038050362E+04 0.  0.
        5    1    3    3  502    0  0.62200218578E+03  0.76488454815E+03 -0.35171307865E+03  0.10467374412E+04  0.46999998093E+01 0. -1.
       -5    1    3    3    0  502 -0.62200218578E+03 -0.76488454815E+03  0.10368443936E+02  0.98593340837E+03  0.46999998093E+01 0.  1.
</event>
<event>
 5   0  0.1650221E-04  0.1895108E+04  0.7818609E-02  0.8657295E-01
       -1   -1    0    0    0  501  0.00000000000E+00  0.00000000000E+00  0.15866407523E+04  0.15866407523E+04  0.50400001928E-02 0.  1.
        1   -1    0    0  501    0  0.00000000000E+00  0.00000000000E+00 -0.56588658749E+03  0.56588658751E+03  0.50400001928E-02 0. -1.
    10030    2    1    2    0    0  0.00000000000E+00  0.00000000000E+00  0.10207541648E+04  0.21525273398E+04  0.18951081456E+04 0.  0.
        1    1    3    3  502    0  0.15105442290E+03 -0.66939828677E+03 -0.23179014156E+03  0.72431911114E+03  0.50400001928E-02 0. -1.
       -1    1    3    3    0  502 -0.15105442290E+03  0.66939828677E+03  0.12525443063E+04  0.14282082286E+04  0.50400001928E-02 0.  1.
</event>
<event>
 5   0  0.3395569E-04  0.2049241E+04  0.7818609E-02  0.8583939E-01
       -2   -1    0    0    0  501  0.00000000000E+00  0.00000000000E+00  0.17505601429E+04  0.17505601429E+04  0.25500000920E-02 0. -1.
        2   -1    0    0  501    0  0.00000000000E+00  0.00000000000E+00 -0.59972048858E+03  0.59972048859E+03  0.25500000920E-02 0.  1.
    10030    2    1    2    0    0  0.00000000000E+00  0.00000000000E+00  0.11508396543E+04  0.23502806315E+04  0.20492406244E+04 0.  0.
        4    1    3    3  502    0 -0.26981625527E+03 -0.93656048272E+03  0.21292071426E+03  0.99763880882E+03  0.12699999809E+01 0.  1.
       -4    1    3    3    0  502  0.26981625527E+03  0.93656048272E+03  0.93791894003E+03  0.13526418226E+04  0.12699999809E+01 0. -1.
</event>
<event>
 5   0  0.1650221E-04  0.1739206E+04  0.7818609E-02  0.8739314E-01
        1   -1    0    0  501    0  0.00000000000E+00  0.00000000000E+00  0.43566911152E+03  0.43566911155E+03  0.50400001928E-02 0. -1.
       -1   -1    0    0    0  501  0.00000000000E+00  0.00000000000E+00 -0.17357423732E+04  0.17357423733E+04  0.50400001928E-02 0.  1.
    10030    2    1    2    0    0  0.00000000000E+00  0.00000000000E+00 -0.13000732617E+04  0.21714114848E+04  0.17392059540E+04 0.  0.
        1    1    3    3  502    0  0.34182100784E+02 -0.39704050261E+03 -0.16150284670E+04  0.16634682221E+04  0.50400001928E-02 0.  1.
       -1    1    3    3    0  502 -0.34182100784E+02  0.39704050261E+03  0.31495520529E+03  0.50794326267E+03  0.50400001928E-02 0. -1.
</event>
<event>
 5   0  0.1708578E-04  0.1876705E+04  0.7818609E-02  0.8666539E-01
       -1   -1    0    0    0  501  0.00000000000E+00  0.00000000000E+00  0.65787787162E+03  0.65787787164E+03  0.50400001928E-02 0. -1.
        1   -1    0    0  501    0  0.00000000000E+00  0.00000000000E+00 -0.13384025615E+04  0.13384025615E+04  0.50400001928E-02 0.  1.
    10030    2    1    2    0    0  0.00000000000E+00  0.00000000000E+00 -0.68052468984E+03  0.19962804331E+04  0.18767050152E+04 0.  0.
        3    1    3    3  502    0 -0.84901140525E+01 -0.72757406631E+03  0.29000088522E+03  0.78328578925E+03  0.10100000352E+00 0. -1.
       -3    1    3    3    0  502  0.84901140525E+01  0.72757406631E+03 -0.97052557506E+03  0.12129946439E+04  0.10100000352E+00 0.  1.
</event>
<event>
 5   0  0.1643565E-04  0.1842446E+04  0.7818609E-02  0.8684047E-01
        1   -1    0    0  501    0  0.00000000000E+00  0.00000000000E+00  0.18449018280E+04  0.18449018280E+04  0.50400001928E-02 0. -1.
       -1   -1    0    0    0  501  0.00000000000E+00  0.00000000000E+00 -0.45999839396E+03  0.45999839399E+03  0.50400001928E-02 0.  1.
    10030    2    1    2    0    0  0.00000000000E+00  0.00000000000E+00  0.13849034340E+04  0.23049002220E+04  0.18424460675E+04 0.  0.
        2    1    3    3  502    0  0.99259209401E+02  0.91364343521E+03  0.77211558198E+03  0.12003162872E+04  0.25500000920E-02 0. -1.
       -2    1    3    3    0  502 -0.99259209401E+02 -0.91364343521E+03  0.61278785202E+03  0.11045839348E+04  0.25500000920E-02 0.  1.
</event>
<event>
 5   0  0.3395569E-04  0.1973987E+04  0.7818609E-02  0.8618880E-01
        2   -1    0    0  501    0  0.00000000000E+00  0.00000000000E+00  0.87643866376E+03  0.87643866376E+03  0.25500000920E-02 0.  1.
       -2   -1    0    0    0  501  0.00000000000E+00  0.00000000000E+00 -0.11114939243E+04  0.11114939243E+04  0.25500000920E-02 0. -1.
    10030    2    1    2    0    0  0.00000000000E+00  0.00000000000E+00 -0.23505526049E+03  0.19879325880E+04  0.19739870818E+04 0.  0.
        4    1    3    3  502    0 -0.25088312088E+03  0.18754271466E+03  0.82505475993E+03  0.88251435113E+03  0.12699999809E+01 0.  1.
       -4    1    3    3    0  502  0.25088312088E+03 -0.18754271466E+03 -0.10601100204E+04  0.11054182369E+04  0.12699999809E+01 0. -1.
</event>
<event>
 5   0  0.1696052E-04  0.1951123E+04  0.7818609E-02  0.8629820E-01
       -1   -1    0    0    0  501  0.00000000000E+00  0.00000000000E+00  0.67878477660E+03  0.67878477662E+03  0.50400001928E-02 0. -1.
        1   -1    0    0  501    0  0.00000000000E+00  0.00000000000E+00 -0.14020938077E+04  0.14020938077E+04  0.50400001928E-02 0.  1.
    10030    2    1    2    0    0  0.00000000000E+00  0.00000000000E+00 -0.72330903106E+03  0.20808785843E+04  0.19511226840E+04 0.  0.
        4    1    3    3  502    0 -0.63605007745E+03  0.42471917470E+03  0.28423820777E+03  0.81592833634E+03  0.12699999809E+01 0. -1.
       -4    1    3    3    0  502  0.63605007745E+03 -0.42471917470E+03 -0.10075472388E+04  0.12649502479E+04  0.12699999809E+01 0.  1.
</event>
<event>
 5   0  0.1708578E-04  0.1905362E+04  0.7818609E-02  0.8652192E-01
       -1   -1    0    0    0  501  0.00000000000E+00  0.00000000000E+00  0.51453492878E+03  0.51453492881E+03  0.50400001928E-02 0. -1.
        1   -1    0    0  501    0  0.00000000000E+00  0.00000000000E+00 -0.17639252791E+04  0.17639252791E+04  0.50400001928E-02 0.  1.
    10030    2    1    2    0    0  0.00000000000E+00  0.00000000000E+00 -0.12493903503E+04  0.22784602079E+04  0.19053620841E+04 0.  0.
        3    1    3    3  502    0  0.76392382852E+03 -0.29275841593E+03 -0.40929231765E+02  0.81912289560E+03  0.10100000352E+00 0. -1.
       -3    1    3    3    0  502 -0.76392382852E+03  0.29275841593E+03 -0.12084611186E+04  0.14593373123E+04  0.10100000352E+00 0.  1.
</event>
<event>
 5   0  0.3387881E-04  0.2019613E+04  0.7818609E-02  0.8597506E-01
       -2   -1    0    0    0  501  0.00000000000E+00  0.00000000000E+00  0.75053694098E+03  0.75053694098E+03  0.25500000920E-02 0.  1.
        2   -1    0    0  501    0  0.00000000000E+00  0.00000000000E+00 -0.13586393523E+04  0.13586393523E+04  0.25500000920E-02 0. -1.
    10030    2    1    2    0    0  0.00000000000E+00  0.00000000000E+00 -0.60810241137E+03  0.21091762933E+04  0.20196128574E+04 0.  0.
        1    1    3    3  502    0 -0.10228319675E+03  0.66733517135E+03 -0.10882930565E+04  0.12806950691E+04  0.50400001928E-02 0. -1.
       -1    1    3    3    0  502  0.10228319675E+03 -0.66733517135E+03  0.48019064508E+03  0.82848122423E+03  0.50400001928E-02 0.  1.
</event>
<event>
 5   0  0.3460648E-04  0.2061897E+04  0.7818609E-02  0.8578216E-01
        2   -1    0    0  501    0  0.00000000000E+00  0.00000000000E+00  0.22951216978E+04  0.22951216978E+04  0.25500000920E-02 0. -1.
       -2   -1    0    0    0  501  0.00000000000E+00  0.00000000000E+00 -0.46309283130E+03  0.46309283131E+03  0.25500000920E-02 0.  1.
    10030    2    1    2    0    0  0.00000000000E+00  0.00000000000E+00  0.18320288665E+04  0.27582145291E+04  0.20618966077E+04 0.  0.
        5    1    3    3  502    0  0.87431003956E+03  0.47692360328E+03  0.12723525573E+04  0.16157899891E+04  0.46999998093E+01 0. -1.
       -5    1    3    3    0  502 -0.87431003956E+03 -0.47692360328E+03  0.55967630916E+03  0.11424245400E+04  0.46999998093E+01 0.  1.
</event>
<event>
 5   0  0.1696052E-04  0.1825714E+04  0.7818609E-02  0.8692743E-01
       -1   -1    0    0    0  501  0.00000000000E+00  0.00000000000E+00  0.36277007964E+03  0.36277007967E+03  0.50400001928E-02 0.  1.
        1   -1    0    0  501    0  0.00000000000E+00  0.00000000000E+00 -0.22970690913E+04  0.22970690913E+04  0.50400001928E-02 0. -1.
    10030    2    1    2    0    0  0.00000000000E+00  0.00000000000E+00 -0.19342990116E+04  0.26598391709E+04  0.18257140381E+04 0.  0.
        4    1    3    3  502    0  0.18320209138E+01  0.74169016036E+03 -0.17424467324E+04  0.18937343738E+04  0.12699999809E+01 0. -1.
       -4    1    3    3    0  502 -0.18320209138E+01 -0.74169016036E+03 -0.19185227921E+03  0.76610479715E+03  0.12699999809E+01 0.  1.
</event>
<event>
 5   0  0.3395569E-04  0.2026562E+04  0.7818609E-02  0.8594302E-01
        2   -1    0    0  501    0  0.00000000000E+00  0.00000000000E+00  0.10593438916E+04  0.10593438917E+04  0.25500000920E-02 0. -1.
       -2   -1    0    0    0  501  0.00000000000E+00  0.00000000000E+00 -0.96922136544E+03  0.96922136544E+03  0.25500000920E-02 0.  1.
    10030    2    1    2    0    0  0.00000000000E+00  0.00000000000E+00  0.90122526206E+02  0.20285652571E+04  0.20265623436E+04 0.  0.
        4    1    3    3  502    0 -0.97108567325E+03  0.20827752724E+02  0.33395686600E+03  0.10271173162E+04  0.12699999809E+01 0. -1.
       -4    1    3    3    0  502  0.97108567325E+03 -0.20827752724E+02 -0.24383433980E+03  0.10014479409E+04  0.12699999809E+01 0.  1.
</event>
<event>
 5   0  0.3371947E-04  0.1981779E+04  0.7818609E-02  0.8615187E-01
        2   -1    0    0  501    0  0.00000000000E+00  0.00000000000E+00  0.10109886486E+04  0.10109886486E+04  0.25500000920E-02 0.  1.
       -2   -1    0    0    0  501  0.00000000000E+00  0.00000000000E+00 -0.97118962082E+03  0.97118962082E+03  0.25500000920E-02 0. -1.
    10030    2    1    2    0    0  0.00000000000E+00  0.00000000000E+00  0.39799027797E+02  0.19821782694E+04  0.19817786782E+04 0.  0.
        2    1    3    3  502    0  0.43969759350E+03  0.15201747024E+03 -0.85515882422E+03  0.97351933706E+03  0.25500000920E-02 0. -1.
       -2    1    3    3    0  502 -0.43969759350E+03 -0.15201747024E+03  0.89495785201E+03  0.10086589324E+04  0.25500000920E-02 0.  1.
</event>
<event>
 5   0  0.1650221E-04  0.1924368E+04  0.7818609E-02  0.8642821E-01
       -1   -1    0    0    0  501  0.00000000000E+00  0.00000000000E+00  0.97284270208E+03  0.97284270209E+03  0.50400001928E-02 0.  1.
        1   -1    0    0  501    0  0.00000000000E+00  0.00000000000E+00 -0.95164241213E+03  0.95164241214E+03  0.50400001928E-02 0. -1.
    10030    2    1    2    0    0  0.00000000000E+00  0.00000000000E+00  0.21200289949E+02  0.19244851142E+04  0.19243683386E+04 0.  0.
        1    1    3    3  502    0  0.22670684911E+03 -0.15594694156E+03  0.93265551489E+03  0.97239999665E+03  0.50400001928E-02 0.  1.
       -1    1    3    3    0  502 -0.22670684911E+03  0.15594694156E+03 -0.91145522494E+03  0.95208511758E+03  0.50400001928E-02 0. -1.
</event>
<event>
 5   0  0.3371947E-04  0.2014763E+04  0.7818609E-02  0.8599750E-01
        2   -1    0    0  501    0  0.00000000000E+00  0.00000000000E+00  0.16671905517E+04  0.16671905517E+04  0.25500000920E-02 0. -1.
       -2   -1    0    0    0  501  0.00000000000E+00  0.00000000000E+00 -0.60869898979E+03  0.60869898980E+03  0.25500000920E-02 0.  1.
    10030    2    1    2    0    0  0.00000000000E+00  0.00000000000E+00  0.10584915619E+04  0.22758895415E+04  0.20147627201E+04 0.  0.
        2    1    3    3  502    0 -0.47083173924E+03 -0.86652285096E+03  0.76149695513E+03  0.12459622749E+04  0.25500000920E-02 0. -1.
       -2    1    3    3    0  502  0.47083173924E+03  0.86652285096E+03  0.29699460678E+03  0.10299272665E+04  0.25500000920E-02 0.  1.
</event>
<event>
 5   0  0.1643565E-04  0.1991910E+04  0.7818609E-02  0.8610412E-01
        1   -1    0    0  501    0  0.00000000000E+00  0.00000000000E+00  0.96673495530E+03  0.96673495532E+03  0.50400001928E-02 0. -1.
       -1   -1    0    0    0  501  0.00000000000E+00  0.00000000000E+00 -0.10260581184E+04  0.10260581184E+04  0.50400001928E-02 0.  1.
    10030    2    1    2    0    0  0.00000000000E+00  0.00000000000E+00 -0.59323163047E+02  0.19927930737E+04  0.19919098867E+04 0.  0.
        2    1    3    3  502    0 -0.70552917821E+02  0.85981443045E+02  0.96050232590E+03  0.96692049354E+03  0.25500000920E-02 0. -1.
       -2    1    3    3    0  502  0.70552917821E+02 -0.85981443045E+02 -0.10198254889E+04  0.10258725801E+04  0.25500000920E-02 0.  1.
</event>
<event>
 5   0  0.1696052E-04  0.1991806E+04  0.7818609E-02  0.8610461E-01
       -1   -1    0    0    0  501  0.00000000000E+00  0.00000000000E+00  0.80846417931E+03  0.80846417933E+03  0.50400001928E-02 0.  1.
        1   -1    0    0  501    0  0.00000000000E+00  0.00000000000E+00 -0.12267990174E+04  0.12267990174E+04  0.50400001928E-02 0. -1.
    10030    2    1    2    0    0  0.00000000000E+00  0.00000000000E+00 -0.41833483807E+03  0.20352631967E+04  0.19918062765E+04 0.  0.
        4    1    3    3  502    0  0.49006392873E+03 -0.60639685009E+03  0.42398183348E+03  0.88749197296E+03  0.12699999809E+01 0.  1.
       -4    1    3    3    0  502 -0.49006392873E+03  0.60639685009E+03 -0.84231667155E+03  0.11477712238E+04  0.12699999809E+01 0. -1.
</event>
<event>
 5   0  0.3387881E-04  0.1943023E+04  0.7818609E-02  0.8633733E-01
       -2   -1    0    0    0  501  0.00000000000E+00  0.00000000000E+00  0.49378625780E+03  0.49378625781E+03  0.25500000920E-02 0. -1.
        2   -1    0    0  501    0  0.00000000000E+00  0.00000000000E+00 -0.19114232922E+04  0.19114232923E+04  0.25500000920E-02 0.  1.
    10030    2    1    2    0    0  0.00000000000E+00  0.00000000000E+00 -0.14176370344E+04  0.24052095501E+04  0.19430229588E+04 0.  0.
        1    1    3    3  502    0 -0.67229828781E+03  0.69427719784E+03 -0.83154093288E+03  0.12749376998E+04  0.50400001928E-02 0. -1.
       -1    1    3    3    0  502  0.67229828781E+03 -0.69427719784E+03 -0.58609610156E+03  0.11302718503E+04  0.50400001928E-02 0.  1.
</event>
<event>
 5   0  0.3371947E-04  0.1965858E+04  0.7818609E-02  0.8622752E-01
        2   -1    0    0  501    0  0.00000000000E+00  0.00000000000E+00  0.85798490780E+03  0.85798490781E+03  0.25500000920E-02 0.  1.
       -2   -1    0    0    0  501  0.00000000000E+00  0.00000000000E+00 -0.11260682513E+04  0.11260682513E+04  0.25500000920E-02 0. -1.
    10030    2    1    2    0    0  0.00000000000E+00  0.00000000000E+00 -0.26808334345E+03  0.19840531591E+04  0.19658581482E+04 0.  0.
        2    1    3    3  502    0 -0.39679637918E+03 -0.81245102710E+03  0.25504632273E+03  0.93945338613E+03  0.25500000920E-02 0.  1.
       -2    1    3    3    0  502  0.39679637918E+03  0.81245102710E+03 -0.52312966618E+03  0.10445997729E+04  0.25500000920E-02 0. -1.
</event>
<event>
 5   0  0.1650221E-04  0.1977890E+04  0.7818609E-02  0.8617028E-01
        1   -1    0    0  501    0  0.00000000000E+00  0.00000000000E+00  0.72501333954E+03  0.72501333956E+03  0.50400001928E-02 0.  1.
       -1   -1    0    0    0  501  0.00000000000E+00  0.00000000000E+00 -0.13489575196E+04  0.13489575196E+04  0.50400001928E-02 0. -1.
    10030    2    1    2    0    0  0.00000000000E+00  0.00000000000E+00 -0.62394418006E+03  0.20739708592E+04  0.19778899830E+04 0.  0.
        1    1    3    3  502    0 -0.24283018147E+03 -0.18981376251E+03  0.67336518496E+03  0.74055143901E+03  0.50400001928E-02 0.  1.
       -1    1    3    3    0  502  0.24283018147E+03  0.18981376251E+03 -0.12973093650E+04  0.13334194202E+04  0.50400001928E-02 0. -1.
</event>
<event>
 5   0  0.1643565E-04  0.1993414E+04  0.7818609E-02  0.8609706E-01
       -1   -1    0    0    0  501  0.00000000000E+00  0.00000000000E+00  0.13921615856E+04  0.13921615856E+04  0.50400001928E-02 0. -1.
        1   -1    0    0  501    0  0.00000000000E+00  0.00000000000E+00 -0.71358440365E+03  0.71358440367E+03  0.50400001928E-02 0.  1.
    10030    2    1    2    0    0  0.00000000000E+00  0.00000000000E+00  0.67857718199E+03  0.21057459893E+04  0.19934139509E+04 0.  0.
        2    1    3    3  502    0 -0.86137631467E+02  0.20663672872E+03 -0.68668190397E+03  0.72225374105E+03  0.25500000920E-02 0.  1.
       -2    1    3    3    0  502  0.86137631467E+02 -0.20663672872E+03  0.13652590860E+04  0.13834922483E+04  0.25500000920E-02 0. -1.
</event>
<event>
 5   0  0.3387881E-04  0.2004106E+04  0.7818609E-02  0.8604703E-01
       -2   -1    0    0    0  501  0.00000000000E+00  0.00000000000E+00  0.57534096586E+03  0.57534096587E+03  0.25500000920E-02 0.  1.
        2   -1    0    0  501    0  0.00000000000E+00  0.00000000000E+00 -0.17452436391E+04  0.17452436391E+04  0.25500000920E-02 0. -1.
    10030    2    1    2    0    0  0.00000000000E+00  0.00000000000E+00 -0.11699026732E+04  0.23205846050E+04  0.20041059463E+04 0.  0.
        1    1    3    3  502    0 -0.13169129193E+03  0.44247112039E+03  0.44486877256E+03  0.64111739454E+03  0.50400001928E-02 0.  1.
       -1    1    3    3    0  502  0.13169129193E+03 -0.44247112039E+03 -0.16147714458E+04  0.16794672104E+04  0.50400001928E-02 0. -1.
</event>
<event>
 5   0  0.1643565E-04  0.2011775E+04  0.7818609E-02  0.8601135E-01
       -1   -1    0    0    0  501  0.00000000000E+00  0.00000000000E+00  0.13030415879E+04  0.13030415879E+04  0.50400001928E-02 0. -1.
        1   -1    0    0  501    0  0.00000000000E+00  0.00000000000E+00 -0.77649872530E+03  0.77649872532E+03  0.50400001928E-02 0.  1.
    10030    2    1    2    0    0  0.00000000000E+00  0.00000000000E+00  0.52654286255E+03  0.20795403132E+04  0.20117754666E+04 0.  0.
        2    1    3    3  502    0 -0.90512959200E+03  0.23716739312E+03  0.64489855951E+03  0.11363987428E+04  0.25500000920E-02 0. -1.
       -2    1    3    3    0  502  0.90512959200E+03 -0.23716739312E+03 -0.11835569696E+03  0.94314157033E+03  0.25500000920E-02 0.  1.
</event>
<event>
 5   0  0.1708578E-04  0.2029043E+04  0.7818609E-02  0.8593161E-01
       -1   -1    0    0    0  501  0.00000000000E+00  0.00000000000E+00  0.59064243819E+03  0.59064243821E+03  0.50400001928E-02 0.  1.
        1   -1    0    0  501    0  0.00000000000E+00  0.00000000000E+00 -0.17426009154E+04  0.17426009154E+04  0.50400001928E-02 0. -1.
    10030    2    1    2    0    0  0.00000000000E+00  0.00000000000E+00 -0.11519584772E+04  0.23332433536E+04  0.20290431769E+04 0.  0.
        3    1    3    3  502    0 -0.99377391689E+03 -0.18538580420E+03 -0.47773281223E+03  0.11181158904E+04  0.10100000352E+00 0. -1.
       -3    1    3    3    0  502  0.99377391689E+03  0.18538580420E+03 -0.67422566493E+03  0.12151274632E+04  0.10100000352E+00 0.  1.
</event>
<event>
 5   0  0.3395569E-04  0.2097142E+04  0.7818609E-02  0.8562503E-01
       -2   -1    0    0    0  501  0.00000000000E+00  0.00000000000E+00  0.67291818755E+03  0.67291818755E+03  0.25500000920E-02 0. -1.
        2   -1    0    0  501    0  0.00000000000E+00  0.00000000000E+00 -0.16339296814E+04  0.16339296814E+04  0.25500000920E-02 0.  1.
    10030    2    1    2    0    0  0.00000000000E+00  0.00000000000E+00 -0.96101149386E+03  0.23068478690E+04  0.20971418643E+04 0.  0.
        4    1    3    3  502    0  0.56722727890E+03 -0.86227287260E+03 -0.68404394985E+03  0.12382160680E+04  0.12699999809E+01 0.  1.
       -4    1    3    3    0  502 -0.56722727890E+03  0.86227287260E+03 -0.27696754401E+03  0.10686318010E+04  0.12699999809E+01 0. -1.
</event>
<event>
 5   0  0.3395569E-04  0.1976961E+04  0.7818609E-02  0.8617469E-01
       -2   -1    0    0    0  501  0.00000000000E+00  0.00000000000E+00  0.10035849334E+04  0.10035849334E+04  0.25500000920E-02 0. -1.
        2   -1    0    0  501    0  0.00000000000E+00  0.00000000000E+00 -0.97360318204E+03  0.97360318205E+03  0.25500000920E-02 0.  1.
    10030    2    1    2    0    0  0.00000000000E+00  0.00000000000E+00  0.29981751309E+02  0.19771881154E+04  0.19769607832E+04 0.  0.
        4    1    3    3  502    0  0.77145792432E+03 -0.61801334544E+03  0.17002955265E+02  0.98862456854E+03  0.12699999809E+01 0. -1.
       -4    1    3    3    0  502 -0.77145792432E+03  0.61801334544E+03  0.12978796044E+02  0.98856354686E+03  0.12699999809E+01 0.  1.
</event>
<event>
 5   0  0.3395569E-04  0.2049731E+04  0.7818609E-02  0.8583716E-01
       -2   -1    0    0    0  501  0.00000000000E+00  0.00000000000E+00  0.86344197949E+03  0.86344197950E+03  0.25500000920E-02 0. -1.
        2   -1    0    0  501    0  0.00000000000E+00  0.00000000000E+00 -0.12164677871E+04  0.12164677871E+04  0.25500000920E-02 0.  1.
    10030    2    1    2    0    0  0.00000000000E+00  0.00000000000E+00 -0.35302580763E+03  0.20799097666E+04  0.20497310595E+04 0.  0.
        4    1    3    3  502    0  0.52443349427E+03 -0.65669546664E+03 -0.77172253881E+03  0.11409805939E+04  0.12699999809E+01 0.  1.
       -4    1    3    3    0  502 -0.52443349427E+03  0.65669546664E+03  0.41869673117E+03  0.93892917274E+03  0.12699999809E+01 0. -1.
</event>
<event>
 5   0  0.3431030E-04  0.1825967E+04  0.7818609E-02  0.8692611E-01
        2   -1    0    0  501    0  0.00000000000E+00  0.00000000000E+00  0.19333688386E+04  0.19333688386E+04  0.25500000920E-02 0.  1.
       -2   -1    0    0    0  501  0.00000000000E+00  0.00000000000E+00 -0.43113280289E+03  0.43113280290E+03  0.25500000920E-02 0. -1.
    10030    2    1    2    0    0  0.00000000000E+00  0.00000000000E+00  0.15022360357E+04  0.23645016415E+04  0.18259668413E+04 0.  0.
        3    1    3    3  502    0  0.50577429348E+03  0.56755906872E+03  0.14058050981E+04  0.15981923904E+04  0.10100000352E+00 0.  1.
       -3    1    3    3    0  502 -0.50577429348E+03 -0.56755906872E+03  0.96430937534E+02  0.76630925111E+03  0.10100000352E+00 0. -1.
</event>
<event>
 5   0  0.1650221E-04  0.1147357E+04  0.7818609E-02  0.9160225E-01
        1   -1    0    0  501    0  0.00000000000E+00  0.00000000000E+00  0.25588360278E+04  0.25588360278E+04  0.50400001928E-02 0.  1.
       -1   -1    0    0    0  501  0.00000000000E+00  0.00000000000E+00 -0.12861599207E+03  0.12861599217E+03  0.50400001928E-02 0. -1.
    10030    2    1    2    0    0  0.00000000000E+00  0.00000000000E+00  0.24302200357E+04  0.26874520200E+04  0.11473573714E+04 0.  0.
        1    1    3    3  502    0 -0.53570123829E+03  0.82402654644E+02  0.77477545136E+03  0.94553847846E+03  0.50400001928E-02 0. -1.
       -1    1    3    3    0  502  0.53570123829E+03 -0.82402654644E+02  0.16554445844E+04  0.17419135415E+04  0.50400001928E-02 0.  1.
</event>
<event>
 5   0  0.3371947E-04  0.2005083E+04  0.7818609E-02  0.8604248E-01
        2   -1    0    0  501    0  0.00000000000E+00  0.00000000000E+00  0.19116917723E+04  0.19116917723E+04  0.25500000920E-02 0.  1.
       -2   -1    0    0    0  501  0.00000000000E+00  0.00000000000E+00 -0.52575901649E+03  0.52575901650E+03  0.25500000920E-02 0. -1.
    10030    2    1    2    0    0  0.00000000000E+00  0.00000000000E+00  0.13859327558E+04  0.24374507888E+04  0.20050827275E+04 0.  0.
        2    1    3    3  502    0  0.52344868250E+03 -0.32543214727E+03  0.16541529375E+04  0.17652553771E+04  0.25500000920E-02 0.  1.
       -2    1    3    3    0  502 -0.52344868250E+03  0.32543214727E+03 -0.26822018168E+03  0.67219541173E+03  0.25500000920E-02 0. -1.
</event>
<event>
 5   0  0.3387881E-04  0.1969209E+04  0.7818609E-02  0.8621154E-01
        2   -1    0    0  501    0  0.00000000000E+00  0.00000000000E+00  0.11352012629E+04  0.11352012629E+04  0.25500000920E-02 0. -1.
       -2   -1    0    0    0  501  0.00000000000E+00  0.00000000000E+00 -0.85398560190E+03  0.85398560191E+03  0.25500000920E-02 0.  1.
    10030    2    1    2    0    0  0.00000000000E+00  0.00000000000E+00  0.28121566097E+03  0.19891868648E+04  0.19692085047E+04 0.  0.
        1    1    3    3  502    0 -0.31156528108E+03 -0.35784685974E+03 -0.73088377718E+03  0.87138877384E+03  0.50400001928E-02 0.  1.
       -1    1    3    3    0  502  0.31156528108E+03  0.35784685974E+03  0.10120994381E+04  0.11177980909E+04  0.50400001928E-02 0. -1.
</event>
<event>
 5   0  0.1643565E-04  0.1975656E+04  0.7818609E-02  0.8618088E-01
        1   -1    0    0  501    0  0.00000000000E+00  0.00000000000E+00  0.10769297202E+04  0.10769297202E+04  0.50400001928E-02 0.  1.
       -1   -1    0    0    0  501  0.00000000000E+00  0.00000000000E+00 -0.90609841365E+03  0.90609841366E+03  0.50400001928E-02 0. -1.
    10030    2    1    2    0    0  0.00000000000E+00  0.00000000000E+00  0.17083130656E+03  0.19830281339E+04  0.19756561554E+04 0.  0.
        2    1    3    3  502    0  0.66254562915E+03  0.70522028002E+03 -0.11407696028E+03  0.97432843894E+03  0.25500000920E-02 0. -1.
       -2    1    3    3    0  502 -0.66254562915E+03 -0.70522028002E+03  0.28490826684E+03  0.10086996949E+04  0.25500000920E-02 0.  1.
</event>
<event>
 5   0  0.1643565E-04  0.1991095E+04  0.7818609E-02  0.8610796E-01
       -1   -1    0    0    0  501  0.00000000000E+00  0.00000000000E+00  0.10059754255E+04  0.10059754255E+04  0.50400001928E-02 0.  1.
        1   -1    0    0  501    0  0.00000000000E+00  0.00000000000E+00 -0.98522736568E+03  0.98522736570E+03  0.50400001928E-02 0. -1.
    10030    2    1    2    0    0  0.00000000000E+00  0.00000000000E+00  0.20748059825E+02  0.19912027912E+04  0.19910946923E+04 0.  0.
        2    1    3    3  502    0 -0.51720425438E+03  0.49083347439E+03  0.70517557848E+03  0.10028411324E+04  0.25500000920E-02 0.  1.
       -2    1    3    3    0  502  0.51720425438E+03 -0.49083347439E+03 -0.68442751866E+03  0.98836165882E+03  0.25500000920E-02 0. -1.
</event>
<event>
 5   0  0.3387881E-04  0.1963033E+04  0.7818609E-02  0.8624102E-01
       -2   -1    0    0    0  501  0.00000000000E+00  0.00000000000E+00  0.75637888435E+03  0.75637888436E+03  0.25500000920E-02 0. -1.
        2   -1    0    0  501    0  0.00000000000E+00  0.00000000000E+00 -0.12736663641E+04  0.12736663641E+04  0.25500000920E-02 0.  1.
    10030    2    1    2    0    0  0.00000000000E+00  0.00000000000E+00 -0.51728747975E+03  0.20300452485E+04  0.19630326982E+04 0.  0.
        1    1    3    3  502    0 -0.10839687522E+03  0.34864972091E+03 -0.12008261167E+04  0.12551055226E+04  0.50400001928E-02 0.  1.
       -1    1    3    3    0  502  0.10839687522E+03 -0.34864972091E+03  0.68353863693E+03  0.77493972582E+03  0.50400001928E-02 0. -1.
</event>
<event>
 5   0  0.3395569E-04  0.1869374E+04  0.7818609E-02  0.8670253E-01
       -2   -1    0    0    0  501  0.00000000000E+00  0.00000000000E+00  0.16390536574E+04  0.16390536574E+04  0.25500000920E-02 0.  1.
        2   -1    0    0  501    0  0.00000000000E+00  0.00000000000E+00 -0.53301478047E+03  0.53301478047E+03  0.25500000920E-02 0. -1.
    10030    2    1    2    0    0  0.00000000000E+00  0.00000000000E+00  0.11060388769E+04  0.21720684378E+04  0.18693740400E+04 0.  0.
        4    1    3    3  502    0 -0.46337306811E+03  0.18603681328E+03  0.14710958001E+04  0.15535278440E+04  0.12699999809E+01 0.  1.
       -4    1    3    3    0  502  0.46337306811E+03 -0.18603681328E+03 -0.36505692320E+03  0.61854059383E+03  0.12699999809E+01 0. -1.
</event>
<event>
 5   0  0.3395569E-04  0.2010537E+04  0.7818609E-02  0.8601710E-01
        2   -1    0    0  501    0  0.00000000000E+00  0.00000000000E+00  0.90233677311E+03  0.90233677311E+03  0.25500000920E-02 0. -1.
       -2   -1    0    0    0  501  0.00000000000E+00  0.00000000000E+00 -0.11199420626E+04  0.11199420626E+04  0.25500000920E-02 0.  1.
    10030    2    1    2    0    0  0.00000000000E+00  0.00000000000E+00 -0.21760528950E+03  0.20222788357E+04  0.20105371490E+04 0.  0.
        4    1    3    3  502    0  0.31654915416E+03 -0.30237573561E+03 -0.10190344741E+04  0.11090840026E+04  0.12699999809E+01 0.  1.
       -4    1    3    3    0  502 -0.31654915416E+03  0.30237573561E+03  0.80142918458E+03  0.91319483315E+03  0.12699999809E+01 0. -1.
</event>
<event>
 5   0  0.1708578E-04  0.2013173E+04  0.7818609E-02  0.8600487E-01
       -1   -1    0    0    0  501  0.00000000000E+00  0.00000000000E+00  0.24807038823E+04  0.24807038823E+04  0.50400001928E-02 0.  1.
        1   -1    0    0  501    0  0.00000000000E+00  0.00000000000E+00 -0.40843902138E+03  0.40843902141E+03  0.50400001928E-02 0. -1.
    10030    2    1    2    0    0  0.00000000000E+00  0.00000000000E+00  0.20722648609E+04  0.28891429037E+04  0.20131728848E+04 0.  0.
        3    1    3    3  502    0 -0.45575950575E+03  0.20498142741E+03 -0.21783828187E+03  0.54514919051E+03  0.10100000352E+00 0.  1.
       -3    1    3    3    0  502  0.45575950575E+03 -0.20498142741E+03  0.22901031427E+04  0.23439937132E+04  0.10100000352E+00 0. -1.
</event>
<event>
 5   0  0.1664168E-04  0.1043041E+04  0.7818609E-02  0.9262558E-01
       -1   -1    0    0    0  501  0.00000000000E+00  0.00000000000E+00  0.74435130908E+03  0.74435130910E+03  0.50400001928E-02 0. -1.
        1   -1    0    0  501    0  0.00000000000E+00  0.00000000000E+00 -0.36539717980E+03  0.36539717983E+03  0.50400001928E-02 0.  1.
    10030    2    1    2    0    0  0.00000000000E+00  0.00000000000E+00  0.37895412928E+03  0.11097484889E+04  0.10430414549E+04 0.  0.
        5    1    3    3  502    0 -0.49314963766E+03 -0.13936231960E+03  0.29232000508E+03  0.58999279370E+03  0.46999998093E+01 0. -1.
       -5    1    3    3    0  502  0.49314963766E+03  0.13936231960E+03  0.86634124199E+02  0.51975569523E+03  0.46999998093E+01 0.  1.
</event>
<event>
 5   0  0.3371947E-04  0.2033686E+04  0.7818609E-02  0.8591032E-01
        2   -1    0    0  501    0  0.00000000000E+00  0.00000000000E+00  0.20992001219E+04  0.20992001219E+04  0.25500000920E-02 0.  1.
       -2   -1    0    0    0  501  0.00000000000E+00  0.00000000000E+00 -0.49255389746E+03  0.49255389747E+03  0.25500000920E-02 0. -1.
    10030    2    1    2    0    0  0.00000000000E+00  0.00000000000E+00  0.16066462245E+04  0.25917540194E+04  0.20336855230E+04 0.  0.
        2    1    3    3  502    0  0.81558461911E+03  0.47463365180E+03  0.12861115458E+04  0.15951608955E+04  0.25500000920E-02 0.  1.
       -2    1    3    3    0  502 -0.81558461911E+03 -0.47463365180E+03  0.32053467871E+03  0.99659312391E+03  0.25500000920E-02 0. -1.
</event>
<event>
 5   0  0.1643565E-04  0.2021548E+04  0.7818609E-02  0.8596612E-01
       -1   -1    0    0    0  501  0.00000000000E+00  0.00000000000E+00  0.14272058006E+04  0.14272058006E+04  0.50400001928E-02 0. -1.
        1   -1    0    0  501    0  0.00000000000E+00  0.00000000000E+00 -0.71584927354E+03  0.71584927355E+03  0.50400001928E-02 0.  1.
    10030    2    1    2    0    0  0.00000000000E+00  0.00000000000E+00  0.71135652709E+03  0.21430550742E+04  0.20215481549E+04 0.  0.
        2    1    3    3  502    0  0.22871511635E+03 -0.87843278788E+03  0.82704938847E+03  0.12279924504E+04  0.25500000920E-02 0.  1.
       -2    1    3    3    0  502 -0.22871511635E+03  0.87843278788E+03 -0.11569286138E+03  0.91506262379E+03  0.25500000920E-02 0. -1.
</event>
<event>
 5   0  0.1643565E-04  0.1904900E+04  0.7818609E-02  0.8652421E-01
        1   -1    0    0  501    0  0.00000000000E+00  0.00000000000E+00  0.65722078448E+03  0.65722078450E+03  0.50400001928E-02 0. -1.
       -1   -1    0    0    0  501  0.00000000000E+00  0.00000000000E+00 -0.13802988530E+04  0.13802988530E+04  0.50400001928E-02 0.  1.
    10030    2    1    2    0    0  0.00000000000E+00  0.00000000000E+00 -0.72307806856E+03  0.20375196375E+04  0.19049000972E+04 0.  0.
        2    1    3    3  502    0  0.67363384125E+03 -0.60450932180E+03 -0.44333927643E+02  0.90618958798E+03  0.25500000920E-02 0. -1.
       -2    1    3    3    0  502 -0.67363384125E+03  0.60450932180E+03 -0.67874414091E+03  0.11313300496E+04  0.25500000920E-02 0.  1.
</event>
<event>
 5   0  0.1650221E-04  0.1977609E+04  0.7818609E-02  0.8617161E-01
       -1   -1    0    0    0  501  0.00000000000E+00  0.00000000000E+00  0.90871907960E+03  0.90871907962E+03  0.50400001928E-02 0.  1.
        1   -1    0    0  501    0  0.00000000000E+00  0.00000000000E+00 -0.10759479203E+04  0.10759479203E+04  0.50400001928E-02 0. -1.
    10030    2    1    2    0    0  0.00000000000E+00  0.00000000000E+00 -0.16722884072E+03  0.19846670000E+04  0.19776090654E+04 0.  0.
        1    1    3    3  502    0  0.58998739035E+03 -0.31523239926E+03  0.64718624551E+03  0.93075594155E+03  0.50400001928E-02 0.  1.
       -1    1    3    3    0  502 -0.58998739035E+03  0.31523239926E+03 -0.81441508624E+03  0.10539110584E+04  0.50400001928E-02 0. -1.
</event>
<event>
 5   0  0.3371947E-04  0.1926062E+04  0.7818609E-02  0.8641992E-01
        2   -1    0    0  501    0  0.00000000000E+00  0.00000000000E+00  0.97980211701E+03  0.97980211701E+03  0.25500000920E-02 0. -1.
       -2   -1    0    0    0  501  0.00000000000E+00  0.00000000000E+00 -0.94654646905E+03  0.94654646906E+03  0.25500000920E-02 0.  1.
    10030    2    1    2    0    0  0.00000000000E+00  0.00000000000E+00  0.33255647956E+02  0.19263485861E+04  0.19260615091E+04 0.  0.
        2    1    3    3  502    0 -0.25414540919E+03  0.33652639719E+03  0.88254456142E+03  0.97812310468E+03  0.25500000920E-02 0. -1.
       -2    1    3    3    0  502  0.25414540919E+03 -0.33652639719E+03 -0.84928891346E+03  0.94822548139E+03  0.25500000920E-02 0.  1.
</event>
<event>
 5   0  0.3395569E-04  0.1968594E+04  0.7818609E-02  0.8621446E-01
        2   -1    0    0  501    0  0.00000000000E+00  0.00000000000E+00  0.15232722505E+04  0.15232722505E+04  0.25500000920E-02 0.  1.
       -2   -1    0    0    0  501  0.00000000000E+00  0.00000000000E+00 -0.63602586985E+03  0.63602586986E+03  0.25500000920E-02 0. -1.
    10030    2    1    2    0    0  0.00000000000E+00  0.00000000000E+00  0.88724638069E+03  0.21592981204E+04  0.19685939736E+04 0.  0.
        4    1    3    3  502    0  0.97686436336E+03  0.33079711130E+02  0.31626919499E+03  0.10273198471E+04  0.12699999809E+01 0. -1.
       -4    1    3    3    0  502 -0.97686436336E+03 -0.33079711130E+02  0.57097718570E+03  0.11319782733E+04  0.12699999809E+01 0.  1.
</event>
<event>
 5   0  0.1650221E-04  0.1971640E+04  0.7818609E-02  0.8619996E-01
        1   -1    0    0  501    0  0.00000000000E+00  0.00000000000E+00  0.18378909792E+04  0.18378909792E+04  0.50400001928E-02 0. -1.
       -1   -1    0    0    0  501  0.00000000000E+00  0.00000000000E+00 -0.52878056545E+03  0.52878056547E+03  0.50400001928E-02 0.  1.
    10030    2    1    2    0    0  0.00000000000E+00  0.00000000000E+00  0.13091104138E+04  0.23666715447E+04  0.19716399583E+04 0.  0.
        1    1    3    3  502    0  0.11038194801E+01 -0.32059993427E+03 -0.46445521900E+03  0.56436175167E+03  0.50400001928E-02 0.  1.
       -1    1    3    3    0  502 -0.11038194801E+01  0.32059993427E+03  0.17735656328E+04  0.18023097930E+04  0.50400001928E-02 0. -1.
</event>
<event>
 5   0  0.3387881E-04  0.1931440E+04  0.7818609E-02  0.8639363E-01
       -2   -1    0    0    0  501  0.00000000000E+00  0.00000000000E+00  0.80324542124E+03  0.80324542124E+03  0.25500000920E-02 0.  1.
        2   -1    0    0  501    0  0.00000000000E+00  0.00000000000E+00 -0.11610583366E+04  0.11610583366E+04  0.25500000920E-02 0. -1.
    10030    2    1    2    0    0  0.00000000000E+00  0.00000000000E+00 -0.35781291537E+03  0.19643037579E+04  0.19314396627E+04 0.  0.
        1    1    3    3  502    0  0.73285915411E+03 -0.32653650066E+03  0.36773920663E+03  0.88257620076E+03  0.50400001928E-02 0.  1.
       -1    1    3    3    0  502 -0.73285915411E+03  0.32653650066E+03 -0.72555212200E+03  0.10817275571E+04  0.50400001928E-02 0. -1.
</event>
<event>
 5   0  0.1643565E-04  0.1926991E+04  0.7818609E-02  0.8641536E-01
       -1   -1    0    0    0  501  0.00000000000E+00  0.00000000000E+00  0.10082978780E+04  0.10082978780E+04  0.50400001928E-02 0.  1.
        1   -1    0    0  501    0  0.00000000000E+00  0.00000000000E+00 -0.92068420519E+03  0.92068420521E+03  0.50400001928E-02 0. -1.
    10030    2    1    2    0    0  0.00000000000E+00  0.00000000000E+00  0.87613672785E+02  0.19289820832E+04  0.19269913652E+04 0.  0.
        2    1    3    3  502    0 -0.94854249904E+03  0.11012658480E+03  0.17224836426E+03  0.97032480962E+03  0.25500000920E-02 0.  1.
       -2    1    3    3    0  502  0.94854249904E+03 -0.11012658480E+03 -0.84634691478E+02  0.95865727358E+03  0.25500000920E-02 0. -1.
</event>
<event>
 5   0  0.1650221E-04  0.2015826E+04  0.7818609E-02  0.8599257E-01
        1   -1    0    0  501    0  0.00000000000E+00  0.00000000000E+00  0.11306212056E+04  0.11306212056E+04  0.50400001928E-02 0.  1.
       -1   -1    0    0    0  501  0.00000000000E+00  0.00000000000E+00 -0.89852209994E+03  0.89852209995E+03  0.50400001928E-02 0. -1.
    10030    2    1    2    0    0  0.00000000000E+00  0.00000000000E+00  0.23209910570E+03  0.20291433056E+04  0.20158255281E+04 0.  0.
        1    1    3    3  502    0  0.50611634023E+03 -0.10084586095E+03 -0.75544421238E+03  0.91488775025E+03  0.50400001928E-02 0. -1.
       -1    1    3    3    0  502 -0.50611634023E+03  0.10084586095E+03  0.98754331807E+03  0.11142555553E+04  0.50400001928E-02 0.  1.
</event>
<event>
 5   0  0.1708578E-04  0.2006810E+04  0.7818609E-02  0.8603443E-01
        1   -1    0    0  501    0  0.00000000000E+00  0.00000000000E+00  0.90445292504E+03  0.90445292505E+03  0.50400001928E-02 0. -1.
       -1   -1    0    0    0  501  0.00000000000E+00  0.00000000000E+00 -0.11131826865E+04  0.11131826865E+04  0.50400001928E-02 0.  1.
    10030    2    1    2    0    0  0.00000000000E+00  0.00000000000E+00 -0.20872976147E+03  0.20176356116E+04  0.20068097438E+04 0.  0.
        3    1    3    3  502    0 -0.70101284503E+03 -0.43781264512E+03  0.46767052918E+03  0.94963922370E+03  0.10100000352E+00 0. -1.
       -3    1    3    3    0  502  0.70101284503E+03  0.43781264512E+03 -0.67640029065E+03  0.10679963879E+04  0.10100000352E+00 0.  1.
</event>
<event>
 5   0  0.1650221E-04  0.2136107E+04  0.7818609E-02  0.8545503E-01
       -1   -1    0    0    0  501  0.00000000000E+00  0.00000000000E+00  0.22979406077E+04  0.22979406077E+04  0.50400001928E-02 0.  1.
        1   -1    0    0  501    0  0.00000000000E+00  0.00000000000E+00 -0.49641760347E+03  0.49641760350E+03  0.50400001928E-02 0. -1.
    10030    2    1    2    0    0  0.00000000000E+00  0.00000000000E+00  0.18015230042E+04  0.27943582112E+04  0.21361068975E+04 0.  0.
        1    1    3    3  502    0  0.83824072709E+03 -0.29029208850E+03  0.16788894144E+04  0.18988382446E+04  0.50400001928E-02 0.  1.
       -1    1    3    3    0  502 -0.83824072709E+03  0.29029208850E+03  0.12263358976E+03  0.89551996659E+03  0.50400001928E-02 0. -1.
</event>
<event>
 5   0  0.1650221E-04  0.1961745E+04  0.7818609E-02  0.8624718E-01
       -1   -1    0    0    0  501  0.00000000000E+00  0.00000000000E+00  0.68930107993E+03  0.68930107995E+03  0.50400001928E-02 0. -1.
        1   -1    0    0  501    0  0.00000000000E+00  0.00000000000E+00 -0.13957767239E+04  0.13957767239E+04  0.50400001928E-02 0.  1.
    10030    2    1    2    0    0  0.00000000000E+00  0.00000000000E+00 -0.70647564394E+03  0.20850778038E+04  0.19617445329E+04 0.  0.
        1    1    3    3  502    0  0.49387406167E+02  0.95364525894E+03 -0.59145335731E+03  0.11232521844E+04  0.50400001928E-02 0. -1.
       -1    1    3    3    0  502 -0.49387406167E+02 -0.95364525894E+03 -0.11502228663E+03  0.96182561945E+03  0.50400001928E-02 0.  1.
</event>
<event>
 5   0  0.1643565E-04  0.1978090E+04  0.7818609E-02  0.8616933E-01
        1   -1    0    0  501    0  0.00000000000E+00  0.00000000000E+00  0.17642095826E+04  0.17642095826E+04  0.50400001928E-02 0. -1.
       -1   -1    0    0    0  501  0.00000000000E+00  0.00000000000E+00 -0.55447500539E+03  0.55447500542E+03  0.50400001928E-02 0.  1.
    10030    2    1    2    0    0  0.00000000000E+00  0.00000000000E+00  0.12097345772E+04  0.23186845880E+04  0.19780901070E+04 0.  0.
        2    1    3    3  502    0 -0.31583916192E+03  0.61665046778E+03 -0.22249661427E+03  0.72767913189E+03  0.25500000920E-02 0.  1.
       -2    1    3    3    0  502  0.31583916192E+03 -0.61665046778E+03  0.14322311915E+04  0.15910054561E+04  0.25500000920E-02 0. -1.
</event>
<event>
 5   0  0.1650221E-04  0.1720959E+04  0.7818609E-02  0.8749500E-01
       -1   -1    0    0    0  501  0.00000000000E+00  0.00000000000E+00  0.10834062207E+04  0.10834062207E+04  0.50400001928E-02 0.  1.
        1   -1    0    0  501    0  0.00000000000E+00  0.00000000000E+00 -0.68342285797E+03  0.68342285799E+03  0.50400001928E-02 0. -1.
    10030    2    1    2    0    0  0.00000000000E+00  0.00000000000E+00  0.39998336275E+03  0.17668290787E+04  0.17209585419E+04 0.  0.
        1    1    3    3  502    0  0.41102381600E+03  0.74150572457E+02 -0.57238091361E+03  0.70856107359E+03  0.50400001928E-02 0. -1.
       -1    1    3    3    0  502 -0.41102381600E+03 -0.74150572457E+02  0.97236427637E+03  0.10582680051E+04  0.50400001928E-02 0.  1.
</event>
<event>
 5   0  0.3371947E-04  0.2034178E+04  0.7818609E-02  0.8590806E-01
       -2   -1    0    0    0  501  0.00000000000E+00  0.00000000000E+00  0.78090422072E+03  0.78090422072E+03  0.25500000920E-02 0. -1.
        2   -1    0    0  501    0  0.00000000000E+00  0.00000000000E+00 -0.13247083918E+04  0.13247083918E+04  0.25500000920E-02 0.  1.
    10030    2    1    2    0    0  0.00000000000E+00  0.00000000000E+00 -0.54380417113E+03  0.21056126126E+04  0.20341783348E+04 0.  0.
        2    1    3    3  502    0 -0.86115454503E+03 -0.42171102869E+03 -0.62299301460E+03  0.11434804932E+04  0.25500000920E-02 0.  1.
       -2    1    3    3    0  502  0.86115454503E+03  0.42171102869E+03  0.79188843469E+02  0.96213211934E+03  0.25500000920E-02 0. -1.
</event>
<event>
 5   0  0.1643565E-04  0.1952704E+04  0.7818609E-02  0.8629058E-01
        1   -1    0    0  501    0  0.00000000000E+00  0.00000000000E+00  0.15780491367E+04  0.15780491367E+04  0.50400001928E-02 0. -1.
       -1   -1    0    0    0  501  0.00000000000E+00  0.00000000000E+00 -0.60407694837E+03  0.60407694839E+03  0.50400001928E-02 0.  1.
    10030    2    1    2    0    0  0.00000000000E+00  0.00000000000E+00  0.97397218831E+03  0.21821260851E+04  0.19527038761E+04 0.  0.
        2    1    3    3  502    0 -0.37120033346E+02  0.62684997328E+03  0.13224500664E+04  0.14639648097E+04  0.25500000920E-02 0. -1.
       -2    1    3    3    0  502  0.37120033346E+02 -0.62684997328E+03 -0.34847787813E+03  0.71816127536E+03  0.25500000920E-02 0.  1.
</event>
<event>
 5   0  0.1664168E-04  0.2172964E+04  0.7818609E-02  0.8529766E-01
        1   -1    0    0  501    0  0.00000000000E+00  0.00000000000E+00  0.13768557898E+04  0.13768557898E+04  0.50400001928E-02 0. -1.
       -1   -1    0    0    0  501  0.00000000000E+00  0.00000000000E+00 -0.85734658616E+03  0.85734658617E+03  0.50400001928E-02 0.  1.
    10030    2    1    2    0    0  0.00000000000E+00  0.00000000000E+00  0.51950920365E+03  0.22342023760E+04  0.21729635165E+04 0.  0.
        5    1    3    3  502    0  0.96025930236E+03  0.32165297023E+03 -0.14486083739E+03  0.10230177483E+04  0.46999998093E+01 0.  1.
       -5    1    3    3    0  502 -0.96025930236E+03 -0.32165297023E+03  0.66437004104E+03  0.12111846277E+04  0.46999998093E+01 0. -1.
</event>
<event>
 5   0  0.3387881E-04  0.1924584E+04  0.7818609E-02  0.8642715E-01
        2   -1    0    0  501    0  0.00000000000E+00  0.00000000000E+00  0.79447954012E+03  0.79447954013E+03  0.25500000920E-02 0. -1.
       -2   -1    0    0    0  501  0.00000000000E+00  0.00000000000E+00 -0.11655506993E+04  0.11655506993E+04  0.25500000920E-02 0.  1.
    10030    2    1    2    0    0  0.00000000000E+00  0.00000000000E+00 -0.37107115916E+03  0.19600302394E+04  0.19245843017E+04 0.  0.
        1    1    3    3  502    0  0.44929736612E+03 -0.20892445834E+03  0.65457464355E+03  0.82096620911E+03  0.50400001928E-02 0. -1.
       -1    1    3    3    0  502 -0.44929736612E+03  0.20892445834E+03 -0.10256458027E+04  0.11390640303E+04  0.50400001928E-02 0.  1.
</event>
<event>
 5   0  0.3387881E-04  0.1896344E+04  0.7818609E-02  0.8656678E-01
       -2   -1    0    0    0  501  0.00000000000E+00  0.00000000000E+00  0.57611165708E+03  0.57611165708E+03  0.25500000920E-02 0.  1.
        2   -1    0    0  501    0  0.00000000000E+00  0.00000000000E+00 -0.15605134798E+04  0.15605134798E+04  0.25500000920E-02 0. -1.
    10030    2    1    2    0    0  0.00000000000E+00  0.00000000000E+00 -0.98440182273E+03  0.21366251369E+04  0.18963438578E+04 0.  0.
        1    1    3    3  502    0 -0.87046450285E+03  0.76032308500E+00 -0.91576054222E+03  0.12634581115E+04  0.50400001928E-02 0. -1.
       -1    1    3    3    0  502  0.87046450285E+03 -0.76032308500E+00 -0.68641280512E+02  0.87316702539E+03  0.50400001928E-02 0.  1.
</event>
<event>
 5   0  0.3371947E-04  0.2015056E+04  0.7818609E-02  0.8599614E-01
       -2   -1    0    0    0  501  0.00000000000E+00  0.00000000000E+00  0.65532074458E+03  0.65532074459E+03  0.25500000920E-02 0. -1.
        2   -1    0    0  501    0  0.00000000000E+00  0.00000000000E+00 -0.15490312182E+04  0.15490312182E+04  0.25500000920E-02 0.  1.
    10030    2    1    2    0    0  0.00000000000E+00  0.00000000000E+00 -0.89371047361E+03  0.22043519628E+04  0.20150556233E+04 0.  0.
        2    1    3    3  502    0  0.17327431994E+03  0.16728039657E+03 -0.15170771063E+04  0.15360760618E+04  0.25500000920E-02 0.  1.
       -2    1    3    3    0  502 -0.17327431994E+03 -0.16728039657E+03  0.62336663273E+03  0.66827590099E+03  0.25500000920E-02 0. -1.
</event>
<event>
 5   0  0.3460648E-04  0.1247494E+04  0.7818609E-02  0.9072271E-01
       -2   -1    0    0    0  501  0.00000000000E+00  0.00000000000E+00  0.22534325904E+03  0.22534325906E+03  0.25500000920E-02 0.  1.
        2   -1    0    0  501    0  0.00000000000E+00  0.00000000000E+00 -0.17265241862E+04  0.17265241862E+04  0.25500000920E-02 0. -1.
    10030    2    1    2    0    0  0.00000000000E+00  0.00000000000E+00 -0.15011809272E+04  0.19518674453E+04  0.12474944280E+04 0.  0.
        5    1    3    3  502    0 -0.47241334175E+03  0.25044152192E+03 -0.24809521990E+03  0.58946471439E+03  0.46999998093E+01 0.  1.
       -5    1    3    3    0  502  0.47241334175E+03 -0.25044152192E+03 -0.12530857073E+04  0.13624027309E+04  0.46999998093E+01 0. -1.
</event>
<event>
 5   0  0.1696052E-04  0.2042754E+04  0.7818609E-02  0.8586889E-01
       -1   -1    0    0    0  501  0.00000000000E+00  0.00000000000E+00  0.10733172108E+04  0.10733172108E+04  0.50400001928E-02 0.  1.
        1   -1    0    0  501    0  0.00000000000E+00  0.00000000000E+00 -0.97195044157E+03  0.97195044159E+03  0.50400001928E-02 0. -1.
    10030    2    1    2    0    0  0.00000000000E+00  0.00000000000E+00  0.10136676920E+03  0.20452676524E+04  0.20427541575E+04 0.  0.
        4    1    3    3  502    0  0.99014713366E+03 -0.78675610714E+02 -0.18757648991E+03  0.10108252819E+04  0.12699999809E+01 0.  1.
       -4    1    3    3    0  502 -0.99014713366E+03  0.78675610714E+02  0.28894325911E+03  0.10344423705E+04  0.12699999809E+01 0. -1.
</event>
<event>
 5   0  0.3387881E-04  0.1881116E+04  0.7818609E-02  0.8664313E-01
        2   -1    0    0  501    0  0.00000000000E+00  0.00000000000E+00  0.94726644933E+03  0.94726644933E+03  0.25500000920E-02 0.  1.
       -2   -1    0    0    0  501  0.00000000000E+00  0.00000000000E+00 -0.93389747504E+03  0.93389747504E+03  0.25500000920E-02 0. -1.
    10030    2    1    2    0    0  0.00000000000E+00  0.00000000000E+00  0.13368974293E+02  0.18811639244E+04  0.18811164187E+04 0.  0.
        1    1    3    3  502    0  0.20616433322E+02 -0.94032110586E+03  0.11259070436E+02  0.94061447264E+03  0.50400001928E-02 0.  1.
       -1    1    3    3    0  502 -0.20616433322E+02  0.94032110586E+03  0.21099038569E+01  0.94054945174E+03  0.50400001928E-02 0. -1.
</event>
<event>
 5   0  0.1650221E-04  0.1912772E+04  0.7818609E-02  0.8648525E-01
       -1   -1    0    0    0  501  0.00000000000E+00  0.00000000000E+00  0.59756178983E+03  0.59756178985E+03  0.50400001928E-02 0. -1.
        1   -1    0    0  501    0  0.00000000000E+00  0.00000000000E+00 -0.15306777682E+04  0.15306777682E+04  0.50400001928E-02 0.  1.
    10030    2    1    2    0    0  0.00000000000E+00  0.00000000000E+00 -0.93311597834E+03  0.21282395580E+04  0.19127723825E+04 0.  0.
        1    1    3    3  502    0 -0.16886516377E+03  0.94104623084E+03 -0.49360914002E+03  0.10759802207E+04  0.50400001928E-02 0.  1.
       -1    1    3    3    0  502  0.16886516377E+03 -0.94104623084E+03 -0.43950683832E+03  0.10522593374E+04  0.50400001928E-02 0. -1.
</event>
<event>
 5   0  0.1643565E-04  0.2021277E+04  0.7818609E-02  0.8596737E-01
        1   -1    0    0  501    0  0.00000000000E+00  0.00000000000E+00  0.89885560783E+03  0.89885560785E+03  0.50400001928E-02 0. -1.
       -1   -1    0    0    0  501  0.00000000000E+00  0.00000000000E+00 -0.11363226325E+04  0.11363226325E+04  0.50400001928E-02 0.  1.
    10030    2    1    2    0    0  0.00000000000E+00  0.00000000000E+00 -0.23746702468E+03  0.20351782404E+04  0.20212767951E+04 0.  0.
        2    1    3    3  502    0  0.40294343882E+02  0.21810635271E+03 -0.11115147602E+04  0.11334280204E+04  0.25500000920E-02 0.  1.
       -2    1    3    3    0  502 -0.40294343882E+02 -0.21810635271E+03  0.87404773553E+03  0.90175021998E+03  0.25500000920E-02 0. -1.
</event>
<event>
 5   0  0.1650221E-04  0.1819294E+04  0.7818609E-02  0.8696106E-01
        1   -1    0    0  501    0  0.00000000000E+00  0.00000000000E+00  0.85585455984E+03  0.85585455985E+03  0.50400001928E-02 0.  1.
       -1   -1    0    0    0  501  0.00000000000E+00  0.00000000000E+00 -0.96682054055E+03  0.96682054056E+03  0.50400001928E-02 0. -1.
    10030    2    1    2    0    0  0.00000000000E+00  0.00000000000E+00 -0.11096598071E+03  0.18226751004E+04  0.18192941139E+04 0.  0.
        1    1    3    3  502    0 -0.84710027395E+03 -0.99037256392E+01 -0.38743061270E+03  0.93154679839E+03  0.50400001928E-02 0. -1.
       -1    1    3    3    0  502  0.84710027395E+03  0.99037256392E+01  0.27646463199E+03  0.89112830203E+03  0.50400001928E-02 0.  1.
</event>
<event>
 5   0  0.1664168E-04  0.2102084E+04  0.7818609E-02  0.8560326E-01
       -1   -1    0    0    0  501  0.00000000000E+00  0.00000000000E+00  0.60262832757E+03  0.60262832759E+03  0.50400001928E-02 0.  1.
        1   -1    0    0  501    0  0.00000000000E+00  0.00000000000E+00 -0.18331191636E+04  0.18331191636E+04  0.50400001928E-02 0. -1.
    10030    2    1    2    0    0  0.00000000000E+00  0.00000000000E+00 -0.12304908360E+04  0.24357474912E+04  0.21020842379E+04 0.  0.
        5    1    3    3  502    0 -0.61228258212E+03 -0.62234000405E+03 -0.12933453045E+04  0.15604362236E+04  0.46999998093E+01 0. -1.
       -5    1    3    3    0  502  0.61228258212E+03  0.62234000405E+03  0.62854468526E+02  0.87531126762E+03  0.46999998093E+01 0.  1.
</event>
<event>
 5   0  0.1643565E-04  0.1743061E+04  0.7818609E-02  0.8737179E-01
       -1   -1    0    0    0  501  0.00000000000E+00  0.00000000000E+00  0.75839611118E+03  0.75839611120E+03  0.50400001928E-02 0. -1.
        1   -1    0    0  501    0  0.00000000000E+00  0.00000000000E+00 -0.10015414306E+04  0.10015414306E+04  0.50400001928E-02 0.  1.
    10030    2    1    2    0    0  0.00000000000E+00  0.00000000000E+00 -0.24314531940E+03  0.17599375418E+04  0.17430606715E+04 0.  0.
        2    1    3    3  502    0 -0.24761720136E+03 -0.52906802179E+02  0.72043926787E+03  0.76364006366E+03  0.25500000920E-02 0. -1.
       -2    1    3    3    0  502  0.24761720136E+03  0.52906802179E+02 -0.96358458727E+03  0.99629747814E+03  0.25500000920E-02 0.  1.
</event>
<event>
 5   0  0.3387881E-04  0.9881354E+03  0.7818609E-02  0.9321654E-01
       -2   -1    0    0    0  501  0.00000000000E+00  0.00000000000E+00  0.32168674406E+03  0.32168674407E+03  0.25500000920E-02 0. -1.
        2   -1    0    0  501    0  0.00000000000E+00  0.00000000000E+00 -0.75882173331E+03  0.75882173331E+03  0.25500000920E-02 0.  1.
    10030    2    1    2    0    0  0.00000000000E+00  0.00000000000E+00 -0.43713498925E+03  0.10805084774E+04  0.98813540109E+03 0.  0.
        1    1    3    3  502    0 -0.13210522762E+03  0.45980133016E+03 -0.83603976434E+02  0.48565283824E+03  0.50400001928E-02 0. -1.
       -1    1    3    3    0  502  0.13210522762E+03 -0.45980133016E+03 -0.35353101281E+03  0.59485563915E+03  0.50400001928E-02 0.  1.
</event>
<event>
 5   0  0.3431030E-04  0.1985552E+04  0.7818609E-02  0.8613406E-01
        2   -1    0    0  501    0  0.00000000000E+00  0.00000000000E+00  0.96136250600E+03  0.96136250600E+03  0.25500000920E-02 0. -1.
       -2   -1    0    0    0  501  0.00000000000E+00  0.00000000000E+00 -0.10252157462E+04  0.10252157462E+04  0.25500000920E-02 0.  1.
    10030    2    1    2    0    0  0.00000000000E+00  0.00000000000E+00 -0.63853240238E+02  0.19865782522E+04  0.19855517913E+04 0.  0.
        3    1    3    3  502    0  0.24921007809E+03 -0.88851041124E+03 -0.39824094760E+03  0.10050633196E+04  0.10100000352E+00 0.  1.
       -3    1    3    3    0  502 -0.24921007809E+03  0.88851041124E+03  0.33438770736E+03  0.98151493261E+03  0.10100000352E+00 0. -1.
</event>
<event>
 5   0  0.1650221E-04  0.1579630E+04  0.7818609E-02  0.8833161E-01
        1   -1    0    0  501    0  0.00000000000E+00  0.00000000000E+00  0.15467715079E+04  0.15467715079E+04  0.50400001928E-02 0. -1.
       -1   -1    0    0    0  501  0.00000000000E+00  0.00000000000E+00 -0.40329664191E+03  0.40329664194E+03  0.50400001928E-02 0.  1.
    10030    2    1    2    0    0  0.00000000000E+00  0.00000000000E+00  0.11434748660E+04  0.19500681499E+04  0.15796300263E+04 0.  0.
        1    1    3    3  502    0  0.66590694397E+02  0.81879516615E+01 -0.39977237600E+03  0.40536318996E+03  0.50400001928E-02 0.  1.
       -1    1    3    3    0  502 -0.66590694397E+02 -0.81879516615E+01  0.15432472420E+04  0.15447049599E+04  0.50400001928E-02 0. -1.
</event>
<event>
 5   0  0.1643565E-04  0.1952145E+04  0.7818609E-02  0.8629327E-01
       -1   -1    0    0    0  501  0.00000000000E+00  0.00000000000E+00  0.47917352104E+03  0.47917352107E+03  0.50400001928E-02 0. -1.
        1   -1    0    0  501    0  0.00000000000E+00  0.00000000000E+00 -0.19882506031E+04  0.19882506031E+04  0.50400001928E-02 0.  1.
    10030    2    1    2    0    0  0.00000000000E+00  0.00000000000E+00 -0.15090770820E+04  0.24674241242E+04  0.19521445051E+04 0.  0.
        2    1    3    3  502    0 -0.55001070993E+03 -0.23285738572E+03 -0.17303112566E+04  0.18304948478E+04  0.25500000920E-02 0.  1.
       -2    1    3    3    0  502  0.55001070993E+03  0.23285738572E+03  0.22123417453E+03  0.63692927638E+03  0.25500000920E-02 0. -1.
</event>
<event>
 5   0  0.1650221E-04  0.1983158E+04  0.7818609E-02  0.8614536E-01
        1   -1    0    0  501    0  0.00000000000E+00  0.00000000000E+00  0.12742064671E+04  0.12742064671E+04  0.50400001928E-02 0.  1.
       -1   -1    0    0    0  501  0.00000000000E+00  0.00000000000E+00 -0.77164010093E+03  0.77164010095E+03  0.50400001928E-02 0. -1.
    10030    2    1    2    0    0  0.00000000000E+00  0.00000000000E+00  0.50256636618E+03  0.20458465681E+04  0.19831578928E+04 0.  0.
        1    1    3    3  502    0  0.12998184829E+03  0.91849808201E+03  0.61263383663E+03  0.11116898063E+04  0.50400001928E-02 0.  1.
       -1    1    3    3    0  502 -0.12998184829E+03 -0.91849808201E+03 -0.11006747045E+03  0.93415676180E+03  0.50400001928E-02 0. -1.
</event>
<event>
 5   0  0.1643565E-04  0.2043179E+04  0.7818609E-02  0.8586695E-01
       -1   -1    0    0    0  501  0.00000000000E+00  0.00000000000E+00  0.22408581605E+04  0.22408581605E+04  0.50400001928E-02 0. -1.
        1   -1    0    0  501    0  0.00000000000E+00  0.00000000000E+00 -0.46573440004E+03  0.46573440007E+03  0.50400001928E-02 0.  1.
    10030    2    1    2    0    0  0.00000000000E+00  0.00000000000E+00  0.17751237604E+04  0.27065925605E+04  0.20431786324E+04 0.  0.
        2    1    3    3  502    0 -0.29250008542E+03  0.84910267119E+03  0.15326132562E+04  0.17763544239E+04  0.25500000920E-02 0. -1.
       -2    1    3    3    0  502  0.29250008542E+03 -0.84910267119E+03  0.24251050420E+03  0.93023813663E+03  0.25500000920E-02 0.  1.
</event>
<event>
 5   0  0.1708578E-04  0.1992087E+04  0.7818609E-02  0.8610329E-01
       -1   -1    0    0    0  501  0.00000000000E+00  0.00000000000E+00  0.90897531801E+03  0.90897531802E+03  0.50400001928E-02 0.  1.
        1   -1    0    0  501    0  0.00000000000E+00  0.00000000000E+00 -0.10914516041E+04  0.10914516041E+04  0.50400001928E-02 0. -1.
    10030    2    1    2    0    0  0.00000000000E+00  0.00000000000E+00 -0.18247628607E+03  0.20004269221E+04  0.19920869147E+04 0.  0.
        3    1    3    3  502    0 -0.69390539713E+03 -0.19291045575E+03  0.59967097945E+03  0.93718964884E+03  0.10100000352E+00 0.  1.
       -3    1    3    3    0  502  0.69390539713E+03  0.19291045575E+03 -0.78214726552E+03  0.10632372733E+04  0.10100000352E+00 0. -1.
</event>
<event>
 5   0  0.3387881E-04  0.1821941E+04  0.7818609E-02  0.8694718E-01
        2   -1    0    0  501    0  0.00000000000E+00  0.00000000000E+00  0.16387747637E+04  0.16387747637E+04  0.25500000920E-02 0. -1.
       -2   -1    0    0    0  501  0.00000000000E+00  0.00000000000E+00 -0.50639469833E+03  0.50639469833E+03  0.25500000920E-02 0.  1.
    10030    2    1    2    0    0  0.00000000000E+00  0.00000000000E+00  0.11323800654E+04  0.21451694621E+04  0.18219405612E+04 0.  0.
        1    1    3    3  502    0 -0.84328427609E+03 -0.34285254459E+03  0.52556319898E+03  0.10511388651E+04  0.50400001928E-02 0. -1.
       -1    1    3    3    0  502  0.84328427609E+03  0.34285254459E+03  0.60681686642E+03  0.10940305969E+04  0.50400001928E-02 0.  1.
</event>
<event>
 5   0  0.1664168E-04  0.2130694E+04  0.7818609E-02  0.8547842E-01
       -1   -1    0    0    0  501  0.00000000000E+00  0.00000000000E+00  0.98079322543E+03  0.98079322544E+03  0.50400001928E-02 0. -1.
        1   -1    0    0  501    0  0.00000000000E+00  0.00000000000E+00 -0.11571900747E+04  0.11571900747E+04  0.50400001928E-02 0.  1.
    10030    2    1    2    0    0  0.00000000000E+00  0.00000000000E+00 -0.17639684925E+03  0.21379833001E+04  0.21306939581E+04 0.  0.
        5    1    3    3  502    0 -0.11248847092E+03  0.75968967280E+03  0.65267708995E+03  0.10078648366E+04  0.46999998093E+01 0. -1.
       -5    1    3    3    0  502  0.11248847092E+03 -0.75968967280E+03 -0.82907393919E+03  0.11301184636E+04  0.46999998093E+01 0.  1.
</event>
<event>
 5   0  0.3371947E-04  0.1961159E+04  0.7818609E-02  0.8624998E-01
        2   -1    0    0  501    0  0.00000000000E+00  0.00000000000E+00  0.30859237889E+04  0.30859237889E+04  0.25500000920E-02 0. -1.
       -2   -1    0    0    0  501  0.00000000000E+00  0.00000000000E+00 -0.31158780157E+03  0.31158780158E+03  0.25500000920E-02 0.  1.
    10030    2    1    2    0    0  0.00000000000E+00  0.00000000000E+00  0.27743359873E+04  0.33975115904E+04  0.19611590544E+04 0.  0.
        2    1    3    3  502    0 -0.10621106607E+03 -0.94188028750E+03  0.18224002818E+04  0.20541572612E+04  0.25500000920E-02 0. -1.
       -2    1    3    3    0  502  0.10621106607E+03  0.94188028750E+03  0.95193570550E+03  0.13433543293E+04  0.25500000920E-02 0.  1.
</event>
<event>
 5   0  0.1643565E-04  0.1843190E+04  0.7818609E-02  0.8683663E-01
       -1   -1    0    0    0  501  0.00000000000E+00  0.00000000000E+00  0.49872124894E+03  0.49872124897E+03  0.50400001928E-02 0. -1.
        1   -1    0    0  501    0  0.00000000000E+00  0.00000000000E+00 -0.17030307956E+04  0.17030307956E+04  0.50400001928E-02 0.  1.
    10030    2    1    2    0    0  0.00000000000E+00  0.00000000000E+00 -0.12043095467E+04  0.22017520446E+04  0.18431903270E+04 0.  0.
        2    1    3    3  502    0 -0.61534396278E+03 -0.30404922597E+03  0.13250113314E+03  0.69903553173E+03  0.25500000920E-02 0. -1.
       -2    1    3    3    0  502  0.61534396278E+03  0.30404922597E+03 -0.13368106798E+04  0.15027165128E+04  0.25500000920E-02 0.  1.
</event>
<event>
 5   0  0.3431030E-04  0.1988655E+04  0.7818609E-02  0.8611943E-01
        2   -1    0    0  501    0  0.00000000000E+00  0.00000000000E+00  0.13534984387E+04  0.13534984387E+04  0.25500000920E-02 0.  1.
       -2   -1    0    0    0  501  0.00000000000E+00  0.00000000000E+00 -0.73046769753E+03  0.73046769754E+03  0.25500000920E-02 0. -1.
    10030    2    1    2    0    0  0.00000000000E+00  0.00000000000E+00  0.62303074118E+03  0.20839661363E+04  0.19886547092E+04 0.  0.
        3    1    3    3  502    0 -0.11635603310E+03  0.58015316688E+03 -0.52588989014E+03  0.79162908627E+03  0.10100000352E+00 0. -1.
       -3    1    3    3    0  502  0.11635603310E+03 -0.58015316688E+03  0.11489206313E+04  0.12923370500E+04  0.10100000352E+00 0.  1.
</event>
<event>
 5   0  0.1650221E-04  0.2025077E+04  0.7818609E-02  0.8594985E-01
       -1   -1    0    0    0  501  0.00000000000E+00  0.00000000000E+00  0.95597295132E+03  0.95597295133E+03  0.50400001928E-02 0. -1.
        1   -1    0    0  501    0  0.00000000000E+00  0.00000000000E+00 -0.10724509985E+04  0.10724509985E+04  0.50400001928E-02 0.  1.
    10030    2    1    2    0    0  0.00000000000E+00  0.00000000000E+00 -0.11647804716E+03  0.20284239498E+04  0.20250769330E+04 0.  0.
        1    1    3    3  502    0 -0.99545033128E+03  0.18196500784E+03 -0.23518784184E+02  0.10122182370E+04  0.50400001928E-02 0.  1.
       -1    1    3    3    0  502  0.99545033128E+03 -0.18196500784E+03 -0.92959262979E+02  0.10162057128E+04  0.50400001928E-02 0. -1.
</event>
<event>
 5   0  0.3431030E-04  0.1987513E+04  0.7818609E-02  0.8612481E-01
       -2   -1    0    0    0  501  0.00000000000E+00  0.00000000000E+00  0.99061834308E+03  0.99061834308E+03  0.25500000920E-02 0. -1.
        2   -1    0    0  501    0  0.00000000000E+00  0.00000000000E+00 -0.99690508735E+03  0.99690508735E+03  0.25500000920E-02 0.  1.
    10030    2    1    2    0    0  0.00000000000E+00  0.00000000000E+00 -0.62867442719E+01  0.19875234304E+04  0.19875134876E+04 0.  0.
        3    1    3    3  502    0 -0.93366240791E+03  0.27601914236E+03 -0.20224333035E+03  0.99439148919E+03  0.10100000352E+00 0.  1.
       -3    1    3    3    0  502  0.93366240791E+03 -0.27601914236E+03  0.19595658608E+03  0.99313194125E+03  0.10100000352E+00 0. -1.
</event>
<event>
 5   0  0.1708578E-04  0.2089927E+04  0.7818609E-02  0.8565694E-01
       -1   -1    0    0    0  501  0.00000000000E+00  0.00000000000E+00  0.11413189859E+04  0.11413189859E+04  0.50400001928E-02 0.  1.
        1   -1    0    0  501    0  0.00000000000E+00  0.00000000000E+00 -0.95674304977E+03  0.95674304978E+03  0.50400001928E-02 0. -1.
    10030    2    1    2    0    0  0.00000000000E+00  0.00000000000E+00  0.18457593610E+03  0.20980620357E+04  0.20899272785E+04 0.  0.
        3    1    3    3  502    0  0.25476709612E+03 -0.25763874950E+03  0.10762382048E+04  0.11355935374E+04  0.10100000352E+00 0.  1.
       -3    1    3    3    0  502 -0.25476709612E+03  0.25763874950E+03 -0.89166226871E+03  0.96246849826E+03  0.10100000352E+00 0. -1.
</event>
<event>
 5   0  0.1664168E-04  0.2010162E+04  0.7818609E-02  0.8601884E-01
        1   -1    0    0  501    0  0.00000000000E+00  0.00000000000E+00  0.13020782188E+04  0.13020782188E+04  0.50400001928E-02 0.  1.
       -1   -1    0    0    0  501  0.00000000000E+00  0.00000000000E+00 -0.77582725785E+03  0.77582725787E+03  0.50400001928E-02 0. -1.
    10030    2    1    2    0    0  0.00000000000E+00  0.00000000000E+00  0.52625096098E+03  0.20779054767E+04  0.20101619577E+04 0.  0.
        5    1    3    3  502    0 -0.71638525810E+03  0.68062599298E+03  0.73346104472E+02  0.99088915696E+03  0.46999998093E+01 0. -1.
       -5    1    3    3    0  502  0.71638525810E+03 -0.68062599298E+03  0.45290485651E+03  0.10870163197E+04  0.46999998093E+01 0.  1.
</event>
<event>
 5   0  0.1708578E-04  0.1967324E+04  0.7818609E-02  0.8622052E-01
        1   -1    0    0  501    0  0.00000000000E+00  0.00000000000E+00  0.99017771584E+03  0.99017771585E+03  0.50400001928E-02 0.  1.
       -1   -1    0    0    0  501  0.00000000000E+00  0.00000000000E+00 -0.97718932909E+03  0.97718932910E+03  0.50400001928E-02 0. -1.
    10030    2    1    2    0    0  0.00000000000E+00  0.00000000000E+00  0.12988386746E+02  0.19673670450E+04  0.19673241704E+04 0.  0.
        3    1    3    3  502    0 -0.38704230326E+02  0.83436005978E+03 -0.51307113130E+03  0.98025339723E+03  0.10100000352E+00 0. -1.
       -3    1    3    3    0  502  0.38704230326E+02 -0.83436005978E+03  0.52605951805E+03  0.98711364773E+03  0.10100000352E+00 0.  1.
</event>
<event>
 5   0  0.3460648E-04  0.2128162E+04  0.7818609E-02  0.8548938E-01
        2   -1    0    0  501    0  0.00000000000E+00  0.00000000000E+00  0.19508987214E+04  0.19508987214E+04  0.25500000920E-02 0.  1.
       -2   -1    0    0    0  501  0.00000000000E+00  0.00000000000E+00 -0.58038300980E+03  0.58038300980E+03  0.25500000920E-02 0. -1.
    10030    2    1    2    0    0  0.00000000000E+00  0.00000000000E+00  0.13705157116E+04  0.25312817312E+04  0.21281620913E+04 0.  0.
        5    1    3    3  502    0  0.12886670482E+03 -0.83586282797E+02  0.19376306285E+04  0.19437149577E+04  0.46999998093E+01 0.  1.
       -5    1    3    3    0  502 -0.12886670482E+03  0.83586282797E+02 -0.56711491693E+03  0.58756677347E+03  0.46999998093E+01 0. -1.
</event>
<event>
 5   0  0.3387881E-04  0.1991182E+04  0.7818609E-02  0.8610755E-01
       -2   -1    0    0    0  501  0.00000000000E+00  0.00000000000E+00  0.70691179034E+03  0.70691179034E+03  0.25500000920E-02 0. -1.
        2   -1    0    0  501    0  0.00000000000E+00  0.00000000000E+00 -0.14021569108E+04  0.14021569108E+04  0.25500000920E-02 0.  1.
    10030    2    1    2    0    0  0.00000000000E+00  0.00000000000E+00 -0.69524512046E+03  0.21090687011E+04  0.19911818120E+04 0.  0.
        1    1    3    3  502    0  0.14038238512E+03 -0.75737701344E+03 -0.10157397464E+04  0.12747762106E+04  0.50400001928E-02 0.  1.
       -1    1    3    3    0  502 -0.14038238512E+03  0.75737701344E+03  0.32049462596E+03  0.83429249058E+03  0.50400001928E-02 0. -1.
</event>
<event>
 5   0  0.3387881E-04  0.1994188E+04  0.7818609E-02  0.8609343E-01
        2   -1    0    0  501    0  0.00000000000E+00  0.00000000000E+00  0.16172551901E+04  0.16172551901E+04  0.25500000920E-02 0. -1.
       -2   -1    0    0    0  501  0.00000000000E+00  0.00000000000E+00 -0.61474327942E+03  0.61474327942E+03  0.25500000920E-02 0.  1.
    10030    2    1    2    0    0  0.00000000000E+00  0.00000000000E+00  0.10025119107E+04  0.22319984695E+04  0.19941883153E+04 0.  0.
        1    1    3    3  502    0 -0.14759578002E+03  0.32038856594E+03 -0.54257048248E+03  0.64716000800E+03  0.50400001928E-02 0.  1.
       -1    1    3    3    0  502  0.14759578002E+03 -0.32038856594E+03  0.15450823931E+04  0.15848384615E+04  0.50400001928E-02 0. -1.
</event>
<event>
 5   0  0.1643565E-04  0.1990239E+04  0.7818609E-02  0.8611198E-01
        1   -1    0    0  501    0  0.00000000000E+00  0.00000000000E+00  0.13877688390E+04  0.13877688390E+04  0.50400001928E-02 0.  1.
       -1   -1    0    0    0  501  0.00000000000E+00  0.00000000000E+00 -0.71356501901E+03  0.71356501903E+03  0.50400001928E-02 0. -1.
    10030    2    1    2    0    0  0.00000000000E+00  0.00000000000E+00  0.67420381999E+03  0.21013338580E+04  0.19902394811E+04 0.  0.
        2    1    3    3  502    0  0.21023394972E+03  0.45612994889E+02 -0.68872039665E+03  0.72153630795E+03  0.25500000920E-02 0. -1.
       -2    1    3    3    0  502 -0.21023394972E+03 -0.45612994889E+02  0.13629242166E+04  0.13797975501E+04  0.25500000920E-02 0.  1.
</event>
<event>
 5   0  0.1222488E-04  0.1664232E+04  0.7818609E-02  0.8782031E-01
        4   -1    0    0  501    0  0.00000000000E+00  0.00000000000E+00  0.17966259789E+04  0.17966264278E+04  0.12699999809E+01 0.  1.
       -4   -1    0    0    0  501  0.00000000000E+00  0.00000000000E+00 -0.38539717354E+03  0.38539926606E+03  0.12699999809E+01 0. -1.
    10030    2    1    2    0    0  0.00000000000E+00  0.00000000000E+00  0.14112288054E+04  0.21820256939E+04  0.16642323718E+04 0.  0.
        3    1    3    3  502    0 -0.34518808023E+03  0.75548195457E+03  0.63993288917E+03  0.10485332171E+04  0.10100000352E+00 0. -1.
       -3    1    3    3    0  502  0.34518808023E+03 -0.75548195457E+03  0.77129591622E+03  0.11334924768E+04  0.10100000352E+00 0.  1.
</event>
<event>
 5   0  0.3371947E-04  0.2005227E+04  0.7818609E-02  0.8604181E-01
        2   -1    0    0  501    0  0.00000000000E+00  0.00000000000E+00  0.17051922166E+04  0.17051922166E+04  0.25500000920E-02 0.  1.
       -2   -1    0    0    0  501  0.00000000000E+00  0.00000000000E+00 -0.58951335535E+03  0.58951335536E+03  0.25500000920E-02 0. -1.
    10030    2    1    2    0    0  0.00000000000E+00  0.00000000000E+00  0.11156788613E+04  0.22947055720E+04  0.20052267554E+04 0.  0.
        2    1    3    3  502    0 -0.32909452342E+03  0.16217151915E+03  0.16256162479E+04  0.16665026229E+04  0.25500000920E-02 0.  1.
       -2    1    3    3    0  502  0.32909452342E+03 -0.16217151915E+03 -0.50993738657E+03  0.62820294905E+03  0.25500000920E-02 0. -1.
</event>
<event>
 5   0  0.1664168E-04  0.2016125E+04  0.7818609E-02  0.8599119E-01
        1   -1    0    0  501    0  0.00000000000E+00  0.00000000000E+00  0.27367927546E+04  0.27367927546E+04  0.50400001928E-02 0.  1.
       -1   -1    0    0    0  501  0.00000000000E+00  0.00000000000E+00 -0.37130689647E+03  0.37130689650E+03  0.50400001928E-02 0. -1.
    10030    2    1    2    0    0  0.00000000000E+00  0.00000000000E+00  0.23654858582E+04  0.31080996511E+04  0.20161250200E+04 0.  0.
        5    1    3    3  502    0 -0.10405484093E+02 -0.40423019064E+03  0.26062669907E+04  0.26374533244E+04  0.46999998093E+01 0.  1.
       -5    1    3    3    0  502  0.10405484093E+02  0.40423019064E+03 -0.24078113257E+03  0.47064632679E+03  0.46999998093E+01 0. -1.
</event>
<event>
 5   0  0.1696052E-04  0.1866328E+04  0.7818609E-02  0.8671801E-01
        1   -1    0    0  501    0  0.00000000000E+00  0.00000000000E+00  0.51725070857E+03  0.51725070859E+03  0.50400001928E-02 0.  1.
       -1   -1    0    0    0  501  0.00000000000E+00  0.00000000000E+00 -0.16835076110E+04  0.16835076110E+04  0.50400001928E-02 0. -1.
    10030    2    1    2    0    0  0.00000000000E+00  0.00000000000E+00 -0.11662569025E+04  0.22007583196E+04  0.18663284863E+04 0.  0.
        4    1    3    3  502    0 -0.43579737032E+03 -0.55401594172E+03 -0.13042122540E+04  0.14825060634E+04  0.12699999809E+01 0. -1.
       -4    1    3    3    0  502  0.43579737032E+03  0.55401594172E+03  0.13795535153E+03  0.71825225622E+03  0.12699999809E+01 0.  1.
</event>
<event>
 5   0  0.1708578E-04  0.1988036E+04  0.7818609E-02  0.8612235E-01
        1   -1    0    0  501    0  0.00000000000E+00  0.00000000000E+00  0.21840774297E+04  0.21840774297E+04  0.50400001928E-02 0. -1.
       -1   -1    0    0    0  501  0.00000000000E+00  0.00000000000E+00 -0.45239792292E+03  0.45239792295E+03  0.50400001928E-02 0.  1.
    10030    2    1    2    0    0  0.00000000000E+00  0.00000000000E+00  0.17316795068E+04  0.26364753527E+04  0.19880363103E+04 0.  0.
        3    1    3    3  502    0  0.91237415216E+03 -0.51805319075E+02  0.13845093023E+04  0.16589081961E+04  0.10100000352E+00 0. -1.
       -3    1    3    3    0  502 -0.91237415216E+03  0.51805319075E+02  0.34717020451E+03  0.97756715663E+03  0.10100000352E+00 0.  1.
</event>
<event>
 5   0  0.1664168E-04  0.1868040E+04  0.7818609E-02  0.8670930E-01
        1   -1    0    0  501    0  0.00000000000E+00  0.00000000000E+00  0.22965491166E+04  0.22965491166E+04  0.50400001928E-02 0. -1.
       -1   -1    0    0    0  501  0.00000000000E+00  0.00000000000E+00 -0.37987144086E+03  0.37987144090E+03  0.50400001928E-02 0.  1.
    10030    2    1    2    0    0  0.00000000000E+00  0.00000000000E+00  0.19166776758E+04  0.26764205575E+04  0.18680400659E+04 0.  0.
        5    1    3    3  502    0 -0.35277225831E+03  0.70841900118E+03  0.24762690333E+03  0.82924478938E+03  0.46999998093E+01 0.  1.
       -5    1    3    3    0  502  0.35277225831E+03 -0.70841900118E+03  0.16690507724E+04  0.18471757681E+04  0.46999998093E+01 0. -1.
</event>
<event>
 5   0  0.3371947E-04  0.2043866E+04  0.7818609E-02  0.8586382E-01
        2   -1    0    0  501    0  0.00000000000E+00  0.00000000000E+00  0.11667249448E+04  0.11667249448E+04  0.25500000920E-02 0. -1.
       -2   -1    0    0    0  501  0.00000000000E+00  0.00000000000E+00 -0.89510996523E+03  0.89510996524E+03  0.25500000920E-02 0.  1.
    10030    2    1    2    0    0  0.00000000000E+00  0.00000000000E+00  0.27161497952E+03  0.20618349100E+04  0.20438660668E+04 0.  0.
        2    1    3    3  502    0 -0.92174458137E+03  0.92909225157E+02  0.57099546890E+03  0.10882467656E+04  0.25500000920E-02 0. -1.
       -2    1    3    3    0  502  0.92174458137E+03 -0.92909225157E+02 -0.29938048939E+03  0.97358814435E+03  0.25500000920E-02 0.  1.
</event>
<event>
 5   0  0.3371947E-04  0.2003678E+04  0.7818609E-02  0.8604903E-01
        2   -1    0    0  501    0  0.00000000000E+00  0.00000000000E+00  0.20354044708E+04  0.20354044708E+04  0.25500000920E-02 0.  1.
       -2   -1    0    0    0  501  0.00000000000E+00  0.00000000000E+00 -0.49311145477E+03  0.49311145477E+03  0.25500000920E-02 0. -1.
    10030    2    1    2    0    0  0.00000000000E+00  0.00000000000E+00  0.15422930160E+04  0.25285159256E+04  0.20036778779E+04 0.  0.
        2    1    3    3  502    0  0.34890490894E+03  0.31573131097E+03 -0.34498007709E+03  0.58346563722E+03  0.25500000920E-02 0. -1.
       -2    1    3    3    0  502 -0.34890490894E+03 -0.31573131097E+03  0.18872730931E+04  0.19450502883E+04  0.25500000920E-02 0.  1.
</event>
<event>
 5   0  0.1696052E-04  0.1958459E+04  0.7818609E-02  0.8626293E-01
       -1   -1    0    0    0  501  0.00000000000E+00  0.00000000000E+00  0.53755125107E+03  0.53755125109E+03  0.50400001928E-02 0. -1.
        1   -1    0    0  501    0  0.00000000000E+00  0.00000000000E+00 -0.17838113846E+04  0.17838113846E+04  0.50400001928E-02 0.  1.
    10030    2    1    2    0    0  0.00000000000E+00  0.00000000000E+00 -0.12462601335E+04  0.23213626357E+04  0.19584586199E+04 0.  0.
        4    1    3    3  502    0 -0.88071273384E+02  0.61493124097E+03 -0.15203577401E+04  0.16423721415E+04  0.12699999809E+01 0.  1.
       -4    1    3    3    0  502  0.88071273384E+02 -0.61493124097E+03  0.27409760662E+03  0.67899049417E+03  0.12699999809E+01 0. -1.
</event>
<event>
 5   0  0.1650221E-04  0.1995736E+04  0.7818609E-02  0.8608617E-01
       -1   -1    0    0    0  501  0.00000000000E+00  0.00000000000E+00  0.74406718015E+03  0.74406718017E+03  0.50400001928E-02 0. -1.
        1   -1    0    0  501    0  0.00000000000E+00  0.00000000000E+00 -0.13382405686E+04  0.13382405686E+04  0.50400001928E-02 0.  1.
    10030    2    1    2    0    0  0.00000000000E+00  0.00000000000E+00 -0.59417338845E+03  0.20823077488E+04  0.19957363416E+04 0.  0.
        1    1    3    3  502    0 -0.89731357746E+03  0.42462538852E+03 -0.19138826506E+03  0.10109934940E+04  0.50400001928E-02 0.  1.
       -1    1    3    3    0  502  0.89731357746E+03 -0.42462538852E+03 -0.40278512338E+03  0.10713142548E+04  0.50400001928E-02 0. -1.
</event>
<event>
 5   0  0.1650221E-04  0.1028148E+04  0.7818609E-02  0.9278201E-01
        1   -1    0    0  501    0  0.00000000000E+00  0.00000000000E+00  0.36865042159E+03  0.36865042162E+03  0.50400001928E-02 0. -1.
       -1   -1    0    0    0  501  0.00000000000E+00  0.00000000000E+00 -0.71686300186E+03  0.71686300188E+03  0.50400001928E-02 0.  1.
    10030    2    1    2    0    0  0.00000000000E+00  0.00000000000E+00 -0.34821258027E+03  0.10855134235E+04  0.10281475534E+04 0.  0.
        1    1    3    3  502    0  0.30425187304E+03  0.41436969405E+03 -0.17477591784E+03  0.54297151590E+03  0.50400001928E-02 0. -1.
       -1    1    3    3    0  502 -0.30425187304E+03 -0.41436969405E+03 -0.17343666243E+03  0.54254190760E+03  0.50400001928E-02 0.  1.
</event>
<event>
 5   0  0.1664168E-04  0.1922635E+04  0.7818609E-02  0.8643671E-01
        1   -1    0    0  501    0  0.00000000000E+00  0.00000000000E+00  0.13175142988E+04  0.13175142988E+04  0.50400001928E-02 0.  1.
       -1   -1    0    0    0  501  0.00000000000E+00  0.00000000000E+00 -0.70142012969E+03  0.70142012971E+03  0.50400001928E-02 0. -1.
    10030    2    1    2    0    0  0.00000000000E+00  0.00000000000E+00  0.61609416911E+03  0.20189344285E+04  0.19226347031E+04 0.  0.
        5    1    3    3  502    0  0.25125091153E+03  0.70861523236E+03  0.93708920882E+03  0.12014245059E+04  0.46999998093E+01 0.  1.
       -5    1    3    3    0  502 -0.25125091153E+03 -0.70861523236E+03 -0.32099503971E+03  0.81750992263E+03  0.46999998093E+01 0. -1.
</event>
<event>
 5   0  0.3387881E-04  0.1859158E+04  0.7818609E-02  0.8675457E-01
        2   -1    0    0  501    0  0.00000000000E+00  0.00000000000E+00  0.13273948195E+04  0.13273948195E+04  0.25500000920E-02 0. -1.
       -2   -1    0    0    0  501  0.00000000000E+00  0.00000000000E+00 -0.65098736894E+03  0.65098736895E+03  0.25500000920E-02 0.  1.
    10030    2    1    2    0    0  0.00000000000E+00  0.00000000000E+00  0.67640745060E+03  0.19783821885E+04  0.18591581548E+04 0.  0.
        1    1    3    3  502    0  0.37978457954E+02  0.47761731200E+03 -0.50947062222E+03  0.69937184310E+03  0.50400001928E-02 0.  1.
       -1    1    3    3    0  502 -0.37978457954E+02 -0.47761731200E+03  0.11858780728E+04  0.12790103454E+04  0.50400001928E-02 0. -1.
</event>
<event>
 5   0  0.3431030E-04  0.1671489E+04  0.7818609E-02  0.8777794E-01
        2   -1    0    0  501    0  0.00000000000E+00  0.00000000000E+00  0.86908432440E+03  0.86908432440E+03  0.25500000920E-02 0. -1.
       -2   -1    0    0    0  501  0.00000000000E+00  0.00000000000E+00 -0.80368408682E+03  0.80368408682E+03  0.25500000920E-02 0.  1.
    10030    2    1    2    0    0  0.00000000000E+00  0.00000000000E+00  0.65400237585E+02  0.16727684112E+04  0.16714894455E+04 0.  0.
        3    1    3    3  502    0  0.40776943593E+03  0.43452449387E+03  0.61913636551E+03  0.85931210741E+03  0.10100000352E+00 0. -1.
       -3    1    3    3    0  502 -0.40776943593E+03 -0.43452449387E+03 -0.55373612792E+03  0.81345630381E+03  0.10100000352E+00 0.  1.
</event>
<event>
 5   0  0.3387881E-04  0.1951686E+04  0.7818609E-02  0.8629548E-01
        2   -1    0    0  501    0  0.00000000000E+00  0.00000000000E+00  0.14650467966E+04  0.14650467966E+04  0.25500000920E-02 0. -1.
       -2   -1    0    0    0  501  0.00000000000E+00  0.00000000000E+00 -0.64999267579E+03  0.64999267580E+03  0.25500000920E-02 0.  1.
    10030    2    1    2    0    0  0.00000000000E+00  0.00000000000E+00  0.81505412076E+03  0.21150394723E+04  0.19516861299E+04 0.  0.
        1    1    3    3  502    0  0.60343448379E+02 -0.18404839337E+03 -0.62895261199E+03  0.65810069975E+03  0.50400001928E-02 0.  1.
       -1    1    3    3    0  502 -0.60343448379E+02  0.18404839337E+03  0.14440067327E+04  0.14569387726E+04  0.50400001928E-02 0. -1.
</event>
<event>
 5   0  0.3431030E-04  0.2035184E+04  0.7818609E-02  0.8590345E-01
       -2   -1    0    0    0  501  0.00000000000E+00  0.00000000000E+00  0.71383397368E+03  0.71383397368E+03  0.25500000920E-02 0.  1.
        2   -1    0    0  501    0  0.00000000000E+00  0.00000000000E+00 -0.14506086692E+04  0.14506086692E+04  0.25500000920E-02 0. -1.
    10030    2    1    2    0    0  0.00000000000E+00  0.00000000000E+00 -0.73677469547E+03  0.21644426428E+04  0.20351842674E+04 0.  0.
        3    1    3    3  502    0 -0.12541753590E+03 -0.91530683121E+03 -0.82206908324E+03  0.12366542530E+04  0.10100000352E+00 0. -1.
       -3    1    3    3    0  502  0.12541753590E+03  0.91530683121E+03  0.85294387769E+02  0.92778838986E+03  0.10100000352E+00 0.  1.
</event>
<event>
 5   0  0.3460648E-04  0.2609083E+04  0.7818609E-02  0.8365123E-01
       -2   -1    0    0    0  501  0.00000000000E+00  0.00000000000E+00  0.11487458262E+04  0.11487458262E+04  0.25500000920E-02 0.  1.
        2   -1    0    0  501    0  0.00000000000E+00  0.00000000000E+00 -0.14814661288E+04  0.14814661288E+04  0.25500000920E-02 0. -1.
    10030    2    1    2    0    0  0.00000000000E+00  0.00000000000E+00 -0.33272030258E+03  0.26302119550E+04  0.26090826220E+04 0.  0.
        5    1    3    3  502    0  0.31551224050E+03 -0.20378756830E+03 -0.14257686190E+04  0.14744204258E+04  0.46999998093E+01 0. -1.
       -5    1    3    3    0  502 -0.31551224050E+03  0.20378756830E+03  0.10930483165E+04  0.11557915292E+04  0.46999998093E+01 0.  1.
</event>
<event>
 5   0  0.1222488E-04  0.1588693E+04  0.7818609E-02  0.8827524E-01
       -4   -1    0    0    0  501  0.00000000000E+00  0.00000000000E+00  0.45947987988E+03  0.45948163501E+03  0.12699999809E+01 0. -1.
        4   -1    0    0  501    0  0.00000000000E+00  0.00000000000E+00 -0.13732578470E+04  0.13732584343E+04  0.12699999809E+01 0.  1.
    10030    2    1    2    0    0  0.00000000000E+00  0.00000000000E+00 -0.91377796717E+03  0.18327400693E+04  0.15886931700E+04 0.  0.
        1    1    3    3  502    0  0.74161427162E+02 -0.59534319871E+03  0.14371471209E+03  0.61691762824E+03  0.50400001928E-02 0. -1.
       -1    1    3    3    0  502 -0.74161427162E+02  0.59534319871E+03 -0.10574926793E+04  0.12158224411E+04  0.50400001928E-02 0.  1.
</event>
<event>
 5   0  0.1708578E-04  0.2024877E+04  0.7818609E-02  0.8595077E-01
        1   -1    0    0  501    0  0.00000000000E+00  0.00000000000E+00  0.91433623286E+03  0.91433623287E+03  0.50400001928E-02 0.  1.
       -1   -1    0    0    0  501  0.00000000000E+00  0.00000000000E+00 -0.11210662919E+04  0.11210662920E+04  0.50400001928E-02 0. -1.
    10030    2    1    2    0    0  0.00000000000E+00  0.00000000000E+00 -0.20673005908E+03  0.20354025248E+04  0.20248768162E+04 0.  0.
        3    1    3    3  502    0 -0.90333982272E+03 -0.26219830684E+03  0.27309576313E+03  0.97946520789E+03  0.10100000352E+00 0.  1.
       -3    1    3    3    0  502  0.90333982272E+03  0.26219830684E+03 -0.47982582221E+03  0.10559373169E+04  0.10100000352E+00 0. -1.
</event>
<event>
 5   0  0.3387881E-04  0.1944510E+04  0.7818609E-02  0.8633013E-01
        2   -1    0    0  501    0  0.00000000000E+00  0.00000000000E+00  0.15398044118E+04  0.15398044118E+04  0.25500000920E-02 0.  1.
       -2   -1    0    0    0  501  0.00000000000E+00  0.00000000000E+00 -0.61389585677E+03  0.61389585678E+03  0.25500000920E-02 0. -1.
    10030    2    1    2    0    0  0.00000000000E+00  0.00000000000E+00  0.92590855507E+03  0.21537002686E+04  0.19445097569E+04 0.  0.
        1    1    3    3  502    0  0.53620580421E+03 -0.61761151606E+03 -0.11925675501E+03  0.82654874198E+03  0.50400001928E-02 0. -1.
       -1    1    3    3    0  502 -0.53620580421E+03  0.61761151606E+03  0.10451653101E+04  0.13271515266E+04  0.50400001928E-02 0.  1.
</event>
<event>
 5   0  0.1708578E-04  0.2000787E+04  0.7818609E-02  0.8606253E-01
        1   -1    0    0  501    0  0.00000000000E+00  0.00000000000E+00  0.20219844227E+04  0.20219844227E+04  0.50400001928E-02 0.  1.
       -1   -1    0    0    0  501  0.00000000000E+00  0.00000000000E+00 -0.49495305674E+03  0.49495305676E+03  0.50400001928E-02 0. -1.
    10030    2    1    2    0    0  0.00000000000E+00  0.00000000000E+00  0.15270313659E+04  0.25169374794E+04  0.20007872158E+04 0.  0.
        3    1    3    3  502    0 -0.54797678896E+03  0.68900580073E+03  0.16577327100E+03  0.89581713662E+03  0.10100000352E+00 0. -1.
       -3    1    3    3    0  502  0.54797678896E+03 -0.68900580073E+03  0.13612580949E+04  0.16211203428E+04  0.10100000352E+00 0.  1.
</event>
<event>
 5   0  0.1643565E-04  0.2047008E+04  0.7818609E-02  0.8584953E-01
        1   -1    0    0  501    0  0.00000000000E+00  0.00000000000E+00  0.76655585049E+03  0.76655585050E+03  0.50400001928E-02 0.  1.
       -1   -1    0    0    0  501  0.00000000000E+00  0.00000000000E+00 -0.13665811715E+04  0.13665811715E+04  0.50400001928E-02 0. -1.
    10030    2    1    2    0    0  0.00000000000E+00  0.00000000000E+00 -0.60002532099E+03  0.21331370220E+04  0.20470083460E+04 0.  0.
        2    1    3    3  502    0  0.98757941532E+03  0.26196656894E+03 -0.36272107750E+03  0.10842076207E+04  0.25500000920E-02 0. -1.
       -2    1    3    3    0  502 -0.98757941532E+03 -0.26196656894E+03 -0.23730424350E+03  0.10489294012E+04  0.25500000920E-02 0.  1.
</event>
<event>
 5   0  0.1696052E-04  0.2006330E+04  0.7818609E-02  0.8603667E-01
        1   -1    0    0  501    0  0.00000000000E+00  0.00000000000E+00  0.19465103216E+04  0.19465103216E+04  0.50400001928E-02 0. -1.
       -1   -1    0    0    0  501  0.00000000000E+00  0.00000000000E+00 -0.51699699707E+03  0.51699699709E+03  0.50400001928E-02 0.  1.
    10030    2    1    2    0    0  0.00000000000E+00  0.00000000000E+00  0.14295133246E+04  0.24635073187E+04  0.20063299739E+04 0.  0.
        4    1    3    3  502    0  0.60175204920E+03  0.40105716228E+03  0.15684433917E+04  0.17271272860E+04  0.12699999809E+01 0. -1.
       -4    1    3    3    0  502 -0.60175204920E+03 -0.40105716228E+03 -0.13893006716E+03  0.73638003272E+03  0.12699999809E+01 0.  1.
</event>
<event>
 5   0  0.3395569E-04  0.1987939E+04  0.7818609E-02  0.8612280E-01
        2   -1    0    0  501    0  0.00000000000E+00  0.00000000000E+00  0.18464623660E+04  0.18464623660E+04  0.25500000920E-02 0.  1.
       -2   -1    0    0    0  501  0.00000000000E+00  0.00000000000E+00 -0.53506382754E+03  0.53506382755E+03  0.25500000920E-02 0. -1.
    10030    2    1    2    0    0  0.00000000000E+00  0.00000000000E+00  0.13113985385E+04  0.23815261935E+04  0.19879388532E+04 0.  0.
        4    1    3    3  502    0 -0.18332277044E+03  0.96757711737E+03  0.49425563443E+03  0.11018634041E+04  0.12699999809E+01 0.  1.
       -4    1    3    3    0  502  0.18332277044E+03 -0.96757711737E+03  0.81714290402E+03  0.12796627894E+04  0.12699999809E+01 0. -1.
</event>
<event>
 5   0  0.1664168E-04  0.1992126E+04  0.7818609E-02  0.8610311E-01
       -1   -1    0    0    0  501  0.00000000000E+00  0.00000000000E+00  0.43603318953E+03  0.43603318956E+03  0.50400001928E-02 0. -1.
        1   -1    0    0  501    0  0.00000000000E+00  0.00000000000E+00 -0.22753807322E+04  0.22753807322E+04  0.50400001928E-02 0.  1.
    10030    2    1    2    0    0  0.00000000000E+00  0.00000000000E+00 -0.18393475427E+04  0.27114139218E+04  0.19921260182E+04 0.  0.
        5    1    3    3  502    0 -0.44333543999E+03 -0.65947375579E+03 -0.17370697700E+04  0.19102055970E+04  0.46999998093E+01 0. -1.
       -5    1    3    3    0  502  0.44333543999E+03  0.65947375579E+03 -0.10227777268E+03  0.80120832479E+03  0.46999998093E+01 0.  1.
</event>
<event>
 5   0  0.1664168E-04  0.2006842E+04  0.7818609E-02  0.8603428E-01
        1   -1    0    0  501    0  0.00000000000E+00  0.00000000000E+00  0.13121511632E+04  0.13121511632E+04  0.50400001928E-02 0.  1.
       -1   -1    0    0    0  501  0.00000000000E+00  0.00000000000E+00 -0.76733091782E+03  0.76733091783E+03  0.50400001928E-02 0. -1.
    10030    2    1    2    0    0  0.00000000000E+00  0.00000000000E+00  0.54482024537E+03  0.20794820810E+04  0.20068424516E+04 0.  0.
        5    1    3    3  502    0 -0.97058019988E+03 -0.17586932795E+03  0.46312683167E+03  0.10897084459E+04  0.46999998093E+01 0. -1.
       -5    1    3    3    0  502  0.97058019988E+03  0.17586932795E+03  0.81693413702E+02  0.98977363510E+03  0.46999998093E+01 0.  1.
</event>
<event>
 5   0  0.1664168E-04  0.2048564E+04  0.7818609E-02  0.8584246E-01
       -1   -1    0    0    0  501  0.00000000000E+00  0.00000000000E+00  0.13188546004E+04  0.13188546004E+04  0.50400001928E-02 0.  1.
        1   -1    0    0  501    0  0.00000000000E+00  0.00000000000E+00 -0.79550359258E+03  0.79550359260E+03  0.50400001928E-02 0. -1.
    10030    2    1    2    0    0  0.00000000000E+00  0.00000000000E+00  0.52335100781E+03  0.21143581930E+04  0.20485639582E+04 0.  0.
        5    1    3    3  502    0 -0.96124282402E+03 -0.34537002489E+03  0.18264428456E+03  0.10376170997E+04  0.46999998093E+01 0. -1.
       -5    1    3    3    0  502  0.96124282402E+03  0.34537002489E+03  0.34070672325E+03  0.10767410933E+04  0.46999998093E+01 0.  1.
</event>
<event>
 5   0  0.3460648E-04  0.1956456E+04  0.7818609E-02  0.8627254E-01
        2   -1    0    0  501    0  0.00000000000E+00  0.00000000000E+00  0.18454590930E+04  0.18454590930E+04  0.25500000920E-02 0.  1.
       -2   -1    0    0    0  501  0.00000000000E+00  0.00000000000E+00 -0.51853246261E+03  0.51853246262E+03  0.25500000920E-02 0. -1.
    10030    2    1    2    0    0  0.00000000000E+00  0.00000000000E+00  0.13269266304E+04  0.23639915556E+04  0.19564564377E+04 0.  0.
        5    1    3    3  502    0 -0.96863763708E+02  0.62599377388E+03 -0.23723500755E+03  0.67642688626E+03  0.46999998093E+01 0. -1.
       -5    1    3    3    0  502  0.96863763708E+02 -0.62599377388E+03  0.15641616379E+04  0.16875646694E+04  0.46999998093E+01 0.  1.
</event>
<event>
 5   0  0.3387881E-04  0.1955277E+04  0.7818609E-02  0.8627820E-01
        2   -1    0    0  501    0  0.00000000000E+00  0.00000000000E+00  0.62847262062E+03  0.62847262063E+03  0.25500000920E-02 0.  1.
       -2   -1    0    0    0  501  0.00000000000E+00  0.00000000000E+00 -0.15207933849E+04  0.15207933849E+04  0.25500000920E-02 0. -1.
    10030    2    1    2    0    0  0.00000000000E+00  0.00000000000E+00 -0.89232076426E+03  0.21492660055E+04  0.19552769666E+04 0.  0.
        1    1    3    3  502    0 -0.85407995345E+03 -0.45047177139E+03 -0.61430628536E+03  0.11444429195E+04  0.50400001928E-02 0.  1.
       -1    1    3    3    0  502  0.85407995345E+03  0.45047177139E+03 -0.27801447890E+03  0.10048230860E+04  0.50400001928E-02 0. -1.
</event>
<event>
 5   0  0.1643565E-04  0.1759826E+04  0.7818609E-02  0.8727960E-01
       -1   -1    0    0    0  501  0.00000000000E+00  0.00000000000E+00  0.15461549123E+04  0.15461549124E+04  0.50400001928E-02 0.  1.
        1   -1    0    0  501    0  0.00000000000E+00  0.00000000000E+00 -0.50075644324E+03  0.50075644326E+03  0.50400001928E-02 0. -1.
    10030    2    1    2    0    0  0.00000000000E+00  0.00000000000E+00  0.10453984691E+04  0.20469113556E+04  0.17598261671E+04 0.  0.
        2    1    3    3  502    0 -0.37475255602E+03  0.51998977245E+03  0.12238842017E+04  0.13815648305E+04  0.25500000920E-02 0.  1.
       -2    1    3    3    0  502  0.37475255602E+03 -0.51998977245E+03 -0.17848573262E+03  0.66534652509E+03  0.25500000920E-02 0. -1.
</event>
<event>
 5   0  0.1222488E-04  0.2039824E+04  0.7818609E-02  0.8588225E-01
       -4   -1    0    0    0  501  0.00000000000E+00  0.00000000000E+00  0.12002702967E+04  0.12002709686E+04  0.12699999809E+01 0. -1.
        4   -1    0    0  501    0  0.00000000000E+00  0.00000000000E+00 -0.86665382833E+03  0.86665475887E+03  0.12699999809E+01 0.  1.
    10030    2    1    2    0    0  0.00000000000E+00  0.00000000000E+00  0.33361646836E+03  0.20669257274E+04  0.20398240156E+04 0.  0.
        4    1    3    3  502    0  0.61053249063E+02  0.45933392834E+03 -0.75383569015E+03  0.88486440633E+03  0.12699999809E+01 0.  1.
       -4    1    3    3    0  502 -0.61053249063E+02 -0.45933392834E+03  0.10874521585E+04  0.11820613211E+04  0.12699999809E+01 0. -1.
</event>
<event>
 5   0  0.3387881E-04  0.2016311E+04  0.7818609E-02  0.8599032E-01
        2   -1    0    0  501    0  0.00000000000E+00  0.00000000000E+00  0.12880886720E+04  0.12880886720E+04  0.25500000920E-02 0.  1.
       -2   -1    0    0    0  501  0.00000000000E+00  0.00000000000E+00 -0.78905897451E+03  0.78905897451E+03  0.25500000920E-02 0. -1.
    10030    2    1    2    0    0  0.00000000000E+00  0.00000000000E+00  0.49902969745E+03  0.20771476465E+04  0.20163114110E+04 0.  0.
        1    1    3    3  502    0  0.45145337837E+03 -0.25896577562E+03  0.11389922013E+04  0.12522686056E+04  0.50400001928E-02 0.  1.
       -1    1    3    3    0  502 -0.45145337837E+03  0.25896577562E+03 -0.63996250386E+03  0.82487904092E+03  0.50400001928E-02 0. -1.
</event>
<event>
 5   0  0.3387881E-04  0.2004458E+04  0.7818609E-02  0.8604539E-01
       -2   -1    0    0    0  501  0.00000000000E+00  0.00000000000E+00  0.10031553392E+04  0.10031553392E+04  0.25500000920E-02 0. -1.
        2   -1    0    0  501    0  0.00000000000E+00  0.00000000000E+00 -0.10013035082E+04  0.10013035082E+04  0.25500000920E-02 0.  1.
    10030    2    1    2    0    0  0.00000000000E+00  0.00000000000E+00  0.18518310009E+01  0.20044588474E+04  0.20044579919E+04 0.  0.
        1    1    3    3  502    0  0.92584247834E+03  0.32145042820E+03 -0.20871264335E+03  0.10020357479E+04  0.50400001928E-02 0. -1.
       -1    1    3    3    0  502 -0.92584247834E+03 -0.32145042820E+03  0.21056447435E+03  0.10024230995E+04  0.50400001928E-02 0.  1.
</event>
<event>
 5   0  0.3431030E-04  0.1842863E+04  0.7818609E-02  0.8683832E-01
       -2   -1    0    0    0  501  0.00000000000E+00  0.00000000000E+00  0.38789669351E+03  0.38789669352E+03  0.25500000920E-02 0.  1.
        2   -1    0    0  501    0  0.00000000000E+00  0.00000000000E+00 -0.21888204997E+04  0.21888204997E+04  0.25500000920E-02 0. -1.
    10030    2    1    2    0    0  0.00000000000E+00  0.00000000000E+00 -0.18009238062E+04  0.25767171932E+04  0.18428632445E+04 0.  0.
        3    1    3    3  502    0 -0.19813983746E+03  0.89939783204E+03 -0.85944942737E+03  0.12596940834E+04  0.10100000352E+00 0.  1.
       -3    1    3    3    0  502  0.19813983746E+03 -0.89939783204E+03 -0.94147437880E+03  0.13170231097E+04  0.10100000352E+00 0. -1.
</event>
<event>
 5   0  0.1696052E-04  0.2014804E+04  0.7818609E-02  0.8599730E-01
       -1   -1    0    0    0  501  0.00000000000E+00  0.00000000000E+00  0.52392542824E+03  0.52392542826E+03  0.50400001928E-02 0.  1.
        1   -1    0    0  501    0  0.00000000000E+00  0.00000000000E+00 -0.19370294344E+04  0.19370294344E+04  0.50400001928E-02 0. -1.
    10030    2    1    2    0    0  0.00000000000E+00  0.00000000000E+00 -0.14131040062E+04  0.24609548627E+04  0.20148041850E+04 0.  0.
        4    1    3    3  502    0  0.94973264015E+03 -0.33578516336E+03 -0.69353356803E+03  0.12230021204E+04  0.12699999809E+01 0. -1.
       -4    1    3    3    0  502 -0.94973264015E+03  0.33578516336E+03 -0.71957043816E+03  0.12379527423E+04  0.12699999809E+01 0.  1.
</event>
<event>
 5   0  0.1696052E-04  0.1957327E+04  0.7818609E-02  0.8626836E-01
       -1   -1    0    0    0  501  0.00000000000E+00  0.00000000000E+00  0.97382564609E+03  0.97382564610E+03  0.50400001928E-02 0. -1.
        1   -1    0    0  501    0  0.00000000000E+00  0.00000000000E+00 -0.98352549099E+03  0.98352549100E+03  0.50400001928E-02 0.  1.
    10030    2    1    2    0    0  0.00000000000E+00  0.00000000000E+00 -0.96998449054E+01  0.19573511371E+04  0.19573271027E+04 0.  0.
        4    1    3    3  502    0  0.88342790459E+03 -0.35041129371E+03 -0.23840748724E+03  0.97983298590E+03  0.12699999809E+01 0. -1.
       -4    1    3    3    0  502 -0.88342790459E+03  0.35041129371E+03  0.22870764234E+03  0.97751815121E+03  0.12699999809E+01 0.  1.
</event>
<event>
 5   0  0.1650221E-04  0.2041970E+04  0.7818609E-02  0.8587246E-01
       -1   -1    0    0    0  501  0.00000000000E+00  0.00000000000E+00  0.69635008709E+03  0.69635008711E+03  0.50400001928E-02 0.  1.
        1   -1    0    0  501    0  0.00000000000E+00  0.00000000000E+00 -0.14969627079E+04  0.14969627079E+04  0.50400001928E-02 0. -1.
    10030    2    1    2    0    0  0.00000000000E+00  0.00000000000E+00 -0.80061262080E+03  0.21933127950E+04  0.20419697471E+04 0.  0.
        1    1    3    3  502    0  0.96133725670E+03  0.15283639458E+03 -0.69447435260E+02  0.97588484511E+03  0.50400001928E-02 0.  1.
       -1    1    3    3    0  502 -0.96133725670E+03 -0.15283639458E+03 -0.73116518554E+03  0.12174279499E+04  0.50400001928E-02 0. -1.
</event>
<event>
 5   0  0.3460648E-04  0.1986962E+04  0.7818609E-02  0.8612741E-01
       -2   -1    0    0    0  501  0.00000000000E+00  0.00000000000E+00  0.55011446062E+03  0.55011446063E+03  0.25500000920E-02 0. -1.
        2   -1    0    0  501    0  0.00000000000E+00  0.00000000000E+00 -0.17941799648E+04  0.17941799648E+04  0.25500000920E-02 0.  1.
    10030    2    1    2    0    0  0.00000000000E+00  0.00000000000E+00 -0.12440655042E+04  0.23442944255E+04  0.19869618453E+04 0.  0.
        5    1    3    3  502    0  0.35739933151E+03 -0.39970459678E+03  0.36472735591E+03  0.64849532072E+03  0.46999998093E+01 0. -1.
       -5    1    3    3    0  502 -0.35739933151E+03  0.39970459678E+03 -0.16087928601E+04  0.16957991047E+04  0.46999998093E+01 0.  1.
</event>
<event>
 5   0  0.1650221E-04  0.2017662E+04  0.7818609E-02  0.8598407E-01
       -1   -1    0    0    0  501  0.00000000000E+00  0.00000000000E+00  0.65225719932E+03  0.65225719934E+03  0.50400001928E-02 0. -1.
        1   -1    0    0  501    0  0.00000000000E+00  0.00000000000E+00 -0.15603359293E+04  0.15603359293E+04  0.50400001928E-02 0.  1.
    10030    2    1    2    0    0  0.00000000000E+00  0.00000000000E+00 -0.90807872994E+03  0.22125931286E+04  0.20176623536E+04 0.  0.
        1    1    3    3  502    0 -0.43338127846E+03 -0.13778478596E+03 -0.14415606294E+04  0.15115889084E+04  0.50400001928E-02 0.  1.
       -1    1    3    3    0  502  0.43338127846E+03  0.13778478596E+03  0.53348189942E+03  0.70100422024E+03  0.50400001928E-02 0. -1.
</event>
<event>
 5   0  0.3460648E-04  0.2040031E+04  0.7818609E-02  0.8588130E-01
       -2   -1    0    0    0  501  0.00000000000E+00  0.00000000000E+00  0.84154752012E+03  0.84154752013E+03  0.25500000920E-02 0.  1.
        2   -1    0    0  501    0  0.00000000000E+00  0.00000000000E+00 -0.12363319562E+04  0.12363319562E+04  0.25500000920E-02 0. -1.
    10030    2    1    2    0    0  0.00000000000E+00  0.00000000000E+00 -0.39478443610E+03  0.20778794763E+04  0.20400314623E+04 0.  0.
        5    1    3    3  502    0 -0.68879089618E+03  0.16811146770E+03 -0.94428768118E+03  0.11808453239E+04  0.46999998093E+01 0. -1.
       -5    1    3    3    0  502  0.68879089618E+03 -0.16811146770E+03  0.54950324509E+03  0.89703415241E+03  0.46999998093E+01 0.  1.
</event>
<event>
 5   0  0.3387881E-04  0.1978049E+04  0.7818609E-02  0.8616953E-01
        2   -1    0    0  501    0  0.00000000000E+00  0.00000000000E+00  0.10996822140E+04  0.10996822140E+04  0.25500000920E-02 0. -1.
       -2   -1    0    0    0  501  0.00000000000E+00  0.00000000000E+00 -0.88950200267E+03  0.88950200268E+03  0.25500000920E-02 0.  1.
    10030    2    1    2    0    0  0.00000000000E+00  0.00000000000E+00  0.21018021130E+03  0.19891842166E+04  0.19780490708E+04 0.  0.
        1    1    3    3  502    0 -0.93920300627E+03  0.28538795053E+03  0.22668796296E+03  0.10074403217E+04  0.50400001928E-02 0. -1.
       -1    1    3    3    0  502  0.93920300627E+03 -0.28538795053E+03 -0.16507751668E+02  0.98174389490E+03  0.50400001928E-02 0.  1.
</event>
<event>
 5   0  0.3395569E-04  0.1540203E+04  0.7818609E-02  0.8858150E-01
       -2   -1    0    0    0  501  0.00000000000E+00  0.00000000000E+00  0.48465530115E+03  0.48465530115E+03  0.25500000920E-02 0. -1.
        2   -1    0    0  501    0  0.00000000000E+00  0.00000000000E+00 -0.12236665556E+04  0.12236665556E+04  0.25500000920E-02 0.  1.
    10030    2    1    2    0    0  0.00000000000E+00  0.00000000000E+00 -0.73901125441E+03  0.17083218567E+04  0.15402032113E+04 0.  0.
        4    1    3    3  502    0 -0.29264707575E+03  0.20927875918E+03  0.38570900122E+03  0.52745896192E+03  0.12699999809E+01 0. -1.
       -4    1    3    3    0  502  0.29264707575E+03 -0.20927875918E+03 -0.11247202556E+04  0.11808628948E+04  0.12699999809E+01 0.  1.
</event>
<event>
 5   0  0.3460648E-04  0.1979367E+04  0.7818609E-02  0.8616328E-01
        2   -1    0    0  501    0  0.00000000000E+00  0.00000000000E+00  0.12242099372E+04  0.12242099372E+04  0.25500000920E-02 0. -1.
       -2   -1    0    0    0  501  0.00000000000E+00  0.00000000000E+00 -0.80008614329E+03  0.80008614330E+03  0.25500000920E-02 0.  1.
    10030    2    1    2    0    0  0.00000000000E+00  0.00000000000E+00  0.42412379389E+03  0.20242960805E+04  0.19793669768E+04 0.  0.
        5    1    3    3  502    0  0.15490478378E+03 -0.28800185848E+03  0.11673472265E+04  0.12122962508E+04  0.46999998093E+01 0. -1.
       -5    1    3    3    0  502 -0.15490478378E+03  0.28800185848E+03 -0.74322343264E+03  0.81199982964E+03  0.46999998093E+01 0.  1.
</event>
<event>
 5   0  0.1696052E-04  0.1958781E+04  0.7818609E-02  0.8626138E-01
       -1   -1    0    0    0  501  0.00000000000E+00  0.00000000000E+00  0.57462994151E+03  0.57462994153E+03  0.50400001928E-02 0. -1.
        1   -1    0    0  501    0  0.00000000000E+00  0.00000000000E+00 -0.16692574734E+04  0.16692574734E+04  0.50400001928E-02 0.  1.
    10030    2    1    2    0    0  0.00000000000E+00  0.00000000000E+00 -0.10946275319E+04  0.22438874150E+04  0.19587805639E+04 0.  0.
        4    1    3    3  502    0  0.66226338777E+03  0.22328630824E+03 -0.13332953155E+04  0.15053662615E+04  0.12699999809E+01 0.  1.
       -4    1    3    3    0  502 -0.66226338777E+03 -0.22328630824E+03  0.23866778356E+03  0.73852115341E+03  0.12699999809E+01 0. -1.
</event>
<event>
 5   0  0.3387881E-04  0.1971537E+04  0.7818609E-02  0.8620045E-01
       -2   -1    0    0    0  501  0.00000000000E+00  0.00000000000E+00  0.69836072080E+03  0.69836072081E+03  0.25500000920E-02 0. -1.
        2   -1    0    0  501    0  0.00000000000E+00  0.00000000000E+00 -0.13914577890E+04  0.13914577890E+04  0.25500000920E-02 0.  1.
    10030    2    1    2    0    0  0.00000000000E+00  0.00000000000E+00 -0.69309706816E+03  0.20898185098E+04  0.19715369278E+04 0.  0.
        1    1    3    3  502    0 -0.22696470410E+03 -0.65766491155E+03 -0.10868038341E+04  0.12904180279E+04  0.50400001928E-02 0.  1.
       -1    1    3    3    0  502  0.22696470410E+03  0.65766491155E+03  0.39370676599E+03  0.79940048186E+03  0.50400001928E-02 0. -1.
</event>
<event>
 5   0  0.1696052E-04  0.2009799E+04  0.7818609E-02  0.8602053E-01
       -1   -1    0    0    0  501  0.00000000000E+00  0.00000000000E+00  0.10634935839E+04  0.10634935840E+04  0.50400001928E-02 0. -1.
        1   -1    0    0  501    0  0.00000000000E+00  0.00000000000E+00 -0.94953393078E+03  0.94953393079E+03  0.50400001928E-02 0.  1.
    10030    2    1    2    0    0  0.00000000000E+00  0.00000000000E+00  0.11395965316E+03  0.20130275147E+04  0.20097992369E+04 0.  0.
        4    1    3    3  502    0  0.67753337901E+03  0.45947417706E+03  0.64071406200E+03  0.10395595804E+04  0.12699999809E+01 0. -1.
       -4    1    3    3    0  502 -0.67753337901E+03 -0.45947417706E+03 -0.52675440883E+03  0.97346793434E+03  0.12699999809E+01 0.  1.
</event>
<event>
 5   0  0.1643565E-04  0.2019222E+04  0.7818609E-02  0.8597686E-01
        1   -1    0    0  501    0  0.00000000000E+00  0.00000000000E+00  0.10988350132E+04  0.10988350132E+04  0.50400001928E-02 0. -1.
       -1   -1    0    0    0  501  0.00000000000E+00  0.00000000000E+00 -0.92763204821E+03  0.92763204823E+03  0.50400001928E-02 0.  1.
    10030    2    1    2    0    0  0.00000000000E+00  0.00000000000E+00  0.17120296496E+03  0.20264670614E+04  0.20192222007E+04 0.  0.
        2    1    3    3  502    0 -0.93954026283E+03 -0.31369273241E+03  0.28168812942E+03  0.10297996107E+04  0.25500000920E-02 0. -1.
       -2    1    3    3    0  502  0.93954026283E+03  0.31369273241E+03 -0.11048516446E+03  0.99666745076E+03  0.25500000920E-02 0.  1.
</event>
<event>
 5   0  0.1643565E-04  0.2006474E+04  0.7818609E-02  0.8603600E-01
        1   -1    0    0  501    0  0.00000000000E+00  0.00000000000E+00  0.98073565099E+03  0.98073565100E+03  0.50400001928E-02 0. -1.
       -1   -1    0    0    0  501  0.00000000000E+00  0.00000000000E+00 -0.10262550738E+04  0.10262550738E+04  0.50400001928E-02 0.  1.
    10030    2    1    2    0    0  0.00000000000E+00  0.00000000000E+00 -0.45519422764E+02  0.20069907248E+04  0.20064744582E+04 0.  0.
        2    1    3    3  502    0  0.17942290058E+03 -0.38111476592E+03  0.88799304169E+03  0.98283909373E+03  0.25500000920E-02 0. -1.
       -2    1    3    3    0  502 -0.17942290058E+03  0.38111476592E+03 -0.93351246446E+03  0.10241516310E+04  0.25500000920E-02 0.  1.
</event>
<event>
 5   0  0.1650221E-04  0.2003966E+04  0.7818609E-02  0.8604769E-01
        1   -1    0    0  501    0  0.00000000000E+00  0.00000000000E+00  0.22785583702E+04  0.22785583702E+04  0.50400001928E-02 0. -1.
       -1   -1    0    0    0  501  0.00000000000E+00  0.00000000000E+00 -0.44061629357E+03  0.44061629360E+03  0.50400001928E-02 0.  1.
    10030    2    1    2    0    0  0.00000000000E+00  0.00000000000E+00  0.18379420766E+04  0.27191746638E+04  0.20039660115E+04 0.  0.
        1    1    3    3  502    0  0.35193603979E+03 -0.43914021472E+03  0.20438594649E+04  0.21199208986E+04  0.50400001928E-02 0. -1.
       -1    1    3    3    0  502 -0.35193603979E+03  0.43914021472E+03 -0.20591738823E+03  0.59925376519E+03  0.50400001928E-02 0.  1.
</event>
<event>
 5   0  0.1696052E-04  0.1955030E+04  0.7818609E-02  0.8627939E-01
       -1   -1    0    0    0  501  0.00000000000E+00  0.00000000000E+00  0.13554250387E+04  0.13554250387E+04  0.50400001928E-02 0. -1.
        1   -1    0    0  501    0  0.00000000000E+00  0.00000000000E+00 -0.70497130948E+03  0.70497130949E+03  0.50400001928E-02 0.  1.
    10030    2    1    2    0    0  0.00000000000E+00  0.00000000000E+00  0.65045372926E+03  0.20603963482E+04  0.19550301936E+04 0.  0.
        4    1    3    3  502    0  0.24625803213E+03  0.22189787935E+03 -0.64392818255E+03  0.72424222773E+03  0.12699999809E+01 0.  1.
       -4    1    3    3    0  502 -0.24625803213E+03 -0.22189787935E+03  0.12943819118E+04  0.13361541205E+04  0.12699999809E+01 0. -1.
</event>
<event>
 5   0  0.3395569E-04  0.1880843E+04  0.7818609E-02  0.8664451E-01
       -2   -1    0    0    0  501  0.00000000000E+00  0.00000000000E+00  0.48138698297E+03  0.48138698298E+03  0.25500000920E-02 0.  1.
        2   -1    0    0  501    0  0.00000000000E+00  0.00000000000E+00 -0.18371757219E+04  0.18371757219E+04  0.25500000920E-02 0. -1.
    10030    2    1    2    0    0  0.00000000000E+00  0.00000000000E+00 -0.13557887389E+04  0.23185627049E+04  0.18808428727E+04 0.  0.
        4    1    3    3  502    0 -0.37791182359E+03 -0.27656633315E+03 -0.16832154055E+04  0.17471468162E+04  0.12699999809E+01 0. -1.
       -4    1    3    3    0  502  0.37791182359E+03  0.27656633315E+03  0.32742666654E+03  0.57141588874E+03  0.12699999809E+01 0.  1.
</event>
<event>
 5   0  0.3395569E-04  0.2019217E+04  0.7818609E-02  0.8597688E-01
        2   -1    0    0  501    0  0.00000000000E+00  0.00000000000E+00  0.14058551153E+04  0.14058551154E+04  0.25500000920E-02 0. -1.
       -2   -1    0    0    0  501  0.00000000000E+00  0.00000000000E+00 -0.72504575049E+03  0.72504575049E+03  0.25500000920E-02 0.  1.
    10030    2    1    2    0    0  0.00000000000E+00  0.00000000000E+00  0.68080936486E+03  0.21309008658E+04  0.20192169544E+04 0.  0.
        4    1    3    3  502    0  0.97825755848E+03 -0.85563520698E+02  0.92915361550E+02  0.98637915839E+03  0.12699999809E+01 0.  1.
       -4    1    3    3    0  502 -0.97825755848E+03  0.85563520698E+02  0.58789400331E+03  0.11445217075E+04  0.12699999809E+01 0. -1.
</event>
<event>
 5   0  0.1664168E-04  0.9959944E+03  0.7818609E-02  0.9312949E-01
        1   -1    0    0  501    0  0.00000000000E+00  0.00000000000E+00  0.53732458349E+03  0.53732458351E+03  0.50400001928E-02 0. -1.
       -1   -1    0    0    0  501  0.00000000000E+00  0.00000000000E+00 -0.46154819420E+03  0.46154819423E+03  0.50400001928E-02 0.  1.
    10030    2    1    2    0    0  0.00000000000E+00  0.00000000000E+00  0.75776389287E+02  0.99887277773E+03  0.99599435989E+03 0.  0.
        5    1    3    3  502    0  0.42591860850E+02 -0.19581576489E+03 -0.41930340720E+03  0.46475296414E+03  0.46999998093E+01 0.  1.
       -5    1    3    3    0  502 -0.42591860850E+02  0.19581576489E+03  0.49507979648E+03  0.53411981360E+03  0.46999998093E+01 0. -1.
</event>
<event>
 5   0  0.3371947E-04  0.2054244E+04  0.7818609E-02  0.8581671E-01
        2   -1    0    0  501    0  0.00000000000E+00  0.00000000000E+00  0.12480561565E+04  0.12480561565E+04  0.25500000920E-02 0.  1.
       -2   -1    0    0    0  501  0.00000000000E+00  0.00000000000E+00 -0.84529844532E+03  0.84529844532E+03  0.25500000920E-02 0. -1.
    10030    2    1    2    0    0  0.00000000000E+00  0.00000000000E+00  0.40275771121E+03  0.20933546018E+04  0.20542443173E+04 0.  0.
        2    1    3    3  502    0 -0.66852990120E+03 -0.70521328083E+03 -0.13770532424E+03  0.98143810635E+03  0.25500000920E-02 0. -1.
       -2    1    3    3    0  502  0.66852990120E+03  0.70521328083E+03  0.54046303545E+03  0.11119164955E+04  0.25500000920E-02 0.  1.
</event>
<event>
 5   0  0.1664168E-04  0.1941776E+04  0.7818609E-02  0.8634337E-01
        1   -1    0    0  501    0  0.00000000000E+00  0.00000000000E+00  0.12095917005E+04  0.12095917005E+04  0.50400001928E-02 0.  1.
       -1   -1    0    0    0  501  0.00000000000E+00  0.00000000000E+00 -0.77929086427E+03  0.77929086428E+03  0.50400001928E-02 0. -1.
    10030    2    1    2    0    0  0.00000000000E+00  0.00000000000E+00  0.43030083624E+03  0.19888825648E+04  0.19417762608E+04 0.  0.
        5    1    3    3  502    0 -0.14540004106E+03  0.21151067828E+03  0.11742006061E+04  0.12019347288E+04  0.46999998093E+01 0.  1.
       -5    1    3    3    0  502  0.14540004106E+03 -0.21151067828E+03 -0.74389976986E+03  0.78694783599E+03  0.46999998093E+01 0. -1.
</event>
<event>
 5   0  0.3387881E-04  0.1796829E+04  0.7818609E-02  0.8707988E-01
        2   -1    0    0  501    0  0.00000000000E+00  0.00000000000E+00  0.93142640618E+03  0.93142640618E+03  0.25500000920E-02 0.  1.
       -2   -1    0    0    0  501  0.00000000000E+00  0.00000000000E+00 -0.86657276384E+03  0.86657276384E+03  0.25500000920E-02 0. -1.
    10030    2    1    2    0    0  0.00000000000E+00  0.00000000000E+00  0.64853642340E+02  0.17979991700E+04  0.17968291573E+04 0.  0.
        1    1    3    3  502    0 -0.81432705518E+03 -0.37868601607E+03  0.57284565428E+02  0.89989620125E+03  0.50400001928E-02 0. -1.
       -1    1    3    3    0  502  0.81432705518E+03  0.37868601607E+03  0.75690769121E+01  0.89810296877E+03  0.50400001928E-02 0.  1.
</event>
<event>
 5   0  0.3395569E-04  0.2012110E+04  0.7818609E-02  0.8600980E-01
       -2   -1    0    0    0  501  0.00000000000E+00  0.00000000000E+00  0.13768227914E+04  0.13768227914E+04  0.25500000920E-02 0. -1.
        2   -1    0    0  501    0  0.00000000000E+00  0.00000000000E+00 -0.73513206204E+03  0.73513206205E+03  0.25500000920E-02 0.  1.
    10030    2    1    2    0    0  0.00000000000E+00  0.00000000000E+00  0.64169072940E+03  0.21119548535E+04  0.20121099152E+04 0.  0.
        4    1    3    3  502    0 -0.79689150975E+03  0.61065562851E+03  0.25275255828E+03  0.10352882901E+04  0.12699999809E+01 0.  1.
       -4    1    3    3    0  502  0.79689150975E+03 -0.61065562851E+03  0.38893817112E+03  0.10766665634E+04  0.12699999809E+01 0. -1.
</event>
<event>
 5   0  0.1664168E-04  0.2038949E+04  0.7818609E-02  0.8588624E-01
        1   -1    0    0  501    0  0.00000000000E+00  0.00000000000E+00  0.14678826058E+04  0.14678826058E+04  0.50400001928E-02 0.  1.
       -1   -1    0    0    0  501  0.00000000000E+00  0.00000000000E+00 -0.70804616395E+03  0.70804616397E+03  0.50400001928E-02 0. -1.
    10030    2    1    2    0    0  0.00000000000E+00  0.00000000000E+00  0.75983644187E+03  0.21759287698E+04  0.20389493846E+04 0.  0.
        5    1    3    3  502    0  0.16692031117E+02  0.31553771228E+03 -0.65445739635E+03  0.72675941371E+03  0.46999998093E+01 0. -1.
       -5    1    3    3    0  502 -0.16692031117E+02 -0.31553771228E+03  0.14142938382E+04  0.14491693561E+04  0.46999998093E+01 0.  1.
</event>
<event>
 5   0  0.3395569E-04  0.2032768E+04  0.7818609E-02  0.8591452E-01
       -2   -1    0    0    0  501  0.00000000000E+00  0.00000000000E+00  0.12251519477E+04  0.12251519477E+04  0.25500000920E-02 0. -1.
        2   -1    0    0  501    0  0.00000000000E+00  0.00000000000E+00 -0.84319056561E+03  0.84319056561E+03  0.25500000920E-02 0.  1.
    10030    2    1    2    0    0  0.00000000000E+00  0.00000000000E+00  0.38196138212E+03  0.20683425133E+04  0.20327681262E+04 0.  0.
        4    1    3    3  502    0 -0.98389763514E+03  0.21495043205E+03  0.51554513307E+02  0.10084233860E+04  0.12699999809E+01 0. -1.
       -4    1    3    3    0  502  0.98389763514E+03 -0.21495043205E+03  0.33040686881E+03  0.10599191274E+04  0.12699999809E+01 0.  1.
</event>
<event>
 5   0  0.3460648E-04  0.1999217E+04  0.7818609E-02  0.8606987E-01
       -2   -1    0    0    0  501  0.00000000000E+00  0.00000000000E+00  0.97122942959E+03  0.97122942959E+03  0.25500000920E-02 0. -1.
        2   -1    0    0  501    0  0.00000000000E+00  0.00000000000E+00 -0.10288167194E+04  0.10288167194E+04  0.25500000920E-02 0.  1.
    10030    2    1    2    0    0  0.00000000000E+00  0.00000000000E+00 -0.57587289795E+02  0.20000461490E+04  0.19992169222E+04 0.  0.
        5    1    3    3  502    0  0.85582496777E+03  0.27282034141E+03 -0.46752733427E+03  0.10126555251E+04  0.46999998093E+01 0.  1.
       -5    1    3    3    0  502 -0.85582496777E+03 -0.27282034141E+03  0.40994004448E+03  0.98739062392E+03  0.46999998093E+01 0. -1.
</event>
<event>
 5   0  0.3387881E-04  0.2065291E+04  0.7818609E-02  0.8576689E-01
       -2   -1    0    0    0  501  0.00000000000E+00  0.00000000000E+00  0.11845152820E+04  0.11845152820E+04  0.25500000920E-02 0. -1.
        2   -1    0    0  501    0  0.00000000000E+00  0.00000000000E+00 -0.90024765889E+03  0.90024765889E+03  0.25500000920E-02 0.  1.
    10030    2    1    2    0    0  0.00000000000E+00  0.00000000000E+00  0.28426762315E+03  0.20847629409E+04  0.20652913689E+04 0.  0.
        1    1    3    3  502    0  0.64515668118E+03 -0.64904169190E+02  0.95340087664E+03  0.11530017025E+04  0.50400001928E-02 0. -1.
       -1    1    3    3    0  502 -0.64515668118E+03  0.64904169190E+02 -0.66913325349E+03  0.93176123840E+03  0.50400001928E-02 0.  1.
</event>
<event>
 5   0  0.1696052E-04  0.2004344E+04  0.7818609E-02  0.8604592E-01
       -1   -1    0    0    0  501  0.00000000000E+00  0.00000000000E+00  0.10058382978E+04  0.10058382978E+04  0.50400001928E-02 0.  1.
        1   -1    0    0  501    0  0.00000000000E+00  0.00000000000E+00 -0.99851906701E+03  0.99851906702E+03  0.50400001928E-02 0. -1.
    10030    2    1    2    0    0  0.00000000000E+00  0.00000000000E+00  0.73192307747E+01  0.20043573648E+04  0.20043440011E+04 0.  0.
        4    1    3    3  502    0 -0.70609099680E+03 -0.11495746477E+03  0.70549574983E+03  0.10047415491E+04  0.12699999809E+01 0.  1.
       -4    1    3    3    0  502  0.70609099680E+03  0.11495746477E+03 -0.69817651905E+03  0.99961581576E+03  0.12699999809E+01 0. -1.
</event>
<event>
 5   0  0.3387881E-04  0.2021769E+04  0.7818609E-02  0.8596510E-01
        2   -1    0    0  501    0  0.00000000000E+00  0.00000000000E+00  0.21690093348E+04  0.21690093348E+04  0.25500000920E-02 0. -1.
       -2   -1    0    0    0  501  0.00000000000E+00  0.00000000000E+00 -0.47113117075E+03  0.47113117076E+03  0.25500000920E-02 0.  1.
    10030    2    1    2    0    0  0.00000000000E+00  0.00000000000E+00  0.16978781641E+04  0.26401405056E+04  0.20217694303E+04 0.  0.
        1    1    3    3  502    0  0.21267140243E+03 -0.81857283033E+03  0.15720078113E+04  0.17850767947E+04  0.50400001928E-02 0. -1.
       -1    1    3    3    0  502 -0.21267140243E+03  0.81857283033E+03  0.12587035272E+03  0.85506371089E+03  0.50400001928E-02 0.  1.
</event>
<event>
 5   0  0.1643565E-04  0.2017608E+04  0.7818609E-02  0.8598432E-01
        1   -1    0    0  501    0  0.00000000000E+00  0.00000000000E+00  0.16337573240E+04  0.16337573240E+04  0.50400001928E-02 0. -1.
       -1   -1    0    0    0  501  0.00000000000E+00  0.00000000000E+00 -0.62291109920E+03  0.62291109922E+03  0.50400001928E-02 0.  1.
    10030    2    1    2    0    0  0.00000000000E+00  0.00000000000E+00  0.10108462248E+04  0.22566684232E+04  0.20176080596E+04 0.  0.
        2    1    3    3  502    0 -0.87324756810E+03 -0.15604569191E+03 -0.31886220664E+02  0.88765325676E+03  0.25500000920E-02 0.  1.
       -2    1    3    3    0  502  0.87324756810E+03  0.15604569191E+03  0.10427324455E+04  0.13690151665E+04  0.25500000920E-02 0. -1.
</event>
<event>
 5   0  0.3431030E-04  0.2035563E+04  0.7818609E-02  0.8590172E-01
        2   -1    0    0  501    0  0.00000000000E+00  0.00000000000E+00  0.19812456250E+04  0.19812456250E+04  0.25500000920E-02 0.  1.
       -2   -1    0    0    0  501  0.00000000000E+00  0.00000000000E+00 -0.52284260274E+03  0.52284260275E+03  0.25500000920E-02 0. -1.
    10030    2    1    2    0    0  0.00000000000E+00  0.00000000000E+00  0.14584030223E+04  0.25040882278E+04  0.20355634299E+04 0.  0.
        3    1    3    3  502    0  0.78083979168E+03 -0.20364005785E+03  0.14922037792E+04  0.16964233500E+04  0.10100000352E+00 0.  1.
       -3    1    3    3    0  502 -0.78083979168E+03  0.20364005785E+03 -0.33800756955E+02  0.80766487778E+03  0.10100000352E+00 0. -1.
</event>
<event>
 5   0  0.1696052E-04  0.1962715E+04  0.7818609E-02  0.8624254E-01
       -1   -1    0    0    0  501  0.00000000000E+00  0.00000000000E+00  0.41962403789E+03  0.41962403792E+03  0.50400001928E-02 0.  1.
        1   -1    0    0  501    0  0.00000000000E+00  0.00000000000E+00 -0.22950611233E+04  0.22950611234E+04  0.50400001928E-02 0. -1.
    10030    2    1    2    0    0  0.00000000000E+00  0.00000000000E+00 -0.18754370855E+04  0.27146851613E+04  0.19627152782E+04 0.  0.
        4    1    3    3  502    0 -0.69977472471E+03  0.32567826414E+03 -0.17759783896E+04  0.19364534206E+04  0.12699999809E+01 0. -1.
       -4    1    3    3    0  502  0.69977472471E+03 -0.32567826414E+03 -0.99458695872E+02  0.77823174065E+03  0.12699999809E+01 0.  1.
</event>
<event>
 5   0  0.1650221E-04  0.1856289E+04  0.7818609E-02  0.8676925E-01
        1   -1    0    0  501    0  0.00000000000E+00  0.00000000000E+00  0.71724773982E+03  0.71724773984E+03  0.50400001928E-02 0.  1.
       -1   -1    0    0    0  501  0.00000000000E+00  0.00000000000E+00 -0.12010521401E+04  0.12010521401E+04  0.50400001928E-02 0. -1.
    10030    2    1    2    0    0  0.00000000000E+00  0.00000000000E+00 -0.48380440028E+03  0.19182998800E+04  0.18562886984E+04 0.  0.
        1    1    3    3  502    0 -0.49142803454E+03  0.58927009702E+03  0.29776055267E+03  0.82304441383E+03  0.50400001928E-02 0.  1.
       -1    1    3    3    0  502  0.49142803454E+03 -0.58927009702E+03 -0.78156495294E+03  0.10952554661E+04  0.50400001928E-02 0. -1.
</event>
<event>
 5   0  0.3387881E-04  0.1990140E+04  0.7818609E-02  0.8611244E-01
        2   -1    0    0  501    0  0.00000000000E+00  0.00000000000E+00  0.12524146858E+04  0.12524146858E+04  0.25500000920E-02 0. -1.
       -2   -1    0    0    0  501  0.00000000000E+00  0.00000000000E+00 -0.79060424373E+03  0.79060424373E+03  0.25500000920E-02 0.  1.
    10030    2    1    2    0    0  0.00000000000E+00  0.00000000000E+00  0.46181044209E+03  0.20430189296E+04  0.19901400609E+04 0.  0.
        1    1    3    3  502    0 -0.71904531304E+03  0.11776381278E+03  0.92660639207E+03  0.11787679516E+04  0.50400001928E-02 0. -1.
       -1    1    3    3    0  502  0.71904531304E+03 -0.11776381278E+03 -0.46479594998E+03  0.86425097798E+03  0.50400001928E-02 0.  1.
</event>
<event>
 5   0  0.3395569E-04  0.2040183E+04  0.7818609E-02  0.8588061E-01
       -2   -1    0    0    0  501  0.00000000000E+00  0.00000000000E+00  0.78255738083E+03  0.78255738084E+03  0.25500000920E-02 0. -1.
        2   -1    0    0  501    0  0.00000000000E+00  0.00000000000E+00 -0.13297256281E+04  0.13297256281E+04  0.25500000920E-02 0.  1.
    10030    2    1    2    0    0  0.00000000000E+00  0.00000000000E+00 -0.54716824725E+03  0.21122830089E+04  0.20401829376E+04 0.  0.
        4    1    3    3  502    0 -0.46742747530E+03 -0.55202939674E+03 -0.10182808713E+04  0.12490486161E+04  0.12699999809E+01 0.  1.
       -4    1    3    3    0  502  0.46742747530E+03  0.55202939674E+03  0.47111262408E+03  0.86323439284E+03  0.12699999809E+01 0. -1.
</event>
<event>
 5   0  0.1664168E-04  0.2080023E+04  0.7818609E-02  0.8570095E-01
        1   -1    0    0  501    0  0.00000000000E+00  0.00000000000E+00  0.18935240929E+04  0.18935240929E+04  0.50400001928E-02 0.  1.
       -1   -1    0    0    0  501  0.00000000000E+00  0.00000000000E+00 -0.57122268853E+03  0.57122268855E+03  0.50400001928E-02 0. -1.
    10030    2    1    2    0    0  0.00000000000E+00  0.00000000000E+00  0.13223014043E+04  0.24647467814E+04  0.20800230029E+04 0.  0.
        5    1    3    3  502    0 -0.38977983123E+03  0.94852955389E+03  0.86627295286E+03  0.13424185451E+04  0.46999998093E+01 0.  1.
       -5    1    3    3    0  502  0.38977983123E+03 -0.94852955389E+03  0.45602845147E+03  0.11223282363E+04  0.46999998093E+01 0. -1.
</event>
<event>
 5   0  0.3387881E-04  0.2151741E+04  0.7818609E-02  0.8538788E-01
       -2   -1    0    0    0  501  0.00000000000E+00  0.00000000000E+00  0.69221007268E+03  0.69221007269E+03  0.25500000920E-02 0.  1.
        2   -1    0    0  501    0  0.00000000000E+00  0.00000000000E+00 -0.16721756444E+04  0.16721756444E+04  0.25500000920E-02 0. -1.
    10030    2    1    2    0    0  0.00000000000E+00  0.00000000000E+00 -0.97996557176E+03  0.23643857171E+04  0.21517405275E+04 0.  0.
        1    1    3    3  502    0  0.10026905803E+04  0.25644632634E+03 -0.16710083355E+03  0.10483681637E+04  0.50400001928E-02 0.  1.
       -1    1    3    3    0  502 -0.10026905803E+04 -0.25644632634E+03 -0.81286473821E+03  0.13160175534E+04  0.50400001928E-02 0. -1.
</event>
<event>
 5   0  0.3431030E-04  0.1918206E+04  0.7818609E-02  0.8645847E-01
        2   -1    0    0  501    0  0.00000000000E+00  0.00000000000E+00  0.15550198632E+04  0.15550198632E+04  0.25500000920E-02 0. -1.
       -2   -1    0    0    0  501  0.00000000000E+00  0.00000000000E+00 -0.59155418134E+03  0.59155418135E+03  0.25500000920E-02 0.  1.
    10030    2    1    2    0    0  0.00000000000E+00  0.00000000000E+00  0.96346568190E+03  0.21465740446E+04  0.19182059349E+04 0.  0.
        3    1    3    3  502    0  0.37697983711E+03  0.63543775599E+03  0.11660806715E+04  0.13804488697E+04  0.10100000352E+00 0. -1.
       -3    1    3    3    0  502 -0.37697983711E+03 -0.63543775599E+03 -0.20261498960E+03  0.76612517485E+03  0.10100000352E+00 0.  1.
</event>
<event>
 5   0  0.1650221E-04  0.1885989E+04  0.7818609E-02  0.8661862E-01
        1   -1    0    0  501    0  0.00000000000E+00  0.00000000000E+00  0.87204461819E+03  0.87204461821E+03  0.50400001928E-02 0. -1.
       -1   -1    0    0    0  501  0.00000000000E+00  0.00000000000E+00 -0.10197164643E+04  0.10197164643E+04  0.50400001928E-02 0.  1.
    10030    2    1    2    0    0  0.00000000000E+00  0.00000000000E+00 -0.14767184614E+03  0.18917610825E+04  0.18859886053E+04 0.  0.
        1    1    3    3  502    0  0.92072482357E+02  0.80374283167E+03  0.41216575430E+03  0.90794299959E+03  0.50400001928E-02 0. -1.
       -1    1    3    3    0  502 -0.92072482357E+02 -0.80374283167E+03 -0.55983760044E+03  0.98381808296E+03  0.50400001928E-02 0.  1.
</event>
<event>
 5   0  0.1650221E-04  0.1943603E+04  0.7818609E-02  0.8633451E-01
        1   -1    0    0  501    0  0.00000000000E+00  0.00000000000E+00  0.26786829876E+04  0.26786829876E+04  0.50400001928E-02 0. -1.
       -1   -1    0    0    0  501  0.00000000000E+00  0.00000000000E+00 -0.35256079306E+03  0.35256079310E+03  0.50400001928E-02 0.  1.
    10030    2    1    2    0    0  0.00000000000E+00  0.00000000000E+00  0.23261221946E+04  0.30312437807E+04  0.19436034560E+04 0.  0.
        1    1    3    3  502    0  0.45391641063E+03 -0.80802219128E+03  0.16189837418E+04  0.18654887632E+04  0.50400001928E-02 0. -1.
       -1    1    3    3    0  502 -0.45391641063E+03  0.80802219128E+03  0.70713845273E+03  0.11657550175E+04  0.50400001928E-02 0.  1.
</event>
<event>
 5   0  0.1708578E-04  0.1910602E+04  0.7818609E-02  0.8649597E-01
       -1   -1    0    0    0  501  0.00000000000E+00  0.00000000000E+00  0.85544622541E+03  0.85544622543E+03  0.50400001928E-02 0. -1.
        1   -1    0    0  501    0  0.00000000000E+00  0.00000000000E+00 -0.10668113257E+04  0.10668113257E+04  0.50400001928E-02 0.  1.
    10030    2    1    2    0    0  0.00000000000E+00  0.00000000000E+00 -0.21136510026E+03  0.19222575511E+04  0.19106017081E+04 0.  0.
        3    1    3    3  502    0 -0.47105408816E+02  0.93033570170E+03  0.10740251560E+03  0.93769864453E+03  0.10100000352E+00 0.  1.
       -3    1    3    3    0  502  0.47105408816E+02 -0.93033570170E+03 -0.31876761586E+03  0.98455890657E+03  0.10100000352E+00 0. -1.
</event>
<event>
 5   0  0.1664168E-04  0.1993388E+04  0.7818609E-02  0.8609718E-01
        1   -1    0    0  501    0  0.00000000000E+00  0.00000000000E+00  0.95108697344E+03  0.95108697345E+03  0.50400001928E-02 0. -1.
       -1   -1    0    0    0  501  0.00000000000E+00  0.00000000000E+00 -0.10444876703E+04  0.10444876703E+04  0.50400001928E-02 0.  1.
    10030    2    1    2    0    0  0.00000000000E+00  0.00000000000E+00 -0.93400696884E+02  0.19955746438E+04  0.19933876865E+04 0.  0.
        5    1    3    3  502    0  0.75806207440E+03  0.90273668265E+02  0.59475927853E+03  0.96776450297E+03  0.46999998093E+01 0. -1.
       -5    1    3    3    0  502 -0.75806207440E+03 -0.90273668265E+02 -0.68815997541E+03  0.10278101408E+04  0.46999998093E+01 0.  1.
</event>
<event>
 5   0  0.1664168E-04  0.1941414E+04  0.7818609E-02  0.8634512E-01
        1   -1    0    0  501    0  0.00000000000E+00  0.00000000000E+00  0.81751152081E+03  0.81751152083E+03  0.50400001928E-02 0. -1.
       -1   -1    0    0    0  501  0.00000000000E+00  0.00000000000E+00 -0.11526097029E+04  0.11526097029E+04  0.50400001928E-02 0.  1.
    10030    2    1    2    0    0  0.00000000000E+00  0.00000000000E+00 -0.33509818206E+03  0.19701212237E+04  0.19414136202E+04 0.  0.
        5    1    3    3  502    0  0.40900807405E+03 -0.72391555386E+02  0.72276178831E+03  0.83362751548E+03  0.46999998093E+01 0. -1.
       -5    1    3    3    0  502 -0.40900807405E+03  0.72391555386E+02 -0.10578599704E+04  0.11364937082E+04  0.46999998093E+01 0.  1.
</event>
<event>
 5   0  0.3395569E-04  0.1996197E+04  0.7818609E-02  0.8608401E-01
        2   -1    0    0  501    0  0.00000000000E+00  0.00000000000E+00  0.14145428589E+04  0.14145428590E+04  0.25500000920E-02 0. -1.
       -2   -1    0    0    0  501  0.00000000000E+00  0.00000000000E+00 -0.70425596891E+03  0.70425596891E+03  0.25500000920E-02 0.  1.
    10030    2    1    2    0    0  0.00000000000E+00  0.00000000000E+00  0.71028689004E+03  0.21187988279E+04  0.19961966353E+04 0.  0.
        4    1    3    3  502    0 -0.30679827274E+03 -0.23405344287E+03 -0.62187569483E+03  0.73187238436E+03  0.12699999809E+01 0.  1.
       -4    1    3    3    0  502  0.30679827274E+03  0.23405344287E+03  0.13321625849E+04  0.13869264435E+04  0.12699999809E+01 0. -1.
</event>
<event>
 5   0  0.3387881E-04  0.1945925E+04  0.7818609E-02  0.8632328E-01
        2   -1    0    0  501    0  0.00000000000E+00  0.00000000000E+00  0.10564131202E+04  0.10564131202E+04  0.25500000920E-02 0. -1.
       -2   -1    0    0    0  501  0.00000000000E+00  0.00000000000E+00 -0.89610427299E+03  0.89610427299E+03  0.25500000920E-02 0.  1.
    10030    2    1    2    0    0  0.00000000000E+00  0.00000000000E+00  0.16030884724E+03  0.19525173932E+04  0.19459252926E+04 0.  0.
        1    1    3    3  502    0  0.19942551237E+03 -0.74190999198E+03 -0.51890694022E+03  0.92707355901E+03  0.50400001928E-02 0.  1.
       -1    1    3    3    0  502 -0.19942551237E+03  0.74190999198E+03  0.67921578745E+03  0.10254438342E+04  0.50400001928E-02 0. -1.
</event>
<event>
 5   0  0.1643565E-04  0.1652404E+04  0.7818609E-02  0.8788986E-01
        1   -1    0    0  501    0  0.00000000000E+00  0.00000000000E+00  0.55318305794E+03  0.55318305796E+03  0.50400001928E-02 0. -1.
       -1   -1    0    0    0  501  0.00000000000E+00  0.00000000000E+00 -0.12339671709E+04  0.12339671709E+04  0.50400001928E-02 0.  1.
    10030    2    1    2    0    0  0.00000000000E+00  0.00000000000E+00 -0.68078411297E+03  0.17871502289E+04  0.16524039858E+04 0.  0.
        2    1    3    3  502    0  0.60424974452E+03 -0.56304206952E+03 -0.36397885793E+03  0.90256010039E+03  0.25500000920E-02 0.  1.
       -2    1    3    3    0  502 -0.60424974452E+03  0.56304206952E+03 -0.31680525504E+03  0.88459012849E+03  0.25500000920E-02 0. -1.
</event>
<event>
 5   0  0.3460648E-04  0.1972160E+04  0.7818609E-02  0.8619748E-01
        2   -1    0    0  501    0  0.00000000000E+00  0.00000000000E+00  0.11786288792E+04  0.11786288792E+04  0.25500000920E-02 0. -1.
       -2   -1    0    0    0  501  0.00000000000E+00  0.00000000000E+00 -0.82498758212E+03  0.82498758213E+03  0.25500000920E-02 0.  1.
    10030    2    1    2    0    0  0.00000000000E+00  0.00000000000E+00  0.35364129706E+03  0.20036164613E+04  0.19721604288E+04 0.  0.
        5    1    3    3  502    0  0.64634914641E+03 -0.66883515109E+03 -0.15585361587E+03  0.94309072627E+03  0.46999998093E+01 0.  1.
       -5    1    3    3    0  502 -0.64634914641E+03  0.66883515109E+03  0.50949491294E+03  0.10605257351E+04  0.46999998093E+01 0. -1.
</event>
<event>
 5   0  0.1643565E-04  0.1982955E+04  0.7818609E-02  0.8614631E-01
       -1   -1    0    0    0  501  0.00000000000E+00  0.00000000000E+00  0.74668514632E+03  0.74668514634E+03  0.50400001928E-02 0.  1.
        1   -1    0    0  501    0  0.00000000000E+00  0.00000000000E+00 -0.13165225621E+04  0.13165225621E+04  0.50400001928E-02 0. -1.
    10030    2    1    2    0    0  0.00000000000E+00  0.00000000000E+00 -0.56983741577E+03  0.20632077084E+04  0.19829552107E+04 0.  0.
        2    1    3    3  502    0  0.20222840890E+03  0.48152693835E+03 -0.11617978512E+04  0.12737891383E+04  0.25500000920E-02 0. -1.
       -2    1    3    3    0  502 -0.20222840890E+03 -0.48152693835E+03  0.59196043546E+03  0.78941857014E+03  0.25500000920E-02 0.  1.
</event>
<event>
 5   0  0.3371947E-04  0.2048048E+04  0.7818609E-02  0.8584480E-01
        2   -1    0    0  501    0  0.00000000000E+00  0.00000000000E+00  0.24145235751E+04  0.24145235751E+04  0.25500000920E-02 0.  1.
       -2   -1    0    0    0  501  0.00000000000E+00  0.00000000000E+00 -0.43429908451E+03  0.43429908452E+03  0.25500000920E-02 0. -1.
    10030    2    1    2    0    0  0.00000000000E+00  0.00000000000E+00  0.19802244906E+04  0.28488226596E+04  0.20480482203E+04 0.  0.
        2    1    3    3  502    0 -0.77791359367E+03 -0.32516620334E+03  0.18172721823E+03  0.86250066716E+03  0.25500000920E-02 0. -1.
       -2    1    3    3    0  502  0.77791359367E+03  0.32516620334E+03  0.17984972723E+04  0.19863219924E+04  0.25500000920E-02 0.  1.
</event>
<event>
 5   0  0.3431030E-04  0.1991849E+04  0.7818609E-02  0.8610441E-01
        2   -1    0    0  501    0  0.00000000000E+00  0.00000000000E+00  0.10518438177E+04  0.10518438177E+04  0.25500000920E-02 0.  1.
       -2   -1    0    0    0  501  0.00000000000E+00  0.00000000000E+00 -0.94297790577E+03  0.94297790578E+03  0.25500000920E-02 0. -1.
    10030    2    1    2    0    0  0.00000000000E+00  0.00000000000E+00  0.10886591189E+03  0.19948217234E+04  0.19918488702E+04 0.  0.
        3    1    3    3  502    0 -0.21219082886E+03  0.12683537077E+03 -0.91176252150E+03  0.94468146216E+03  0.10100000352E+00 0. -1.
       -3    1    3    3    0  502  0.21219082886E+03 -0.12683537077E+03  0.10206284334E+04  0.10501402613E+04  0.10100000352E+00 0.  1.
</event>
<event>
 5   0  0.3387881E-04  0.1995267E+04  0.7818609E-02  0.8608837E-01
        2   -1    0    0  501    0  0.00000000000E+00  0.00000000000E+00  0.23294146972E+04  0.23294146972E+04  0.25500000920E-02 0. -1.
       -2   -1    0    0    0  501  0.00000000000E+00  0.00000000000E+00 -0.42726287574E+03  0.42726287575E+03  0.25500000920E-02 0.  1.
    10030    2    1    2    0    0  0.00000000000E+00  0.00000000000E+00  0.19021518214E+04  0.27566775729E+04  0.19952668216E+04 0.  0.
        1    1    3    3  502    0 -0.60341503694E+03  0.10292199592E+02  0.20486130188E+04  0.21356570270E+04  0.50400001928E-02 0. -1.
       -1    1    3    3    0  502  0.60341503694E+03 -0.10292199592E+02 -0.14646119731E+03  0.62102054598E+03  0.50400001928E-02 0.  1.
</event>
<event>
 5   0  0.3395569E-04  0.1682725E+04  0.7818609E-02  0.8771279E-01
        2   -1    0    0  501    0  0.00000000000E+00  0.00000000000E+00  0.82264126350E+03  0.82264126351E+03  0.25500000920E-02 0. -1.
       -2   -1    0    0    0  501  0.00000000000E+00  0.00000000000E+00 -0.86050986569E+03  0.86050986569E+03  0.25500000920E-02 0.  1.
    10030    2    1    2    0    0  0.00000000000E+00  0.00000000000E+00 -0.37868602188E+02  0.16831511292E+04  0.16827250794E+04 0.  0.
        4    1    3    3  502    0 -0.16958856497E+03  0.57292279553E+03 -0.61144270185E+03  0.85490619459E+03  0.12699999809E+01 0.  1.
       -4    1    3    3    0  502  0.16958856497E+03 -0.57292279553E+03  0.57357409966E+03  0.82824493461E+03  0.12699999809E+01 0. -1.
</event>
<event>
 5   0  0.1664168E-04  0.1793766E+04  0.7818609E-02  0.8709622E-01
        1   -1    0    0  501    0  0.00000000000E+00  0.00000000000E+00  0.17680547559E+04  0.17680547559E+04  0.50400001928E-02 0.  1.
       -1   -1    0    0    0  501  0.00000000000E+00  0.00000000000E+00 -0.45496261140E+03  0.45496261143E+03  0.50400001928E-02 0. -1.
    10030    2    1    2    0    0  0.00000000000E+00  0.00000000000E+00  0.13130921445E+04  0.22230173673E+04  0.17937656579E+04 0.  0.
        5    1    3    3  502    0  0.23990345236E+03 -0.63488404051E+03  0.13831463168E+04  0.15406969965E+04  0.46999998093E+01 0.  1.
       -5    1    3    3    0  502 -0.23990345236E+03  0.63488404051E+03 -0.70054172337E+02  0.68232037080E+03  0.46999998093E+01 0. -1.
</event>
<event>
 5   0  0.1696052E-04  0.1913251E+04  0.7818609E-02  0.8648289E-01
        1   -1    0    0  501    0  0.00000000000E+00  0.00000000000E+00  0.61507333304E+03  0.61507333306E+03  0.50400001928E-02 0.  1.
       -1   -1    0    0    0  501  0.00000000000E+00  0.00000000000E+00 -0.14878422451E+04  0.14878422451E+04  0.50400001928E-02 0. -1.
    10030    2    1    2    0    0  0.00000000000E+00  0.00000000000E+00 -0.87276891203E+03  0.21029155781E+04  0.19132507298E+04 0.  0.
        4    1    3    3  502    0  0.43050989576E+03  0.85015069929E+03 -0.52857730766E+03  0.10897204068E+04  0.12699999809E+01 0. -1.
       -4    1    3    3    0  502 -0.43050989576E+03 -0.85015069929E+03 -0.34419160437E+03  0.10131951714E+04  0.12699999809E+01 0.  1.
</event>
<event>
 5   0  0.1222488E-04  0.1574344E+04  0.7818609E-02  0.8836467E-01
       -3   -1    0    0    0  501  0.00000000000E+00  0.00000000000E+00  0.50759411152E+03  0.50759412157E+03  0.10100000352E+00 0.  1.
        3   -1    0    0  501    0  0.00000000000E+00  0.00000000000E+00 -0.12207381559E+04  0.12207381600E+04  0.10100000352E+00 0. -1.
    10030    2    1    2    0    0  0.00000000000E+00  0.00000000000E+00 -0.71314404435E+03  0.17283322816E+04  0.15743436879E+04 0.  0.
        2    1    3    3  502    0  0.57536971409E+03 -0.31623470827E+03  0.12016738552E+03  0.66745404273E+03  0.25500000920E-02 0.  1.
       -2    1    3    3    0  502 -0.57536971409E+03  0.31623470827E+03 -0.83331142986E+03  0.10608782389E+04  0.25500000920E-02 0. -1.
</event>
<event>
 5   0  0.3431030E-04  0.2026300E+04  0.7818609E-02  0.8594423E-01
        2   -1    0    0  501    0  0.00000000000E+00  0.00000000000E+00  0.16807308031E+04  0.16807308031E+04  0.25500000920E-02 0.  1.
       -2   -1    0    0    0  501  0.00000000000E+00  0.00000000000E+00 -0.61072984320E+03  0.61072984321E+03  0.25500000920E-02 0. -1.
    10030    2    1    2    0    0  0.00000000000E+00  0.00000000000E+00  0.10700009599E+04  0.22914606463E+04  0.20262995433E+04 0.  0.
        3    1    3    3  502    0 -0.96527876553E+03 -0.54827796315E+02  0.87745362647E+03  0.13056393297E+04  0.10100000352E+00 0.  1.
       -3    1    3    3    0  502  0.96527876553E+03  0.54827796315E+02  0.19254733340E+03  0.98582131658E+03  0.10100000352E+00 0. -1.
</event>
<event>
 5   0  0.3371947E-04  0.2103807E+04  0.7818609E-02  0.8559568E-01
       -2   -1    0    0    0  501  0.00000000000E+00  0.00000000000E+00  0.61069395387E+03  0.61069395387E+03  0.25500000920E-02 0. -1.
        2   -1    0    0  501    0  0.00000000000E+00  0.00000000000E+00 -0.18118743686E+04  0.18118743686E+04  0.25500000920E-02 0.  1.
    10030    2    1    2    0    0  0.00000000000E+00  0.00000000000E+00 -0.12011804147E+04  0.24225683224E+04  0.21038067611E+04 0.  0.
        2    1    3    3  502    0 -0.25263906887E+03  0.24958754621E+03 -0.17407545925E+04  0.17766110981E+04  0.25500000920E-02 0.  1.
       -2    1    3    3    0  502  0.25263906887E+03 -0.24958754621E+03  0.53957417783E+03  0.64595722438E+03  0.25500000920E-02 0. -1.
</event>
<event>
 5   0  0.3460648E-04  0.2008774E+04  0.7818609E-02  0.8602529E-01
       -2   -1    0    0    0  501  0.00000000000E+00  0.00000000000E+00  0.92792801798E+03  0.92792801798E+03  0.25500000920E-02 0. -1.
        2   -1    0    0  501    0  0.00000000000E+00  0.00000000000E+00 -0.10871464702E+04  0.10871464702E+04  0.25500000920E-02 0.  1.
    10030    2    1    2    0    0  0.00000000000E+00  0.00000000000E+00 -0.15921845218E+03  0.20150744881E+04  0.20087744217E+04 0.  0.
        5    1    3    3  502    0  0.81796318784E+03 -0.22758568367E+03 -0.61786691196E+03  0.10500669650E+04  0.46999998093E+01 0. -1.
       -5    1    3    3    0  502 -0.81796318784E+03  0.22758568367E+03  0.45864845978E+03  0.96500752315E+03  0.46999998093E+01 0.  1.
</event>
<event>
 5   0  0.1696052E-04  0.1374352E+04  0.7818609E-02  0.8972596E-01
       -1   -1    0    0    0  501  0.00000000000E+00  0.00000000000E+00  0.43552852642E+03  0.43552852645E+03  0.50400001928E-02 0. -1.
        1   -1    0    0  501    0  0.00000000000E+00  0.00000000000E+00 -0.10842245387E+04  0.10842245387E+04  0.50400001928E-02 0.  1.
    10030    2    1    2    0    0  0.00000000000E+00  0.00000000000E+00 -0.64869601228E+03  0.15197530652E+04  0.13743517973E+04 0.  0.
        4    1    3    3  502    0  0.43592471087E+03 -0.47185564662E+03 -0.54545055555E+02  0.64471302203E+03  0.12699999809E+01 0. -1.
       -4    1    3    3    0  502 -0.43592471087E+03  0.47185564662E+03 -0.59415095672E+03  0.87504004312E+03  0.12699999809E+01 0.  1.
</event>
<event>
 5   0  0.1650221E-04  0.1956677E+04  0.7818609E-02  0.8627148E-01
       -1   -1    0    0    0  501  0.00000000000E+00  0.00000000000E+00  0.65644691008E+03  0.65644691010E+03  0.50400001928E-02 0. -1.
        1   -1    0    0  501    0  0.00000000000E+00  0.00000000000E+00 -0.14580716371E+04  0.14580716371E+04  0.50400001928E-02 0.  1.
    10030    2    1    2    0    0  0.00000000000E+00  0.00000000000E+00 -0.80162472703E+03  0.21145185472E+04  0.19566774092E+04 0.  0.
        1    1    3    3  502    0  0.96837669503E+03  0.13028467235E+03 -0.34766039969E+03  0.10371090940E+04  0.50400001928E-02 0.  1.
       -1    1    3    3    0  502 -0.96837669503E+03 -0.13028467235E+03 -0.45396432734E+03  0.10774094532E+04  0.50400001928E-02 0. -1.
</event>
<event>
 5   0  0.3371947E-04  0.2033800E+04  0.7818609E-02  0.8590979E-01
       -2   -1    0    0    0  501  0.00000000000E+00  0.00000000000E+00  0.71946089921E+03  0.71946089921E+03  0.25500000920E-02 0.  1.
        2   -1    0    0  501    0  0.00000000000E+00  0.00000000000E+00 -0.14373067803E+04  0.14373067803E+04  0.25500000920E-02 0. -1.
    10030    2    1    2    0    0  0.00000000000E+00  0.00000000000E+00 -0.71784588111E+03  0.21567676795E+04  0.20338004116E+04 0.  0.
        2    1    3    3  502    0  0.93568991333E+03 -0.36408764539E+03 -0.52995212737E+03  0.11353081893E+04  0.25500000920E-02 0. -1.
       -2    1    3    3    0  502 -0.93568991333E+03  0.36408764539E+03 -0.18789375374E+03  0.10214594902E+04  0.25500000920E-02 0.  1.
</event>
<event>
 5   0  0.1696052E-04  0.1977425E+04  0.7818609E-02  0.8617249E-01
        1   -1    0    0  501    0  0.00000000000E+00  0.00000000000E+00  0.12459711395E+04  0.12459711395E+04  0.50400001928E-02 0. -1.
       -1   -1    0    0    0  501  0.00000000000E+00  0.00000000000E+00 -0.78457055258E+03  0.78457055260E+03  0.50400001928E-02 0.  1.
    10030    2    1    2    0    0  0.00000000000E+00  0.00000000000E+00  0.46140058688E+03  0.20305416921E+04  0.19774248561E+04 0.  0.
        4    1    3    3  502    0  0.77001914722E+03 -0.89414327158E+02  0.86088405975E+03  0.11584676889E+04  0.12699999809E+01 0. -1.
       -4    1    3    3    0  502 -0.77001914722E+03  0.89414327158E+02 -0.39948347287E+03  0.87207400316E+03  0.12699999809E+01 0.  1.
</event>
<event>
 5   0  0.3395569E-04  0.1979015E+04  0.7818609E-02  0.8616495E-01
       -2   -1    0    0    0  501  0.00000000000E+00  0.00000000000E+00  0.93563685997E+03  0.93563685998E+03  0.25500000920E-02 0.  1.
        2   -1    0    0  501    0  0.00000000000E+00  0.00000000000E+00 -0.10464793389E+04  0.10464793389E+04  0.25500000920E-02 0. -1.
    10030    2    1    2    0    0  0.00000000000E+00  0.00000000000E+00 -0.11084247891E+03  0.19821161989E+04  0.19790145453E+04 0.  0.
        4    1    3    3  502    0 -0.70144067117E+02 -0.71505869781E+03  0.62600813792E+03  0.95295169506E+03  0.12699999809E+01 0.  1.
       -4    1    3    3    0  502  0.70144067117E+02  0.71505869781E+03 -0.73685061684E+03  0.10291645038E+04  0.12699999809E+01 0. -1.
</event>
<event>
 5   0  0.1664168E-04  0.2054383E+04  0.7818609E-02  0.8581609E-01
        1   -1    0    0  501    0  0.00000000000E+00  0.00000000000E+00  0.79352178011E+03  0.79352178013E+03  0.50400001928E-02 0.  1.
       -1   -1    0    0    0  501  0.00000000000E+00  0.00000000000E+00 -0.13296702806E+04  0.13296702806E+04  0.50400001928E-02 0. -1.
    10030    2    1    2    0    0  0.00000000000E+00  0.00000000000E+00 -0.53614850051E+03  0.21231920608E+04  0.20543829517E+04 0.  0.
        5    1    3    3  502    0 -0.67367834846E+03 -0.39723078784E+03 -0.95631084401E+03  0.12353895484E+04  0.46999998093E+01 0. -1.
       -5    1    3    3    0  502  0.67367834846E+03  0.39723078784E+03  0.42016234351E+03  0.88780251232E+03  0.46999998093E+01 0.  1.
</event>
<event>
 5   0  0.3460648E-04  0.2405875E+04  0.7818609E-02  0.8437307E-01
        2   -1    0    0  501    0  0.00000000000E+00  0.00000000000E+00  0.16772981044E+04  0.16772981044E+04  0.25500000920E-02 0. -1.
       -2   -1    0    0    0  501  0.00000000000E+00  0.00000000000E+00 -0.86273184374E+03  0.86273184374E+03  0.25500000920E-02 0.  1.
    10030    2    1    2    0    0  0.00000000000E+00  0.00000000000E+00  0.81456626067E+03  0.25400299482E+04  0.24058748813E+04 0.  0.
        5    1    3    3  502    0 -0.32661595043E+03  0.20800009128E+03 -0.79512412455E+03  0.88441307118E+03  0.46999998093E+01 0.  1.
       -5    1    3    3    0  502  0.32661595043E+03 -0.20800009128E+03  0.16096903852E+04  0.16556168770E+04  0.46999998093E+01 0. -1.
</event>
<event>
 5   0  0.3387881E-04  0.1540477E+04  0.7818609E-02  0.8857974E-01
       -2   -1    0    0    0  501  0.00000000000E+00  0.00000000000E+00  0.92250723852E+03  0.92250723853E+03  0.25500000920E-02 0.  1.
        2   -1    0    0  501    0  0.00000000000E+00  0.00000000000E+00 -0.64310310515E+03  0.64310310516E+03  0.25500000920E-02 0. -1.
    10030    2    1    2    0    0  0.00000000000E+00  0.00000000000E+00  0.27940413337E+03  0.15656103437E+04  0.15404768997E+04 0.  0.
        1    1    3    3  502    0 -0.21182800830E+02  0.34825114743E+03 -0.55818897191E+03  0.65825716945E+03  0.50400001928E-02 0. -1.
       -1    1    3    3    0  502  0.21182800830E+02 -0.34825114743E+03  0.83759310529E+03  0.90735317423E+03  0.50400001928E-02 0.  1.
</event>
<event>
 5   0  0.1708578E-04  0.2076235E+04  0.7818609E-02  0.8571785E-01
       -1   -1    0    0    0  501  0.00000000000E+00  0.00000000000E+00  0.66814837323E+03  0.66814837325E+03  0.50400001928E-02 0. -1.
        1   -1    0    0  501    0  0.00000000000E+00  0.00000000000E+00 -0.16129466375E+04  0.16129466375E+04  0.50400001928E-02 0.  1.
    10030    2    1    2    0    0  0.00000000000E+00  0.00000000000E+00 -0.94479826426E+03  0.22810950108E+04  0.20762347382E+04 0.  0.
        3    1    3    3  502    0 -0.93162497078E+03  0.10437535897E+03  0.17548618004E+02  0.93761786776E+03  0.10100000352E+00 0.  1.
       -3    1    3    3    0  502  0.93162497078E+03 -0.10437535897E+03 -0.96234688226E+03  0.13434771430E+04  0.10100000352E+00 0. -1.
</event>
<event>
 5   0  0.1696052E-04  0.1907817E+04  0.7818609E-02  0.8650975E-01
       -1   -1    0    0    0  501  0.00000000000E+00  0.00000000000E+00  0.10394779368E+04  0.10394779368E+04  0.50400001928E-02 0.  1.
        1   -1    0    0  501    0  0.00000000000E+00  0.00000000000E+00 -0.87538320800E+03  0.87538320802E+03  0.50400001928E-02 0. -1.
    10030    2    1    2    0    0  0.00000000000E+00  0.00000000000E+00  0.16409472881E+03  0.19148611448E+04  0.19078171097E+04 0.  0.
        4    1    3    3  502    0 -0.59418625272E+03  0.65976293397E+03  0.43204029657E+03  0.98742334523E+03  0.12699999809E+01 0.  1.
       -4    1    3    3    0  502  0.59418625272E+03 -0.65976293397E+03 -0.26794556776E+03  0.92743779961E+03  0.12699999809E+01 0. -1.
</event>
<event>
 5   0  0.1696052E-04  0.1973618E+04  0.7818609E-02  0.8619055E-01
        1   -1    0    0  501    0  0.00000000000E+00  0.00000000000E+00  0.10734446663E+04  0.10734446663E+04  0.50400001928E-02 0.  1.
       -1   -1    0    0    0  501  0.00000000000E+00  0.00000000000E+00 -0.90716587171E+03  0.90716587172E+03  0.50400001928E-02 0. -1.
    10030    2    1    2    0    0  0.00000000000E+00  0.00000000000E+00  0.16627879459E+03  0.19806105380E+04  0.19736183688E+04 0.  0.
        4    1    3    3  502    0 -0.30240560115E+03 -0.28598938086E+03  0.98104481812E+03  0.10656873940E+04  0.12699999809E+01 0.  1.
       -4    1    3    3    0  502  0.30240560115E+03  0.28598938086E+03 -0.81476602353E+03  0.91492314408E+03  0.12699999809E+01 0. -1.
</event>
<event>
 5   0  0.1696052E-04  0.1905146E+04  0.7818609E-02  0.8652299E-01
        1   -1    0    0  501    0  0.00000000000E+00  0.00000000000E+00  0.13366154847E+04  0.13366154847E+04  0.50400001928E-02 0.  1.
       -1   -1    0    0    0  501  0.00000000000E+00  0.00000000000E+00 -0.67887534358E+03  0.67887534360E+03  0.50400001928E-02 0. -1.
    10030    2    1    2    0    0  0.00000000000E+00  0.00000000000E+00  0.65774014110E+03  0.20154908283E+04  0.19051459749E+04 0.  0.
        4    1    3    3  502    0 -0.33606044954E+03  0.80786558643E+03 -0.69518053048E+02  0.87773447242E+03  0.12699999809E+01 0. -1.
       -4    1    3    3    0  502  0.33606044954E+03 -0.80786558643E+03  0.72725819415E+03  0.11377563559E+04  0.12699999809E+01 0.  1.
</event>
<event>
 5   0  0.1708578E-04  0.1473780E+04  0.7818609E-02  0.8902078E-01
       -1   -1    0    0    0  501  0.00000000000E+00  0.00000000000E+00  0.65783700134E+03  0.65783700135E+03  0.50400001928E-02 0. -1.
        1   -1    0    0  501    0  0.00000000000E+00  0.00000000000E+00 -0.82544338876E+03  0.82544338878E+03  0.50400001928E-02 0.  1.
    10030    2    1    2    0    0  0.00000000000E+00  0.00000000000E+00 -0.16760638743E+03  0.14832803901E+04  0.14737804499E+04 0.  0.
        3    1    3    3  502    0  0.69257300884E+03  0.17300303147E+03  0.10018595296E+03  0.72084995446E+03  0.10100000352E+00 0. -1.
       -3    1    3    3    0  502 -0.69257300884E+03 -0.17300303147E+03 -0.26779234039E+03  0.76243043567E+03  0.10100000352E+00 0.  1.
</event>
<event>
 5   0  0.3460648E-04  0.1666723E+04  0.7818609E-02  0.8780574E-01
        2   -1    0    0  501    0  0.00000000000E+00  0.00000000000E+00  0.12227696236E+04  0.12227696236E+04  0.25500000920E-02 0. -1.
       -2   -1    0    0    0  501  0.00000000000E+00  0.00000000000E+00 -0.56796571447E+03  0.56796571448E+03  0.25500000920E-02 0.  1.
    10030    2    1    2    0    0  0.00000000000E+00  0.00000000000E+00  0.65480390909E+03  0.17907353380E+04  0.16667227999E+04 0.  0.
        5    1    3    3  502    0  0.80903168184E+03  0.14131769786E+03  0.17558666675E+03  0.83985458353E+03  0.46999998093E+01 0.  1.
       -5    1    3    3    0  502 -0.80903168184E+03 -0.14131769786E+03  0.47921724234E+03  0.95088075451E+03  0.46999998093E+01 0. -1.
</event>
<event>
 5   0  0.3371947E-04  0.1769637E+04  0.7818609E-02  0.8722615E-01
       -2   -1    0    0    0  501  0.00000000000E+00  0.00000000000E+00  0.42953487586E+03  0.42953487587E+03  0.25500000920E-02 0.  1.
        2   -1    0    0  501    0  0.00000000000E+00  0.00000000000E+00 -0.18226779855E+04  0.18226779855E+04  0.25500000920E-02 0. -1.
    10030    2    1    2    0    0  0.00000000000E+00  0.00000000000E+00 -0.13931431096E+04  0.22522128614E+04  0.17696369823E+04 0.  0.
        2    1    3    3  502    0 -0.70338945456E+03  0.28398955141E+03 -0.11683440591E+03  0.76750053323E+03  0.25500000920E-02 0.  1.
       -2    1    3    3    0  502  0.70338945456E+03 -0.28398955141E+03 -0.12763087037E+04  0.14847123281E+04  0.25500000920E-02 0. -1.
</event>
<event>
 5   0  0.1643565E-04  0.2038751E+04  0.7818609E-02  0.8588715E-01
        1   -1    0    0  501    0  0.00000000000E+00  0.00000000000E+00  0.12363459935E+04  0.12363459935E+04  0.50400001928E-02 0.  1.
       -1   -1    0    0    0  501  0.00000000000E+00  0.00000000000E+00 -0.84048180760E+03  0.84048180762E+03  0.50400001928E-02 0. -1.
    10030    2    1    2    0    0  0.00000000000E+00  0.00000000000E+00  0.39586418592E+03  0.20768278012E+04  0.20387509073E+04 0.  0.
        2    1    3    3  502    0 -0.69262145864E+03  0.69890969209E+03  0.46922743659E+03  0.10901255111E+04  0.25500000920E-02 0.  1.
       -2    1    3    3    0  502  0.69262145864E+03 -0.69890969209E+03 -0.73363250671E+02  0.98670229006E+03  0.25500000920E-02 0. -1.
</event>
<event>
 5   0  0.1650221E-04  0.1935693E+04  0.7818609E-02  0.8637291E-01
        1   -1    0    0  501    0  0.00000000000E+00  0.00000000000E+00  0.33318638634E+03  0.33318638638E+03  0.50400001928E-02 0. -1.
       -1   -1    0    0    0  501  0.00000000000E+00  0.00000000000E+00 -0.28114209524E+04  0.28114209524E+04  0.50400001928E-02 0.  1.
    10030    2    1    2    0    0  0.00000000000E+00  0.00000000000E+00 -0.24782345661E+04  0.31446073388E+04  0.19356933514E+04 0.  0.
        1    1    3    3  502    0 -0.54310204408E+02 -0.44847085934E+03 -0.26296415748E+04  0.26681623868E+04  0.50400001928E-02 0.  1.
       -1    1    3    3    0  502  0.54310204408E+02  0.44847085934E+03  0.15140700878E+03  0.47644495203E+03  0.50400001928E-02 0. -1.
</event>
<event>
 5   0  0.1708578E-04  0.1959504E+04  0.7818609E-02  0.8625791E-01
        1   -1    0    0  501    0  0.00000000000E+00  0.00000000000E+00  0.20526646583E+04  0.20526646583E+04  0.50400001928E-02 0. -1.
       -1   -1    0    0    0  501  0.00000000000E+00  0.00000000000E+00 -0.46764296264E+03  0.46764296267E+03  0.50400001928E-02 0.  1.
    10030    2    1    2    0    0  0.00000000000E+00  0.00000000000E+00  0.15850216957E+04  0.25203076210E+04  0.19595042048E+04 0.  0.
        3    1    3    3  502    0  0.63450756837E+03  0.71311365782E+03  0.10765921323E+04  0.14388125566E+04  0.10100000352E+00 0.  1.
       -3    1    3    3    0  502 -0.63450756837E+03 -0.71311365782E+03  0.50842956331E+03  0.10814950644E+04  0.10100000352E+00 0. -1.
</event>
<event>
 5   0  0.1650221E-04  0.2007533E+04  0.7818609E-02  0.8603107E-01
        1   -1    0    0  501    0  0.00000000000E+00  0.00000000000E+00  0.16261850709E+04  0.16261850709E+04  0.50400001928E-02 0.  1.
       -1   -1    0    0    0  501  0.00000000000E+00  0.00000000000E+00 -0.61957744756E+03  0.61957744758E+03  0.50400001928E-02 0. -1.
    10030    2    1    2    0    0  0.00000000000E+00  0.00000000000E+00  0.10066076233E+04  0.22457625185E+04  0.20075334074E+04 0.  0.
        1    1    3    3  502    0 -0.97733657761E+03 -0.16490962101E+03  0.32584199582E+03  0.10433383801E+04  0.50400001928E-02 0. -1.
       -1    1    3    3    0  502  0.97733657761E+03  0.16490962101E+03  0.68076562748E+03  0.12024241384E+04  0.50400001928E-02 0.  1.
</event>
<event>
 5   0  0.1696052E-04  0.1991146E+04  0.7818609E-02  0.8610771E-01
        1   -1    0    0  501    0  0.00000000000E+00  0.00000000000E+00  0.16175858150E+04  0.16175858150E+04  0.50400001928E-02 0. -1.
       -1   -1    0    0    0  501  0.00000000000E+00  0.00000000000E+00 -0.61274383842E+03  0.61274383844E+03  0.50400001928E-02 0.  1.
    10030    2    1    2    0    0  0.00000000000E+00  0.00000000000E+00  0.10048419766E+04  0.22303296535E+04  0.19911461436E+04 0.  0.
        4    1    3    3  502    0  0.52435140613E+03 -0.34023675522E+03  0.13703965265E+04  0.15062183439E+04  0.12699999809E+01 0. -1.
       -4    1    3    3    0  502 -0.52435140613E+03  0.34023675522E+03 -0.36555454995E+03  0.72411130954E+03  0.12699999809E+01 0.  1.
</event>
<event>
 5   0  0.1696052E-04  0.2020471E+04  0.7818609E-02  0.8597109E-01
        1   -1    0    0  501    0  0.00000000000E+00  0.00000000000E+00  0.22984524585E+04  0.22984524585E+04  0.50400001928E-02 0. -1.
       -1   -1    0    0    0  501  0.00000000000E+00  0.00000000000E+00 -0.44402730955E+03  0.44402730958E+03  0.50400001928E-02 0.  1.
    10030    2    1    2    0    0  0.00000000000E+00  0.00000000000E+00  0.18544251489E+04  0.27424797681E+04  0.20204708969E+04 0.  0.
        4    1    3    3  502    0  0.40653956501E+03  0.14517270630E+03 -0.31253226005E+03  0.53294235996E+03  0.12699999809E+01 0.  1.
       -4    1    3    3    0  502 -0.40653956501E+03 -0.14517270630E+03  0.21669574090E+04  0.22095374081E+04  0.12699999809E+01 0. -1.
</event>
<event>
 5   0  0.1708578E-04  0.1996958E+04  0.7818609E-02  0.8608044E-01
        1   -1    0    0  501    0  0.00000000000E+00  0.00000000000E+00  0.78402679304E+03  0.78402679305E+03  0.50400001928E-02 0. -1.
       -1   -1    0    0    0  501  0.00000000000E+00  0.00000000000E+00 -0.12715900451E+04  0.12715900451E+04  0.50400001928E-02 0.  1.
    10030    2    1    2    0    0  0.00000000000E+00  0.00000000000E+00 -0.48756325203E+03  0.20556168381E+04  0.19969583522E+04 0.  0.
        3    1    3    3  502    0  0.63527241997E+03  0.68250378536E+03  0.12389106833E+03  0.94060165406E+03  0.10100000352E+00 0. -1.
       -3    1    3    3    0  502 -0.63527241997E+03 -0.68250378536E+03 -0.61145432036E+03  0.11150151841E+04  0.10100000352E+00 0.  1.
</event>
<event>
 5   0  0.3371947E-04  0.1975828E+04  0.7818609E-02  0.8618006E-01
       -2   -1    0    0    0  501  0.00000000000E+00  0.00000000000E+00  0.83424925274E+03  0.83424925274E+03  0.25500000920E-02 0. -1.
        2   -1    0    0  501    0  0.00000000000E+00  0.00000000000E+00 -0.11698826527E+04  0.11698826527E+04  0.25500000920E-02 0.  1.
    10030    2    1    2    0    0  0.00000000000E+00  0.00000000000E+00 -0.33563339998E+03  0.20041319055E+04  0.19758276532E+04 0.  0.
        2    1    3    3  502    0 -0.17714693404E+03 -0.15881673305E+03  0.80475671029E+03  0.83918838987E+03  0.25500000920E-02 0. -1.
       -2    1    3    3    0  502  0.17714693404E+03  0.15881673305E+03 -0.11403901103E+04  0.11649435156E+04  0.25500000920E-02 0.  1.
</event>
<event>
 5   0  0.1222488E-04  0.2120240E+04  0.7818609E-02  0.8552379E-01
       -3   -1    0    0    0  501  0.00000000000E+00  0.00000000000E+00  0.75549876608E+03  0.75549877283E+03  0.10100000352E+00 0. -1.
        3   -1    0    0  501    0  0.00000000000E+00  0.00000000000E+00 -0.14875664338E+04  0.14875664372E+04  0.10100000352E+00 0.  1.
    10030    2    1    2    0    0  0.00000000000E+00  0.00000000000E+00 -0.73206766773E+03  0.22430652101E+04  0.21202401908E+04 0.  0.
        2    1    3    3  502    0  0.72652981133E+03  0.31947486075E+03 -0.11095596863E+04  0.13641966320E+04  0.25500000920E-02 0.  1.
       -2    1    3    3    0  502 -0.72652981133E+03 -0.31947486075E+03  0.37749201854E+03  0.87886857805E+03  0.25500000920E-02 0. -1.
</event>
<event>
 5   0  0.3387881E-04  0.2023619E+04  0.7818609E-02  0.8595657E-01
        2   -1    0    0  501    0  0.00000000000E+00  0.00000000000E+00  0.16549924804E+04  0.16549924804E+04  0.25500000920E-02 0.  1.
       -2   -1    0    0    0  501  0.00000000000E+00  0.00000000000E+00 -0.61858778527E+03  0.61858778528E+03  0.25500000920E-02 0. -1.
    10030    2    1    2    0    0  0.00000000000E+00  0.00000000000E+00  0.10364046951E+04  0.22735802657E+04  0.20236186727E+04 0.  0.
        1    1    3    3  502    0 -0.38558334750E+03  0.90802608887E+03  0.77086304798E+03  0.12519647498E+04  0.50400001928E-02 0.  1.
       -1    1    3    3    0  502  0.38558334750E+03 -0.90802608887E+03  0.26554164715E+03  0.10216155159E+04  0.50400001928E-02 0. -1.
</event>
<event>
 5   0  0.1708578E-04  0.2022600E+04  0.7818609E-02  0.8596127E-01
        1   -1    0    0  501    0  0.00000000000E+00  0.00000000000E+00  0.14602031021E+04  0.14602031022E+04  0.50400001928E-02 0. -1.
       -1   -1    0    0    0  501  0.00000000000E+00  0.00000000000E+00 -0.70040127364E+03  0.70040127366E+03  0.50400001928E-02 0.  1.
    10030    2    1    2    0    0  0.00000000000E+00  0.00000000000E+00  0.75980182851E+03  0.21606043758E+04  0.20226004178E+04 0.  0.
        3    1    3    3  502    0  0.38031499754E+03 -0.77168091041E+03 -0.18796927236E+03  0.88060398727E+03  0.10100000352E+00 0.  1.
       -3    1    3    3    0  502 -0.38031499754E+03  0.77168091041E+03  0.94777110087E+03  0.12800003885E+04  0.10100000352E+00 0. -1.
</event>
<event>
 5   0  0.3387881E-04  0.1879614E+04  0.7818609E-02  0.8665071E-01
        2   -1    0    0  501    0  0.00000000000E+00  0.00000000000E+00  0.17487798591E+04  0.17487798591E+04  0.25500000920E-02 0.  1.
       -2   -1    0    0    0  501  0.00000000000E+00  0.00000000000E+00 -0.50505885944E+03  0.50505885944E+03  0.25500000920E-02 0. -1.
    10030    2    1    2    0    0  0.00000000000E+00  0.00000000000E+00  0.12437209996E+04  0.22538387185E+04  0.18796135359E+04 0.  0.
        1    1    3    3  502    0  0.40683131023E+03  0.83070585590E+03  0.42246101138E+03  0.10168860507E+04  0.50400001928E-02 0. -1.
       -1    1    3    3    0  502 -0.40683131023E+03 -0.83070585590E+03  0.82125998827E+03  0.12369526678E+04  0.50400001928E-02 0.  1.
</event>
<event>
 5   0  0.1650221E-04  0.2082104E+04  0.7818609E-02  0.8569168E-01
       -1   -1    0    0    0  501  0.00000000000E+00  0.00000000000E+00  0.54731478521E+03  0.54731478523E+03  0.50400001928E-02 0.  1.
        1   -1    0    0  501    0  0.00000000000E+00  0.00000000000E+00 -0.19801945996E+04  0.19801945996E+04  0.50400001928E-02 0. -1.
    10030    2    1    2    0    0  0.00000000000E+00  0.00000000000E+00 -0.14328798144E+04  0.25275093848E+04  0.20821044950E+04 0.  0.
        1    1    3    3  502    0  0.59763448229E+03 -0.42689672656E+02 -0.17499136976E+04  0.18496451907E+04  0.50400001928E-02 0. -1.
       -1    1    3    3    0  502 -0.59763448229E+03  0.42689672656E+02  0.31703388317E+03  0.67786419412E+03  0.50400001928E-02 0.  1.
</event>
<event>
 5   0  0.3460648E-04  0.1989139E+04  0.7818609E-02  0.8611715E-01
        2   -1    0    0  501    0  0.00000000000E+00  0.00000000000E+00  0.24096700478E+04  0.24096700478E+04  0.25500000920E-02 0. -1.
       -2   -1    0    0    0  501  0.00000000000E+00  0.00000000000E+00 -0.41049955340E+03  0.41049955341E+03  0.25500000920E-02 0.  1.
    10030    2    1    2    0    0  0.00000000000E+00  0.00000000000E+00  0.19991704944E+04  0.28201696013E+04  0.19891389881E+04 0.  0.
        5    1    3    3  502    0 -0.95108484599E+03  0.25664844194E+03  0.11935450615E+04  0.15475796299E+04  0.46999998093E+01 0. -1.
       -5    1    3    3    0  502  0.95108484599E+03 -0.25664844194E+03  0.80562543297E+03  0.12725899714E+04  0.46999998093E+01 0.  1.
</event>
<event>
 5   0  0.1643565E-04  0.2051757E+04  0.7818609E-02  0.8582798E-01
       -1   -1    0    0    0  501  0.00000000000E+00  0.00000000000E+00  0.16481529639E+04  0.16481529639E+04  0.50400001928E-02 0.  1.
        1   -1    0    0  501    0  0.00000000000E+00  0.00000000000E+00 -0.63854937638E+03  0.63854937640E+03  0.50400001928E-02 0. -1.
    10030    2    1    2    0    0  0.00000000000E+00  0.00000000000E+00  0.10096035875E+04  0.22867023403E+04  0.20517573417E+04 0.  0.
        2    1    3    3  502    0 -0.31916380607E+03  0.41853544386E+02 -0.58080666710E+03  0.66404340132E+03  0.25500000920E-02 0. -1.
       -2    1    3    3    0  502  0.31916380607E+03 -0.41853544386E+02  0.15904102546E+04  0.16226589390E+04  0.25500000920E-02 0.  1.
</event>
<event>
 5   0  0.3431030E-04  0.1953188E+04  0.7818609E-02  0.8628825E-01
        2   -1    0    0  501    0  0.00000000000E+00  0.00000000000E+00  0.14985621232E+04  0.14985621232E+04  0.25500000920E-02 0. -1.
       -2   -1    0    0    0  501  0.00000000000E+00  0.00000000000E+00 -0.63643420193E+03  0.63643420194E+03  0.25500000920E-02 0.  1.
    10030    2    1    2    0    0  0.00000000000E+00  0.00000000000E+00  0.86212792122E+03  0.21349963251E+04  0.19531883564E+04 0.  0.
        3    1    3    3  502    0  0.50458922285E+03  0.35895034607E+03  0.12565263357E+04  0.14008262124E+04  0.10100000352E+00 0. -1.
       -3    1    3    3    0  502 -0.50458922285E+03 -0.35895034607E+03 -0.39439841453E+03  0.73417011267E+03  0.10100000352E+00 0.  1.
</event>
<event>
 5   0  0.3371947E-04  0.1862979E+04  0.7818609E-02  0.8673507E-01
        2   -1    0    0  501    0  0.00000000000E+00  0.00000000000E+00  0.11952832946E+04  0.11952832946E+04  0.25500000920E-02 0. -1.
       -2   -1    0    0    0  501  0.00000000000E+00  0.00000000000E+00 -0.72591400084E+03  0.72591400084E+03  0.25500000920E-02 0.  1.
    10030    2    1    2    0    0  0.00000000000E+00  0.00000000000E+00  0.46936929374E+03  0.19211972954E+04  0.18629792039E+04 0.  0.
        2    1    3    3  502    0  0.53206719482E+03 -0.73579262335E+03  0.44899267343E+03  0.10129564182E+04  0.25500000920E-02 0. -1.
       -2    1    3    3    0  502 -0.53206719482E+03  0.73579262335E+03  0.20376620310E+02  0.90824087721E+03  0.25500000920E-02 0.  1.
</event>
<event>
 5   0  0.1643565E-04  0.2055573E+04  0.7818609E-02  0.8581070E-01
       -1   -1    0    0    0  501  0.00000000000E+00  0.00000000000E+00  0.61214971377E+03  0.61214971379E+03  0.50400001928E-02 0. -1.
        1   -1    0    0  501    0  0.00000000000E+00  0.00000000000E+00 -0.17256325306E+04  0.17256325306E+04  0.50400001928E-02 0.  1.
    10030    2    1    2    0    0  0.00000000000E+00  0.00000000000E+00 -0.11134828168E+04  0.23377822444E+04  0.20555733601E+04 0.  0.
        2    1    3    3  502    0 -0.50545873493E+03  0.60459609716E+03 -0.13071116943E+04  0.15262915694E+04  0.25500000920E-02 0.  1.
       -2    1    3    3    0  502  0.50545873493E+03 -0.60459609716E+03  0.19362887747E+03  0.81149067500E+03  0.25500000920E-02 0. -1.
</event>
<event>
 5   0  0.3460648E-04  0.1933658E+04  0.7818609E-02  0.8638282E-01
       -2   -1    0    0    0  501  0.00000000000E+00  0.00000000000E+00  0.59913678150E+03  0.59913678150E+03  0.25500000920E-02 0. -1.
        2   -1    0    0  501    0  0.00000000000E+00  0.00000000000E+00 -0.15601750715E+04  0.15601750715E+04  0.25500000920E-02 0.  1.
    10030    2    1    2    0    0  0.00000000000E+00  0.00000000000E+00 -0.96103829004E+03  0.21593118530E+04  0.19336579542E+04 0.  0.
        5    1    3    3  502    0 -0.19932500071E+02  0.44251618898E+03  0.47913853907E+03  0.65254403046E+03  0.46999998093E+01 0. -1.
       -5    1    3    3    0  502  0.19932500071E+02 -0.44251618898E+03 -0.14401768291E+04  0.15067678226E+04  0.46999998093E+01 0.  1.
</event>
<event>
 5   0  0.3460648E-04  0.2018786E+04  0.7818609E-02  0.8597888E-01
        2   -1    0    0  501    0  0.00000000000E+00  0.00000000000E+00  0.22256733196E+04  0.22256733196E+04  0.25500000920E-02 0.  1.
       -2   -1    0    0    0  501  0.00000000000E+00  0.00000000000E+00 -0.45778235509E+03  0.45778235510E+03  0.25500000920E-02 0. -1.
    10030    2    1    2    0    0  0.00000000000E+00  0.00000000000E+00  0.17678909645E+04  0.26834556747E+04  0.20187857478E+04 0.  0.
        5    1    3    3  502    0 -0.21265589001E+03  0.37668484550E+03 -0.32831915723E+03  0.54307417485E+03  0.46999998093E+01 0. -1.
       -5    1    3    3    0  502  0.21265589001E+03 -0.37668484550E+03  0.20962101217E+04  0.21403814998E+04  0.46999998093E+01 0.  1.
</event>
<event>
 5   0  0.3431030E-04  0.2002633E+04  0.7818609E-02  0.8605391E-01
       -2   -1    0    0    0  501  0.00000000000E+00  0.00000000000E+00  0.12047122327E+04  0.12047122328E+04  0.25500000920E-02 0. -1.
        2   -1    0    0  501    0  0.00000000000E+00  0.00000000000E+00 -0.83226048595E+03  0.83226048595E+03  0.25500000920E-02 0.  1.
    10030    2    1    2    0    0  0.00000000000E+00  0.00000000000E+00  0.37245174680E+03  0.20369727187E+04  0.20026326555E+04 0.  0.
        3    1    3    3  502    0  0.19755810207E+03 -0.79120764876E+03 -0.40476711392E+03  0.91042582008E+03  0.10100000352E+00 0.  1.
       -3    1    3    3    0  502 -0.19755810207E+03  0.79120764876E+03  0.77721886072E+03  0.11265468986E+04  0.10100000352E+00 0. -1.
</event>
<event>
 5   0  0.3387881E-04  0.2006937E+04  0.7818609E-02  0.8603384E-01
       -2   -1    0    0    0  501  0.00000000000E+00  0.00000000000E+00  0.73741646341E+03  0.73741646342E+03  0.25500000920E-02 0.  1.
        2   -1    0    0  501    0  0.00000000000E+00  0.00000000000E+00 -0.13655096249E+04  0.13655096249E+04  0.25500000920E-02 0. -1.
    10030    2    1    2    0    0  0.00000000000E+00  0.00000000000E+00 -0.62809316153E+03  0.21029260884E+04  0.20069372470E+04 0.  0.
        1    1    3    3  502    0 -0.26705862571E+03 -0.56199842051E+03 -0.11389656771E+04  0.12978464269E+04  0.50400001928E-02 0. -1.
       -1    1    3    3    0  502  0.26705862571E+03  0.56199842051E+03  0.51087251552E+03  0.80507966149E+03  0.50400001928E-02 0.  1.
</event>
<event>
 5   0  0.1664168E-04  0.2037194E+04  0.7818609E-02  0.8589426E-01
        1   -1    0    0  501    0  0.00000000000E+00  0.00000000000E+00  0.99426646660E+03  0.99426646661E+03  0.50400001928E-02 0. -1.
       -1   -1    0    0    0  501  0.00000000000E+00  0.00000000000E+00 -0.10435229494E+04  0.10435229494E+04  0.50400001928E-02 0.  1.
    10030    2    1    2    0    0  0.00000000000E+00  0.00000000000E+00 -0.49256482813E+02  0.20377894160E+04  0.20371940268E+04 0.  0.
        5    1    3    3  502    0  0.45313219899E+02 -0.11875917607E+03 -0.10355475497E+04  0.10433301718E+04  0.46999998093E+01 0.  1.
       -5    1    3    3    0  502 -0.45313219899E+02  0.11875917607E+03  0.98629106687E+03  0.99445924421E+03  0.46999998093E+01 0. -1.
</event>
<event>
 5   0  0.1650221E-04  0.2003907E+04  0.7818609E-02  0.8604796E-01
       -1   -1    0    0    0  501  0.00000000000E+00  0.00000000000E+00  0.66628092884E+03  0.66628092885E+03  0.50400001928E-02 0.  1.
        1   -1    0    0  501    0  0.00000000000E+00  0.00000000000E+00 -0.15067373789E+04  0.15067373789E+04  0.50400001928E-02 0. -1.
    10030    2    1    2    0    0  0.00000000000E+00  0.00000000000E+00 -0.84045645011E+03  0.21730183078E+04  0.20039065651E+04 0.  0.
        1    1    3    3  502    0 -0.18244815314E+02  0.69179062369E+03  0.36549014860E+03  0.78261752412E+03  0.50400001928E-02 0.  1.
       -1    1    3    3    0  502  0.18244815314E+02 -0.69179062369E+03 -0.12059465987E+04  0.13904007837E+04  0.50400001928E-02 0. -1.
</event>
<event>
 5   0  0.3371947E-04  0.2015895E+04  0.7818609E-02  0.8599225E-01
       -2   -1    0    0    0  501  0.00000000000E+00  0.00000000000E+00  0.14024484427E+04  0.14024484427E+04  0.25500000920E-02 0. -1.
        2   -1    0    0  501    0  0.00000000000E+00  0.00000000000E+00 -0.72441762267E+03  0.72441762267E+03  0.25500000920E-02 0.  1.
    10030    2    1    2    0    0  0.00000000000E+00  0.00000000000E+00  0.67803082004E+03  0.21268660654E+04  0.20158952024E+04 0.  0.
        2    1    3    3  502    0 -0.17292614955E+03 -0.67868761908E+03 -0.42575828542E+03  0.81962824201E+03  0.25500000920E-02 0.  1.
       -2    1    3    3    0  502  0.17292614955E+03  0.67868761908E+03  0.11037891055E+04  0.13072378234E+04  0.25500000920E-02 0. -1.
</event>
<event>
 5   0  0.1643565E-04  0.1041735E+04  0.7818609E-02  0.9263919E-01
       -1   -1    0    0    0  501  0.00000000000E+00  0.00000000000E+00  0.38848329558E+03  0.38848329561E+03  0.50400001928E-02 0. -1.
        1   -1    0    0  501    0  0.00000000000E+00  0.00000000000E+00 -0.69836409525E+03  0.69836409527E+03  0.50400001928E-02 0.  1.
    10030    2    1    2    0    0  0.00000000000E+00  0.00000000000E+00 -0.30988079968E+03  0.10868473909E+04  0.10417346788E+04 0.  0.
        2    1    3    3  502    0  0.33964919935E+03  0.24546180145E+03 -0.47767391331E+03  0.63544113972E+03  0.25500000920E-02 0.  1.
       -2    1    3    3    0  502 -0.33964919935E+03 -0.24546180145E+03  0.16779311363E+03  0.45140625115E+03  0.25500000920E-02 0. -1.
</event>
<event>
 5   0  0.3387881E-04  0.2009210E+04  0.7818609E-02  0.8602327E-01
        2   -1    0    0  501    0  0.00000000000E+00  0.00000000000E+00  0.18445856945E+04  0.18445856945E+04  0.25500000920E-02 0.  1.
       -2   -1    0    0    0  501  0.00000000000E+00  0.00000000000E+00 -0.54713174534E+03  0.54713174535E+03  0.25500000920E-02 0. -1.
    10030    2    1    2    0    0  0.00000000000E+00  0.00000000000E+00  0.12974539492E+04  0.23917174399E+04  0.20092101836E+04 0.  0.
        1    1    3    3  502    0  0.53859991384E+03  0.84686842519E+03  0.70136524409E+03  0.12244138199E+04  0.50400001928E-02 0. -1.
       -1    1    3    3    0  502 -0.53859991384E+03 -0.84686842519E+03  0.59608870509E+03  0.11673036199E+04  0.50400001928E-02 0.  1.
</event>
<event>
 5   0  0.3460648E-04  0.2026705E+04  0.7818609E-02  0.8594236E-01
       -2   -1    0    0    0  501  0.00000000000E+00  0.00000000000E+00  0.91289516839E+03  0.91289516839E+03  0.25500000920E-02 0. -1.
        2   -1    0    0  501    0  0.00000000000E+00  0.00000000000E+00 -0.11248639045E+04  0.11248639045E+04  0.25500000920E-02 0.  1.
    10030    2    1    2    0    0  0.00000000000E+00  0.00000000000E+00 -0.21196873607E+03  0.20377590728E+04  0.20267045404E+04 0.  0.
        5    1    3    3  502    0  0.50753782307E+03 -0.78032205128E+03 -0.50862284744E+03  0.10607621960E+04  0.46999998093E+01 0.  1.
       -5    1    3    3    0  502 -0.50753782307E+03  0.78032205128E+03  0.29665411137E+03  0.97699687683E+03  0.46999998093E+01 0. -1.
</event>
<event>
 5   0  0.1664168E-04  0.2168348E+04  0.7818609E-02  0.8531719E-01
        1   -1    0    0  501    0  0.00000000000E+00  0.00000000000E+00  0.81055194169E+03  0.81055194171E+03  0.50400001928E-02 0. -1.
       -1   -1    0    0    0  501  0.00000000000E+00  0.00000000000E+00 -0.14501643791E+04  0.14501643791E+04  0.50400001928E-02 0.  1.
    10030    2    1    2    0    0  0.00000000000E+00  0.00000000000E+00 -0.63961243736E+03  0.22607163208E+04  0.21683482684E+04 0.  0.
        5    1    3    3  502    0 -0.77221237115E+03 -0.33619726091E+03  0.39196928084E+03  0.92897930629E+03  0.46999998093E+01 0. -1.
       -5    1    3    3    0  502  0.77221237115E+03  0.33619726091E+03 -0.10315817182E+04  0.13317370145E+04  0.46999998093E+01 0.  1.
</event>
<event>
 5   0  0.1664168E-04  0.1985437E+04  0.7818609E-02  0.8613460E-01
       -1   -1    0    0    0  501  0.00000000000E+00  0.00000000000E+00  0.72635491826E+03  0.72635491828E+03  0.50400001928E-02 0.  1.
        1   -1    0    0  501    0  0.00000000000E+00  0.00000000000E+00 -0.13567614447E+04  0.13567614447E+04  0.50400001928E-02 0. -1.
    10030    2    1    2    0    0  0.00000000000E+00  0.00000000000E+00 -0.63040652642E+03  0.20831163630E+04  0.19854373304E+04 0.  0.
        5    1    3    3  502    0  0.20568193469E+03  0.74795868666E+03  0.33472456480E+03  0.84487270017E+03  0.46999998093E+01 0.  1.
       -5    1    3    3    0  502 -0.20568193469E+03 -0.74795868666E+03 -0.96513109122E+03  0.12382436628E+04  0.46999998093E+01 0. -1.
</event>
<event>
 5   0  0.3387881E-04  0.2020173E+04  0.7818609E-02  0.8597247E-01
        2   -1    0    0  501    0  0.00000000000E+00  0.00000000000E+00  0.26775267319E+04  0.26775267319E+04  0.25500000920E-02 0. -1.
       -2   -1    0    0    0  501  0.00000000000E+00  0.00000000000E+00 -0.38105118198E+03  0.38105118199E+03  0.25500000920E-02 0.  1.
    10030    2    1    2    0    0  0.00000000000E+00  0.00000000000E+00  0.22964755499E+04  0.30585779139E+04  0.20201729886E+04 0.  0.
        1    1    3    3  502    0 -0.23427622837E+03  0.21669048180E+03 -0.30272111845E+03  0.43986383309E+03  0.50400001928E-02 0.  1.
       -1    1    3    3    0  502  0.23427622837E+03 -0.21669048180E+03  0.25991966683E+04  0.26187140808E+04  0.50400001928E-02 0. -1.
</event>
<event>
 5   0  0.3395569E-04  0.1968439E+04  0.7818609E-02  0.8621520E-01
       -2   -1    0    0    0  501  0.00000000000E+00  0.00000000000E+00  0.58372766363E+03  0.58372766364E+03  0.25500000920E-02 0.  1.
        2   -1    0    0  501    0  0.00000000000E+00  0.00000000000E+00 -0.16594862583E+04  0.16594862583E+04  0.25500000920E-02 0. -1.
    10030    2    1    2    0    0  0.00000000000E+00  0.00000000000E+00 -0.10757585947E+04  0.22432139219E+04  0.19684390124E+04 0.  0.
        4    1    3    3  502    0 -0.51468197306E+03 -0.52634887988E+03 -0.12823255165E+04  0.14786145609E+04  0.12699999809E+01 0. -1.
       -4    1    3    3    0  502  0.51468197306E+03  0.52634887988E+03  0.20656692181E+03  0.76459936099E+03  0.12699999809E+01 0.  1.
</event>
<event>
 5   0  0.1643565E-04  0.2100469E+04  0.7818609E-02  0.8561037E-01
       -1   -1    0    0    0  501  0.00000000000E+00  0.00000000000E+00  0.10581013729E+04  0.10581013730E+04  0.50400001928E-02 0. -1.
        1   -1    0    0  501    0  0.00000000000E+00  0.00000000000E+00 -0.10424260574E+04  0.10424260574E+04  0.50400001928E-02 0.  1.
    10030    2    1    2    0    0  0.00000000000E+00  0.00000000000E+00  0.15675315576E+02  0.21005274303E+04  0.21004689405E+04 0.  0.
        2    1    3    3  502    0  0.88836550036E+03  0.46372439109E+03 -0.30643033225E+03  0.10479184709E+04  0.25500000920E-02 0.  1.
       -2    1    3    3    0  502 -0.88836550036E+03 -0.46372439109E+03  0.32210564783E+03  0.10526089594E+04  0.25500000920E-02 0. -1.
</event>
<event>
 5   0  0.1696052E-04  0.1689132E+04  0.7818609E-02  0.8767587E-01
       -1   -1    0    0    0  501  0.00000000000E+00  0.00000000000E+00  0.93589943897E+03  0.93589943898E+03  0.50400001928E-02 0.  1.
        1   -1    0    0  501    0  0.00000000000E+00  0.00000000000E+00 -0.76214562092E+03  0.76214562094E+03  0.50400001928E-02 0. -1.
    10030    2    1    2    0    0  0.00000000000E+00  0.00000000000E+00  0.17375381804E+03  0.16980450599E+04  0.16891319179E+04 0.  0.
        4    1    3    3  502    0 -0.29840392896E+03  0.16507984774E+03  0.86360774568E+03  0.92850213368E+03  0.12699999809E+01 0.  1.
       -4    1    3    3    0  502  0.29840392896E+03 -0.16507984774E+03 -0.68985392763E+03  0.76954292624E+03  0.12699999809E+01 0. -1.
</event>
<event>
 5   0  0.3431030E-04  0.2131423E+04  0.7818609E-02  0.8547526E-01
        2   -1    0    0  501    0  0.00000000000E+00  0.00000000000E+00  0.23840497956E+04  0.23840497956E+04  0.25500000920E-02 0. -1.
       -2   -1    0    0    0  501  0.00000000000E+00  0.00000000000E+00 -0.47639157462E+03  0.47639157462E+03  0.25500000920E-02 0.  1.
    10030    2    1    2    0    0  0.00000000000E+00  0.00000000000E+00  0.19076582209E+04  0.28604413702E+04  0.21314232204E+04 0.  0.
        3    1    3    3  502    0 -0.11496087954E+03  0.10529821535E+04  0.79643995258E+03  0.13252562121E+04  0.10100000352E+00 0. -1.
       -3    1    3    3    0  502  0.11496087954E+03 -0.10529821535E+04  0.11112182684E+04  0.15351851581E+04  0.10100000352E+00 0.  1.
</event>
<event>
 5   0  0.1650221E-04  0.2023829E+04  0.7818609E-02  0.8595560E-01
        1   -1    0    0  501    0  0.00000000000E+00  0.00000000000E+00  0.46028487690E+03  0.46028487693E+03  0.50400001928E-02 0.  1.
       -1   -1    0    0    0  501  0.00000000000E+00  0.00000000000E+00 -0.22246453726E+04  0.22246453727E+04  0.50400001928E-02 0. -1.
    10030    2    1    2    0    0  0.00000000000E+00  0.00000000000E+00 -0.17643604957E+04  0.26849302496E+04  0.20238286702E+04 0.  0.
        1    1    3    3  502    0  0.47068217047E+03  0.79787709307E+03 -0.34194973780E+03  0.98746097870E+03  0.50400001928E-02 0.  1.
       -1    1    3    3    0  502 -0.47068217047E+03 -0.79787709307E+03 -0.14224107579E+04  0.16974692709E+04  0.50400001928E-02 0. -1.
</event>
<event>
 5   0  0.3460648E-04  0.2027718E+04  0.7818609E-02  0.8593770E-01
       -2   -1    0    0    0  501  0.00000000000E+00  0.00000000000E+00  0.41670069006E+03  0.41670069007E+03  0.25500000920E-02 0.  1.
        2   -1    0    0  501    0  0.00000000000E+00  0.00000000000E+00 -0.24667826906E+04  0.24667826906E+04  0.25500000920E-02 0. -1.
    10030    2    1    2    0    0  0.00000000000E+00  0.00000000000E+00 -0.20500820005E+04  0.28834833807E+04  0.20277179778E+04 0.  0.
        5    1    3    3  502    0  0.33143670801E+03  0.37408071550E+03 -0.22794176691E+04  0.23335710131E+04  0.46999998093E+01 0. -1.
       -5    1    3    3    0  502 -0.33143670801E+03 -0.37408071550E+03  0.22933566855E+03  0.54991236756E+03  0.46999998093E+01 0.  1.
</event>
<event>
 5   0  0.1643565E-04  0.2050007E+04  0.7818609E-02  0.8583591E-01
        1   -1    0    0  501    0  0.00000000000E+00  0.00000000000E+00  0.13151929514E+04  0.13151929515E+04  0.50400001928E-02 0.  1.
       -1   -1    0    0    0  501  0.00000000000E+00  0.00000000000E+00 -0.79884223003E+03  0.79884223005E+03  0.50400001928E-02 0. -1.
    10030    2    1    2    0    0  0.00000000000E+00  0.00000000000E+00  0.51635072141E+03  0.21140351815E+04  0.20500065076E+04 0.  0.
        2    1    3    3  502    0 -0.43164473458E+03 -0.85364334142E+03  0.63792632742E+03  0.11497713383E+04  0.25500000920E-02 0.  1.
       -2    1    3    3    0  502  0.43164473458E+03  0.85364334142E+03 -0.12157560601E+03  0.96426384316E+03  0.25500000920E-02 0. -1.
</event>
<event>
 5   0  0.3387881E-04  0.1909244E+04  0.7818609E-02  0.8650269E-01
       -2   -1    0    0    0  501  0.00000000000E+00  0.00000000000E+00  0.89111925483E+03  0.89111925483E+03  0.25500000920E-02 0. -1.
        2   -1    0    0  501    0  0.00000000000E+00  0.00000000000E+00 -0.10226504730E+04  0.10226504730E+04  0.25500000920E-02 0.  1.
    10030    2    1    2    0    0  0.00000000000E+00  0.00000000000E+00 -0.13153121820E+03  0.19137697279E+04  0.19092443819E+04 0.  0.
        1    1    3    3  502    0  0.69782254190E+02 -0.54101096472E+03  0.71950756763E+03  0.90291393104E+03  0.50400001928E-02 0. -1.
       -1    1    3    3    0  502 -0.69782254190E+02  0.54101096472E+03 -0.85103878583E+03  0.10108557968E+04  0.50400001928E-02 0.  1.
</event>
<event>
 5   0  0.3371947E-04  0.1943803E+04  0.7818609E-02  0.8633355E-01
        2   -1    0    0  501    0  0.00000000000E+00  0.00000000000E+00  0.13007000534E+04  0.13007000535E+04  0.25500000920E-02 0. -1.
       -2   -1    0    0    0  501  0.00000000000E+00  0.00000000000E+00 -0.72621857106E+03  0.72621857106E+03  0.25500000920E-02 0.  1.
    10030    2    1    2    0    0  0.00000000000E+00  0.00000000000E+00  0.57448148239E+03  0.20269186245E+04  0.19438030087E+04 0.  0.
        2    1    3    3  502    0 -0.76764739329E+03 -0.15590351022E+02 -0.33411339107E+03  0.83735138238E+03  0.25500000920E-02 0.  1.
       -2    1    3    3    0  502  0.76764739329E+03  0.15590351022E+02  0.90859487347E+03  0.11895672421E+04  0.25500000920E-02 0. -1.
</event>
<event>
 5   0  0.1222488E-04  0.1262690E+04  0.7818609E-02  0.9059687E-01
       -3   -1    0    0    0  501  0.00000000000E+00  0.00000000000E+00  0.63978167315E+03  0.63978168112E+03  0.10100000352E+00 0. -1.
        3   -1    0    0  501    0  0.00000000000E+00  0.00000000000E+00 -0.62301949442E+03  0.62301950260E+03  0.10100000352E+00 0.  1.
    10030    2    1    2    0    0  0.00000000000E+00  0.00000000000E+00  0.16762178731E+02  0.12628011837E+04  0.12626899299E+04 0.  0.
        3    1    3    3  502    0 -0.11402843878E+03  0.61893397375E+03  0.58532350406E+02  0.63206629000E+03  0.10100000352E+00 0.  1.
       -3    1    3    3    0  502  0.11402843878E+03 -0.61893397375E+03 -0.41770171674E+02  0.63073489372E+03  0.10100000352E+00 0. -1.
</event>
<event>
 5   0  0.1696052E-04  0.1980251E+04  0.7818609E-02  0.8615910E-01
       -1   -1    0    0    0  501  0.00000000000E+00  0.00000000000E+00  0.50770282943E+03  0.50770282946E+03  0.50400001928E-02 0.  1.
        1   -1    0    0  501    0  0.00000000000E+00  0.00000000000E+00 -0.19309499659E+04  0.19309499659E+04  0.50400001928E-02 0. -1.
    10030    2    1    2    0    0  0.00000000000E+00  0.00000000000E+00 -0.14232471365E+04  0.24386527954E+04  0.19802512580E+04 0.  0.
        4    1    3    3  502    0  0.18516952704E+02  0.51699851026E+03 -0.17512760039E+04  0.18260886046E+04  0.12699999809E+01 0. -1.
       -4    1    3    3    0  502 -0.18516952704E+02 -0.51699851026E+03  0.32802886736E+03  0.61256419082E+03  0.12699999809E+01 0.  1.
</event>
<event>
 5   0  0.3395569E-04  0.2053436E+04  0.7818609E-02  0.8582037E-01
        2   -1    0    0  501    0  0.00000000000E+00  0.00000000000E+00  0.29316693381E+04  0.29316693381E+04  0.25500000920E-02 0.  1.
       -2   -1    0    0    0  501  0.00000000000E+00  0.00000000000E+00 -0.35957313819E+03  0.35957313820E+03  0.25500000920E-02 0. -1.
    10030    2    1    2    0    0  0.00000000000E+00  0.00000000000E+00  0.25720962000E+04  0.32912424763E+04  0.20534357005E+04 0.  0.
        4    1    3    3  502    0  0.86971553019E+03  0.54124140173E+03  0.13970998226E+04  0.17324078289E+04  0.12699999809E+01 0. -1.
       -4    1    3    3    0  502 -0.86971553019E+03 -0.54124140173E+03  0.11749963773E+04  0.15588346474E+04  0.12699999809E+01 0.  1.
</event>
<event>
 5   0  0.3460648E-04  0.1889925E+04  0.7818609E-02  0.8659888E-01
       -2   -1    0    0    0  501  0.00000000000E+00  0.00000000000E+00  0.42694250377E+03  0.42694250378E+03  0.25500000920E-02 0. -1.
        2   -1    0    0  501    0  0.00000000000E+00  0.00000000000E+00 -0.20915087323E+04  0.20915087323E+04  0.25500000920E-02 0.  1.
    10030    2    1    2    0    0  0.00000000000E+00  0.00000000000E+00 -0.16645662285E+04  0.25184512361E+04  0.18899248396E+04 0.  0.
        5    1    3    3  502    0 -0.43530628873E+03  0.88982691464E+02 -0.19436170443E+04  0.19937599628E+04  0.46999998093E+01 0.  1.
       -5    1    3    3    0  502  0.43530628873E+03 -0.88982691464E+02  0.27905081582E+03  0.52469127323E+03  0.46999998093E+01 0. -1.
</event>
<event>
 5   0  0.1650221E-04  0.2002069E+04  0.7818609E-02  0.8605654E-01
       -1   -1    0    0    0  501  0.00000000000E+00  0.00000000000E+00  0.71398993624E+03  0.71398993626E+03  0.50400001928E-02 0. -1.
        1   -1    0    0  501    0  0.00000000000E+00  0.00000000000E+00 -0.14034795913E+04  0.14034795913E+04  0.50400001928E-02 0.  1.
    10030    2    1    2    0    0  0.00000000000E+00  0.00000000000E+00 -0.68948965508E+03  0.21174695276E+04  0.20020692335E+04 0.  0.
        1    1    3    3  502    0  0.81421619012E+03  0.15228864414E+03  0.24973049773E+03  0.86516192526E+03  0.50400001928E-02 0. -1.
       -1    1    3    3    0  502 -0.81421619012E+03 -0.15228864414E+03 -0.93922015281E+03  0.12523076023E+04  0.50400001928E-02 0.  1.
</event>
<event>
 5   0  0.3395569E-04  0.1901771E+04  0.7818609E-02  0.8653975E-01
       -2   -1    0    0    0  501  0.00000000000E+00  0.00000000000E+00  0.11064783243E+04  0.11064783243E+04  0.25500000920E-02 0. -1.
        2   -1    0    0  501    0  0.00000000000E+00  0.00000000000E+00 -0.81717241014E+03  0.81717241014E+03  0.25500000920E-02 0.  1.
    10030    2    1    2    0    0  0.00000000000E+00  0.00000000000E+00  0.28930591419E+03  0.19236507345E+04  0.19017713417E+04 0.  0.
        4    1    3    3  502    0 -0.22707998094E+03 -0.61912833942E+03  0.83758666318E+03  0.10660385779E+04  0.12699999809E+01 0. -1.
       -4    1    3    3    0  502  0.22707998094E+03  0.61912833942E+03 -0.54828074899E+03  0.85761215653E+03  0.12699999809E+01 0.  1.
</event>
<event>
 5   0  0.1708578E-04  0.2014582E+04  0.7818609E-02  0.8599833E-01
       -1   -1    0    0    0  501  0.00000000000E+00  0.00000000000E+00  0.49749612995E+03  0.49749612998E+03  0.50400001928E-02 0.  1.
        1   -1    0    0  501    0  0.00000000000E+00  0.00000000000E+00 -0.20394842962E+04  0.20394842962E+04  0.50400001928E-02 0. -1.
    10030    2    1    2    0    0  0.00000000000E+00  0.00000000000E+00 -0.15419881662E+04  0.25369804262E+04  0.20145823830E+04 0.  0.
        3    1    3    3  502    0 -0.75691587994E+00  0.24767503625E+03 -0.20005408934E+04  0.20158143200E+04  0.10100000352E+00 0. -1.
       -3    1    3    3    0  502  0.75691587994E+00 -0.24767503625E+03  0.45855272711E+03  0.52116610619E+03  0.10100000352E+00 0.  1.
</event>
<event>
 5   0  0.1643565E-04  0.1947244E+04  0.7818609E-02  0.8631691E-01
        1   -1    0    0  501    0  0.00000000000E+00  0.00000000000E+00  0.14953777264E+04  0.14953777264E+04  0.50400001928E-02 0. -1.
       -1   -1    0    0    0  501  0.00000000000E+00  0.00000000000E+00 -0.63391316744E+03  0.63391316746E+03  0.50400001928E-02 0.  1.
    10030    2    1    2    0    0  0.00000000000E+00  0.00000000000E+00  0.86146455894E+03  0.21292908939E+04  0.19472438277E+04 0.  0.
        2    1    3    3  502    0 -0.87263351083E+03  0.96678708849E+02  0.89091295024E+03  0.12508244888E+04  0.25500000920E-02 0. -1.
       -2    1    3    3    0  502  0.87263351083E+03 -0.96678708849E+02 -0.29448391303E+02  0.87846640501E+03  0.25500000920E-02 0.  1.
</event>
<event>
 5   0  0.1643565E-04  0.2057585E+04  0.7818609E-02  0.8580161E-01
       -1   -1    0    0    0  501  0.00000000000E+00  0.00000000000E+00  0.86494939817E+03  0.86494939818E+03  0.50400001928E-02 0. -1.
        1   -1    0    0  501    0  0.00000000000E+00  0.00000000000E+00 -0.12236713388E+04  0.12236713388E+04  0.50400001928E-02 0.  1.
    10030    2    1    2    0    0  0.00000000000E+00  0.00000000000E+00 -0.35872194059E+03  0.20886207370E+04  0.20575847861E+04 0.  0.
        2    1    3    3  502    0 -0.71006942491E+03  0.73506671096E+03 -0.29900368793E+03  0.10648590814E+04  0.25500000920E-02 0. -1.
       -2    1    3    3    0  502  0.71006942491E+03 -0.73506671096E+03 -0.59718252665E+02  0.10237616556E+04  0.25500000920E-02 0.  1.
</event>
<event>
 5   0  0.1650221E-04  0.1993196E+04  0.7818609E-02  0.8609808E-01
       -1   -1    0    0    0  501  0.00000000000E+00  0.00000000000E+00  0.71695638997E+03  0.71695638998E+03  0.50400001928E-02 0. -1.
        1   -1    0    0  501    0  0.00000000000E+00  0.00000000000E+00 -0.13853107294E+04  0.13853107294E+04  0.50400001928E-02 0.  1.
    10030    2    1    2    0    0  0.00000000000E+00  0.00000000000E+00 -0.66835433944E+03  0.21022671194E+04  0.19931958053E+04 0.  0.
        1    1    3    3  502    0  0.34569804366E+03  0.18007655664E+03  0.63322336917E+03  0.74357685476E+03  0.50400001928E-02 0. -1.
       -1    1    3    3    0  502 -0.34569804366E+03 -0.18007655664E+03 -0.13015777086E+04  0.13586902646E+04  0.50400001928E-02 0.  1.
</event>
<event>
 5   0  0.1664168E-04  0.1967891E+04  0.7818609E-02  0.8621782E-01
        1   -1    0    0  501    0  0.00000000000E+00  0.00000000000E+00  0.15386788548E+04  0.15386788549E+04  0.50400001928E-02 0. -1.
       -1   -1    0    0    0  501  0.00000000000E+00  0.00000000000E+00 -0.62920756192E+03  0.62920756194E+03  0.50400001928E-02 0.  1.
    10030    2    1    2    0    0  0.00000000000E+00  0.00000000000E+00  0.90947129292E+03  0.21678864168E+04  0.19678906178E+04 0.  0.
        5    1    3    3  502    0 -0.62781610048E+03 -0.51801603055E+03 -0.15428977236E+03  0.82844498174E+03  0.46999998093E+01 0.  1.
       -5    1    3    3    0  502  0.62781610048E+03  0.51801603055E+03  0.10637610653E+04  0.13394414351E+04  0.46999998093E+01 0. -1.
</event>
<event>
 5   0  0.1643565E-04  0.2021392E+04  0.7818609E-02  0.8596684E-01
        1   -1    0    0  501    0  0.00000000000E+00  0.00000000000E+00  0.12165216528E+04  0.12165216528E+04  0.50400001928E-02 0.  1.
       -1   -1    0    0    0  501  0.00000000000E+00  0.00000000000E+00 -0.83969468986E+03  0.83969468987E+03  0.50400001928E-02 0. -1.
    10030    2    1    2    0    0  0.00000000000E+00  0.00000000000E+00  0.37682696295E+03  0.20562163427E+04  0.20213923637E+04 0.  0.
        2    1    3    3  502    0 -0.75531201064E+03  0.61192470759E+03 -0.93045709456E+02  0.97652730900E+03  0.25500000920E-02 0.  1.
       -2    1    3    3    0  502  0.75531201064E+03 -0.61192470759E+03  0.46987267240E+03  0.10796890337E+04  0.25500000920E-02 0. -1.
</event>
<event>
 5   0  0.3395569E-04  0.2017801E+04  0.7818609E-02  0.8598343E-01
       -2   -1    0    0    0  501  0.00000000000E+00  0.00000000000E+00  0.51633541883E+03  0.51633541883E+03  0.25500000920E-02 0.  1.
        2   -1    0    0  501    0  0.00000000000E+00  0.00000000000E+00 -0.19713546242E+04  0.19713546242E+04  0.25500000920E-02 0. -1.
    10030    2    1    2    0    0  0.00000000000E+00  0.00000000000E+00 -0.14550192054E+04  0.24876900430E+04  0.20178009967E+04 0.  0.
        4    1    3    3  502    0 -0.35492406476E+03  0.90973797589E+03 -0.41492291138E+03  0.10610169234E+04  0.12699999809E+01 0.  1.
       -4    1    3    3    0  502  0.35492406476E+03 -0.90973797589E+03 -0.10400962940E+04  0.14266731196E+04  0.12699999809E+01 0. -1.
</event>
<event>
 5   0  0.3395569E-04  0.1267190E+04  0.7818609E-02  0.9055996E-01
        2   -1    0    0  501    0  0.00000000000E+00  0.00000000000E+00  0.33646302300E+03  0.33646302301E+03  0.25500000920E-02 0. -1.
       -2   -1    0    0    0  501  0.00000000000E+00  0.00000000000E+00 -0.11931263178E+04  0.11931263178E+04  0.25500000920E-02 0.  1.
    10030    2    1    2    0    0  0.00000000000E+00  0.00000000000E+00 -0.85666329480E+03  0.15295893408E+04  0.12671904162E+04 0.  0.
        4    1    3    3  502    0  0.32434982375E+03  0.52688017588E+03 -0.59311235777E+03  0.85708191542E+03  0.12699999809E+01 0. -1.
       -4    1    3    3    0  502 -0.32434982375E+03 -0.52688017588E+03 -0.26355093702E+03  0.67250742539E+03  0.12699999809E+01 0.  1.
</event>
<event>
 5   0  0.3387881E-04  0.2004972E+04  0.7818609E-02  0.8604299E-01
        2   -1    0    0  501    0  0.00000000000E+00  0.00000000000E+00  0.10589417987E+04  0.10589417988E+04  0.25500000920E-02 0. -1.
       -2   -1    0    0    0  501  0.00000000000E+00  0.00000000000E+00 -0.94904045593E+03  0.94904045593E+03  0.25500000920E-02 0.  1.
    10030    2    1    2    0    0  0.00000000000E+00  0.00000000000E+00  0.10990134282E+03  0.20079822547E+04  0.20049724262E+04 0.  0.
        1    1    3    3  502    0  0.59427798936E+03  0.13739683217E+03  0.85171670674E+03  0.10475999077E+04  0.50400001928E-02 0. -1.
       -1    1    3    3    0  502 -0.59427798936E+03 -0.13739683217E+03 -0.74181536393E+03  0.96038234694E+03  0.50400001928E-02 0.  1.
</event>
<event>
 5   0  0.1696052E-04  0.2011885E+04  0.7818609E-02  0.8601084E-01
       -1   -1    0    0    0  501  0.00000000000E+00  0.00000000000E+00  0.57161913634E+03  0.57161913636E+03  0.50400001928E-02 0.  1.
        1   -1    0    0  501    0  0.00000000000E+00  0.00000000000E+00 -0.17702705831E+04  0.17702705832E+04  0.50400001928E-02 0. -1.
    10030    2    1    2    0    0  0.00000000000E+00  0.00000000000E+00 -0.11986514468E+04  0.23418897195E+04  0.20118852272E+04 0.  0.
        4    1    3    3  502    0 -0.38320515082E+03  0.31383573631E+03 -0.16184847241E+04  0.16925818953E+04  0.12699999809E+01 0. -1.
       -4    1    3    3    0  502  0.38320515082E+03 -0.31383573631E+03  0.41983327732E+03  0.64930782426E+03  0.12699999809E+01 0.  1.
</event>
<event>
 5   0  0.1696052E-04  0.1991755E+04  0.7818609E-02  0.8610485E-01
        1   -1    0    0  501    0  0.00000000000E+00  0.00000000000E+00  0.16479896778E+04  0.16479896779E+04  0.50400001928E-02 0.  1.
       -1   -1    0    0    0  501  0.00000000000E+00  0.00000000000E+00 -0.60180688463E+03  0.60180688465E+03  0.50400001928E-02 0. -1.
    10030    2    1    2    0    0  0.00000000000E+00  0.00000000000E+00  0.10461827932E+04  0.22497965625E+04  0.19917545370E+04 0.  0.
        4    1    3    3  502    0  0.25092123343E+02 -0.74110660765E+03  0.12739705973E+04  0.14740662517E+04  0.12699999809E+01 0.  1.
       -4    1    3    3    0  502 -0.25092123343E+02  0.74110660765E+03 -0.22778780410E+03  0.77573031084E+03  0.12699999809E+01 0. -1.
</event>
<event>
 5   0  0.3460648E-04  0.1946991E+04  0.7818609E-02  0.8631813E-01
        2   -1    0    0  501    0  0.00000000000E+00  0.00000000000E+00  0.97792446558E+03  0.97792446559E+03  0.25500000920E-02 0. -1.
       -2   -1    0    0    0  501  0.00000000000E+00  0.00000000000E+00 -0.96908661021E+03  0.96908661021E+03  0.25500000920E-02 0.  1.
    10030    2    1    2    0    0  0.00000000000E+00  0.00000000000E+00  0.88378553790E+01  0.19470110758E+04  0.19469910173E+04 0.  0.
        5    1    3    3  502    0 -0.54401594608E+03  0.42539546636E+03 -0.68170530509E+03  0.97039108888E+03  0.46999998093E+01 0.  1.
       -5    1    3    3    0  502  0.54401594608E+03 -0.42539546636E+03  0.69054316047E+03  0.97661998692E+03  0.46999998093E+01 0. -1.
</event>
<event>
 5   0  0.1664168E-04  0.1996048E+04  0.7818609E-02  0.8608471E-01
       -1   -1    0    0    0  501  0.00000000000E+00  0.00000000000E+00  0.91695775309E+03  0.91695775311E+03  0.50400001928E-02 0.  1.
        1   -1    0    0  501    0  0.00000000000E+00  0.00000000000E+00 -0.10862572978E+04  0.10862572978E+04  0.50400001928E-02 0. -1.
    10030    2    1    2    0    0  0.00000000000E+00  0.00000000000E+00 -0.16929954474E+03  0.20032150509E+04  0.19960481468E+04 0.  0.
        5    1    3    3  502    0  0.16038258561E+03  0.48824697765E+02 -0.10720133144E+04  0.10850534830E+04  0.46999998093E+01 0. -1.
       -5    1    3    3    0  502 -0.16038258561E+03 -0.48824697765E+02  0.90271376964E+03  0.91816156790E+03  0.46999998093E+01 0.  1.
</event>
<event>
 5   0  0.1222488E-04  0.2088536E+04  0.7818609E-02  0.8566310E-01
        3   -1    0    0  501    0  0.00000000000E+00  0.00000000000E+00  0.10812945175E+04  0.10812945222E+04  0.10100000352E+00 0.  1.
       -3   -1    0    0    0  501  0.00000000000E+00  0.00000000000E+00 -0.10085097836E+04  0.10085097886E+04  0.10100000352E+00 0. -1.
    10030    2    1    2    0    0  0.00000000000E+00  0.00000000000E+00  0.72784733882E+02  0.20898043108E+04  0.20885364349E+04 0.  0.
        2    1    3    3  502    0 -0.29625221556E+03 -0.97800158965E+03  0.25156622265E+03  0.10523963364E+04  0.25500000920E-02 0.  1.
       -2    1    3    3    0  502  0.29625221556E+03  0.97800158965E+03 -0.17878148876E+03  0.10374079744E+04  0.25500000920E-02 0. -1.
</event>
<event>
 5   0  0.3371947E-04  0.2029704E+04  0.7818609E-02  0.8592858E-01
       -2   -1    0    0    0  501  0.00000000000E+00  0.00000000000E+00  0.10911421453E+04  0.10911421453E+04  0.25500000920E-02 0. -1.
        2   -1    0    0  501    0  0.00000000000E+00  0.00000000000E+00 -0.94389544715E+03  0.94389544715E+03  0.25500000920E-02 0.  1.
    10030    2    1    2    0    0  0.00000000000E+00  0.00000000000E+00  0.14724669814E+03  0.20350375924E+04  0.20297035282E+04 0.  0.
        2    1    3    3  502    0 -0.40914928741E+03 -0.15730371151E+03  0.99133008228E+03  0.10839201673E+04  0.25500000920E-02 0. -1.
       -2    1    3    3    0  502  0.40914928741E+03  0.15730371151E+03 -0.84408338414E+03  0.95111742515E+03  0.25500000920E-02 0.  1.
</event>
<event>
 5   0  0.1708578E-04  0.2018600E+04  0.7818609E-02  0.8597973E-01
        1   -1    0    0  501    0  0.00000000000E+00  0.00000000000E+00  0.19860455612E+04  0.19860455612E+04  0.50400001928E-02 0. -1.
       -1   -1    0    0    0  501  0.00000000000E+00  0.00000000000E+00 -0.51292221495E+03  0.51292221497E+03  0.50400001928E-02 0.  1.
    10030    2    1    2    0    0  0.00000000000E+00  0.00000000000E+00  0.14731233462E+04  0.24989677762E+04  0.20186003946E+04 0.  0.
        3    1    3    3  502    0 -0.52874523988E+01  0.84790622514E+03  0.58820634325E+02  0.84996047026E+03  0.10100000352E+00 0.  1.
       -3    1    3    3    0  502  0.52874523988E+01 -0.84790622514E+03  0.14143027119E+04  0.16490073059E+04  0.10100000352E+00 0. -1.
</event>
<event>
 5   0  0.3431030E-04  0.2009982E+04  0.7818609E-02  0.8601968E-01
       -2   -1    0    0    0  501  0.00000000000E+00  0.00000000000E+00  0.58768181877E+03  0.58768181877E+03  0.25500000920E-02 0.  1.
        2   -1    0    0  501    0  0.00000000000E+00  0.00000000000E+00 -0.17186284926E+04  0.17186284926E+04  0.25500000920E-02 0. -1.
    10030    2    1    2    0    0  0.00000000000E+00  0.00000000000E+00 -0.11309466738E+04  0.23063103114E+04  0.20099818092E+04 0.  0.
        3    1    3    3  502    0  0.41868628191E+03  0.45892724570E+03  0.34099099066E+03  0.70865173775E+03  0.10100000352E+00 0.  1.
       -3    1    3    3    0  502 -0.41868628191E+03 -0.45892724570E+03 -0.14719376645E+04  0.15976585736E+04  0.10100000352E+00 0. -1.
</event>
<event>
 5   0  0.3395569E-04  0.1139694E+04  0.7818609E-02  0.9167344E-01
        2   -1    0    0  501    0  0.00000000000E+00  0.00000000000E+00  0.19717654196E+04  0.19717654196E+04  0.25500000920E-02 0.  1.
       -2   -1    0    0    0  501  0.00000000000E+00  0.00000000000E+00 -0.16468782130E+03  0.16468782132E+03  0.25500000920E-02 0. -1.
    10030    2    1    2    0    0  0.00000000000E+00  0.00000000000E+00  0.18070775983E+04  0.21364532409E+04  0.11396942592E+04 0.  0.
        4    1    3    3  502    0  0.10646326869E+03  0.27269843987E+02  0.19517082932E+04  0.19548004876E+04  0.12699999809E+01 0.  1.
       -4    1    3    3    0  502 -0.10646326869E+03 -0.27269843987E+02 -0.14463069488E+03  0.18165275328E+03  0.12699999809E+01 0. -1.
</event>
<event>
 5   0  0.3395569E-04  0.2010770E+04  0.7818609E-02  0.8601602E-01
       -2   -1    0    0    0  501  0.00000000000E+00  0.00000000000E+00  0.56648963822E+03  0.56648963823E+03  0.25500000920E-02 0. -1.
        2   -1    0    0  501    0  0.00000000000E+00  0.00000000000E+00 -0.17843196664E+04  0.17843196664E+04  0.25500000920E-02 0.  1.
    10030    2    1    2    0    0  0.00000000000E+00  0.00000000000E+00 -0.12178300281E+04  0.23508093046E+04  0.20107696062E+04 0.  0.
        4    1    3    3  502    0 -0.63492447751E+03  0.16357203277E+03 -0.14999818814E+04  0.16370192912E+04  0.12699999809E+01 0.  1.
       -4    1    3    3    0  502  0.63492447751E+03 -0.16357203277E+03  0.28215185331E+03  0.71379001343E+03  0.12699999809E+01 0. -1.
</event>
<event>
 5   0  0.1643565E-04  0.2002428E+04  0.7818609E-02  0.8605486E-01
        1   -1    0    0  501    0  0.00000000000E+00  0.00000000000E+00  0.12682786680E+04  0.12682786680E+04  0.50400001928E-02 0.  1.
       -1   -1    0    0    0  501  0.00000000000E+00  0.00000000000E+00 -0.79038586322E+03  0.79038586324E+03  0.50400001928E-02 0. -1.
    10030    2    1    2    0    0  0.00000000000E+00  0.00000000000E+00  0.47789280475E+03  0.20586645312E+04  0.20024280560E+04 0.  0.
        2    1    3    3  502    0  0.25763724984E+03 -0.42938246930E+03 -0.65239915344E+03  0.82241772407E+03  0.25500000920E-02 0. -1.
       -2    1    3    3    0  502 -0.25763724984E+03  0.42938246930E+03  0.11302919582E+04  0.12362468072E+04  0.25500000920E-02 0.  1.
</event>
<event>
 5   0  0.3387881E-04  0.1267650E+04  0.7818609E-02  0.9055620E-01
        2   -1    0    0  501    0  0.00000000000E+00  0.00000000000E+00  0.52486442671E+03  0.52486442672E+03  0.25500000920E-02 0. -1.
       -2   -1    0    0    0  501  0.00000000000E+00  0.00000000000E+00 -0.76540574944E+03  0.76540574944E+03  0.25500000920E-02 0.  1.
    10030    2    1    2    0    0  0.00000000000E+00  0.00000000000E+00 -0.24054132272E+03  0.12902701762E+04  0.12676501882E+04 0.  0.
        1    1    3    3  502    0  0.13155271381E+03  0.76734073653E+02 -0.74650536559E+03  0.76188220576E+03  0.50400001928E-02 0.  1.
       -1    1    3    3    0  502 -0.13155271381E+03 -0.76734073653E+02  0.50596404287E+03  0.52838797040E+03  0.50400001928E-02 0. -1.
</event>
<event>
 5   0  0.1650221E-04  0.1982049E+04  0.7818609E-02  0.8615060E-01
       -1   -1    0    0    0  501  0.00000000000E+00  0.00000000000E+00  0.84403674963E+03  0.84403674964E+03  0.50400001928E-02 0.  1.
        1   -1    0    0  501    0  0.00000000000E+00  0.00000000000E+00 -0.11636094140E+04  0.11636094140E+04  0.50400001928E-02 0. -1.
    10030    2    1    2    0    0  0.00000000000E+00  0.00000000000E+00 -0.31957266437E+03  0.20076461637E+04  0.19820485440E+04 0.  0.
        1    1    3    3  502    0  0.51618608738E+02 -0.13695756568E+03 -0.11526015396E+04  0.11618572050E+04  0.50400001928E-02 0. -1.
       -1    1    3    3    0  502 -0.51618608738E+02  0.13695756568E+03  0.83302887527E+03  0.84578895867E+03  0.50400001928E-02 0.  1.
</event>
<event>
 5   0  0.1664168E-04  0.2002961E+04  0.7818609E-02  0.8605238E-01
        1   -1    0    0  501    0  0.00000000000E+00  0.00000000000E+00  0.82449807198E+03  0.82449807200E+03  0.50400001928E-02 0. -1.
       -1   -1    0    0    0  501  0.00000000000E+00  0.00000000000E+00 -0.12164525662E+04  0.12164525662E+04  0.50400001928E-02 0.  1.
    10030    2    1    2    0    0  0.00000000000E+00  0.00000000000E+00 -0.39195449419E+03  0.20409506382E+04  0.20029606042E+04 0.  0.
        5    1    3    3  502    0 -0.87581265938E+03  0.32086371108E+03 -0.56750127121E+03  0.10918246738E+04  0.46999998093E+01 0.  1.
       -5    1    3    3    0  502  0.87581265938E+03 -0.32086371108E+03  0.17554677702E+03  0.94912596442E+03  0.46999998093E+01 0. -1.
</event>
<event>
 5   0  0.3387881E-04  0.2093709E+04  0.7818609E-02  0.8564020E-01
       -2   -1    0    0    0  501  0.00000000000E+00  0.00000000000E+00  0.72744106225E+03  0.72744106226E+03  0.25500000920E-02 0. -1.
        2   -1    0    0  501    0  0.00000000000E+00  0.00000000000E+00 -0.15065198051E+04  0.15065198051E+04  0.25500000920E-02 0.  1.
    10030    2    1    2    0    0  0.00000000000E+00  0.00000000000E+00 -0.77907874281E+03  0.22339608673E+04  0.20937090221E+04 0.  0.
        1    1    3    3  502    0 -0.86957100617E+03  0.21418047882E+03  0.18887929249E+03  0.91526083683E+03  0.50400001928E-02 0. -1.
       -1    1    3    3    0  502  0.86957100617E+03 -0.21418047882E+03 -0.96795803530E+03  0.13187000305E+04  0.50400001928E-02 0.  1.
</event>
<event>
 5   0  0.1664168E-04  0.2073298E+04  0.7818609E-02  0.8573098E-01
        1   -1    0    0  501    0  0.00000000000E+00  0.00000000000E+00  0.39633339673E+03  0.39633339676E+03  0.50400001928E-02 0. -1.
       -1   -1    0    0    0  501  0.00000000000E+00  0.00000000000E+00 -0.27114579799E+04  0.27114579799E+04  0.50400001928E-02 0.  1.
    10030    2    1    2    0    0  0.00000000000E+00  0.00000000000E+00 -0.23151245832E+04  0.31077913767E+04  0.20732981950E+04 0.  0.
        5    1    3    3  502    0  0.69124681365E+03 -0.22652751936E+03 -0.22646459847E+04  0.23786089212E+04  0.46999998093E+01 0. -1.
       -5    1    3    3    0  502 -0.69124681365E+03  0.22652751936E+03 -0.50478598533E+02  0.72918245544E+03  0.46999998093E+01 0.  1.
</event>
<event>
 5   0  0.1708578E-04  0.2048699E+04  0.7818609E-02  0.8584185E-01
        1   -1    0    0  501    0  0.00000000000E+00  0.00000000000E+00  0.11640882899E+04  0.11640882900E+04  0.50400001928E-02 0.  1.
       -1   -1    0    0    0  501  0.00000000000E+00  0.00000000000E+00 -0.90138505333E+03  0.90138505334E+03  0.50400001928E-02 0. -1.
    10030    2    1    2    0    0  0.00000000000E+00  0.00000000000E+00  0.26270323661E+03  0.20654733433E+04  0.20486988899E+04 0.  0.
        3    1    3    3  502    0 -0.81320813446E+03 -0.57953891337E+03  0.36151662923E+03  0.10620108782E+04  0.10100000352E+00 0.  1.
       -3    1    3    3    0  502  0.81320813446E+03  0.57953891337E+03 -0.98813392616E+02  0.10034624651E+04  0.10100000352E+00 0. -1.
</event>
<event>
 5   0  0.1696052E-04  0.2083139E+04  0.7818609E-02  0.8568707E-01
        1   -1    0    0  501    0  0.00000000000E+00  0.00000000000E+00  0.88894474181E+03  0.88894474183E+03  0.50400001928E-02 0.  1.
       -1   -1    0    0    0  501  0.00000000000E+00  0.00000000000E+00 -0.12203989392E+04  0.12203989392E+04  0.50400001928E-02 0. -1.
    10030    2    1    2    0    0  0.00000000000E+00  0.00000000000E+00 -0.33145419736E+03  0.21093436810E+04  0.20831391887E+04 0.  0.
        4    1    3    3  502    0  0.77052994260E+03  0.22257029851E+03 -0.83862524398E+03  0.11604084811E+04  0.12699999809E+01 0. -1.
       -4    1    3    3    0  502 -0.77052994260E+03 -0.22257029851E+03  0.50717104662E+03  0.94893519993E+03  0.12699999809E+01 0.  1.
</event>
<event>
 5   0  0.3460648E-04  0.1991521E+04  0.7818609E-02  0.8610595E-01
        2   -1    0    0  501    0  0.00000000000E+00  0.00000000000E+00  0.20716632035E+04  0.20716632036E+04  0.25500000920E-02 0.  1.
       -2   -1    0    0    0  501  0.00000000000E+00  0.00000000000E+00 -0.47861973772E+03  0.47861973773E+03  0.25500000920E-02 0. -1.
    10030    2    1    2    0    0  0.00000000000E+00  0.00000000000E+00  0.15930434658E+04  0.25502829413E+04  0.19915209255E+04 0.  0.
        5    1    3    3  502    0 -0.27264400042E+03  0.54161170403E+03  0.18079607204E+04  0.19069404934E+04  0.46999998093E+01 0. -1.
       -5    1    3    3    0  502  0.27264400042E+03 -0.54161170403E+03 -0.21491725458E+03  0.64334244786E+03  0.46999998093E+01 0.  1.
</event>
<event>
 5   0  0.3387881E-04  0.1959706E+04  0.7818609E-02  0.8625695E-01
        2   -1    0    0  501    0  0.00000000000E+00  0.00000000000E+00  0.11267005795E+04  0.11267005795E+04  0.25500000920E-02 0.  1.
       -2   -1    0    0    0  501  0.00000000000E+00  0.00000000000E+00 -0.85214432576E+03  0.85214432577E+03  0.25500000920E-02 0. -1.
    10030    2    1    2    0    0  0.00000000000E+00  0.00000000000E+00  0.27455625372E+03  0.19788449053E+04  0.19597055959E+04 0.  0.
        1    1    3    3  502    0  0.93479477127E+03 -0.23235131162E+03 -0.44151664858E+02  0.96424984623E+03  0.50400001928E-02 0.  1.
       -1    1    3    3    0  502 -0.93479477127E+03  0.23235131162E+03  0.31870791857E+03  0.10145950590E+04  0.50400001928E-02 0. -1.
</event>
<event>
 5   0  0.1643565E-04  0.1972076E+04  0.7818609E-02  0.8619788E-01
       -1   -1    0    0    0  501  0.00000000000E+00  0.00000000000E+00  0.63728555051E+03  0.63728555053E+03  0.50400001928E-02 0.  1.
        1   -1    0    0  501    0  0.00000000000E+00  0.00000000000E+00 -0.15256443436E+04  0.15256443437E+04  0.50400001928E-02 0. -1.
    10030    2    1    2    0    0  0.00000000000E+00  0.00000000000E+00 -0.88835879313E+03  0.21629298942E+04  0.19720761603E+04 0.  0.
        2    1    3    3  502    0 -0.58517929337E+03 -0.78466361161E+03 -0.31376281357E+03  0.10279002344E+04  0.25500000920E-02 0.  1.
       -2    1    3    3    0  502  0.58517929337E+03  0.78466361161E+03 -0.57459597956E+03  0.11350296597E+04  0.25500000920E-02 0. -1.
</event>
<event>
 5   0  0.1664168E-04  0.1101095E+04  0.7818609E-02  0.9204125E-01
        1   -1    0    0  501    0  0.00000000000E+00  0.00000000000E+00  0.64745830387E+03  0.64745830389E+03  0.50400001928E-02 0.  1.
       -1   -1    0    0    0  501  0.00000000000E+00  0.00000000000E+00 -0.46814245588E+03  0.46814245590E+03  0.50400001928E-02 0. -1.
    10030    2    1    2    0    0  0.00000000000E+00  0.00000000000E+00  0.17931584799E+03  0.11156007598E+04  0.11010953101E+04 0.  0.
        5    1    3    3  502    0 -0.19466629861E+03 -0.39109810031E+03  0.42907554212E+03  0.61235659768E+03  0.46999998093E+01 0.  1.
       -5    1    3    3    0  502  0.19466629861E+03  0.39109810031E+03 -0.24975969413E+03  0.50324416211E+03  0.46999998093E+01 0. -1.
</event>
<event>
 5   0  0.3431030E-04  0.1991043E+04  0.7818609E-02  0.8610820E-01
       -2   -1    0    0    0  501  0.00000000000E+00  0.00000000000E+00  0.13129358124E+04  0.13129358124E+04  0.25500000920E-02 0.  1.
        2   -1    0    0  501    0  0.00000000000E+00  0.00000000000E+00 -0.75484527768E+03  0.75484527768E+03  0.25500000920E-02 0. -1.
    10030    2    1    2    0    0  0.00000000000E+00  0.00000000000E+00  0.55809053476E+03  0.20677810901E+04  0.19910433425E+04 0.  0.
        3    1    3    3  502    0 -0.58918510688E+03 -0.28113154399E+03 -0.50151338046E+03  0.82321911796E+03  0.10100000352E+00 0. -1.
       -3    1    3    3    0  502  0.58918510688E+03  0.28113154399E+03  0.10596039152E+04  0.12445619722E+04  0.10100000352E+00 0.  1.
</event>
<event>
 5   0  0.3387881E-04  0.2008462E+04  0.7818609E-02  0.8602675E-01
       -2   -1    0    0    0  501  0.00000000000E+00  0.00000000000E+00  0.44370787729E+03  0.44370787729E+03  0.25500000920E-02 0.  1.
        2   -1    0    0  501    0  0.00000000000E+00  0.00000000000E+00 -0.22728468840E+04  0.22728468840E+04  0.25500000920E-02 0. -1.
    10030    2    1    2    0    0  0.00000000000E+00  0.00000000000E+00 -0.18291390068E+04  0.27165547613E+04  0.20084621643E+04 0.  0.
        1    1    3    3  502    0  0.85187200284E+03 -0.48105801022E+03 -0.60799174083E+03  0.11518492416E+04  0.50400001928E-02 0.  1.
       -1    1    3    3    0  502 -0.85187200284E+03  0.48105801022E+03 -0.12211472659E+04  0.15647055197E+04  0.50400001928E-02 0. -1.
</event>
<event>
 5   0  0.1222488E-04  0.2008592E+04  0.7818609E-02  0.8602614E-01
       -3   -1    0    0    0  501  0.00000000000E+00  0.00000000000E+00  0.74410733338E+03  0.74410734023E+03  0.10100000352E+00 0.  1.
        3   -1    0    0  501    0  0.00000000000E+00  0.00000000000E+00 -0.13554632413E+04  0.13554632450E+04  0.10100000352E+00 0. -1.
    10030    2    1    2    0    0  0.00000000000E+00  0.00000000000E+00 -0.61135590791E+03  0.20995705853E+04  0.20085916948E+04 0.  0.
        4    1    3    3  502    0 -0.90497813668E+03 -0.38719540624E+03 -0.51395889241E+03  0.11104328284E+04  0.12699999809E+01 0. -1.
       -4    1    3    3    0  502  0.90497813668E+03  0.38719540624E+03 -0.97397015498E+02  0.98913775684E+03  0.12699999809E+01 0.  1.
</event>
<event>
 5   0  0.1643565E-04  0.1881736E+04  0.7818609E-02  0.8664001E-01
        1   -1    0    0  501    0  0.00000000000E+00  0.00000000000E+00  0.17176389374E+04  0.17176389374E+04  0.50400001928E-02 0.  1.
       -1   -1    0    0    0  501  0.00000000000E+00  0.00000000000E+00 -0.51537759754E+03  0.51537759756E+03  0.50400001928E-02 0. -1.
    10030    2    1    2    0    0  0.00000000000E+00  0.00000000000E+00  0.12022613399E+04  0.22330165350E+04  0.18817360378E+04 0.  0.
        2    1    3    3  502    0 -0.47459640235E+03  0.74005406594E+03  0.99882016527E+03  0.13306252245E+04  0.25500000920E-02 0.  1.
       -2    1    3    3    0  502  0.47459640235E+03 -0.74005406594E+03  0.20344117461E+03  0.90239131044E+03  0.25500000920E-02 0. -1.
</event>
<event>
 5   0  0.1664168E-04  0.2010131E+04  0.7818609E-02  0.8601898E-01
       -1   -1    0    0    0  501  0.00000000000E+00  0.00000000000E+00  0.98582031994E+03  0.98582031995E+03  0.50400001928E-02 0. -1.
        1   -1    0    0  501    0  0.00000000000E+00  0.00000000000E+00 -0.10246868465E+04  0.10246868465E+04  0.50400001928E-02 0.  1.
    10030    2    1    2    0    0  0.00000000000E+00  0.00000000000E+00 -0.38866526534E+02  0.20105071664E+04  0.20101314533E+04 0.  0.
        5    1    3    3  502    0  0.26947083404E+03  0.82705702293E+03  0.48414587284E+03  0.99551854114E+03  0.46999998093E+01 0. -1.
       -5    1    3    3    0  502 -0.26947083404E+03 -0.82705702293E+03 -0.52301239937E+03  0.10149886253E+04  0.46999998093E+01 0.  1.
</event>
<event>
 5   0  0.1643565E-04  0.1753362E+04  0.7818609E-02  0.8731502E-01
       -1   -1    0    0    0  501  0.00000000000E+00  0.00000000000E+00  0.34248291984E+03  0.34248291987E+03  0.50400001928E-02 0.  1.
        1   -1    0    0  501    0  0.00000000000E+00  0.00000000000E+00 -0.22441100718E+04  0.22441100718E+04  0.50400001928E-02 0. -1.
    10030    2    1    2    0    0  0.00000000000E+00  0.00000000000E+00 -0.19016271520E+04  0.25865929917E+04  0.17533617652E+04 0.  0.
        2    1    3    3  502    0  0.42225072815E+03  0.60318187346E+03 -0.16528153982E+04  0.18093984609E+04  0.25500000920E-02 0. -1.
       -2    1    3    3    0  502 -0.42225072815E+03 -0.60318187346E+03 -0.24881175385E+03  0.77719453083E+03  0.25500000920E-02 0.  1.
</event>
<event>
 5   0  0.1664168E-04  0.1901341E+04  0.7818609E-02  0.8654189E-01
        1   -1    0    0  501    0  0.00000000000E+00  0.00000000000E+00  0.60042514876E+03  0.60042514878E+03  0.50400001928E-02 0.  1.
       -1   -1    0    0    0  501  0.00000000000E+00  0.00000000000E+00 -0.15052238841E+04  0.15052238841E+04  0.50400001928E-02 0. -1.
    10030    2    1    2    0    0  0.00000000000E+00  0.00000000000E+00 -0.90479873537E+03  0.21056490329E+04  0.19013408685E+04 0.  0.
        5    1    3    3  502    0  0.58041028289E+03  0.58158646783E+03  0.77136905314E+02  0.82528244148E+03  0.46999998093E+01 0.  1.
       -5    1    3    3    0  502 -0.58041028289E+03 -0.58158646783E+03 -0.98193564068E+03  0.12803665914E+04  0.46999998093E+01 0. -1.
</event>
<event>
 5   0  0.1643565E-04  0.1038418E+04  0.7818609E-02  0.9267384E-01
       -1   -1    0    0    0  501  0.00000000000E+00  0.00000000000E+00  0.31432743611E+03  0.31432743615E+03  0.50400001928E-02 0.  1.
        1   -1    0    0  501    0  0.00000000000E+00  0.00000000000E+00 -0.85763403044E+03  0.85763403045E+03  0.50400001928E-02 0. -1.
    10030    2    1    2    0    0  0.00000000000E+00  0.00000000000E+00 -0.54330659433E+03  0.11719614666E+04  0.10384178464E+04 0.  0.
        2    1    3    3  502    0  0.26544816098E+02 -0.27709137162E+03  0.22299633910E+03  0.35666738391E+03  0.25500000920E-02 0.  1.
       -2    1    3    3    0  502 -0.26544816098E+02  0.27709137162E+03 -0.76630293343E+03  0.81529408269E+03  0.25500000920E-02 0. -1.
</event>
<event>
 5   0  0.3431030E-04  0.2168496E+04  0.7818609E-02  0.8531656E-01
       -2   -1    0    0    0  501  0.00000000000E+00  0.00000000000E+00  0.72571109548E+03  0.72571109549E+03  0.25500000920E-02 0. -1.
        2   -1    0    0  501    0  0.00000000000E+00  0.00000000000E+00 -0.16199195187E+04  0.16199195187E+04  0.25500000920E-02 0.  1.
    10030    2    1    2    0    0  0.00000000000E+00  0.00000000000E+00 -0.89420842321E+03  0.23456306142E+04  0.21684958552E+04 0.  0.
        3    1    3    3  502    0  0.76330658358E+02  0.39310044599E+03 -0.15370006164E+04  0.15883089231E+04  0.10100000352E+00 0.  1.
       -3    1    3    3    0  502 -0.76330658358E+02 -0.39310044599E+03  0.64279219318E+03  0.75732169113E+03  0.10100000352E+00 0. -1.
</event>
<event>
 5   0  0.3371947E-04  0.2117684E+04  0.7818609E-02  0.8553493E-01
        2   -1    0    0  501    0  0.00000000000E+00  0.00000000000E+00  0.18151627770E+04  0.18151627770E+04  0.25500000920E-02 0. -1.
       -2   -1    0    0    0  501  0.00000000000E+00  0.00000000000E+00 -0.61765598683E+03  0.61765598683E+03  0.25500000920E-02 0.  1.
    10030    2    1    2    0    0  0.00000000000E+00  0.00000000000E+00  0.11975067902E+04  0.24328187638E+04  0.21176837878E+04 0.  0.
        2    1    3    3  502    0  0.55763071826E+03 -0.65731029095E+03 -0.10768356941E+03  0.86867979581E+03  0.25500000920E-02 0.  1.
       -2    1    3    3    0  502 -0.55763071826E+03  0.65731029095E+03  0.13051903596E+04  0.15641389680E+04  0.25500000920E-02 0. -1.
</event>
<event>
 5   0  0.3387881E-04  0.2083381E+04  0.7818609E-02  0.8568600E-01
        2   -1    0    0  501    0  0.00000000000E+00  0.00000000000E+00  0.68147450958E+03  0.68147450959E+03  0.25500000920E-02 0. -1.
       -2   -1    0    0    0  501  0.00000000000E+00  0.00000000000E+00 -0.15923100389E+04  0.15923100389E+04  0.25500000920E-02 0.  1.
    10030    2    1    2    0    0  0.00000000000E+00  0.00000000000E+00 -0.91083552930E+03  0.22737845485E+04  0.20833806209E+04 0.  0.
        1    1    3    3  502    0 -0.28713401119E+03 -0.28252773812E+03  0.59302915148E+03  0.71690406452E+03  0.50400001928E-02 0. -1.
       -1    1    3    3    0  502  0.28713401119E+03  0.28252773812E+03 -0.15038646808E+04  0.15568804840E+04  0.50400001928E-02 0.  1.
</event>
<event>
 5   0  0.1643565E-04  0.1684913E+04  0.7818609E-02  0.8770016E-01
       -1   -1    0    0    0  501  0.00000000000E+00  0.00000000000E+00  0.59457397010E+03  0.59457397013E+03  0.50400001928E-02 0. -1.
        1   -1    0    0  501    0  0.00000000000E+00  0.00000000000E+00 -0.11936835267E+04  0.11936835267E+04  0.50400001928E-02 0.  1.
    10030    2    1    2    0    0  0.00000000000E+00  0.00000000000E+00 -0.59910955663E+03  0.17882574969E+04  0.16849132364E+04 0.  0.
        2    1    3    3  502    0  0.34432661598E+03 -0.12458064777E+03  0.50569853465E+03  0.62434939275E+03  0.25500000920E-02 0. -1.
       -2    1    3    3    0  502 -0.34432661598E+03  0.12458064777E+03 -0.11048080913E+04  0.11639081041E+04  0.25500000920E-02 0.  1.
</event>
<event>
 5   0  0.3395569E-04  0.2050968E+04  0.7818609E-02  0.8583155E-01
        2   -1    0    0  501    0  0.00000000000E+00  0.00000000000E+00  0.17375797199E+04  0.17375797199E+04  0.25500000920E-02 0. -1.
       -2   -1    0    0    0  501  0.00000000000E+00  0.00000000000E+00 -0.60521958146E+03  0.60521958147E+03  0.25500000920E-02 0.  1.
    10030    2    1    2    0    0  0.00000000000E+00  0.00000000000E+00  0.11323601384E+04  0.23427993014E+04  0.20509678406E+04 0.  0.
        4    1    3    3  502    0  0.39336055888E+03 -0.24046009791E+02  0.16476242920E+04  0.16941009888E+04  0.12699999809E+01 0. -1.
       -4    1    3    3    0  502 -0.39336055888E+03  0.24046009791E+02 -0.51526415355E+03  0.64869831255E+03  0.12699999809E+01 0.  1.
</event>
<event>
 5   0  0.1650221E-04  0.2002229E+04  0.7818609E-02  0.8605579E-01
       -1   -1    0    0    0  501  0.00000000000E+00  0.00000000000E+00  0.72773133894E+03  0.72773133896E+03  0.50400001928E-02 0.  1.
        1   -1    0    0  501    0  0.00000000000E+00  0.00000000000E+00 -0.13771984727E+04  0.13771984727E+04  0.50400001928E-02 0. -1.
    10030    2    1    2    0    0  0.00000000000E+00  0.00000000000E+00 -0.64946713378E+03  0.21049298117E+04  0.20022292462E+04 0.  0.
        1    1    3    3  502    0 -0.26515442240E+03 -0.64455266280E+03  0.43079114620E+03  0.81935097151E+03  0.50400001928E-02 0.  1.
       -1    1    3    3    0  502  0.26515442240E+03  0.64455266280E+03 -0.10802582800E+04  0.12855788402E+04  0.50400001928E-02 0. -1.
</event>
<event>
 5   0  0.1696052E-04  0.2005135E+04  0.7818609E-02  0.8604224E-01
       -1   -1    0    0    0  501  0.00000000000E+00  0.00000000000E+00  0.91264818958E+03  0.91264818960E+03  0.50400001928E-02 0. -1.
        1   -1    0    0  501    0  0.00000000000E+00  0.00000000000E+00 -0.11013457278E+04  0.11013457278E+04  0.50400001928E-02 0.  1.
    10030    2    1    2    0    0  0.00000000000E+00  0.00000000000E+00 -0.18869753820E+03  0.20139939174E+04  0.20051345936E+04 0.  0.
        4    1    3    3  502    0 -0.62122061201E+03  0.12174314929E+03  0.68651986183E+03  0.93383487661E+03  0.12699999809E+01 0. -1.
       -4    1    3    3    0  502  0.62122061201E+03 -0.12174314929E+03 -0.87521740003E+03  0.10801590408E+04  0.12699999809E+01 0.  1.
</event>
<event>
 5   0  0.3431030E-04  0.1875939E+04  0.7818609E-02  0.8666927E-01
       -2   -1    0    0    0  501  0.00000000000E+00  0.00000000000E+00  0.48067334294E+03  0.48067334294E+03  0.25500000920E-02 0. -1.
        2   -1    0    0  501    0  0.00000000000E+00  0.00000000000E+00 -0.18303205997E+04  0.18303205997E+04  0.25500000920E-02 0.  1.
    10030    2    1    2    0    0  0.00000000000E+00  0.00000000000E+00 -0.13496472568E+04  0.23109939427E+04  0.18759385079E+04 0.  0.
        3    1    3    3  502    0  0.43250491288E+03  0.79745565855E+03 -0.96839738457E+03  0.13269474487E+04  0.10100000352E+00 0.  1.
       -3    1    3    3    0  502 -0.43250491288E+03 -0.79745565855E+03 -0.38124987224E+03  0.98404649397E+03  0.10100000352E+00 0. -1.
</event>
<event>
 5   0  0.1664168E-04  0.1182987E+04  0.7818609E-02  0.9127879E-01
       -1   -1    0    0    0  501  0.00000000000E+00  0.00000000000E+00  0.77674855530E+03  0.77674855532E+03  0.50400001928E-02 0.  1.
        1   -1    0    0  501    0  0.00000000000E+00  0.00000000000E+00 -0.45042213126E+03  0.45042213129E+03  0.50400001928E-02 0. -1.
    10030    2    1    2    0    0  0.00000000000E+00  0.00000000000E+00  0.32632642405E+03  0.12271706866E+04  0.11829873030E+04 0.  0.
        5    1    3    3  502    0  0.14775019946E+03  0.42553615179E+03 -0.23446973599E+03  0.50784769864E+03  0.46999998093E+01 0. -1.
       -5    1    3    3    0  502 -0.14775019946E+03 -0.42553615179E+03  0.56079616003E+03  0.71932298797E+03  0.46999998093E+01 0.  1.
</event>
<event>
 5   0  0.3431030E-04  0.1990005E+04  0.7818609E-02  0.8611308E-01
        2   -1    0    0  501    0  0.00000000000E+00  0.00000000000E+00  0.11975725406E+04  0.11975725406E+04  0.25500000920E-02 0.  1.
       -2   -1    0    0    0  501  0.00000000000E+00  0.00000000000E+00 -0.82669727314E+03  0.82669727315E+03  0.25500000920E-02 0. -1.
    10030    2    1    2    0    0  0.00000000000E+00  0.00000000000E+00  0.37087526744E+03  0.20242698137E+04  0.19900049786E+04 0.  0.
        3    1    3    3  502    0  0.75869111156E+03 -0.64231015753E+03  0.22925368910E+03  0.10201626367E+04  0.10100000352E+00 0.  1.
       -3    1    3    3    0  502 -0.75869111156E+03  0.64231015753E+03  0.14162157835E+03  0.10041071770E+04  0.10100000352E+00 0. -1.
</event>
<event>
 5   0  0.1696052E-04  0.1593885E+04  0.7818609E-02  0.8824314E-01
       -1   -1    0    0    0  501  0.00000000000E+00  0.00000000000E+00  0.28281428239E+03  0.28281428243E+03  0.50400001928E-02 0.  1.
        1   -1    0    0  501    0  0.00000000000E+00  0.00000000000E+00 -0.22457038601E+04  0.22457038602E+04  0.50400001928E-02 0. -1.
    10030    2    1    2    0    0  0.00000000000E+00  0.00000000000E+00 -0.19628895778E+04  0.25285181426E+04  0.15938847207E+04 0.  0.
        4    1    3    3  502    0 -0.43253530204E+03  0.18116313187E+03 -0.20036600498E+04  0.20578051598E+04  0.12699999809E+01 0. -1.
       -4    1    3    3    0  502  0.43253530204E+03 -0.18116313187E+03  0.40770471994E+02  0.47071298277E+03  0.12699999809E+01 0.  1.
</event>
<event>
 5   0  0.1664168E-04  0.1850098E+04  0.7818609E-02  0.8680103E-01
        1   -1    0    0  501    0  0.00000000000E+00  0.00000000000E+00  0.92647411576E+03  0.92647411577E+03  0.50400001928E-02 0.  1.
       -1   -1    0    0    0  501  0.00000000000E+00  0.00000000000E+00 -0.92362578168E+03  0.92362578170E+03  0.50400001928E-02 0. -1.
    10030    2    1    2    0    0  0.00000000000E+00  0.00000000000E+00  0.28483340743E+01  0.18500998975E+04  0.18500977049E+04 0.  0.
        5    1    3    3  502    0 -0.86269736471E+03 -0.11008734040E+03 -0.31373858336E+03  0.92456473775E+03  0.46999998093E+01 0. -1.
       -5    1    3    3    0  502  0.86269736471E+03  0.11008734040E+03  0.31658691743E+03  0.92553515972E+03  0.46999998093E+01 0.  1.
</event>
<event>
 5   0  0.3460648E-04  0.2001182E+04  0.7818609E-02  0.8606068E-01
       -2   -1    0    0    0  501  0.00000000000E+00  0.00000000000E+00  0.60087096968E+03  0.60087096968E+03  0.25500000920E-02 0. -1.
        2   -1    0    0  501    0  0.00000000000E+00  0.00000000000E+00 -0.16662183750E+04  0.16662183750E+04  0.25500000920E-02 0.  1.
    10030    2    1    2    0    0  0.00000000000E+00  0.00000000000E+00 -0.10653474054E+04  0.22670893447E+04  0.20011819015E+04 0.  0.
        5    1    3    3  502    0  0.13693053254E+03 -0.56151905280E+02  0.58839039816E+03  0.60673582213E+03  0.46999998093E+01 0. -1.
       -5    1    3    3    0  502 -0.13693053254E+03  0.56151905280E+02 -0.16537378035E+04  0.16603535226E+04  0.46999998093E+01 0.  1.
</event>
<event>
 5   0  0.1650221E-04  0.1926159E+04  0.7818609E-02  0.8641944E-01
        1   -1    0    0  501    0  0.00000000000E+00  0.00000000000E+00  0.22606674625E+04  0.22606674625E+04  0.50400001928E-02 0.  1.
       -1   -1    0    0    0  501  0.00000000000E+00  0.00000000000E+00 -0.41028689718E+03  0.41028689721E+03  0.50400001928E-02 0. -1.
    10030    2    1    2    0    0  0.00000000000E+00  0.00000000000E+00  0.18503805653E+04  0.26709543597E+04  0.19261591199E+04 0.  0.
        1    1    3    3  502    0 -0.85541043342E+03 -0.36122961039E+03  0.57081875547E+03  0.10899760973E+04  0.50400001928E-02 0. -1.
       -1    1    3    3    0  502  0.85541043342E+03  0.36122961039E+03  0.12795618098E+04  0.15809782624E+04  0.50400001928E-02 0.  1.
</event>
<event>
 5   0  0.3460648E-04  0.1946832E+04  0.7818609E-02  0.8631890E-01
       -2   -1    0    0    0  501  0.00000000000E+00  0.00000000000E+00  0.71655608451E+03  0.71655608451E+03  0.25500000920E-02 0. -1.
        2   -1    0    0  501    0  0.00000000000E+00  0.00000000000E+00 -0.13223507577E+04  0.13223507577E+04  0.25500000920E-02 0.  1.
    10030    2    1    2    0    0  0.00000000000E+00  0.00000000000E+00 -0.60579467318E+03  0.20389068422E+04  0.19468317660E+04 0.  0.
        5    1    3    3  502    0  0.29552130556E+02  0.87450581957E+03  0.14374982388E+03  0.88674678389E+03  0.46999998093E+01 0. -1.
       -5    1    3    3    0  502 -0.29552130556E+02 -0.87450581957E+03 -0.74954449706E+03  0.11521600583E+04  0.46999998093E+01 0.  1.
</event>
<event>
 5   0  0.1643565E-04  0.2015426E+04  0.7818609E-02  0.8599442E-01
       -1   -1    0    0    0  501  0.00000000000E+00  0.00000000000E+00  0.72702446341E+03  0.72702446343E+03  0.50400001928E-02 0.  1.
        1   -1    0    0  501    0  0.00000000000E+00  0.00000000000E+00 -0.13967687617E+04  0.13967687617E+04  0.50400001928E-02 0. -1.
    10030    2    1    2    0    0  0.00000000000E+00  0.00000000000E+00 -0.66974429832E+03  0.21237932252E+04  0.20154255725E+04 0.  0.
        2    1    3    3  502    0  0.51329997824E+03 -0.63964616503E+03  0.28215531417E+03  0.86731522840E+03  0.25500000920E-02 0.  1.
       -2    1    3    3    0  502 -0.51329997824E+03  0.63964616503E+03 -0.95189961249E+03  0.12564779968E+04  0.25500000920E-02 0. -1.
</event>
<event>
 5   0  0.1708578E-04  0.2016221E+04  0.7818609E-02  0.8599074E-01
        1   -1    0    0  501    0  0.00000000000E+00  0.00000000000E+00  0.21710252524E+04  0.21710252524E+04  0.50400001928E-02 0. -1.
       -1   -1    0    0    0  501  0.00000000000E+00  0.00000000000E+00 -0.46811391069E+03  0.46811391072E+03  0.50400001928E-02 0.  1.
    10030    2    1    2    0    0  0.00000000000E+00  0.00000000000E+00  0.17029113417E+04  0.26391391631E+04  0.20162213382E+04 0.  0.
        3    1    3    3  502    0  0.63348978149E+03  0.39744427324E+03 -0.33435209617E+02  0.74859146203E+03  0.10100000352E+00 0.  1.
       -3    1    3    3    0  502 -0.63348978149E+03 -0.39744427324E+03  0.17363465513E+04  0.18905477011E+04  0.10100000352E+00 0. -1.
</event>
<event>
 5   0  0.1664168E-04  0.1994271E+04  0.7818609E-02  0.8609304E-01
       -1   -1    0    0    0  501  0.00000000000E+00  0.00000000000E+00  0.96620512529E+03  0.96620512530E+03  0.50400001928E-02 0.  1.
        1   -1    0    0  501    0  0.00000000000E+00  0.00000000000E+00 -0.10290555746E+04  0.10290555746E+04  0.50400001928E-02 0. -1.
    10030    2    1    2    0    0  0.00000000000E+00  0.00000000000E+00 -0.62850449304E+02  0.19952606999E+04  0.19942705638E+04 0.  0.
        5    1    3    3  502    0  0.27046048120E+03 -0.23780027765E+03  0.89885298096E+03  0.96832670898E+03  0.46999998093E+01 0.  1.
       -5    1    3    3    0  502 -0.27046048120E+03  0.23780027765E+03 -0.96170343026E+03  0.10269339909E+04  0.46999998093E+01 0. -1.
</event>
<event>
 5   0  0.3371947E-04  0.2077496E+04  0.7818609E-02  0.8571222E-01
        2   -1    0    0  501    0  0.00000000000E+00  0.00000000000E+00  0.16432793487E+04  0.16432793487E+04  0.25500000920E-02 0. -1.
       -2   -1    0    0    0  501  0.00000000000E+00  0.00000000000E+00 -0.65661246780E+03  0.65661246780E+03  0.25500000920E-02 0.  1.
    10030    2    1    2    0    0  0.00000000000E+00  0.00000000000E+00  0.98666688091E+03  0.22998918165E+04  0.20774962897E+04 0.  0.
        2    1    3    3  502    0  0.12252645896E+03  0.59898516858E+03 -0.43632590550E+03  0.75111667612E+03  0.25500000920E-02 0.  1.
       -2    1    3    3    0  502 -0.12252645896E+03 -0.59898516858E+03  0.14229927864E+04  0.15487751404E+04  0.25500000920E-02 0. -1.
</event>
<event>
 5   0  0.3387881E-04  0.1995916E+04  0.7818609E-02  0.8608532E-01
        2   -1    0    0  501    0  0.00000000000E+00  0.00000000000E+00  0.16818342781E+04  0.16818342781E+04  0.25500000920E-02 0.  1.
       -2   -1    0    0    0  501  0.00000000000E+00  0.00000000000E+00 -0.59216318485E+03  0.59216318486E+03  0.25500000920E-02 0. -1.
    10030    2    1    2    0    0  0.00000000000E+00  0.00000000000E+00  0.10896710932E+04  0.22739974629E+04  0.19959161731E+04 0.  0.
        1    1    3    3  502    0 -0.62274937373E+03 -0.75282700716E+03  0.31314303793E+03  0.10259745842E+04  0.50400001928E-02 0. -1.
       -1    1    3    3    0  502  0.62274937373E+03  0.75282700716E+03  0.77652805528E+03  0.12480228787E+04  0.50400001928E-02 0.  1.
</event>
<event>
 5   0  0.1650221E-04  0.2013679E+04  0.7818609E-02  0.8600252E-01
        1   -1    0    0  501    0  0.00000000000E+00  0.00000000000E+00  0.64493598247E+03  0.64493598249E+03  0.50400001928E-02 0. -1.
       -1   -1    0    0    0  501  0.00000000000E+00  0.00000000000E+00 -0.15718236438E+04  0.15718236438E+04  0.50400001928E-02 0.  1.
    10030    2    1    2    0    0  0.00000000000E+00  0.00000000000E+00 -0.92688766130E+03  0.22167596263E+04  0.20136788483E+04 0.  0.
        1    1    3    3  502    0 -0.17849289567E+03  0.81578073211E+03 -0.10826345948E+04  0.13672803599E+04  0.50400001928E-02 0.  1.
       -1    1    3    3    0  502  0.17849289567E+03 -0.81578073211E+03  0.15574693349E+03  0.84947926637E+03  0.50400001928E-02 0. -1.
</event>
<event>
 5   0  0.1708578E-04  0.1988310E+04  0.7818609E-02  0.8612106E-01
       -1   -1    0    0    0  501  0.00000000000E+00  0.00000000000E+00  0.11581917924E+04  0.11581917924E+04  0.50400001928E-02 0.  1.
        1   -1    0    0  501    0  0.00000000000E+00  0.00000000000E+00 -0.85335089864E+03  0.85335089866E+03  0.50400001928E-02 0. -1.
    10030    2    1    2    0    0  0.00000000000E+00  0.00000000000E+00  0.30484089375E+03  0.20115426911E+04  0.19883098419E+04 0.  0.
        3    1    3    3  502    0 -0.63792845511E+03 -0.24822037997E+03  0.88180087872E+03  0.11163059038E+04  0.10100000352E+00 0.  1.
       -3    1    3    3    0  502  0.63792845511E+03  0.24822037997E+03 -0.57695998497E+03  0.89523678730E+03  0.10100000352E+00 0. -1.
</event>
<event>
 5   0  0.1708578E-04  0.1796867E+04  0.7818609E-02  0.8707967E-01
       -1   -1    0    0    0  501  0.00000000000E+00  0.00000000000E+00  0.44403468289E+03  0.44403468292E+03  0.50400001928E-02 0.  1.
        1   -1    0    0  501    0  0.00000000000E+00  0.00000000000E+00 -0.18178369158E+04  0.18178369158E+04  0.50400001928E-02 0. -1.
    10030    2    1    2    0    0  0.00000000000E+00  0.00000000000E+00 -0.13738022329E+04  0.22618715987E+04  0.17968668715E+04 0.  0.
        3    1    3    3  502    0  0.46775686389E+03 -0.28073121320E+03  0.21167854386E+03  0.58516178439E+03  0.10100000352E+00 0.  1.
       -3    1    3    3    0  502 -0.46775686389E+03  0.28073121320E+03 -0.15854807768E+04  0.16767098143E+04  0.10100000352E+00 0. -1.
</event>
<event>
 5   0  0.1643565E-04  0.1025096E+04  0.7818609E-02  0.9281440E-01
        1   -1    0    0  501    0  0.00000000000E+00  0.00000000000E+00  0.15035318489E+04  0.15035318489E+04  0.50400001928E-02 0.  1.
       -1   -1    0    0    0  501  0.00000000000E+00  0.00000000000E+00 -0.17472554591E+03  0.17472554598E+03  0.50400001928E-02 0. -1.
    10030    2    1    2    0    0  0.00000000000E+00  0.00000000000E+00  0.13288063030E+04  0.16782573949E+04  0.10250959431E+04 0.  0.
        2    1    3    3  502    0  0.44870866828E+03  0.22781134425E+03  0.50510089361E+03  0.71299676738E+03  0.25500000920E-02 0. -1.
       -2    1    3    3    0  502 -0.44870866828E+03 -0.22781134425E+03  0.82370540938E+03  0.96526062751E+03  0.25500000920E-02 0.  1.
</event>
<event>
 5   0  0.3387881E-04  0.1217532E+04  0.7818609E-02  0.9097648E-01
       -2   -1    0    0    0  501  0.00000000000E+00  0.00000000000E+00  0.58081052559E+03  0.58081052559E+03  0.25500000920E-02 0.  1.
        2   -1    0    0  501    0  0.00000000000E+00  0.00000000000E+00 -0.63806662451E+03  0.63806662452E+03  0.25500000920E-02 0. -1.
    10030    2    1    2    0    0  0.00000000000E+00  0.00000000000E+00 -0.57256098927E+02  0.12188771501E+04  0.12175316202E+04 0.  0.
        1    1    3    3  502    0 -0.16877564598E+03 -0.25204086835E+03 -0.55702381106E+03  0.63425968192E+03  0.50400001928E-02 0. -1.
       -1    1    3    3    0  502  0.16877564598E+03  0.25204086835E+03  0.49976771213E+03  0.58461746819E+03  0.50400001928E-02 0.  1.
</event>
<event>
 5   0  0.3431030E-04  0.1996696E+04  0.7818609E-02  0.8608167E-01
        2   -1    0    0  501    0  0.00000000000E+00  0.00000000000E+00  0.14225143011E+04  0.14225143011E+04  0.25500000920E-02 0. -1.
       -2   -1    0    0    0  501  0.00000000000E+00  0.00000000000E+00 -0.70065961398E+03  0.70065961398E+03  0.25500000920E-02 0.  1.
    10030    2    1    2    0    0  0.00000000000E+00  0.00000000000E+00  0.72185468711E+03  0.21231739151E+04  0.19966955913E+04 0.  0.
        3    1    3    3  502    0 -0.35955449710E+03 -0.20652789718E+03 -0.60476513574E+03  0.73326263256E+03  0.10100000352E+00 0.  1.
       -3    1    3    3    0  502  0.35955449710E+03  0.20652789718E+03  0.13266198228E+04  0.13899112825E+04  0.10100000352E+00 0. -1.
</event>
<event>
 5   0  0.1708578E-04  0.1992611E+04  0.7818609E-02  0.8610083E-01
       -1   -1    0    0    0  501  0.00000000000E+00  0.00000000000E+00  0.57426721509E+03  0.57426721511E+03  0.50400001928E-02 0. -1.
        1   -1    0    0  501    0  0.00000000000E+00  0.00000000000E+00 -0.17285059406E+04  0.17285059406E+04  0.50400001928E-02 0.  1.
    10030    2    1    2    0    0  0.00000000000E+00  0.00000000000E+00 -0.11542387255E+04  0.23027731557E+04  0.19926106421E+04 0.  0.
        3    1    3    3  502    0  0.34545180813E+03  0.15082577774E+03 -0.16429195867E+04  0.16856067589E+04  0.10100000352E+00 0.  1.
       -3    1    3    3    0  502 -0.34545180813E+03 -0.15082577774E+03  0.48868086125E+03  0.61716639679E+03  0.10100000352E+00 0. -1.
</event>
<event>
 5   0  0.3395569E-04  0.1926126E+04  0.7818609E-02  0.8641960E-01
       -2   -1    0    0    0  501  0.00000000000E+00  0.00000000000E+00  0.14195790891E+04  0.14195790891E+04  0.25500000920E-02 0.  1.
        2   -1    0    0  501    0  0.00000000000E+00  0.00000000000E+00 -0.65335596926E+03  0.65335596926E+03  0.25500000920E-02 0. -1.
    10030    2    1    2    0    0  0.00000000000E+00  0.00000000000E+00  0.76622311988E+03  0.20729350584E+04  0.19261261347E+04 0.  0.
        4    1    3    3  502    0  0.26487469344E+03 -0.82101016967E+03 -0.77621835019E+02  0.86616572554E+03  0.12699999809E+01 0. -1.
       -4    1    3    3    0  502 -0.26487469344E+03  0.82101016967E+03  0.84384495490E+03  0.12067693329E+04  0.12699999809E+01 0.  1.
</event>
<event>
 5   0  0.1708578E-04  0.1576983E+04  0.7818609E-02  0.8834814E-01
       -1   -1    0    0    0  501  0.00000000000E+00  0.00000000000E+00  0.60350395519E+03  0.60350395521E+03  0.50400001928E-02 0.  1.
        1   -1    0    0  501    0  0.00000000000E+00  0.00000000000E+00 -0.10301821730E+04  0.10301821730E+04  0.50400001928E-02 0. -1.
    10030    2    1    2    0    0  0.00000000000E+00  0.00000000000E+00 -0.42667821777E+03  0.16336861282E+04  0.15769832161E+04 0.  0.
        3    1    3    3  502    0 -0.62081955607E+02  0.46896503289E+03 -0.86684350224E+03  0.98752217133E+03  0.10100000352E+00 0. -1.
       -3    1    3    3    0  502  0.62081955607E+02 -0.46896503289E+03  0.44016528447E+03  0.64616395686E+03  0.10100000352E+00 0.  1.
</event>
<event>
 5   0  0.1708578E-04  0.2054758E+04  0.7818609E-02  0.8581439E-01
       -1   -1    0    0    0  501  0.00000000000E+00  0.00000000000E+00  0.80126673631E+03  0.80126673633E+03  0.50400001928E-02 0.  1.
        1   -1    0    0  501    0  0.00000000000E+00  0.00000000000E+00 -0.13172986528E+04  0.13172986529E+04  0.50400001928E-02 0. -1.
    10030    2    1    2    0    0  0.00000000000E+00  0.00000000000E+00 -0.51603191653E+03  0.21185653892E+04  0.20547579832E+04 0.  0.
        3    1    3    3  502    0  0.17062497607E+03  0.60846728599E+02  0.78467043354E+03  0.80530919920E+03  0.10100000352E+00 0.  1.
       -3    1    3    3    0  502 -0.17062497607E+03 -0.60846728599E+02 -0.13007023501E+04  0.13132561900E+04  0.10100000352E+00 0. -1.
</event>
<event>
 5   0  0.3460648E-04  0.2078014E+04  0.7818609E-02  0.8570991E-01
        2   -1    0    0  501    0  0.00000000000E+00  0.00000000000E+00  0.14214982800E+04  0.14214982800E+04  0.25500000920E-02 0.  1.
       -2   -1    0    0    0  501  0.00000000000E+00  0.00000000000E+00 -0.75943484181E+03  0.75943484182E+03  0.25500000920E-02 0. -1.
    10030    2    1    2    0    0  0.00000000000E+00  0.00000000000E+00  0.66206343816E+03  0.21809331218E+04  0.20780137838E+04 0.  0.
        5    1    3    3  502    0 -0.85640133822E+03 -0.56023973075E+03  0.14263805843E+03  0.10332761072E+04  0.46999998093E+01 0. -1.
       -5    1    3    3    0  502  0.85640133822E+03  0.56023973075E+03  0.51942537974E+03  0.11476570146E+04  0.46999998093E+01 0.  1.
</event>
<event>
 5   0  0.1696052E-04  0.2048422E+04  0.7818609E-02  0.8584311E-01
        1   -1    0    0  501    0  0.00000000000E+00  0.00000000000E+00  0.13772316273E+04  0.13772316273E+04  0.50400001928E-02 0.  1.
       -1   -1    0    0    0  501  0.00000000000E+00  0.00000000000E+00 -0.76167873943E+03  0.76167873945E+03  0.50400001928E-02 0. -1.
    10030    2    1    2    0    0  0.00000000000E+00  0.00000000000E+00  0.61555288786E+03  0.21389103667E+04  0.20484218802E+04 0.  0.
        4    1    3    3  502    0 -0.40321713932E+03  0.36734587625E+03 -0.59739681277E+03  0.80895711817E+03  0.12699999809E+01 0. -1.
       -4    1    3    3    0  502  0.40321713932E+03 -0.36734587625E+03  0.12129497006E+04  0.13299532486E+04  0.12699999809E+01 0.  1.
</event>
<event>
 5   0  0.1708578E-04  0.1921233E+04  0.7818609E-02  0.8644359E-01
        1   -1    0    0  501    0  0.00000000000E+00  0.00000000000E+00  0.20250733778E+04  0.20250733778E+04  0.50400001928E-02 0. -1.
       -1   -1    0    0    0  501  0.00000000000E+00  0.00000000000E+00 -0.45567922298E+03  0.45567922300E+03  0.50400001928E-02 0.  1.
    10030    2    1    2    0    0  0.00000000000E+00  0.00000000000E+00  0.15693941548E+04  0.24807526008E+04  0.19212327952E+04 0.  0.
        3    1    3    3  502    0  0.77988584509E+03 -0.39548674916E+03  0.27119640315E+03  0.91552127196E+03  0.10100000352E+00 0.  1.
       -3    1    3    3    0  502 -0.77988584509E+03  0.39548674916E+03  0.12981977516E+04  0.15652313288E+04  0.10100000352E+00 0. -1.
</event>
<event>
 5   0  0.3371947E-04  0.2025256E+04  0.7818609E-02  0.8594903E-01
        2   -1    0    0  501    0  0.00000000000E+00  0.00000000000E+00  0.18877690541E+04  0.18877690541E+04  0.25500000920E-02 0. -1.
       -2   -1    0    0    0  501  0.00000000000E+00  0.00000000000E+00 -0.54318882610E+03  0.54318882611E+03  0.25500000920E-02 0.  1.
    10030    2    1    2    0    0  0.00000000000E+00  0.00000000000E+00  0.13445802280E+04  0.24309578802E+04  0.20252555952E+04 0.  0.
        2    1    3    3  502    0  0.48889151439E+03 -0.84190198976E+03  0.33791668024E+03  0.10305345972E+04  0.25500000920E-02 0.  1.
       -2    1    3    3    0  502 -0.48889151439E+03  0.84190198976E+03  0.10066635477E+04  0.14004232830E+04  0.25500000920E-02 0. -1.
</event>
<event>
 5   0  0.1696052E-04  0.1976163E+04  0.7818609E-02  0.8617847E-01
       -1   -1    0    0    0  501  0.00000000000E+00  0.00000000000E+00  0.10652837708E+04  0.10652837708E+04  0.50400001928E-02 0. -1.
        1   -1    0    0  501    0  0.00000000000E+00  0.00000000000E+00 -0.91647454962E+03  0.91647454964E+03  0.50400001928E-02 0.  1.
    10030    2    1    2    0    0  0.00000000000E+00  0.00000000000E+00  0.14880922116E+03  0.19817583204E+04  0.19761634184E+04 0.  0.
        4    1    3    3  502    0 -0.25763050362E+03 -0.94505275798E+03 -0.55599059707E+02  0.98111725094E+03  0.12699999809E+01 0.  1.
       -4    1    3    3    0  502  0.25763050362E+03  0.94505275798E+03  0.20440828086E+03  0.10006410695E+04  0.12699999809E+01 0. -1.
</event>
<event>
 5   0  0.3387881E-04  0.1934615E+04  0.7818609E-02  0.8637816E-01
       -2   -1    0    0    0  501  0.00000000000E+00  0.00000000000E+00  0.11087340966E+04  0.11087340966E+04  0.25500000920E-02 0. -1.
        2   -1    0    0  501    0  0.00000000000E+00  0.00000000000E+00 -0.84392058461E+03  0.84392058461E+03  0.25500000920E-02 0.  1.
    10030    2    1    2    0    0  0.00000000000E+00  0.00000000000E+00  0.26481351198E+03  0.19526546812E+04  0.19346147182E+04 0.  0.
        1    1    3    3  502    0  0.64931946979E+02  0.87882938718E+03 -0.27021933162E+03  0.92172432794E+03  0.50400001928E-02 0.  1.
       -1    1    3    3    0  502 -0.64931946979E+02 -0.87882938718E+03  0.53503284359E+03  0.10309303533E+04  0.50400001928E-02 0. -1.
</event>
<event>
 5   0  0.1643565E-04  0.2217087E+04  0.7818609E-02  0.8511349E-01
       -1   -1    0    0    0  501  0.00000000000E+00  0.00000000000E+00  0.10881266779E+04  0.10881266780E+04  0.50400001928E-02 0. -1.
        1   -1    0    0  501    0  0.00000000000E+00  0.00000000000E+00 -0.11293438277E+04  0.11293438277E+04  0.50400001928E-02 0.  1.
    10030    2    1    2    0    0  0.00000000000E+00  0.00000000000E+00 -0.41217149775E+02  0.22174705057E+04  0.22170874115E+04 0.  0.
        2    1    3    3  502    0 -0.95474166733E+03 -0.55308037518E+03  0.86365947503E+02  0.11067468679E+04  0.25500000920E-02 0.  1.
       -2    1    3    3    0  502  0.95474166733E+03  0.55308037518E+03 -0.12758309728E+03  0.11107236378E+04  0.25500000920E-02 0. -1.
</event>
<event>
 5   0  0.1696052E-04  0.2036061E+04  0.7818609E-02  0.8589944E-01
        1   -1    0    0  501    0  0.00000000000E+00  0.00000000000E+00  0.12438797889E+04  0.12438797889E+04  0.50400001928E-02 0. -1.
       -1   -1    0    0    0  501  0.00000000000E+00  0.00000000000E+00 -0.83318817380E+03  0.83318817381E+03  0.50400001928E-02 0.  1.
    10030    2    1    2    0    0  0.00000000000E+00  0.00000000000E+00  0.41069161507E+03  0.20770679627E+04  0.20360608338E+04 0.  0.
        4    1    3    3  502    0  0.67769097300E+03 -0.75716689247E+03  0.14231500592E+03  0.10260711144E+04  0.12699999809E+01 0.  1.
       -4    1    3    3    0  502 -0.67769097300E+03  0.75716689247E+03  0.26837660916E+03  0.10509968483E+04  0.12699999809E+01 0. -1.
</event>
<event>
 5   0  0.3431030E-04  0.1990685E+04  0.7818609E-02  0.8610988E-01
        2   -1    0    0  501    0  0.00000000000E+00  0.00000000000E+00  0.23015673697E+04  0.23015673697E+04  0.25500000920E-02 0.  1.
       -2   -1    0    0    0  501  0.00000000000E+00  0.00000000000E+00 -0.43044862062E+03  0.43044862062E+03  0.25500000920E-02 0. -1.
    10030    2    1    2    0    0  0.00000000000E+00  0.00000000000E+00  0.18711187491E+04  0.27320159903E+04  0.19906848064E+04 0.  0.
        3    1    3    3  502    0 -0.80822635200E+03 -0.54869075832E+03  0.67366780491E+03  0.11866421979E+04  0.10100000352E+00 0. -1.
       -3    1    3    3    0  502  0.80822635200E+03  0.54869075832E+03  0.11974509442E+04  0.15453737924E+04  0.10100000352E+00 0.  1.
</event>
<event>
 5   0  0.1708578E-04  0.1893046E+04  0.7818609E-02  0.8658325E-01
       -1   -1    0    0    0  501  0.00000000000E+00  0.00000000000E+00  0.47299845984E+03  0.47299845986E+03  0.50400001928E-02 0. -1.
        1   -1    0    0  501    0  0.00000000000E+00  0.00000000000E+00 -0.18940995364E+04  0.18940995364E+04  0.50400001928E-02 0.  1.
    10030    2    1    2    0    0  0.00000000000E+00  0.00000000000E+00 -0.14211010766E+04  0.23670979963E+04  0.18930463952E+04 0.  0.
        3    1    3    3  502    0 -0.36825984041E+03 -0.58245929771E+03  0.10080748948E+03  0.69644547790E+03  0.10100000352E+00 0. -1.
       -3    1    3    3    0  502  0.36825984041E+03  0.58245929771E+03 -0.15219085661E+04  0.16706525184E+04  0.10100000352E+00 0.  1.
</event>
<event>
 5   0  0.3371947E-04  0.1727957E+04  0.7818609E-02  0.8745578E-01
        2   -1    0    0  501    0  0.00000000000E+00  0.00000000000E+00  0.15213586846E+04  0.15213586846E+04  0.25500000920E-02 0. -1.
       -2   -1    0    0    0  501  0.00000000000E+00  0.00000000000E+00 -0.49065284598E+03  0.49065284599E+03  0.25500000920E-02 0.  1.
    10030    2    1    2    0    0  0.00000000000E+00  0.00000000000E+00  0.10307058386E+04  0.20120115306E+04  0.17279571388E+04 0.  0.
        2    1    3    3  502    0 -0.66469681707E+03  0.45651647345E+03  0.15414909951E+03  0.82096960604E+03  0.25500000920E-02 0.  1.
       -2    1    3    3    0  502  0.66469681707E+03 -0.45651647345E+03  0.87655673909E+03  0.11910419245E+04  0.25500000920E-02 0. -1.
</event>
<event>
 5   0  0.3431030E-04  0.1835510E+04  0.7818609E-02  0.8687640E-01
        2   -1    0    0  501    0  0.00000000000E+00  0.00000000000E+00  0.52429801374E+03  0.52429801375E+03  0.25500000920E-02 0.  1.
       -2   -1    0    0    0  501  0.00000000000E+00  0.00000000000E+00 -0.16064799840E+04  0.16064799840E+04  0.25500000920E-02 0. -1.
    10030    2    1    2    0    0  0.00000000000E+00  0.00000000000E+00 -0.10821819702E+04  0.21307779977E+04  0.18355100269E+04 0.  0.
        3    1    3    3  502    0 -0.69300013822E+03  0.25274096688E+03  0.92773928291E+02  0.74346096057E+03  0.10100000352E+00 0.  1.
       -3    1    3    3    0  502  0.69300013822E+03 -0.25274096688E+03 -0.11749558985E+04  0.13873170371E+04  0.10100000352E+00 0. -1.
</event>
<event>
 5   0  0.3371947E-04  0.1835119E+04  0.7818609E-02  0.8687843E-01
       -2   -1    0    0    0  501  0.00000000000E+00  0.00000000000E+00  0.27074407684E+03  0.27074407685E+03  0.25500000920E-02 0. -1.
        2   -1    0    0  501    0  0.00000000000E+00  0.00000000000E+00 -0.31096363493E+04  0.31096363493E+04  0.25500000920E-02 0.  1.
    10030    2    1    2    0    0  0.00000000000E+00  0.00000000000E+00 -0.28388922725E+04  0.33803804262E+04  0.18351192035E+04 0.  0.
        2    1    3    3  502    0  0.23018257539E+03  0.48362253431E+03 -0.47099659050E+02  0.53767383384E+03  0.25500000920E-02 0. -1.
       -2    1    3    3    0  502 -0.23018257539E+03 -0.48362253431E+03 -0.27917926135E+04  0.28427065924E+04  0.25500000920E-02 0.  1.
</event>
<event>
 5   0  0.3371947E-04  0.1967669E+04  0.7818609E-02  0.8621887E-01
       -2   -1    0    0    0  501  0.00000000000E+00  0.00000000000E+00  0.59672754199E+03  0.59672754199E+03  0.25500000920E-02 0.  1.
        2   -1    0    0  501    0  0.00000000000E+00  0.00000000000E+00 -0.16220638784E+04  0.16220638784E+04  0.25500000920E-02 0. -1.
    10030    2    1    2    0    0  0.00000000000E+00  0.00000000000E+00 -0.10253363364E+04  0.22187914204E+04  0.19676688656E+04 0.  0.
        2    1    3    3  502    0 -0.38178062287E+03 -0.19465247101E+03  0.48595396326E+03  0.64791765132E+03  0.25500000920E-02 0.  1.
       -2    1    3    3    0  502  0.38178062287E+03  0.19465247101E+03 -0.15112902997E+04  0.15708737691E+04  0.25500000920E-02 0. -1.
</event>
<event>
 5   0  0.1664168E-04  0.1962277E+04  0.7818609E-02  0.8624463E-01
       -1   -1    0    0    0  501  0.00000000000E+00  0.00000000000E+00  0.72012825414E+03  0.72012825416E+03  0.50400001928E-02 0. -1.
        1   -1    0    0  501    0  0.00000000000E+00  0.00000000000E+00 -0.13367523440E+04  0.13367523441E+04  0.50400001928E-02 0.  1.
    10030    2    1    2    0    0  0.00000000000E+00  0.00000000000E+00 -0.61662408991E+03  0.20568805982E+04  0.19622773828E+04 0.  0.
        5    1    3    3  502    0 -0.39498848083E+03  0.61265301459E+03  0.38004530707E+03  0.82208037423E+03  0.46999998093E+01 0. -1.
       -5    1    3    3    0  502  0.39498848083E+03 -0.61265301459E+03 -0.99666939698E+03  0.12348002240E+04  0.46999998093E+01 0.  1.
</event>
<event>
 5   0  0.1696052E-04  0.2040155E+04  0.7818609E-02  0.8588074E-01
        1   -1    0    0  501    0  0.00000000000E+00  0.00000000000E+00  0.19885802059E+04  0.19885802059E+04  0.50400001928E-02 0. -1.
       -1   -1    0    0    0  501  0.00000000000E+00  0.00000000000E+00 -0.52326678240E+03  0.52326678242E+03  0.50400001928E-02 0.  1.
    10030    2    1    2    0    0  0.00000000000E+00  0.00000000000E+00  0.14653134235E+04  0.25118469883E+04  0.20401548627E+04 0.  0.
        4    1    3    3  502    0  0.14380655695E+03  0.52659891476E+03  0.17936157855E+04  0.18748455781E+04  0.12699999809E+01 0. -1.
       -4    1    3    3    0  502 -0.14380655695E+03 -0.52659891476E+03 -0.32830236199E+03  0.63700141023E+03  0.12699999809E+01 0.  1.
</event>
<event>
 5   0  0.3371947E-04  0.1958443E+04  0.7818609E-02  0.8626300E-01
       -2   -1    0    0    0  501  0.00000000000E+00  0.00000000000E+00  0.71320630320E+03  0.71320630320E+03  0.25500000920E-02 0.  1.
        2   -1    0    0  501    0  0.00000000000E+00  0.00000000000E+00 -0.13444564504E+04  0.13444564504E+04  0.25500000920E-02 0. -1.
    10030    2    1    2    0    0  0.00000000000E+00  0.00000000000E+00 -0.63125014721E+03  0.20576627536E+04  0.19584430702E+04 0.  0.
        2    1    3    3  502    0  0.33399630242E+03  0.40320179651E+03 -0.11850440941E+04  0.12955518992E+04  0.25500000920E-02 0. -1.
       -2    1    3    3    0  502 -0.33399630242E+03 -0.40320179651E+03  0.55379394687E+03  0.76211085436E+03  0.25500000920E-02 0.  1.
</event>
<event>
 5   0  0.3371947E-04  0.2010221E+04  0.7818609E-02  0.8601857E-01
        2   -1    0    0  501    0  0.00000000000E+00  0.00000000000E+00  0.19007588762E+04  0.19007588762E+04  0.25500000920E-02 0. -1.
       -2   -1    0    0    0  501  0.00000000000E+00  0.00000000000E+00 -0.53149668688E+03  0.53149668689E+03  0.25500000920E-02 0.  1.
    10030    2    1    2    0    0  0.00000000000E+00  0.00000000000E+00  0.13692621893E+04  0.24322555631E+04  0.20102209284E+04 0.  0.
        2    1    3    3  502    0  0.98466822829E+02 -0.19052365877E+03  0.18727521825E+04  0.18849922325E+04  0.25500000920E-02 0. -1.
       -2    1    3    3    0  502 -0.98466822829E+02  0.19052365877E+03 -0.50348999316E+03  0.54726333055E+03  0.25500000920E-02 0.  1.
</event>
<event>
 5   0  0.3431030E-04  0.2296602E+04  0.7818609E-02  0.8479262E-01
        2   -1    0    0  501    0  0.00000000000E+00  0.00000000000E+00  0.13371009548E+04  0.13371009548E+04  0.25500000920E-02 0. -1.
       -2   -1    0    0    0  501  0.00000000000E+00  0.00000000000E+00 -0.98615965582E+03  0.98615965582E+03  0.25500000920E-02 0.  1.
    10030    2    1    2    0    0  0.00000000000E+00  0.00000000000E+00  0.35094129900E+03  0.23232606106E+04  0.22966018527E+04 0.  0.
        3    1    3    3  502    0 -0.86571109324E+03  0.29589369790E+03  0.87749026751E+03  0.12676742315E+04  0.10100000352E+00 0. -1.
       -3    1    3    3    0  502  0.86571109324E+03 -0.29589369790E+03 -0.52654896851E+03  0.10555863792E+04  0.10100000352E+00 0.  1.
</event>
<event>
 5   0  0.1643565E-04  0.1960588E+04  0.7818609E-02  0.8625272E-01
       -1   -1    0    0    0  501  0.00000000000E+00  0.00000000000E+00  0.91761928738E+03  0.91761928739E+03  0.50400001928E-02 0. -1.
        1   -1    0    0  501    0  0.00000000000E+00  0.00000000000E+00 -0.10472492071E+04  0.10472492071E+04  0.50400001928E-02 0.  1.
    10030    2    1    2    0    0  0.00000000000E+00  0.00000000000E+00 -0.12962991974E+03  0.19648684945E+04  0.19605877396E+04 0.  0.
        2    1    3    3  502    0  0.53739807997E+03  0.20251459595E+03  0.73137999621E+03  0.92990620859E+03  0.25500000920E-02 0. -1.
       -2    1    3    3    0  502 -0.53739807997E+03 -0.20251459595E+03 -0.86100991595E+03  0.10349622859E+04  0.25500000920E-02 0.  1.
</event>
<event>
 5   0  0.1650221E-04  0.1803500E+04  0.7818609E-02  0.8704440E-01
        1   -1    0    0  501    0  0.00000000000E+00  0.00000000000E+00  0.16492137929E+04  0.16492137929E+04  0.50400001928E-02 0.  1.
       -1   -1    0    0    0  501  0.00000000000E+00  0.00000000000E+00 -0.49305509048E+03  0.49305509050E+03  0.50400001928E-02 0. -1.
    10030    2    1    2    0    0  0.00000000000E+00  0.00000000000E+00  0.11561587024E+04  0.21422688834E+04  0.18035002145E+04 0.  0.
        1    1    3    3  502    0  0.61340402854E+01 -0.83498923693E+02  0.16445870028E+04  0.16467167657E+04  0.50400001928E-02 0.  1.
       -1    1    3    3    0  502 -0.61340402854E+01  0.83498923693E+02 -0.48842830038E+03  0.49555211769E+03  0.50400001928E-02 0. -1.
</event>
<event>
 5   0  0.3371947E-04  0.2017059E+04  0.7818609E-02  0.8598686E-01
        2   -1    0    0  501    0  0.00000000000E+00  0.00000000000E+00  0.89416159724E+03  0.89416159725E+03  0.25500000920E-02 0.  1.
       -2   -1    0    0    0  501  0.00000000000E+00  0.00000000000E+00 -0.11375262099E+04  0.11375262099E+04  0.25500000920E-02 0. -1.
    10030    2    1    2    0    0  0.00000000000E+00  0.00000000000E+00 -0.24336461262E+03  0.20316878071E+04  0.20170594961E+04 0.  0.
        2    1    3    3  502    0 -0.32791080522E+03 -0.79652681844E+03 -0.65003561596E+03  0.10791324157E+04  0.25500000920E-02 0. -1.
       -2    1    3    3    0  502  0.32791080522E+03  0.79652681844E+03  0.40667100334E+03  0.95255539138E+03  0.25500000920E-02 0.  1.
</event>
<event>
 5   0  0.3460648E-04  0.2042108E+04  0.7818609E-02  0.8587183E-01
        2   -1    0    0  501    0  0.00000000000E+00  0.00000000000E+00  0.10934945030E+04  0.10934945030E+04  0.25500000920E-02 0. -1.
       -2   -1    0    0    0  501  0.00000000000E+00  0.00000000000E+00 -0.95341217907E+03  0.95341217907E+03  0.25500000920E-02 0.  1.
    10030    2    1    2    0    0  0.00000000000E+00  0.00000000000E+00  0.14008232392E+03  0.20469066821E+04  0.20421077121E+04 0.  0.
        5    1    3    3  502    0  0.14327288992E+03  0.41586124868E+03 -0.85356940444E+03  0.96024502984E+03  0.46999998093E+01 0.  1.
       -5    1    3    3    0  502 -0.14327288992E+03 -0.41586124868E+03  0.99365172836E+03  0.10866616522E+04  0.46999998093E+01 0. -1.
</event>
<event>
 5   0  0.1643565E-04  0.2016239E+04  0.7818609E-02  0.8599066E-01
        1   -1    0    0  501    0  0.00000000000E+00  0.00000000000E+00  0.14472644928E+04  0.14472644929E+04  0.50400001928E-02 0.  1.
       -1   -1    0    0    0  501  0.00000000000E+00  0.00000000000E+00 -0.70222479347E+03  0.70222479349E+03  0.50400001928E-02 0. -1.
    10030    2    1    2    0    0  0.00000000000E+00  0.00000000000E+00  0.74503969938E+03  0.21494892863E+04  0.20162390827E+04 0.  0.
        2    1    3    3  502    0  0.82826263525E+02  0.94022895214E+03 -0.50235217304E+01  0.94388341872E+03  0.25500000920E-02 0. -1.
       -2    1    3    3    0  502 -0.82826263525E+02 -0.94022895214E+03  0.75006322111E+03  0.12056058676E+04  0.25500000920E-02 0.  1.
</event>
<event>
 5   0  0.1664168E-04  0.1564241E+04  0.7818609E-02  0.8842823E-01
        1   -1    0    0  501    0  0.00000000000E+00  0.00000000000E+00  0.87109092703E+03  0.87109092705E+03  0.50400001928E-02 0.  1.
       -1   -1    0    0    0  501  0.00000000000E+00  0.00000000000E+00 -0.70223700547E+03  0.70223700549E+03  0.50400001928E-02 0. -1.
    10030    2    1    2    0    0  0.00000000000E+00  0.00000000000E+00  0.16885392156E+03  0.15733279325E+04  0.15642407540E+04 0.  0.
        5    1    3    3  502    0 -0.19893426965E+03 -0.94075394009E+02  0.83929685529E+03  0.86767869900E+03  0.46999998093E+01 0.  1.
       -5    1    3    3    0  502  0.19893426965E+03  0.94075394009E+02 -0.67044293373E+03  0.70564923353E+03  0.46999998093E+01 0. -1.
</event>
<event>
 5   0  0.3395569E-04  0.1759422E+04  0.7818609E-02  0.8728181E-01
        2   -1    0    0  501    0  0.00000000000E+00  0.00000000000E+00  0.54352796322E+03  0.54352796322E+03  0.25500000920E-02 0.  1.
       -2   -1    0    0    0  501  0.00000000000E+00  0.00000000000E+00 -0.14238301261E+04  0.14238301261E+04  0.25500000920E-02 0. -1.
    10030    2    1    2    0    0  0.00000000000E+00  0.00000000000E+00 -0.88030216292E+03  0.19673580894E+04  0.17594220511E+04 0.  0.
        4    1    3    3  502    0 -0.57433656700E+03  0.57850801345E+03 -0.70378744337E+02  0.81822294906E+03  0.12699999809E+01 0.  1.
       -4    1    3    3    0  502  0.57433656700E+03 -0.57850801345E+03 -0.80992341858E+03  0.11491351403E+04  0.12699999809E+01 0. -1.
</event>
<event>
 5   0  0.1708578E-04  0.2004684E+04  0.7818609E-02  0.8604434E-01
       -1   -1    0    0    0  501  0.00000000000E+00  0.00000000000E+00  0.14647384950E+04  0.14647384950E+04  0.50400001928E-02 0.  1.
        1   -1    0    0  501    0  0.00000000000E+00  0.00000000000E+00 -0.68591708375E+03  0.68591708377E+03  0.50400001928E-02 0. -1.
    10030    2    1    2    0    0  0.00000000000E+00  0.00000000000E+00  0.77882141122E+03  0.21506555788E+04  0.20046836728E+04 0.  0.
        3    1    3    3  502    0  0.47999413115E+03 -0.74867771777E+03 -0.10661587302E+03  0.89570064508E+03  0.10100000352E+00 0. -1.
       -3    1    3    3    0  502 -0.47999413115E+03  0.74867771777E+03  0.88543728425E+03  0.12549549337E+04  0.10100000352E+00 0.  1.
</event>
<event>
 5   0  0.1643565E-04  0.1748678E+04  0.7818609E-02  0.8734078E-01
        1   -1    0    0  501    0  0.00000000000E+00  0.00000000000E+00  0.10469103070E+04  0.10469103070E+04  0.50400001928E-02 0.  1.
       -1   -1    0    0    0  501  0.00000000000E+00  0.00000000000E+00 -0.73021426342E+03  0.73021426344E+03  0.50400001928E-02 0. -1.
    10030    2    1    2    0    0  0.00000000000E+00  0.00000000000E+00  0.31669604360E+03  0.17771245705E+04  0.17486781736E+04 0.  0.
        2    1    3    3  502    0  0.27056672255E+03  0.40532493497E+03  0.89608686823E+03  0.10200325140E+04  0.25500000920E-02 0.  1.
       -2    1    3    3    0  502 -0.27056672255E+03 -0.40532493497E+03 -0.57939082463E+03  0.75709205644E+03  0.25500000920E-02 0. -1.
</event>
<event>
 5   0  0.3371947E-04  0.1935622E+04  0.7818609E-02  0.8637325E-01
        2   -1    0    0  501    0  0.00000000000E+00  0.00000000000E+00  0.14026711353E+04  0.14026711353E+04  0.25500000920E-02 0. -1.
       -2   -1    0    0    0  501  0.00000000000E+00  0.00000000000E+00 -0.66776735990E+03  0.66776735991E+03  0.25500000920E-02 0.  1.
    10030    2    1    2    0    0  0.00000000000E+00  0.00000000000E+00  0.73490377542E+03  0.20704384952E+04  0.19356218648E+04 0.  0.
        2    1    3    3  502    0  0.76891266992E+03  0.58749785830E+03  0.38527283224E+03  0.10415448059E+04  0.25500000920E-02 0. -1.
       -2    1    3    3    0  502 -0.76891266992E+03 -0.58749785830E+03  0.34963094318E+03  0.10288936893E+04  0.25500000920E-02 0.  1.
</event>
<event>
 5   0  0.3460648E-04  0.2028345E+04  0.7818609E-02  0.8593482E-01
        2   -1    0    0  501    0  0.00000000000E+00  0.00000000000E+00  0.12382306471E+04  0.12382306471E+04  0.25500000920E-02 0.  1.
       -2   -1    0    0    0  501  0.00000000000E+00  0.00000000000E+00 -0.83065801631E+03  0.83065801632E+03  0.25500000920E-02 0. -1.
    10030    2    1    2    0    0  0.00000000000E+00  0.00000000000E+00  0.40757263081E+03  0.20688886634E+04  0.20283453484E+04 0.  0.
        5    1    3    3  502    0  0.90374257335E+03  0.36892982076E+03 -0.76783306628E+02  0.97917190406E+03  0.46999998093E+01 0. -1.
       -5    1    3    3    0  502 -0.90374257335E+03 -0.36892982076E+03  0.48435593743E+03  0.10897167594E+04  0.46999998093E+01 0.  1.
</event>
<event>
 5   0  0.1696052E-04  0.2019855E+04  0.7818609E-02  0.8597394E-01
        1   -1    0    0  501    0  0.00000000000E+00  0.00000000000E+00  0.12444315495E+04  0.12444315495E+04  0.50400001928E-02 0. -1.
       -1   -1    0    0    0  501  0.00000000000E+00  0.00000000000E+00 -0.81961378188E+03  0.81961378190E+03  0.50400001928E-02 0.  1.
    10030    2    1    2    0    0  0.00000000000E+00  0.00000000000E+00  0.42481776765E+03  0.20640453314E+04  0.20198546964E+04 0.  0.
        4    1    3    3  502    0  0.71917646609E+03  0.52950501170E+03 -0.26945979040E+03  0.93284539894E+03  0.12699999809E+01 0.  1.
       -4    1    3    3    0  502 -0.71917646609E+03 -0.52950501170E+03  0.69427755804E+03  0.11311999325E+04  0.12699999809E+01 0. -1.
</event>
<event>
 5   0  0.3460648E-04  0.2039765E+04  0.7818609E-02  0.8588251E-01
        2   -1    0    0  501    0  0.00000000000E+00  0.00000000000E+00  0.25159547656E+04  0.25159547656E+04  0.25500000920E-02 0.  1.
       -2   -1    0    0    0  501  0.00000000000E+00  0.00000000000E+00 -0.41342582856E+03  0.41342582857E+03  0.25500000920E-02 0. -1.
    10030    2    1    2    0    0  0.00000000000E+00  0.00000000000E+00  0.21025289370E+04  0.29293805942E+04  0.20397653626E+04 0.  0.
        5    1    3    3  502    0 -0.32079828964E+03 -0.94215009589E+03  0.13710434640E+04  0.16942079612E+04  0.46999998093E+01 0. -1.
       -5    1    3    3    0  502  0.32079828964E+03  0.94215009589E+03  0.73148547305E+03  0.12351726329E+04  0.46999998093E+01 0.  1.
</event>
<event>
 5   0  0.1708578E-04  0.1982543E+04  0.7818609E-02  0.8614826E-01
       -1   -1    0    0    0  501  0.00000000000E+00  0.00000000000E+00  0.60937538513E+03  0.60937538515E+03  0.50400001928E-02 0.  1.
        1   -1    0    0  501    0  0.00000000000E+00  0.00000000000E+00 -0.16125027416E+04  0.16125027416E+04  0.50400001928E-02 0. -1.
    10030    2    1    2    0    0  0.00000000000E+00  0.00000000000E+00 -0.10031273565E+04  0.22218781268E+04  0.19825432951E+04 0.  0.
        3    1    3    3  502    0  0.34929681330E+03  0.33103762506E+03  0.46967246536E+03  0.67244807078E+03  0.10100000352E+00 0.  1.
       -3    1    3    3    0  502 -0.34929681330E+03 -0.33103762506E+03 -0.14727998218E+04  0.15494300560E+04  0.10100000352E+00 0. -1.
</event>
<event>
 5   0  0.3371947E-04  0.1966040E+04  0.7818609E-02  0.8622665E-01
        2   -1    0    0  501    0  0.00000000000E+00  0.00000000000E+00  0.15730310931E+04  0.15730310931E+04  0.25500000920E-02 0.  1.
       -2   -1    0    0    0  501  0.00000000000E+00  0.00000000000E+00 -0.61430943839E+03  0.61430943840E+03  0.25500000920E-02 0. -1.
    10030    2    1    2    0    0  0.00000000000E+00  0.00000000000E+00  0.95872165470E+03  0.21873405315E+04  0.19660395188E+04 0.  0.
        2    1    3    3  502    0  0.71807854010E+03  0.10513182074E+03 -0.25832585964E+03  0.77033871722E+03  0.25500000920E-02 0. -1.
       -2    1    3    3    0  502 -0.71807854010E+03 -0.10513182074E+03  0.12170475143E+04  0.14170018143E+04  0.25500000920E-02 0.  1.
</event>
<event>
 5   0  0.3431030E-04  0.2003716E+04  0.7818609E-02  0.8604885E-01
        2   -1    0    0  501    0  0.00000000000E+00  0.00000000000E+00  0.20776276993E+04  0.20776276993E+04  0.25500000920E-02 0. -1.
       -2   -1    0    0    0  501  0.00000000000E+00  0.00000000000E+00 -0.48310861643E+03  0.48310861644E+03  0.25500000920E-02 0.  1.
    10030    2    1    2    0    0  0.00000000000E+00  0.00000000000E+00  0.15945190828E+04  0.25607363157E+04  0.20037163904E+04 0.  0.
        3    1    3    3  502    0 -0.85815585449E+03  0.47473595843E+03  0.53561670447E+03  0.11174484172E+04  0.10100000352E+00 0.  1.
       -3    1    3    3    0  502  0.85815585449E+03 -0.47473595843E+03  0.10589023784E+04  0.14432878985E+04  0.10100000352E+00 0. -1.
</event>
<event>
 5   0  0.3387881E-04  0.1992542E+04  0.7818609E-02  0.8610116E-01
        2   -1    0    0  501    0  0.00000000000E+00  0.00000000000E+00  0.20288461138E+04  0.20288461138E+04  0.25500000920E-02 0.  1.
       -2   -1    0    0    0  501  0.00000000000E+00  0.00000000000E+00 -0.48922178931E+03  0.48922178932E+03  0.25500000920E-02 0. -1.
    10030    2    1    2    0    0  0.00000000000E+00  0.00000000000E+00  0.15396243245E+04  0.25180679031E+04  0.19925418199E+04 0.  0.
        1    1    3    3  502    0  0.83726849162E+02 -0.66300450998E+03  0.17035922418E+04  0.18299758719E+04  0.50400001928E-02 0.  1.
       -1    1    3    3    0  502 -0.83726849162E+02  0.66300450998E+03 -0.16396791727E+03  0.68809203123E+03  0.50400001928E-02 0. -1.
</event>
<event>
 5   0  0.1650221E-04  0.2008342E+04  0.7818609E-02  0.8602730E-01
        1   -1    0    0  501    0  0.00000000000E+00  0.00000000000E+00  0.87456669401E+03  0.87456669402E+03  0.50400001928E-02 0. -1.
       -1   -1    0    0    0  501  0.00000000000E+00  0.00000000000E+00 -0.11529818320E+04  0.11529818321E+04  0.50400001928E-02 0.  1.
    10030    2    1    2    0    0  0.00000000000E+00  0.00000000000E+00 -0.27841513803E+03  0.20275485261E+04  0.20083421114E+04 0.  0.
        1    1    3    3  502    0  0.41861605681E+03  0.32466608195E+03  0.72201091623E+03  0.89551506462E+03  0.50400001928E-02 0. -1.
       -1    1    3    3    0  502 -0.41861605681E+03 -0.32466608195E+03 -0.10004260543E+04  0.11320334615E+04  0.50400001928E-02 0.  1.
</event>
<event>
 5   0  0.3431030E-04  0.2046264E+04  0.7818609E-02  0.8585291E-01
       -2   -1    0    0    0  501  0.00000000000E+00  0.00000000000E+00  0.61224581939E+03  0.61224581940E+03  0.25500000920E-02 0.  1.
        2   -1    0    0  501    0  0.00000000000E+00  0.00000000000E+00 -0.17097692258E+04  0.17097692258E+04  0.25500000920E-02 0. -1.
    10030    2    1    2    0    0  0.00000000000E+00  0.00000000000E+00 -0.10975234064E+04  0.23220150452E+04  0.20462639718E+04 0.  0.
        3    1    3    3  502    0 -0.16149968656E+03  0.61387062435E+03 -0.14593158105E+04  0.15913899388E+04  0.10100000352E+00 0. -1.
       -3    1    3    3    0  502  0.16149968656E+03 -0.61387062435E+03  0.36179240415E+03  0.73062510639E+03  0.10100000352E+00 0.  1.
</event>
<event>
 5   0  0.1696052E-04  0.2053826E+04  0.7818609E-02  0.8581860E-01
        1   -1    0    0  501    0  0.00000000000E+00  0.00000000000E+00  0.12307218097E+04  0.12307218097E+04  0.50400001928E-02 0. -1.
       -1   -1    0    0    0  501  0.00000000000E+00  0.00000000000E+00 -0.85685543793E+03  0.85685543795E+03  0.50400001928E-02 0.  1.
    10030    2    1    2    0    0  0.00000000000E+00  0.00000000000E+00  0.37386637175E+03  0.20875772476E+04  0.20538263561E+04 0.  0.
        4    1    3    3  502    0  0.90817303850E+03  0.33495490773E+03 -0.16159522059E+03  0.98137031048E+03  0.12699999809E+01 0.  1.
       -4    1    3    3    0  502 -0.90817303850E+03 -0.33495490773E+03  0.53546159234E+03  0.11062069372E+04  0.12699999809E+01 0. -1.
</event>
<event>
 5   0  0.3460648E-04  0.2069575E+04  0.7818609E-02  0.8574766E-01
       -2   -1    0    0    0  501  0.00000000000E+00  0.00000000000E+00  0.78536669188E+03  0.78536669189E+03  0.25500000920E-02 0. -1.
        2   -1    0    0  501    0  0.00000000000E+00  0.00000000000E+00 -0.13634202596E+04  0.13634202596E+04  0.25500000920E-02 0.  1.
    10030    2    1    2    0    0  0.00000000000E+00  0.00000000000E+00 -0.57805356776E+03  0.21487869515E+04  0.20695746993E+04 0.  0.
        5    1    3    3  502    0 -0.29736864463E+03  0.84317596365E+03  0.25186244610E+03  0.92888675211E+03  0.46999998093E+01 0. -1.
       -5    1    3    3    0  502  0.29736864463E+03 -0.84317596365E+03 -0.82991601386E+03  0.12199001994E+04  0.46999998093E+01 0.  1.
</event>
<event>
 5   0  0.1696052E-04  0.2087549E+04  0.7818609E-02  0.8566748E-01
       -1   -1    0    0    0  501  0.00000000000E+00  0.00000000000E+00  0.98646487253E+03  0.98646487254E+03  0.50400001928E-02 0. -1.
        1   -1    0    0  501    0  0.00000000000E+00  0.00000000000E+00 -0.11044139523E+04  0.11044139523E+04  0.50400001928E-02 0.  1.
    10030    2    1    2    0    0  0.00000000000E+00  0.00000000000E+00 -0.11794907974E+03  0.20908788248E+04  0.20875493466E+04 0.  0.
        4    1    3    3  502    0 -0.61987216740E+03 -0.29311535313E+03  0.72924047260E+03  0.10009752214E+04  0.12699999809E+01 0. -1.
       -4    1    3    3    0  502  0.61987216740E+03  0.29311535313E+03 -0.84718955234E+03  0.10899036034E+04  0.12699999809E+01 0.  1.
</event>
<event>
 5   0  0.1708578E-04  0.1983552E+04  0.7818609E-02  0.8614350E-01
        1   -1    0    0  501    0  0.00000000000E+00  0.00000000000E+00  0.12817711534E+04  0.12817711534E+04  0.50400001928E-02 0. -1.
       -1   -1    0    0    0  501  0.00000000000E+00  0.00000000000E+00 -0.76739077850E+03  0.76739077852E+03  0.50400001928E-02 0.  1.
    10030    2    1    2    0    0  0.00000000000E+00  0.00000000000E+00  0.51438037490E+03  0.20491619319E+04  0.19835517269E+04 0.  0.
        3    1    3    3  502    0 -0.84739285261E+02  0.61136340920E+00 -0.76364383731E+03  0.76833133523E+03  0.10100000352E+00 0.  1.
       -3    1    3    3    0  502  0.84739285261E+02 -0.61136340920E+00  0.12780242122E+04  0.12808305967E+04  0.10100000352E+00 0. -1.
</event>
<event>
 5   0  0.3387881E-04  0.1343420E+04  0.7818609E-02  0.8995824E-01
       -2   -1    0    0    0  501  0.00000000000E+00  0.00000000000E+00  0.45565349804E+03  0.45565349804E+03  0.25500000920E-02 0. -1.
        2   -1    0    0  501    0  0.00000000000E+00  0.00000000000E+00 -0.99021431057E+03  0.99021431058E+03  0.25500000920E-02 0.  1.
    10030    2    1    2    0    0  0.00000000000E+00  0.00000000000E+00 -0.53456081254E+03  0.14458678086E+04  0.13434204322E+04 0.  0.
        1    1    3    3  502    0 -0.57191999253E+03  0.31809802095E+03 -0.43020401255E+03  0.78316940775E+03  0.50400001928E-02 0.  1.
       -1    1    3    3    0  502  0.57191999253E+03 -0.31809802095E+03 -0.10435679998E+03  0.66269840087E+03  0.50400001928E-02 0. -1.
</event>
<event>
 5   0  0.3395569E-04  0.2005131E+04  0.7818609E-02  0.8604226E-01
       -2   -1    0    0    0  501  0.00000000000E+00  0.00000000000E+00  0.35767418433E+03  0.35767418434E+03  0.25500000920E-02 0.  1.
        2   -1    0    0  501    0  0.00000000000E+00  0.00000000000E+00 -0.28102034429E+04  0.28102034429E+04  0.25500000920E-02 0. -1.
    10030    2    1    2    0    0  0.00000000000E+00  0.00000000000E+00 -0.24525292586E+04  0.31678776273E+04  0.20051306434E+04 0.  0.
        4    1    3    3  502    0 -0.15165377218E+03 -0.90827245657E+03 -0.59990833074E+03  0.10990219926E+04  0.12699999809E+01 0.  1.
       -4    1    3    3    0  502  0.15165377218E+03  0.90827245657E+03 -0.18526209279E+04  0.20688556347E+04  0.12699999809E+01 0. -1.
</event>
<event>
 5   0  0.3431030E-04  0.1995253E+04  0.7818609E-02  0.8608843E-01
       -2   -1    0    0    0  501  0.00000000000E+00  0.00000000000E+00  0.21277203344E+04  0.21277203344E+04  0.25500000920E-02 0.  1.
        2   -1    0    0  501    0  0.00000000000E+00  0.00000000000E+00 -0.46775841020E+03  0.46775841021E+03  0.25500000920E-02 0. -1.
    10030    2    1    2    0    0  0.00000000000E+00  0.00000000000E+00  0.16599619242E+04  0.25954787447E+04  0.19952534486E+04 0.  0.
        3    1    3    3  502    0 -0.24092897937E+03 -0.56460279796E+03 -0.19299818310E+03  0.64348380045E+03  0.10100000352E+00 0. -1.
       -3    1    3    3    0  502  0.24092897937E+03  0.56460279796E+03  0.18529601073E+04  0.19519949442E+04  0.10100000352E+00 0.  1.
</event>
<event>
 5   0  0.1696052E-04  0.9845131E+03  0.7818609E-02  0.9325696E-01
       -1   -1    0    0    0  501  0.00000000000E+00  0.00000000000E+00  0.74264600632E+03  0.74264600633E+03  0.50400001928E-02 0.  1.
        1   -1    0    0  501    0  0.00000000000E+00  0.00000000000E+00 -0.32628801515E+03  0.32628801518E+03  0.50400001928E-02 0. -1.
    10030    2    1    2    0    0  0.00000000000E+00  0.00000000000E+00  0.41635799117E+03  0.10689340215E+04  0.98451306012E+03 0.  0.
        4    1    3    3  502    0 -0.76527050524E+02  0.36645552936E+02  0.73464475921E+03  0.73952945928E+03  0.12699999809E+01 0.  1.
       -4    1    3    3    0  502  0.76527050524E+02 -0.36645552936E+02 -0.31828676804E+03  0.32940456223E+03  0.12699999809E+01 0. -1.
</event>
<event>
 5   0  0.1643565E-04  0.1312592E+04  0.7818609E-02  0.9019639E-01
        1   -1    0    0  501    0  0.00000000000E+00  0.00000000000E+00  0.92201214726E+03  0.92201214727E+03  0.50400001928E-02 0. -1.
       -1   -1    0    0    0  501  0.00000000000E+00  0.00000000000E+00 -0.46715675388E+03  0.46715675391E+03  0.50400001928E-02 0.  1.
    10030    2    1    2    0    0  0.00000000000E+00  0.00000000000E+00  0.45485539337E+03  0.13891689012E+04  0.13125916376E+04 0.  0.
        2    1    3    3  502    0  0.77808890093E+02 -0.64891946214E+03  0.16416132573E+03  0.67386915094E+03  0.25500000920E-02 0.  1.
       -2    1    3    3    0  502 -0.77808890093E+02  0.64891946214E+03  0.29069406765E+03  0.71529975024E+03  0.25500000920E-02 0. -1.
</event>
<event>
 5   0  0.3460648E-04  0.2019971E+04  0.7818609E-02  0.8597340E-01
        2   -1    0    0  501    0  0.00000000000E+00  0.00000000000E+00  0.23208139481E+04  0.23208139481E+04  0.25500000920E-02 0. -1.
       -2   -1    0    0    0  501  0.00000000000E+00  0.00000000000E+00 -0.43953127183E+03  0.43953127183E+03  0.25500000920E-02 0.  1.
    10030    2    1    2    0    0  0.00000000000E+00  0.00000000000E+00  0.18812826763E+04  0.27603452199E+04  0.20199706001E+04 0.  0.
        5    1    3    3  502    0 -0.41952556749E+03 -0.24808282061E+03 -0.26817666986E+03  0.55631610072E+03  0.46999998093E+01 0.  1.
       -5    1    3    3    0  502  0.41952556749E+03  0.24808282061E+03  0.21494593461E+04  0.22040291192E+04  0.46999998093E+01 0. -1.
</event>
<event>
 5   0  0.1650221E-04  0.1430122E+04  0.7818609E-02  0.8932299E-01
       -1   -1    0    0    0  501  0.00000000000E+00  0.00000000000E+00  0.53165398045E+03  0.53165398047E+03  0.50400001928E-02 0. -1.
        1   -1    0    0  501    0  0.00000000000E+00  0.00000000000E+00 -0.96173902714E+03  0.96173902715E+03  0.50400001928E-02 0.  1.
    10030    2    1    2    0    0  0.00000000000E+00  0.00000000000E+00 -0.43008504669E+03  0.14933930076E+04  0.14301222073E+04 0.  0.
        1    1    3    3  502    0 -0.54695742056E+03 -0.32637488231E+03  0.12434304099E+03  0.64895622008E+03  0.50400001928E-02 0. -1.
       -1    1    3    3    0  502  0.54695742056E+03  0.32637488231E+03 -0.55442808768E+03  0.84443678754E+03  0.50400001928E-02 0.  1.
</event>
<event>
 5   0  0.3431030E-04  0.1980970E+04  0.7818609E-02  0.8615570E-01
       -2   -1    0    0    0  501  0.00000000000E+00  0.00000000000E+00  0.47965508144E+03  0.47965508144E+03  0.25500000920E-02 0.  1.
        2   -1    0    0  501    0  0.00000000000E+00  0.00000000000E+00 -0.20453461350E+04  0.20453461350E+04  0.25500000920E-02 0. -1.
    10030    2    1    2    0    0  0.00000000000E+00  0.00000000000E+00 -0.15656910536E+04  0.25250012165E+04  0.19809701330E+04 0.  0.
        3    1    3    3  502    0  0.79509254821E+03  0.59016768721E+03 -0.81382182187E+03  0.12817082457E+04  0.10100000352E+00 0. -1.
       -3    1    3    3    0  502 -0.79509254821E+03 -0.59016768721E+03 -0.75186923173E+03  0.12432929707E+04  0.10100000352E+00 0.  1.
</event>
<event>
 5   0  0.1643565E-04  0.2155629E+04  0.7818609E-02  0.8537127E-01
       -1   -1    0    0    0  501  0.00000000000E+00  0.00000000000E+00  0.75869990683E+03  0.75869990684E+03  0.50400001928E-02 0. -1.
        1   -1    0    0  501    0  0.00000000000E+00  0.00000000000E+00 -0.15311511826E+04  0.15311511826E+04  0.50400001928E-02 0.  1.
    10030    2    1    2    0    0  0.00000000000E+00  0.00000000000E+00 -0.77245127580E+03  0.22898510895E+04  0.21556291514E+04 0.  0.
        2    1    3    3  502    0  0.63277367518E+02 -0.43820955843E+02 -0.15282280330E+04  0.15301650964E+04  0.25500000920E-02 0.  1.
       -2    1    3    3    0  502 -0.63277367518E+02  0.43820955843E+02  0.75577675718E+03  0.75968599309E+03  0.25500000920E-02 0. -1.
</event>
<event>
 5   0  0.1696052E-04  0.2002019E+04  0.7818609E-02  0.8605677E-01
        1   -1    0    0  501    0  0.00000000000E+00  0.00000000000E+00  0.10463629248E+04  0.10463629248E+04  0.50400001928E-02 0. -1.
       -1   -1    0    0    0  501  0.00000000000E+00  0.00000000000E+00 -0.95762165910E+03  0.95762165911E+03  0.50400001928E-02 0.  1.
    10030    2    1    2    0    0  0.00000000000E+00  0.00000000000E+00  0.88741265728E+02  0.20039845839E+04  0.20020187812E+04 0.  0.
        4    1    3    3  502    0  0.65713830362E+03 -0.17391830459E+03  0.77989814831E+03  0.10345632225E+04  0.12699999809E+01 0. -1.
       -4    1    3    3    0  502 -0.65713830362E+03  0.17391830459E+03 -0.69115688258E+03  0.96942136143E+03  0.12699999809E+01 0.  1.
</event>
<event>
 5   0  0.1222488E-04  0.1907779E+04  0.7818609E-02  0.8650994E-01
        3   -1    0    0  501    0  0.00000000000E+00  0.00000000000E+00  0.12639500115E+04  0.12639500156E+04  0.10100000352E+00 0. -1.
       -3   -1    0    0    0  501  0.00000000000E+00  0.00000000000E+00 -0.71989045777E+03  0.71989046485E+03  0.10100000352E+00 0.  1.
    10030    2    1    2    0    0  0.00000000000E+00  0.00000000000E+00  0.54405955378E+03  0.19838404804E+04  0.19077794039E+04 0.  0.
        1    1    3    3  502    0 -0.90969715159E+03 -0.10003724247E+03  0.55173171544E+03  0.10686272705E+04  0.50400001928E-02 0. -1.
       -1    1    3    3    0  502  0.90969715159E+03  0.10003724247E+03 -0.76721616591E+01  0.91521320990E+03  0.50400001928E-02 0.  1.
</event>
<event>
 5   0  0.3395569E-04  0.1644789E+04  0.7818609E-02  0.8793495E-01
        2   -1    0    0  501    0  0.00000000000E+00  0.00000000000E+00  0.20175000301E+04  0.20175000301E+04  0.25500000920E-02 0.  1.
       -2   -1    0    0    0  501  0.00000000000E+00  0.00000000000E+00 -0.33523286620E+03  0.33523286621E+03  0.25500000920E-02 0. -1.
    10030    2    1    2    0    0  0.00000000000E+00  0.00000000000E+00  0.16822671639E+04  0.23527328963E+04  0.16447885185E+04 0.  0.
        4    1    3    3  502    0 -0.24726813176E+02  0.59456833962E+03  0.16530859818E+04  0.17569342054E+04  0.12699999809E+01 0.  1.
       -4    1    3    3    0  502  0.24726813176E+02 -0.59456833962E+03  0.29181182010E+02  0.59579869088E+03  0.12699999809E+01 0. -1.
</event>
<event>
 5   0  0.1664168E-04  0.1909065E+04  0.7818609E-02  0.8650357E-01
        1   -1    0    0  501    0  0.00000000000E+00  0.00000000000E+00  0.13077811821E+04  0.13077811821E+04  0.50400001928E-02 0.  1.
       -1   -1    0    0    0  501  0.00000000000E+00  0.00000000000E+00 -0.69670062528E+03  0.69670062530E+03  0.50400001928E-02 0. -1.
    10030    2    1    2    0    0  0.00000000000E+00  0.00000000000E+00  0.61108055685E+03  0.20044818074E+04  0.19090646583E+04 0.  0.
        5    1    3    3  502    0 -0.87555731155E+02  0.88145129346E+03  0.67896689175E+03  0.11160826667E+04  0.46999998093E+01 0.  1.
       -5    1    3    3    0  502  0.87555731155E+02 -0.88145129346E+03 -0.67886334903E+02  0.88839914074E+03  0.46999998093E+01 0. -1.
</event>
<event>
 5   0  0.3371947E-04  0.1959029E+04  0.7818609E-02  0.8626019E-01
       -2   -1    0    0    0  501  0.00000000000E+00  0.00000000000E+00  0.54345051816E+03  0.54345051817E+03  0.25500000920E-02 0. -1.
        2   -1    0    0  501    0  0.00000000000E+00  0.00000000000E+00 -0.17654755328E+04  0.17654755328E+04  0.25500000920E-02 0.  1.
    10030    2    1    2    0    0  0.00000000000E+00  0.00000000000E+00 -0.12220250146E+04  0.23089260510E+04  0.19590289361E+04 0.  0.
        2    1    3    3  502    0 -0.61400375820E+03 -0.72609025614E+03 -0.88802516652E+03  0.13010750830E+04  0.25500000920E-02 0. -1.
       -2    1    3    3    0  502  0.61400375820E+03  0.72609025614E+03 -0.33399984811E+03  0.10078509680E+04  0.25500000920E-02 0.  1.
</event>
<event>
 5   0  0.1696052E-04  0.2019344E+04  0.7818609E-02  0.8597630E-01
       -1   -1    0    0    0  501  0.00000000000E+00  0.00000000000E+00  0.54537445726E+03  0.54537445728E+03  0.50400001928E-02 0. -1.
        1   -1    0    0  501    0  0.00000000000E+00  0.00000000000E+00 -0.18692431678E+04  0.18692431678E+04  0.50400001928E-02 0.  1.
    10030    2    1    2    0    0  0.00000000000E+00  0.00000000000E+00 -0.13238687106E+04  0.24146176251E+04  0.20193439313E+04 0.  0.
        4    1    3    3  502    0 -0.10599095072E+03  0.45005669777E+03  0.41134180121E+03  0.61886089161E+03  0.12699999809E+01 0. -1.
       -4    1    3    3    0  502  0.10599095072E+03 -0.45005669777E+03 -0.17352105118E+04  0.17957567335E+04  0.12699999809E+01 0.  1.
</event>
<event>
 5   0  0.1650221E-04  0.2112911E+04  0.7818609E-02  0.8555577E-01
       -1   -1    0    0    0  501  0.00000000000E+00  0.00000000000E+00  0.75517759909E+03  0.75517759911E+03  0.50400001928E-02 0.  1.
        1   -1    0    0  501    0  0.00000000000E+00  0.00000000000E+00 -0.14779287737E+04  0.14779287737E+04  0.50400001928E-02 0. -1.
    10030    2    1    2    0    0  0.00000000000E+00  0.00000000000E+00 -0.72275117464E+03  0.22331063729E+04  0.21129114539E+04 0.  0.
        1    1    3    3  502    0 -0.43188719403E+02 -0.89411456990E+03  0.23160483153E+03  0.92463340174E+03  0.50400001928E-02 0.  1.
       -1    1    3    3    0  502  0.43188719403E+02  0.89411456990E+03 -0.95435600617E+03  0.13084729711E+04  0.50400001928E-02 0. -1.
</event>
<event>
 5   0  0.3371947E-04  0.1978499E+04  0.7818609E-02  0.8616740E-01
        2   -1    0    0  501    0  0.00000000000E+00  0.00000000000E+00  0.15875900903E+04  0.15875900903E+04  0.25500000920E-02 0.  1.
       -2   -1    0    0    0  501  0.00000000000E+00  0.00000000000E+00 -0.61641487347E+03  0.61641487348E+03  0.25500000920E-02 0. -1.
    10030    2    1    2    0    0  0.00000000000E+00  0.00000000000E+00  0.97117521685E+03  0.22040049638E+04  0.19784985668E+04 0.  0.
        2    1    3    3  502    0  0.48203926277E+03  0.31926657983E+03 -0.40859870922E+03  0.70798722095E+03  0.25500000920E-02 0. -1.
       -2    1    3    3    0  502 -0.48203926277E+03 -0.31926657983E+03  0.13797739261E+04  0.14960177429E+04  0.25500000920E-02 0.  1.
</event>
<event>
 5   0  0.3387881E-04  0.1980219E+04  0.7818609E-02  0.8615925E-01
        2   -1    0    0  501    0  0.00000000000E+00  0.00000000000E+00  0.81510924003E+03  0.81510924003E+03  0.25500000920E-02 0. -1.
       -2   -1    0    0    0  501  0.00000000000E+00  0.00000000000E+00 -0.12026812890E+04  0.12026812890E+04  0.25500000920E-02 0.  1.
    10030    2    1    2    0    0  0.00000000000E+00  0.00000000000E+00 -0.38757204898E+03  0.20177905290E+04  0.19802188076E+04 0.  0.
        1    1    3    3  502    0 -0.87884367063E+03  0.41384055967E+03  0.13851142602E+01  0.97140729089E+03  0.50400001928E-02 0.  1.
       -1    1    3    3    0  502  0.87884367063E+03 -0.41384055967E+03 -0.38895716324E+03  0.10463832382E+04  0.50400001928E-02 0. -1.
</event>
<event>
 5   0  0.1643565E-04  0.2030453E+04  0.7818609E-02  0.8592514E-01
       -1   -1    0    0    0  501  0.00000000000E+00  0.00000000000E+00  0.15531107612E+04  0.15531107612E+04  0.50400001928E-02 0.  1.
        1   -1    0    0  501    0  0.00000000000E+00  0.00000000000E+00 -0.66362620078E+03  0.66362620080E+03  0.50400001928E-02 0. -1.
    10030    2    1    2    0    0  0.00000000000E+00  0.00000000000E+00  0.88948456045E+03  0.22167369620E+04  0.20304531454E+04 0.  0.
        2    1    3    3  502    0  0.62897104679E+02  0.56892220405E+02  0.15492365428E+04  0.15515561981E+04  0.25500000920E-02 0.  1.
       -2    1    3    3    0  502 -0.62897104679E+02 -0.56892220405E+02 -0.65975198231E+03  0.66518076392E+03  0.25500000920E-02 0. -1.
</event>
<event>
 5   0  0.1650221E-04  0.2041836E+04  0.7818609E-02  0.8587307E-01
       -1   -1    0    0    0  501  0.00000000000E+00  0.00000000000E+00  0.34898342957E+03  0.34898342960E+03  0.50400001928E-02 0. -1.
        1   -1    0    0  501    0  0.00000000000E+00  0.00000000000E+00 -0.29866004506E+04  0.29866004506E+04  0.50400001928E-02 0.  1.
    10030    2    1    2    0    0  0.00000000000E+00  0.00000000000E+00 -0.26376170211E+04  0.33355838802E+04  0.20418364950E+04 0.  0.
        1    1    3    3  502    0  0.81798102347E+03  0.44964047765E+02 -0.32356098654E+03  0.88079874681E+03  0.50400001928E-02 0. -1.
       -1    1    3    3    0  502 -0.81798102347E+03 -0.44964047765E+02 -0.23140560345E+04  0.24547851334E+04  0.50400001928E-02 0.  1.
</event>
<event>
 5   0  0.1696052E-04  0.1933596E+04  0.7818609E-02  0.8638312E-01
        1   -1    0    0  501    0  0.00000000000E+00  0.00000000000E+00  0.87417967854E+03  0.87417967856E+03  0.50400001928E-02 0.  1.
       -1   -1    0    0    0  501  0.00000000000E+00  0.00000000000E+00 -0.10692294916E+04  0.10692294916E+04  0.50400001928E-02 0. -1.
    10030    2    1    2    0    0  0.00000000000E+00  0.00000000000E+00 -0.19504981302E+03  0.19434091701E+04  0.19335963314E+04 0.  0.
        4    1    3    3  502    0 -0.39861760711E+03  0.87974092730E+03 -0.54213471763E+02  0.96735764291E+03  0.12699999809E+01 0.  1.
       -4    1    3    3    0  502  0.39861760711E+03 -0.87974092730E+03 -0.14083634126E+03  0.97605152722E+03  0.12699999809E+01 0. -1.
</event>
<event>
 5   0  0.3395569E-04  0.1866676E+04  0.7818609E-02  0.8671624E-01
        2   -1    0    0  501    0  0.00000000000E+00  0.00000000000E+00  0.13611611681E+04  0.13611611681E+04  0.25500000920E-02 0.  1.
       -2   -1    0    0    0  501  0.00000000000E+00  0.00000000000E+00 -0.63998255421E+03  0.63998255422E+03  0.25500000920E-02 0. -1.
    10030    2    1    2    0    0  0.00000000000E+00  0.00000000000E+00  0.72117861390E+03  0.20011437223E+04  0.18666755487E+04 0.  0.
        4    1    3    3  502    0  0.53656557316E+03  0.76296346161E+03  0.39617590476E+03  0.10133966738E+04  0.12699999809E+01 0. -1.
       -4    1    3    3    0  502 -0.53656557316E+03 -0.76296346161E+03  0.32500270914E+03  0.98774704854E+03  0.12699999809E+01 0.  1.
</event>
<event>
 5   0  0.1708578E-04  0.1439162E+04  0.7818609E-02  0.8925949E-01
       -1   -1    0    0    0  501  0.00000000000E+00  0.00000000000E+00  0.20279598009E+03  0.20279598015E+03  0.50400001928E-02 0. -1.
        1   -1    0    0  501    0  0.00000000000E+00  0.00000000000E+00 -0.25532880139E+04  0.25532880139E+04  0.50400001928E-02 0.  1.
    10030    2    1    2    0    0  0.00000000000E+00  0.00000000000E+00 -0.23504920338E+04  0.27560839940E+04  0.14391616244E+04 0.  0.
        3    1    3    3  502    0  0.17077231098E+03  0.46224219138E+03 -0.21794501154E+04  0.22344650011E+04  0.10100000352E+00 0.  1.
       -3    1    3    3    0  502 -0.17077231098E+03 -0.46224219138E+03 -0.17104191840E+03  0.52161899289E+03  0.10100000352E+00 0. -1.
</event>
<event>
 5   0  0.1650221E-04  0.2045823E+04  0.7818609E-02  0.8585492E-01
       -1   -1    0    0    0  501  0.00000000000E+00  0.00000000000E+00  0.53637505205E+03  0.53637505207E+03  0.50400001928E-02 0.  1.
        1   -1    0    0  501    0  0.00000000000E+00  0.00000000000E+00 -0.19507762683E+04  0.19507762683E+04  0.50400001928E-02 0. -1.
    10030    2    1    2    0    0  0.00000000000E+00  0.00000000000E+00 -0.14144012163E+04  0.24871513204E+04  0.20458227905E+04 0.  0.
        1    1    3    3  502    0 -0.90171101899E+03  0.41402096832E+03 -0.40485082562E+03  0.10716344129E+04  0.50400001928E-02 0.  1.
       -1    1    3    3    0  502  0.90171101899E+03 -0.41402096832E+03 -0.10095503907E+04  0.14155169075E+04  0.50400001928E-02 0. -1.
</event>
<event>
 5   0  0.1650221E-04  0.1521618E+04  0.7818609E-02  0.8870203E-01
        1   -1    0    0  501    0  0.00000000000E+00  0.00000000000E+00  0.11345949708E+04  0.11345949708E+04  0.50400001928E-02 0. -1.
       -1   -1    0    0    0  501  0.00000000000E+00  0.00000000000E+00 -0.51016449966E+03  0.51016449968E+03  0.50400001928E-02 0.  1.
    10030    2    1    2    0    0  0.00000000000E+00  0.00000000000E+00  0.62443047117E+03  0.16447594705E+04  0.15216176598E+04 0.  0.
        1    1    3    3  502    0 -0.16889238312E+03 -0.59245548517E+03  0.79477667481E+03  0.10055834634E+04  0.50400001928E-02 0. -1.
       -1    1    3    3    0  502  0.16889238312E+03  0.59245548517E+03 -0.17034620364E+03  0.63917600714E+03  0.50400001928E-02 0.  1.
</event>
<event>
 5   0  0.3395569E-04  0.2048147E+04  0.7818609E-02  0.8584435E-01
       -2   -1    0    0    0  501  0.00000000000E+00  0.00000000000E+00  0.40362512772E+03  0.40362512773E+03  0.25500000920E-02 0. -1.
        2   -1    0    0  501    0  0.00000000000E+00  0.00000000000E+00 -0.25982688523E+04  0.25982688523E+04  0.25500000920E-02 0.  1.
    10030    2    1    2    0    0  0.00000000000E+00  0.00000000000E+00 -0.21946437246E+04  0.30018939800E+04  0.20481470625E+04 0.  0.
        4    1    3    3  502    0 -0.26327351674E+03 -0.61065739868E+03 -0.22387617527E+04  0.23354381177E+04  0.12699999809E+01 0.  1.
       -4    1    3    3    0  502  0.26327351674E+03  0.61065739868E+03  0.44118028112E+02  0.66645586237E+03  0.12699999809E+01 0. -1.
</event>
<event>
 5   0  0.3431030E-04  0.1996512E+04  0.7818609E-02  0.8608253E-01
        2   -1    0    0  501    0  0.00000000000E+00  0.00000000000E+00  0.11643393939E+04  0.11643393940E+04  0.25500000920E-02 0.  1.
       -2   -1    0    0    0  501  0.00000000000E+00  0.00000000000E+00 -0.85586266550E+03  0.85586266551E+03  0.25500000920E-02 0. -1.
    10030    2    1    2    0    0  0.00000000000E+00  0.00000000000E+00  0.30847672845E+03  0.20202020595E+04  0.19965115750E+04 0.  0.
        3    1    3    3  502    0  0.15068031868E+03 -0.97988217142E+03  0.27241884257E+03  0.10281467134E+04  0.10100000352E+00 0. -1.
       -3    1    3    3    0  502 -0.15068031868E+03  0.97988217142E+03  0.36057885879E+02  0.99205534605E+03  0.10100000352E+00 0.  1.
</event>
<event>
 5   0  0.3460648E-04  0.1823934E+04  0.7818609E-02  0.8693674E-01
       -2   -1    0    0    0  501  0.00000000000E+00  0.00000000000E+00  0.26004118831E+03  0.26004118832E+03  0.25500000920E-02 0. -1.
        2   -1    0    0  501    0  0.00000000000E+00  0.00000000000E+00 -0.31982765381E+04  0.31982765381E+04  0.25500000920E-02 0.  1.
    10030    2    1    2    0    0  0.00000000000E+00  0.00000000000E+00 -0.29382353498E+04  0.34583177264E+04  0.18239338053E+04 0.  0.
        5    1    3    3  502    0 -0.78784465918E+03 -0.80188451019E+01 -0.59837048363E+03  0.98935981046E+03  0.46999998093E+01 0.  1.
       -5    1    3    3    0  502  0.78784465918E+03  0.80188451019E+01 -0.23398648662E+04  0.24689579160E+04  0.46999998093E+01 0. -1.
</event>
<event>
 5   0  0.3431030E-04  0.2021564E+04  0.7818609E-02  0.8596605E-01
       -2   -1    0    0    0  501  0.00000000000E+00  0.00000000000E+00  0.50201950261E+03  0.50201950262E+03  0.25500000920E-02 0. -1.
        2   -1    0    0  501    0  0.00000000000E+00  0.00000000000E+00 -0.20351401717E+04  0.20351401717E+04  0.25500000920E-02 0.  1.
    10030    2    1    2    0    0  0.00000000000E+00  0.00000000000E+00 -0.15331206691E+04  0.25371596743E+04  0.20215638073E+04 0.  0.
        3    1    3    3  502    0  0.91191850798E+03  0.40749341878E+03 -0.96112838282E+03  0.13861507963E+04  0.10100000352E+00 0.  1.
       -3    1    3    3    0  502 -0.91191850798E+03 -0.40749341878E+03 -0.57199228625E+03  0.11510088780E+04  0.10100000352E+00 0. -1.
</event>
<event>
 5   0  0.1664168E-04  0.2108006E+04  0.7818609E-02  0.8557725E-01
       -1   -1    0    0    0  501  0.00000000000E+00  0.00000000000E+00  0.83214545693E+03  0.83214545695E+03  0.50400001928E-02 0.  1.
        1   -1    0    0  501    0  0.00000000000E+00  0.00000000000E+00 -0.13350091483E+04  0.13350091483E+04  0.50400001928E-02 0. -1.
    10030    2    1    2    0    0  0.00000000000E+00  0.00000000000E+00 -0.50286369140E+03  0.21671546053E+04  0.21080055007E+04 0.  0.
        5    1    3    3  502    0 -0.13375953792E+03  0.44230006674E+03  0.72244949423E+03  0.85759916321E+03  0.46999998093E+01 0.  1.
       -5    1    3    3    0  502  0.13375953792E+03 -0.44230006674E+03 -0.12253131856E+04  0.13095554421E+04  0.46999998093E+01 0. -1.
</event>
<event>
 5   0  0.3460648E-04  0.2014517E+04  0.7818609E-02  0.8599863E-01
       -2   -1    0    0    0  501  0.00000000000E+00  0.00000000000E+00  0.13096939764E+04  0.13096939764E+04  0.25500000920E-02 0. -1.
        2   -1    0    0  501    0  0.00000000000E+00  0.00000000000E+00 -0.77466196557E+03  0.77466196557E+03  0.25500000920E-02 0.  1.
    10030    2    1    2    0    0  0.00000000000E+00  0.00000000000E+00  0.53503201085E+03  0.20843559420E+04  0.20145174212E+04 0.  0.
        5    1    3    3  502    0  0.10128800534E+03  0.91494397525E+03 -0.15551792187E+03  0.93358965927E+03  0.46999998093E+01 0.  1.
       -5    1    3    3    0  502 -0.10128800534E+03 -0.91494397525E+03  0.69054993272E+03  0.11507662827E+04  0.46999998093E+01 0. -1.
</event>
<event>
 5   0  0.3371947E-04  0.2024352E+04  0.7818609E-02  0.8595319E-01
        2   -1    0    0  501    0  0.00000000000E+00  0.00000000000E+00  0.93121517366E+03  0.93121517366E+03  0.25500000920E-02 0. -1.
       -2   -1    0    0    0  501  0.00000000000E+00  0.00000000000E+00 -0.11001751863E+04  0.11001751863E+04  0.25500000920E-02 0.  1.
    10030    2    1    2    0    0  0.00000000000E+00  0.00000000000E+00 -0.16896001268E+03  0.20313903600E+04  0.20243515774E+04 0.  0.
        2    1    3    3  502    0  0.97256899392E+03 -0.27702267944E+03 -0.41111516469E+02  0.10120880247E+04  0.25500000920E-02 0. -1.
       -2    1    3    3    0  502 -0.97256899392E+03  0.27702267944E+03 -0.12784849621E+03  0.10193023354E+04  0.25500000920E-02 0.  1.
</event>
<event>
 5   0  0.3460648E-04  0.1870004E+04  0.7818609E-02  0.8669933E-01
        2   -1    0    0  501    0  0.00000000000E+00  0.00000000000E+00  0.14593132943E+04  0.14593132943E+04  0.25500000920E-02 0. -1.
       -2   -1    0    0    0  501  0.00000000000E+00  0.00000000000E+00 -0.59906853942E+03  0.59906853943E+03  0.25500000920E-02 0.  1.
    10030    2    1    2    0    0  0.00000000000E+00  0.00000000000E+00  0.86024475491E+03  0.20583818338E+04  0.18700039399E+04 0.  0.
        5    1    3    3  502    0  0.17291606789E+03  0.84271572391E+03  0.26980932822E+02  0.86070890468E+03  0.46999998093E+01 0.  1.
       -5    1    3    3    0  502 -0.17291606789E+03 -0.84271572391E+03  0.83326382209E+03  0.11976729291E+04  0.46999998093E+01 0. -1.
</event>
<event>
 5   0  0.1650221E-04  0.1926073E+04  0.7818609E-02  0.8641986E-01
       -1   -1    0    0    0  501  0.00000000000E+00  0.00000000000E+00  0.50711647549E+03  0.50711647552E+03  0.50400001928E-02 0.  1.
        1   -1    0    0  501    0  0.00000000000E+00  0.00000000000E+00 -0.18288491187E+04  0.18288491187E+04  0.50400001928E-02 0. -1.
    10030    2    1    2    0    0  0.00000000000E+00  0.00000000000E+00 -0.13217326432E+04  0.23359655942E+04  0.19260732274E+04 0.  0.
        1    1    3    3  502    0  0.75295372259E+03 -0.27392483975E+03 -0.13088594202E+04  0.15346293064E+04  0.50400001928E-02 0. -1.
       -1    1    3    3    0  502 -0.75295372259E+03  0.27392483975E+03 -0.12873222951E+02  0.80133628776E+03  0.50400001928E-02 0.  1.
</event>
<event>
 5   0  0.3371947E-04  0.1970974E+04  0.7818609E-02  0.8620313E-01
       -2   -1    0    0    0  501  0.00000000000E+00  0.00000000000E+00  0.77654926455E+03  0.77654926455E+03  0.25500000920E-02 0.  1.
        2   -1    0    0  501    0  0.00000000000E+00  0.00000000000E+00 -0.12506411759E+04  0.12506411759E+04  0.25500000920E-02 0. -1.
    10030    2    1    2    0    0  0.00000000000E+00  0.00000000000E+00 -0.47409191133E+03  0.20271904404E+04  0.19709738561E+04 0.  0.
        2    1    3    3  502    0  0.32385218395E+03  0.58584761167E+03  0.50683009448E+03  0.83962753994E+03  0.25500000920E-02 0.  1.
       -2    1    3    3    0  502 -0.32385218395E+03 -0.58584761167E+03 -0.98092200580E+03  0.11875629005E+04  0.25500000920E-02 0. -1.
</event>
<event>
 5   0  0.1664168E-04  0.1996792E+04  0.7818609E-02  0.8608122E-01
       -1   -1    0    0    0  501  0.00000000000E+00  0.00000000000E+00  0.10791915234E+04  0.10791915234E+04  0.50400001928E-02 0.  1.
        1   -1    0    0  501    0  0.00000000000E+00  0.00000000000E+00 -0.92364939328E+03  0.92364939330E+03  0.50400001928E-02 0. -1.
    10030    2    1    2    0    0  0.00000000000E+00  0.00000000000E+00  0.15554213010E+03  0.20028409167E+04  0.19967920231E+04 0.  0.
        5    1    3    3  502    0  0.93590139585E+02  0.18554218156E+03  0.10572472809E+04  0.10774873170E+04  0.46999998093E+01 0.  1.
       -5    1    3    3    0  502 -0.93590139585E+02 -0.18554218156E+03 -0.90170515083E+03  0.92535359965E+03  0.46999998093E+01 0. -1.
</event>
<event>
 5   0  0.1708578E-04  0.1970368E+04  0.7818609E-02  0.8620601E-01
       -1   -1    0    0    0  501  0.00000000000E+00  0.00000000000E+00  0.78109998866E+03  0.78109998867E+03  0.50400001928E-02 0.  1.
        1   -1    0    0  501    0  0.00000000000E+00  0.00000000000E+00 -0.12425910636E+04  0.12425910636E+04  0.50400001928E-02 0. -1.
    10030    2    1    2    0    0  0.00000000000E+00  0.00000000000E+00 -0.46149107494E+03  0.20236910523E+04  0.19703683571E+04 0.  0.
        3    1    3    3  502    0 -0.18100489861E+02  0.15727034429E+03 -0.12294421713E+04  0.12395925345E+04  0.10100000352E+00 0. -1.
       -3    1    3    3    0  502  0.18100489861E+02 -0.15727034429E+03  0.76795109636E+03  0.78409851774E+03  0.10100000352E+00 0.  1.
</event>
<event>
 5   0  0.3395569E-04  0.1969739E+04  0.7818609E-02  0.8620901E-01
       -2   -1    0    0    0  501  0.00000000000E+00  0.00000000000E+00  0.14513968924E+04  0.14513968924E+04  0.25500000920E-02 0.  1.
        2   -1    0    0  501    0  0.00000000000E+00  0.00000000000E+00 -0.66829969109E+03  0.66829969110E+03  0.25500000920E-02 0. -1.
    10030    2    1    2    0    0  0.00000000000E+00  0.00000000000E+00  0.78309720129E+03  0.21196965835E+04  0.19697391653E+04 0.  0.
        4    1    3    3  502    0 -0.41301540528E+03 -0.65190015835E+03 -0.26692632938E+03  0.81658240225E+03  0.12699999809E+01 0. -1.
       -4    1    3    3    0  502  0.41301540528E+03  0.65190015835E+03  0.10500235307E+04  0.13031141812E+04  0.12699999809E+01 0.  1.
</event>
<event>
 5   0  0.1664168E-04  0.1979228E+04  0.7818609E-02  0.8616394E-01
        1   -1    0    0  501    0  0.00000000000E+00  0.00000000000E+00  0.15620173600E+04  0.15620173601E+04  0.50400001928E-02 0.  1.
       -1   -1    0    0    0  501  0.00000000000E+00  0.00000000000E+00 -0.62696885665E+03  0.62696885667E+03  0.50400001928E-02 0. -1.
    10030    2    1    2    0    0  0.00000000000E+00  0.00000000000E+00  0.93504850339E+03  0.21889862167E+04  0.19792283732E+04 0.  0.
        5    1    3    3  502    0  0.74321858575E+02  0.14581220218E+03 -0.61188533372E+03  0.63341194225E+03  0.46999998093E+01 0. -1.
       -5    1    3    3    0  502 -0.74321858575E+02 -0.14581220218E+03  0.15469338371E+04  0.15555742745E+04  0.46999998093E+01 0.  1.
</event>
<event>
 5   0  0.1650221E-04  0.1955985E+04  0.7818609E-02  0.8627480E-01
        1   -1    0    0  501    0  0.00000000000E+00  0.00000000000E+00  0.12571702551E+04  0.12571702551E+04  0.50400001928E-02 0. -1.
       -1   -1    0    0    0  501  0.00000000000E+00  0.00000000000E+00 -0.76081164064E+03  0.76081164066E+03  0.50400001928E-02 0.  1.
    10030    2    1    2    0    0  0.00000000000E+00  0.00000000000E+00  0.49635861443E+03  0.20179818957E+04  0.19559854441E+04 0.  0.
        1    1    3    3  502    0 -0.25650598362E+03  0.93197833696E+03  0.94838549036E+02  0.97127405536E+03  0.50400001928E-02 0.  1.
       -1    1    3    3    0  502  0.25650598362E+03 -0.93197833696E+03  0.40152006540E+03  0.10467078404E+04  0.50400001928E-02 0. -1.
</event>
<event>
 5   0  0.1664168E-04  0.2008695E+04  0.7818609E-02  0.8602566E-01
        1   -1    0    0  501    0  0.00000000000E+00  0.00000000000E+00  0.91645916681E+03  0.91645916683E+03  0.50400001928E-02 0. -1.
       -1   -1    0    0    0  501  0.00000000000E+00  0.00000000000E+00 -0.11006638574E+04  0.11006638574E+04  0.50400001928E-02 0.  1.
    10030    2    1    2    0    0  0.00000000000E+00  0.00000000000E+00 -0.18420469057E+03  0.20171230242E+04  0.20086945828E+04 0.  0.
        5    1    3    3  502    0 -0.46024223677E+03 -0.65116940997E+03  0.52107165522E+03  0.95256615354E+03  0.46999998093E+01 0. -1.
       -5    1    3    3    0  502  0.46024223677E+03  0.65116940997E+03 -0.70527634579E+03  0.10645568707E+04  0.46999998093E+01 0.  1.
</event>
<event>
 5   0  0.3460648E-04  0.2006527E+04  0.7818609E-02  0.8603575E-01
       -2   -1    0    0    0  501  0.00000000000E+00  0.00000000000E+00  0.22289844413E+04  0.22289844413E+04  0.25500000920E-02 0.  1.
        2   -1    0    0  501    0  0.00000000000E+00  0.00000000000E+00 -0.45156770293E+03  0.45156770293E+03  0.25500000920E-02 0. -1.
    10030    2    1    2    0    0  0.00000000000E+00  0.00000000000E+00  0.17774167383E+04  0.26805521442E+04  0.20065267344E+04 0.  0.
        5    1    3    3  502    0 -0.72225962165E+03 -0.28531165619E+03  0.40160978281E+02  0.77762246392E+03  0.46999998093E+01 0. -1.
       -5    1    3    3    0  502  0.72225962165E+03  0.28531165619E+03  0.17372557601E+04  0.19029296803E+04  0.46999998093E+01 0.  1.
</event>
<event>
 5   0  0.1696052E-04  0.2024057E+04  0.7818609E-02  0.8595455E-01
        1   -1    0    0  501    0  0.00000000000E+00  0.00000000000E+00  0.19633362045E+04  0.19633362045E+04  0.50400001928E-02 0.  1.
       -1   -1    0    0    0  501  0.00000000000E+00  0.00000000000E+00 -0.52166383817E+03  0.52166383819E+03  0.50400001928E-02 0. -1.
    10030    2    1    2    0    0  0.00000000000E+00  0.00000000000E+00  0.14416723663E+04  0.24850000427E+04  0.20240568175E+04 0.  0.
        4    1    3    3  502    0  0.99402681421E+03  0.81271210494E+02  0.93172604719E+03  0.13648477413E+04  0.12699999809E+01 0. -1.
       -4    1    3    3    0  502 -0.99402681421E+03 -0.81271210494E+02  0.50994631916E+03  0.11201523014E+04  0.12699999809E+01 0.  1.
</event>
<event>
 5   0  0.1222488E-04  0.1924152E+04  0.7818609E-02  0.8642927E-01
        3   -1    0    0  501    0  0.00000000000E+00  0.00000000000E+00  0.11462452989E+04  0.11462453034E+04  0.10100000352E+00 0.  1.
       -3   -1    0    0    0  501  0.00000000000E+00  0.00000000000E+00 -0.80749745411E+03  0.80749746043E+03  0.10100000352E+00 0. -1.
    10030    2    1    2    0    0  0.00000000000E+00  0.00000000000E+00  0.33874784483E+03  0.19537427638E+04  0.19241519391E+04 0.  0.
        4    1    3    3  502    0 -0.25682857923E+03 -0.49024235762E+02  0.11094765084E+04  0.11398701813E+04  0.12699999809E+01 0.  1.
       -4    1    3    3    0  502  0.25682857923E+03  0.49024235762E+02 -0.77072866354E+03  0.81387258247E+03  0.12699999809E+01 0. -1.
</event>
<event>
 5   0  0.3460648E-04  0.1985512E+04  0.7818609E-02  0.8613424E-01
       -2   -1    0    0    0  501  0.00000000000E+00  0.00000000000E+00  0.54803687204E+03  0.54803687204E+03  0.25500000920E-02 0. -1.
        2   -1    0    0  501    0  0.00000000000E+00  0.00000000000E+00 -0.17983545942E+04  0.17983545942E+04  0.25500000920E-02 0.  1.
    10030    2    1    2    0    0  0.00000000000E+00  0.00000000000E+00 -0.12503177222E+04  0.23463914663E+04  0.19855121522E+04 0.  0.
        5    1    3    3  502    0  0.55974603683E+02 -0.15742446649E+03 -0.17816068189E+04  0.17894302350E+04  0.46999998093E+01 0.  1.
       -5    1    3    3    0  502 -0.55974603683E+02  0.15742446649E+03  0.53128909667E+03  0.55696123128E+03  0.46999998093E+01 0. -1.
</event>
<event>
 5   0  0.1664168E-04  0.2019073E+04  0.7818609E-02  0.8597755E-01
       -1   -1    0    0    0  501  0.00000000000E+00  0.00000000000E+00  0.15974877550E+04  0.15974877550E+04  0.50400001928E-02 0. -1.
        1   -1    0    0  501    0  0.00000000000E+00  0.00000000000E+00 -0.63797946119E+03  0.63797946121E+03  0.50400001928E-02 0.  1.
    10030    2    1    2    0    0  0.00000000000E+00  0.00000000000E+00  0.95950829381E+03  0.22354672162E+04  0.20190734283E+04 0.  0.
        5    1    3    3  502    0 -0.99548669553E+03 -0.14267124384E+03  0.38201222875E+03  0.10757807759E+04  0.46999998093E+01 0.  1.
       -5    1    3    3    0  502  0.99548669553E+03  0.14267124384E+03  0.57749606505E+03  0.11596864404E+04  0.46999998093E+01 0. -1.
</event>
<event>
 5   0  0.3395569E-04  0.1899665E+04  0.7818609E-02  0.8655023E-01
        2   -1    0    0  501    0  0.00000000000E+00  0.00000000000E+00  0.15642092871E+04  0.15642092871E+04  0.25500000920E-02 0.  1.
       -2   -1    0    0    0  501  0.00000000000E+00  0.00000000000E+00 -0.57676561189E+03  0.57676561189E+03  0.25500000920E-02 0. -1.
    10030    2    1    2    0    0  0.00000000000E+00  0.00000000000E+00  0.98744367518E+03  0.21409748990E+04  0.18996653669E+04 0.  0.
        4    1    3    3  502    0 -0.56640128370E+03 -0.55632467388E+03  0.10813701262E+04  0.13415179908E+04  0.12699999809E+01 0.  1.
       -4    1    3    3    0  502  0.56640128370E+03  0.55632467388E+03 -0.93926450978E+02  0.79945690818E+03  0.12699999809E+01 0. -1.
</event>
<event>
 5   0  0.1696052E-04  0.1980116E+04  0.7818609E-02  0.8615974E-01
        1   -1    0    0  501    0  0.00000000000E+00  0.00000000000E+00  0.16871371797E+04  0.16871371797E+04  0.50400001928E-02 0.  1.
       -1   -1    0    0    0  501  0.00000000000E+00  0.00000000000E+00 -0.58099311214E+03  0.58099311216E+03  0.50400001928E-02 0. -1.
    10030    2    1    2    0    0  0.00000000000E+00  0.00000000000E+00  0.11061440675E+04  0.22681302918E+04  0.19801162397E+04 0.  0.
        4    1    3    3  502    0  0.76361136167E+03  0.49056174354E+03  0.99987292253E+02  0.91310032714E+03  0.12699999809E+01 0. -1.
       -4    1    3    3    0  502 -0.76361136167E+03 -0.49056174354E+03  0.10061567753E+04  0.13550299647E+04  0.12699999809E+01 0.  1.
</event>
<event>
 5   0  0.1643565E-04  0.1999880E+04  0.7818609E-02  0.8606677E-01
        1   -1    0    0  501    0  0.00000000000E+00  0.00000000000E+00  0.84821783760E+03  0.84821783762E+03  0.50400001928E-02 0.  1.
       -1   -1    0    0    0  501  0.00000000000E+00  0.00000000000E+00 -0.11788007020E+04  0.11788007020E+04  0.50400001928E-02 0. -1.
    10030    2    1    2    0    0  0.00000000000E+00  0.00000000000E+00 -0.33058286441E+03  0.20270185396E+04  0.19998797788E+04 0.  0.
        2    1    3    3  502    0 -0.92867894852E+03  0.34583889487E+03 -0.29947920295E+02  0.99143633611E+03  0.25500000920E-02 0. -1.
       -2    1    3    3    0  502  0.92867894852E+03 -0.34583889487E+03 -0.30063494411E+03  0.10355822035E+04  0.25500000920E-02 0.  1.
</event>
<event>
 5   0  0.1708578E-04  0.1959998E+04  0.7818609E-02  0.8625554E-01
       -1   -1    0    0    0  501  0.00000000000E+00  0.00000000000E+00  0.65943085248E+03  0.65943085250E+03  0.50400001928E-02 0. -1.
        1   -1    0    0  501    0  0.00000000000E+00  0.00000000000E+00 -0.14564050689E+04  0.14564050689E+04  0.50400001928E-02 0.  1.
    10030    2    1    2    0    0  0.00000000000E+00  0.00000000000E+00 -0.79697421644E+03  0.21158359214E+04  0.19599984043E+04 0.  0.
        3    1    3    3  502    0 -0.34996902544E+03  0.52436264581E+03  0.41147844713E+03  0.75282735454E+03  0.10100000352E+00 0. -1.
       -3    1    3    3    0  502  0.34996902544E+03 -0.52436264581E+03 -0.12084526636E+04  0.13630085669E+04  0.10100000352E+00 0.  1.
</event>
<event>
 5   0  0.3431030E-04  0.2005132E+04  0.7818609E-02  0.8604225E-01
        2   -1    0    0  501    0  0.00000000000E+00  0.00000000000E+00  0.17679767020E+04  0.17679767020E+04  0.25500000920E-02 0.  1.
       -2   -1    0    0    0  501  0.00000000000E+00  0.00000000000E+00 -0.56852476934E+03  0.56852476934E+03  0.25500000920E-02 0. -1.
    10030    2    1    2    0    0  0.00000000000E+00  0.00000000000E+00  0.11994519327E+04  0.23365014713E+04  0.20051319624E+04 0.  0.
        3    1    3    3  502    0 -0.63827209987E+03 -0.54918850186E+02  0.14983612240E+04  0.16295685691E+04  0.10100000352E+00 0.  1.
       -3    1    3    3    0  502  0.63827209987E+03  0.54918850186E+02 -0.29890929137E+03  0.70693290223E+03  0.10100000352E+00 0. -1.
</event>
<event>
 5   0  0.1643565E-04  0.2020404E+04  0.7818609E-02  0.8597140E-01
       -1   -1    0    0    0  501  0.00000000000E+00  0.00000000000E+00  0.10378940814E+04  0.10378940815E+04  0.50400001928E-02 0. -1.
        1   -1    0    0  501    0  0.00000000000E+00  0.00000000000E+00 -0.98324865725E+03  0.98324865726E+03  0.50400001928E-02 0.  1.
    10030    2    1    2    0    0  0.00000000000E+00  0.00000000000E+00  0.54645424188E+02  0.20211427387E+04  0.20204038824E+04 0.  0.
        2    1    3    3  502    0 -0.86132689849E+03  0.99027726817E+02 -0.49134297293E+03  0.99654825964E+03  0.25500000920E-02 0.  1.
       -2    1    3    3    0  502  0.86132689849E+03 -0.99027726817E+02  0.54598839711E+03  0.10245944791E+04  0.25500000920E-02 0. -1.
</event>
<event>
 5   0  0.1643565E-04  0.2022208E+04  0.7818609E-02  0.8596307E-01
       -1   -1    0    0    0  501  0.00000000000E+00  0.00000000000E+00  0.13670462877E+04  0.13670462877E+04  0.50400001928E-02 0.  1.
        1   -1    0    0  501    0  0.00000000000E+00  0.00000000000E+00 -0.74783986415E+03  0.74783986417E+03  0.50400001928E-02 0. -1.
    10030    2    1    2    0    0  0.00000000000E+00  0.00000000000E+00  0.61920642352E+03  0.21148861518E+04  0.20222084068E+04 0.  0.
        2    1    3    3  502    0 -0.74636397438E+03  0.56303311580E+03  0.71230375603E+03  0.11753476561E+04  0.25500000920E-02 0.  1.
       -2    1    3    3    0  502  0.74636397438E+03 -0.56303311580E+03 -0.93097332509E+02  0.93953849579E+03  0.25500000920E-02 0. -1.
</event>
<event>
 5   0  0.3460648E-04  0.2005768E+04  0.7818609E-02  0.8603929E-01
        2   -1    0    0  501    0  0.00000000000E+00  0.00000000000E+00  0.21011709354E+04  0.21011709354E+04  0.25500000920E-02 0.  1.
       -2   -1    0    0    0  501  0.00000000000E+00  0.00000000000E+00 -0.47867422259E+03  0.47867422259E+03  0.25500000920E-02 0. -1.
    10030    2    1    2    0    0  0.00000000000E+00  0.00000000000E+00  0.16224967128E+04  0.25798451580E+04  0.20057680464E+04 0.  0.
        5    1    3    3  502    0 -0.32735515584E+03  0.94077093681E+03  0.66156652258E+03  0.11957858117E+04  0.46999998093E+01 0. -1.
       -5    1    3    3    0  502  0.32735515584E+03 -0.94077093681E+03  0.96093019020E+03  0.13840593463E+04  0.46999998093E+01 0.  1.
</event>
<event>
 5   0  0.3395569E-04  0.1970803E+04  0.7818609E-02  0.8620394E-01
        2   -1    0    0  501    0  0.00000000000E+00  0.00000000000E+00  0.21039065642E+04  0.21039065642E+04  0.25500000920E-02 0. -1.
       -2   -1    0    0    0  501  0.00000000000E+00  0.00000000000E+00 -0.46152988678E+03  0.46152988679E+03  0.25500000920E-02 0.  1.
    10030    2    1    2    0    0  0.00000000000E+00  0.00000000000E+00  0.16423766774E+04  0.25654364510E+04  0.19708026369E+04 0.  0.
        4    1    3    3  502    0  0.61504973401E+03 -0.59004040513E+03  0.17742112520E+03  0.87058240480E+03  0.12699999809E+01 0.  1.
       -4    1    3    3    0  502 -0.61504973401E+03  0.59004040513E+03  0.14649555522E+04  0.16948540462E+04  0.12699999809E+01 0. -1.
</event>
<event>
 5   0  0.1643565E-04  0.1985093E+04  0.7818609E-02  0.8613622E-01
       -1   -1    0    0    0  501  0.00000000000E+00  0.00000000000E+00  0.11329942457E+04  0.11329942457E+04  0.50400001928E-02 0.  1.
        1   -1    0    0  501    0  0.00000000000E+00  0.00000000000E+00 -0.86950902970E+03  0.86950902972E+03  0.50400001928E-02 0. -1.
    10030    2    1    2    0    0  0.00000000000E+00  0.00000000000E+00  0.26348521598E+03  0.20025032754E+04  0.19850931739E+04 0.  0.
        2    1    3    3  502    0  0.17265553706E+03  0.76428953367E+03  0.74634818855E+03  0.10821201617E+04  0.25500000920E-02 0.  1.
       -2    1    3    3    0  502 -0.17265553706E+03 -0.76428953367E+03 -0.48286297257E+03  0.92038311373E+03  0.25500000920E-02 0. -1.
</event>
<event>
 5   0  0.1708578E-04  0.2094082E+04  0.7818609E-02  0.8563855E-01
        1   -1    0    0  501    0  0.00000000000E+00  0.00000000000E+00  0.66030687184E+03  0.66030687186E+03  0.50400001928E-02 0.  1.
       -1   -1    0    0    0  501  0.00000000000E+00  0.00000000000E+00 -0.16602800614E+04  0.16602800614E+04  0.50400001928E-02 0. -1.
    10030    2    1    2    0    0  0.00000000000E+00  0.00000000000E+00 -0.99997318952E+03  0.23205869332E+04  0.20940815015E+04 0.  0.
        3    1    3    3  502    0  0.53692703708E+03 -0.64437624388E+03  0.19452670783E+03  0.86101802367E+03  0.10100000352E+00 0.  1.
       -3    1    3    3    0  502 -0.53692703708E+03  0.64437624388E+03 -0.11944998973E+04  0.14595689096E+04  0.10100000352E+00 0. -1.
</event>
<event>
 5   0  0.1708578E-04  0.1980029E+04  0.7818609E-02  0.8616015E-01
       -1   -1    0    0    0  501  0.00000000000E+00  0.00000000000E+00  0.77914420296E+03  0.77914420297E+03  0.50400001928E-02 0. -1.
        1   -1    0    0  501    0  0.00000000000E+00  0.00000000000E+00 -0.12579552260E+04  0.12579552260E+04  0.50400001928E-02 0.  1.
    10030    2    1    2    0    0  0.00000000000E+00  0.00000000000E+00 -0.47881102299E+03  0.20370994289E+04  0.19800288098E+04 0.  0.
        3    1    3    3  502    0 -0.49881532123E+03  0.29298879293E+03  0.58716238108E+03  0.82426866338E+03  0.10100000352E+00 0. -1.
       -3    1    3    3    0  502  0.49881532123E+03 -0.29298879293E+03 -0.10659734041E+04  0.12128307656E+04  0.10100000352E+00 0.  1.
</event>
<event>
 5   0  0.3371947E-04  0.1994185E+04  0.7818609E-02  0.8609344E-01
       -2   -1    0    0    0  501  0.00000000000E+00  0.00000000000E+00  0.88092550535E+03  0.88092550535E+03  0.25500000920E-02 0. -1.
        2   -1    0    0  501    0  0.00000000000E+00  0.00000000000E+00 -0.11285788080E+04  0.11285788080E+04  0.25500000920E-02 0.  1.
    10030    2    1    2    0    0  0.00000000000E+00  0.00000000000E+00 -0.24765330264E+03  0.20095043133E+04  0.19941854044E+04 0.  0.
        2    1    3    3  502    0 -0.18326111787E+03 -0.89884646865E+03 -0.51757661134E+03  0.10532782919E+04  0.25500000920E-02 0.  1.
       -2    1    3    3    0  502  0.18326111787E+03  0.89884646865E+03  0.26992330871E+03  0.95622602146E+03  0.25500000920E-02 0. -1.
</event>
<event>
 5   0  0.1650221E-04  0.1879211E+04  0.7818609E-02  0.8665274E-01
       -1   -1    0    0    0  501  0.00000000000E+00  0.00000000000E+00  0.64374975189E+03  0.64374975191E+03  0.50400001928E-02 0. -1.
        1   -1    0    0  501    0  0.00000000000E+00  0.00000000000E+00 -0.13714314663E+04  0.13714314664E+04  0.50400001928E-02 0.  1.
    10030    2    1    2    0    0  0.00000000000E+00  0.00000000000E+00 -0.72768171445E+03  0.20151812183E+04  0.18792111816E+04 0.  0.
        1    1    3    3  502    0 -0.39854665907E+03 -0.84462466859E+03 -0.47439432798E+03  0.10475114552E+04  0.50400001928E-02 0.  1.
       -1    1    3    3    0  502  0.39854665907E+03  0.84462466859E+03 -0.25328738647E+03  0.96766976310E+03  0.50400001928E-02 0. -1.
</event>
<event>
 5   0  0.3460648E-04  0.1981674E+04  0.7818609E-02  0.8615237E-01
        2   -1    0    0  501    0  0.00000000000E+00  0.00000000000E+00  0.86273425192E+03  0.86273425192E+03  0.25500000920E-02 0. -1.
       -2   -1    0    0    0  501  0.00000000000E+00  0.00000000000E+00 -0.11379612320E+04  0.11379612320E+04  0.25500000920E-02 0.  1.
    10030    2    1    2    0    0  0.00000000000E+00  0.00000000000E+00 -0.27522698007E+03  0.20006954839E+04  0.19816741732E+04 0.  0.
        5    1    3    3  502    0  0.64569160013E+03  0.34708048322E+03  0.53538340979E+03  0.90776648417E+03  0.46999998093E+01 0.  1.
       -5    1    3    3    0  502 -0.64569160013E+03 -0.34708048322E+03 -0.81061038986E+03  0.10929289997E+04  0.46999998093E+01 0. -1.
</event>
<event>
 5   0  0.1708578E-04  0.2028905E+04  0.7818609E-02  0.8593225E-01
       -1   -1    0    0    0  501  0.00000000000E+00  0.00000000000E+00  0.82465418222E+03  0.82465418223E+03  0.50400001928E-02 0.  1.
        1   -1    0    0  501    0  0.00000000000E+00  0.00000000000E+00 -0.12479339256E+04  0.12479339256E+04  0.50400001928E-02 0. -1.
    10030    2    1    2    0    0  0.00000000000E+00  0.00000000000E+00 -0.42327974341E+03  0.20725881079E+04  0.20289050554E+04 0.  0.
        3    1    3    3  502    0  0.69657868601E+03  0.46126321488E+03  0.37618699056E+03  0.91624357093E+03  0.10100000352E+00 0. -1.
       -3    1    3    3    0  502 -0.69657868601E+03 -0.46126321488E+03 -0.79946673397E+03  0.11563445369E+04  0.10100000352E+00 0.  1.
</event>
<event>
 5   0  0.3371947E-04  0.1944731E+04  0.7818609E-02  0.8632906E-01
       -2   -1    0    0    0  501  0.00000000000E+00  0.00000000000E+00  0.74979217120E+03  0.74979217120E+03  0.25500000920E-02 0. -1.
        2   -1    0    0  501    0  0.00000000000E+00  0.00000000000E+00 -0.12610083784E+04  0.12610083784E+04  0.25500000920E-02 0.  1.
    10030    2    1    2    0    0  0.00000000000E+00  0.00000000000E+00 -0.51121620716E+03  0.20108005496E+04  0.19447305314E+04 0.  0.
        2    1    3    3  502    0  0.96655310925E+03  0.82669029908E+01 -0.14617792867E+03  0.97757927634E+03  0.25500000920E-02 0. -1.
       -2    1    3    3    0  502 -0.96655310925E+03 -0.82669029908E+01 -0.36503827849E+03  0.10332212732E+04  0.25500000920E-02 0.  1.
</event>
<event>
 5   0  0.1222488E-04  0.1996880E+04  0.7818609E-02  0.8608081E-01
        3   -1    0    0  501    0  0.00000000000E+00  0.00000000000E+00  0.60606152447E+03  0.60606153289E+03  0.10100000352E+00 0. -1.
       -3   -1    0    0    0  501  0.00000000000E+00  0.00000000000E+00 -0.16448528406E+04  0.16448528437E+04  0.10100000352E+00 0.  1.
    10030    2    1    2    0    0  0.00000000000E+00  0.00000000000E+00 -0.10387913161E+04  0.22509143766E+04  0.19968795988E+04 0.  0.
        5    1    3    3  502    0  0.25336581227E+03 -0.52220316309E+03  0.39633772985E+03  0.70284853594E+03  0.46999998093E+01 0. -1.
       -5    1    3    3    0  502 -0.25336581227E+03  0.52220316309E+03 -0.14351290460E+04  0.15480658406E+04  0.46999998093E+01 0.  1.
</event>
<event>
 5   0  0.3460648E-04  0.1975542E+04  0.7818609E-02  0.8618142E-01
       -2   -1    0    0    0  501  0.00000000000E+00  0.00000000000E+00  0.48180015374E+03  0.48180015374E+03  0.25500000920E-02 0. -1.
        2   -1    0    0  501    0  0.00000000000E+00  0.00000000000E+00 -0.20250955505E+04  0.20250955505E+04  0.25500000920E-02 0.  1.
    10030    2    1    2    0    0  0.00000000000E+00  0.00000000000E+00 -0.15432953968E+04  0.25068957043E+04  0.19755417967E+04 0.  0.
        5    1    3    3  502    0 -0.58230446575E+03 -0.61644552427E+03 -0.14144334673E+04  0.16491596947E+04  0.46999998093E+01 0.  1.
       -5    1    3    3    0  502  0.58230446575E+03  0.61644552427E+03 -0.12886192948E+03  0.85773600955E+03  0.46999998093E+01 0. -1.
</event>
<event>
 5   0  0.1650221E-04  0.1969914E+04  0.7818609E-02  0.8620817E-01
        1   -1    0    0  501    0  0.00000000000E+00  0.00000000000E+00  0.11646645410E+04  0.11646645410E+04  0.50400001928E-02 0. -1.
       -1   -1    0    0    0  501  0.00000000000E+00  0.00000000000E+00 -0.83297847260E+03  0.83297847261E+03  0.50400001928E-02 0.  1.
    10030    2    1    2    0    0  0.00000000000E+00  0.00000000000E+00  0.33168606837E+03  0.19976430136E+04  0.19699142016E+04 0.  0.
        1    1    3    3  502    0 -0.38254226863E+03 -0.36446832093E+03  0.10087866280E+04  0.11387827734E+04  0.50400001928E-02 0. -1.
       -1    1    3    3    0  502  0.38254226863E+03  0.36446832093E+03 -0.67710055962E+03  0.85886024015E+03  0.50400001928E-02 0.  1.
</event>
<event>
 5   0  0.1696052E-04  0.1868737E+04  0.7818609E-02  0.8670576E-01
        1   -1    0    0  501    0  0.00000000000E+00  0.00000000000E+00  0.11598483512E+04  0.11598483512E+04  0.50400001928E-02 0.  1.
       -1   -1    0    0    0  501  0.00000000000E+00  0.00000000000E+00 -0.75272303225E+03  0.75272303226E+03  0.50400001928E-02 0. -1.
    10030    2    1    2    0    0  0.00000000000E+00  0.00000000000E+00  0.40712531895E+03  0.19125713835E+04  0.18687370793E+04 0.  0.
        4    1    3    3  502    0  0.57208994420E+03  0.12323180453E+03 -0.54192555930E+03  0.79759507686E+03  0.12699999809E+01 0. -1.
       -4    1    3    3    0  502 -0.57208994420E+03 -0.12323180453E+03  0.94905087825E+03  0.11149763066E+04  0.12699999809E+01 0.  1.
</event>
<event>
 5   0  0.3431030E-04  0.1896129E+04  0.7818609E-02  0.8656786E-01
       -2   -1    0    0    0  501  0.00000000000E+00  0.00000000000E+00  0.66554102428E+03  0.66554102429E+03  0.25500000920E-02 0.  1.
        2   -1    0    0  501    0  0.00000000000E+00  0.00000000000E+00 -0.13505197536E+04  0.13505197536E+04  0.25500000920E-02 0. -1.
    10030    2    1    2    0    0  0.00000000000E+00  0.00000000000E+00 -0.68497872930E+03  0.20160607779E+04  0.18961290042E+04 0.  0.
        3    1    3    3  502    0  0.55231493551E+03 -0.76949067488E+03 -0.38579126824E+03  0.10227426849E+04  0.10100000352E+00 0. -1.
       -3    1    3    3    0  502 -0.55231493551E+03  0.76949067488E+03 -0.29918746106E+03  0.99331809295E+03  0.10100000352E+00 0.  1.
</event>
<event>
 5   0  0.1664168E-04  0.2011448E+04  0.7818609E-02  0.8601287E-01
       -1   -1    0    0    0  501  0.00000000000E+00  0.00000000000E+00  0.63427165827E+03  0.63427165829E+03  0.50400001928E-02 0. -1.
        1   -1    0    0  501    0  0.00000000000E+00  0.00000000000E+00 -0.15947119907E+04  0.15947119907E+04  0.50400001928E-02 0.  1.
    10030    2    1    2    0    0  0.00000000000E+00  0.00000000000E+00 -0.96044033239E+03  0.22289836490E+04  0.20114478555E+04 0.  0.
        5    1    3    3  502    0  0.46620094652E+03  0.56284639299E+03 -0.12458212346E+04  0.14443794596E+04  0.46999998093E+01 0.  1.
       -5    1    3    3    0  502 -0.46620094652E+03 -0.56284639299E+03  0.28538090222E+03  0.78460418938E+03  0.46999998093E+01 0. -1.
</event>
<event>
 5   0  0.3387881E-04  0.2044314E+04  0.7818609E-02  0.8586178E-01
       -2   -1    0    0    0  501  0.00000000000E+00  0.00000000000E+00  0.48967867319E+03  0.48967867320E+03  0.25500000920E-02 0.  1.
        2   -1    0    0  501    0  0.00000000000E+00  0.00000000000E+00 -0.21336551019E+04  0.21336551019E+04  0.25500000920E-02 0. -1.
    10030    2    1    2    0    0  0.00000000000E+00  0.00000000000E+00 -0.16439764287E+04  0.26233337751E+04  0.20443144566E+04 0.  0.
        1    1    3    3  502    0  0.35341206226E+03 -0.57751952053E+03 -0.18046275285E+04  0.19274619060E+04  0.50400001928E-02 0. -1.
       -1    1    3    3    0  502 -0.35341206226E+03  0.57751952053E+03  0.16065109980E+03  0.69587186912E+03  0.50400001928E-02 0.  1.
</event>
<event>
 5   0  0.1650221E-04  0.1986028E+04  0.7818609E-02  0.8613181E-01
        1   -1    0    0  501    0  0.00000000000E+00  0.00000000000E+00  0.11774699067E+04  0.11774699067E+04  0.50400001928E-02 0. -1.
       -1   -1    0    0    0  501  0.00000000000E+00  0.00000000000E+00 -0.83745381281E+03  0.83745381283E+03  0.50400001928E-02 0.  1.
    10030    2    1    2    0    0  0.00000000000E+00  0.00000000000E+00  0.34001609388E+03  0.20149237195E+04  0.19860278577E+04 0.  0.
        1    1    3    3  502    0 -0.45579108480E+03 -0.72136888095E+03 -0.34527736509E+03  0.92050803053E+03  0.50400001928E-02 0. -1.
       -1    1    3    3    0  502  0.45579108480E+03  0.72136888095E+03  0.68529345897E+03  0.10944156890E+04  0.50400001928E-02 0.  1.
</event>
<event>
 5   0  0.3371947E-04  0.2083558E+04  0.7818609E-02  0.8568521E-01
       -2   -1    0    0    0  501  0.00000000000E+00  0.00000000000E+00  0.12687243867E+04  0.12687243867E+04  0.25500000920E-02 0. -1.
        2   -1    0    0  501    0  0.00000000000E+00  0.00000000000E+00 -0.85542858560E+03  0.85542858561E+03  0.25500000920E-02 0.  1.
    10030    2    1    2    0    0  0.00000000000E+00  0.00000000000E+00  0.41329580112E+03  0.21241529723E+04  0.20835576379E+04 0.  0.
        2    1    3    3  502    0  0.59456387610E+03  0.10904761008E+03  0.10716517168E+04  0.12303800170E+04  0.25500000920E-02 0. -1.
       -2    1    3    3    0  502 -0.59456387610E+03 -0.10904761008E+03 -0.65835591568E+03  0.89377295536E+03  0.25500000920E-02 0.  1.
</event>
<event>
 5   0  0.1708578E-04  0.2088270E+04  0.7818609E-02  0.8566428E-01
        1   -1    0    0  501    0  0.00000000000E+00  0.00000000000E+00  0.13846323707E+04  0.13846323707E+04  0.50400001928E-02 0. -1.
       -1   -1    0    0    0  501  0.00000000000E+00  0.00000000000E+00 -0.78737001001E+03  0.78737001003E+03  0.50400001928E-02 0.  1.
    10030    2    1    2    0    0  0.00000000000E+00  0.00000000000E+00  0.59726236064E+03  0.21720023807E+04  0.20882701009E+04 0.  0.
        3    1    3    3  502    0  0.62266656844E+03  0.52267380520E+03  0.98012572202E+03  0.12734001740E+04  0.10100000352E+00 0. -1.
       -3    1    3    3    0  502 -0.62266656844E+03 -0.52267380520E+03 -0.38286336138E+03  0.89860220664E+03  0.10100000352E+00 0.  1.
</event>
<event>
 5   0  0.3395569E-04  0.1966854E+04  0.7818609E-02  0.8622276E-01
       -2   -1    0    0    0  501  0.00000000000E+00  0.00000000000E+00  0.53630731135E+03  0.53630731136E+03  0.25500000920E-02 0.  1.
        2   -1    0    0  501    0  0.00000000000E+00  0.00000000000E+00 -0.18033104684E+04  0.18033104684E+04  0.25500000920E-02 0. -1.
    10030    2    1    2    0    0  0.00000000000E+00  0.00000000000E+00 -0.12670031570E+04  0.23396177797E+04  0.19668539232E+04 0.  0.
        4    1    3    3  502    0 -0.22671270996E+03 -0.50852704378E+03 -0.15977700813E+04  0.16920015522E+04  0.12699999809E+01 0. -1.
       -4    1    3    3    0  502  0.22671270996E+03  0.50852704378E+03  0.33076692424E+03  0.64761622755E+03  0.12699999809E+01 0.  1.
</event>
<event>
 5   0  0.3387881E-04  0.1930056E+04  0.7818609E-02  0.8640039E-01
        2   -1    0    0  501    0  0.00000000000E+00  0.00000000000E+00  0.15134626879E+04  0.15134626879E+04  0.25500000920E-02 0. -1.
       -2   -1    0    0    0  501  0.00000000000E+00  0.00000000000E+00 -0.61532991033E+03  0.61532991034E+03  0.25500000920E-02 0.  1.
    10030    2    1    2    0    0  0.00000000000E+00  0.00000000000E+00  0.89813277754E+03  0.21287925982E+04  0.19300558127E+04 0.  0.
        1    1    3    3  502    0 -0.15955504817E+03 -0.95167252807E+03  0.46213766626E+03  0.10699110415E+04  0.50400001928E-02 0. -1.
       -1    1    3    3    0  502  0.15955504817E+03  0.95167252807E+03  0.43599511128E+03  0.10588815567E+04  0.50400001928E-02 0.  1.
</event>
<event>
 5   0  0.1708578E-04  0.2049438E+04  0.7818609E-02  0.8583849E-01
       -1   -1    0    0    0  501  0.00000000000E+00  0.00000000000E+00  0.66508785587E+03  0.66508785588E+03  0.50400001928E-02 0. -1.
        1   -1    0    0  501    0  0.00000000000E+00  0.00000000000E+00 -0.15788120203E+04  0.15788120203E+04  0.50400001928E-02 0.  1.
    10030    2    1    2    0    0  0.00000000000E+00  0.00000000000E+00 -0.91372416447E+03  0.22438998762E+04  0.20494376804E+04 0.  0.
        3    1    3    3  502    0  0.43126274338E+03  0.23250072406E+03  0.52853775740E+03  0.72069155102E+03  0.10100000352E+00 0. -1.
       -3    1    3    3    0  502 -0.43126274338E+03 -0.23250072406E+03 -0.14422619219E+04  0.15232083252E+04  0.10100000352E+00 0.  1.
</event>
<event>
 5   0  0.1664168E-04  0.1993656E+04  0.7818609E-02  0.8609592E-01
        1   -1    0    0  501    0  0.00000000000E+00  0.00000000000E+00  0.83964516469E+03  0.83964516471E+03  0.50400001928E-02 0.  1.
       -1   -1    0    0    0  501  0.00000000000E+00  0.00000000000E+00 -0.11834355940E+04  0.11834355940E+04  0.50400001928E-02 0. -1.
    10030    2    1    2    0    0  0.00000000000E+00  0.00000000000E+00 -0.34379042931E+03  0.20230807587E+04  0.19936559124E+04 0.  0.
        5    1    3    3  502    0  0.20877437602E+03  0.82753857412E+03  0.35071766806E+03  0.92273062397E+03  0.46999998093E+01 0.  1.
       -5    1    3    3    0  502 -0.20877437602E+03 -0.82753857412E+03 -0.69450809737E+03  0.11003501348E+04  0.46999998093E+01 0. -1.
</event>
<event>
 5   0  0.1708578E-04  0.2019853E+04  0.7818609E-02  0.8597395E-01
        1   -1    0    0  501    0  0.00000000000E+00  0.00000000000E+00  0.12979269348E+04  0.12979269348E+04  0.50400001928E-02 0. -1.
       -1   -1    0    0    0  501  0.00000000000E+00  0.00000000000E+00 -0.78583112388E+03  0.78583112390E+03  0.50400001928E-02 0.  1.
    10030    2    1    2    0    0  0.00000000000E+00  0.00000000000E+00  0.51209581093E+03  0.20837580587E+04  0.20198528480E+04 0.  0.
        3    1    3    3  502    0  0.89841231933E+03  0.35975388396E+03 -0.41850688161E+02  0.96866869612E+03  0.10100000352E+00 0.  1.
       -3    1    3    3    0  502 -0.89841231933E+03 -0.35975388396E+03  0.55394649909E+03  0.11150893626E+04  0.10100000352E+00 0. -1.
</event>
<event>
 5   0  0.1222488E-04  0.1989818E+04  0.7818609E-02  0.8611396E-01
       -3   -1    0    0    0  501  0.00000000000E+00  0.00000000000E+00  0.64284355920E+03  0.64284356713E+03  0.10100000352E+00 0.  1.
        3   -1    0    0  501    0  0.00000000000E+00  0.00000000000E+00 -0.15397896967E+04  0.15397897001E+04  0.10100000352E+00 0. -1.
    10030    2    1    2    0    0  0.00000000000E+00  0.00000000000E+00 -0.89694613754E+03  0.21826332672E+04  0.19898179830E+04 0.  0.
        2    1    3    3  502    0  0.39131901251E+03 -0.82013312079E+03 -0.89281273825E+03  0.12739165950E+04  0.25500000920E-02 0. -1.
       -2    1    3    3    0  502 -0.39131901251E+03  0.82013312079E+03 -0.41333992929E+01  0.90871667222E+03  0.25500000920E-02 0.  1.
</event>
<event>
 5   0  0.3371947E-04  0.1460892E+04  0.7818609E-02  0.8910884E-01
       -2   -1    0    0    0  501  0.00000000000E+00  0.00000000000E+00  0.10148907728E+04  0.10148907729E+04  0.25500000920E-02 0.  1.
        2   -1    0    0  501    0  0.00000000000E+00  0.00000000000E+00 -0.52572293679E+03  0.52572293679E+03  0.25500000920E-02 0. -1.
    10030    2    1    2    0    0  0.00000000000E+00  0.00000000000E+00  0.48916783606E+03  0.15406137096E+04  0.14608919982E+04 0.  0.
        2    1    3    3  502    0  0.32612698162E+03 -0.46867342770E+03 -0.23583955497E+03  0.61776523507E+03  0.25500000920E-02 0. -1.
       -2    1    3    3    0  502 -0.32612698162E+03  0.46867342770E+03  0.72500739103E+03  0.92284847457E+03  0.25500000920E-02 0.  1.
</event>
<event>
 5   0  0.1708578E-04  0.1490835E+04  0.7818609E-02  0.8890571E-01
        1   -1    0    0  501    0  0.00000000000E+00  0.00000000000E+00  0.14786286509E+04  0.14786286510E+04  0.50400001928E-02 0. -1.
       -1   -1    0    0    0  501  0.00000000000E+00  0.00000000000E+00 -0.37578532303E+03  0.37578532307E+03  0.50400001928E-02 0.  1.
    10030    2    1    2    0    0  0.00000000000E+00  0.00000000000E+00  0.11028433279E+04  0.18544139740E+04  0.14908345921E+04 0.  0.
        3    1    3    3  502    0 -0.30369298274E+03  0.67862332080E+03  0.48457680852E+03  0.88745351025E+03  0.10100000352E+00 0. -1.
       -3    1    3    3    0  502  0.30369298274E+03 -0.67862332080E+03  0.61826651939E+03  0.96696046377E+03  0.10100000352E+00 0.  1.
</event>
<event>
 5   0  0.3387881E-04  0.1947913E+04  0.7818609E-02  0.8631368E-01
       -2   -1    0    0    0  501  0.00000000000E+00  0.00000000000E+00  0.48163095747E+03  0.48163095747E+03  0.25500000920E-02 0. -1.
        2   -1    0    0  501    0  0.00000000000E+00  0.00000000000E+00 -0.19695402650E+04  0.19695402650E+04  0.25500000920E-02 0.  1.
    10030    2    1    2    0    0  0.00000000000E+00  0.00000000000E+00 -0.14879093075E+04  0.24511712224E+04  0.19479133077E+04 0.  0.
        1    1    3    3  502    0 -0.20685917562E+03 -0.87438344960E+02 -0.19365133472E+04  0.19494922741E+04  0.50400001928E-02 0.  1.
       -1    1    3    3    0  502  0.20685917562E+03  0.87438344960E+02  0.44860403974E+03  0.50167894834E+03  0.50400001928E-02 0. -1.
</event>
<event>
 5   0  0.3395569E-04  0.2010814E+04  0.7818609E-02  0.8601581E-01
       -2   -1    0    0    0  501  0.00000000000E+00  0.00000000000E+00  0.18944597287E+04  0.18944597287E+04  0.25500000920E-02 0.  1.
        2   -1    0    0  501    0  0.00000000000E+00  0.00000000000E+00 -0.53357881714E+03  0.53357881714E+03  0.25500000920E-02 0. -1.
    10030    2    1    2    0    0  0.00000000000E+00  0.00000000000E+00  0.13608809116E+04  0.24280385458E+04  0.20108143437E+04 0.  0.
        4    1    3    3  502    0  0.70993954602E+03 -0.63714579575E+03  0.29693533590E+03  0.99907013300E+03  0.12699999809E+01 0. -1.
       -4    1    3    3    0  502 -0.70993954602E+03  0.63714579575E+03  0.10639455757E+04  0.14289684128E+04  0.12699999809E+01 0.  1.
</event>
<event>
 5   0  0.1664168E-04  0.1999840E+04  0.7818609E-02  0.8606695E-01
        1   -1    0    0  501    0  0.00000000000E+00  0.00000000000E+00  0.13205026119E+04  0.13205026119E+04  0.50400001928E-02 0. -1.
       -1   -1    0    0    0  501  0.00000000000E+00  0.00000000000E+00 -0.75716634758E+03  0.75716634759E+03  0.50400001928E-02 0.  1.
    10030    2    1    2    0    0  0.00000000000E+00  0.00000000000E+00  0.56333626431E+03  0.20776689595E+04  0.19998401332E+04 0.  0.
        5    1    3    3  502    0 -0.49423971179E+03 -0.18528758865E+03  0.11639615629E+04  0.12780582902E+04  0.46999998093E+01 0. -1.
       -5    1    3    3    0  502  0.49423971179E+03  0.18528758865E+03 -0.60062529857E+03  0.79961066932E+03  0.46999998093E+01 0.  1.
</event>
<event>
 5   0  0.3431030E-04  0.1831601E+04  0.7818609E-02  0.8689673E-01
        2   -1    0    0  501    0  0.00000000000E+00  0.00000000000E+00  0.16898228086E+04  0.16898228086E+04  0.25500000920E-02 0. -1.
       -2   -1    0    0    0  501  0.00000000000E+00  0.00000000000E+00 -0.49631841563E+03  0.49631841563E+03  0.25500000920E-02 0.  1.
    10030    2    1    2    0    0  0.00000000000E+00  0.00000000000E+00  0.11935043930E+04  0.21861412242E+04  0.18316005886E+04 0.  0.
        3    1    3    3  502    0 -0.30795011372E+03 -0.22463473900E+03 -0.39713740364E+03  0.55046540861E+03  0.10100000352E+00 0.  1.
       -3    1    3    3    0  502  0.30795011372E+03  0.22463473900E+03  0.15906417966E+04  0.16356758156E+04  0.10100000352E+00 0. -1.
</event>
<event>
 5   0  0.3431030E-04  0.1986705E+04  0.7818609E-02  0.8612862E-01
       -2   -1    0    0    0  501  0.00000000000E+00  0.00000000000E+00  0.65924928055E+03  0.65924928055E+03  0.25500000920E-02 0. -1.
        2   -1    0    0  501    0  0.00000000000E+00  0.00000000000E+00 -0.14967770689E+04  0.14967770689E+04  0.25500000920E-02 0.  1.
    10030    2    1    2    0    0  0.00000000000E+00  0.00000000000E+00 -0.83752778832E+03  0.21560263494E+04  0.19867050167E+04 0.  0.
        3    1    3    3  502    0  0.11039893377E+03  0.48716250132E+03  0.51303747533E+03  0.71604656871E+03  0.10100000352E+00 0. -1.
       -3    1    3    3    0  502 -0.11039893377E+03 -0.48716250132E+03 -0.13505652637E+04  0.14399797807E+04  0.10100000352E+00 0.  1.
</event>
<event>
 5   0  0.1643565E-04  0.1994171E+04  0.7818609E-02  0.8609351E-01
        1   -1    0    0  501    0  0.00000000000E+00  0.00000000000E+00  0.20115834326E+04  0.20115834326E+04  0.50400001928E-02 0.  1.
       -1   -1    0    0    0  501  0.00000000000E+00  0.00000000000E+00 -0.49422753102E+03  0.49422753104E+03  0.50400001928E-02 0. -1.
    10030    2    1    2    0    0  0.00000000000E+00  0.00000000000E+00  0.15173559015E+04  0.25058109636E+04  0.19941714203E+04 0.  0.
        2    1    3    3  502    0 -0.55438016852E+03  0.62066288416E+03  0.14487842252E+04  0.16707888910E+04  0.25500000920E-02 0.  1.
       -2    1    3    3    0  502  0.55438016852E+03 -0.62066288416E+03  0.68571676374E+02  0.83502207266E+03  0.25500000920E-02 0. -1.
</event>
<event>
 5   0  0.1664168E-04  0.1928430E+04  0.7818609E-02  0.8640833E-01
        1   -1    0    0  501    0  0.00000000000E+00  0.00000000000E+00  0.15120429163E+04  0.15120429163E+04  0.50400001928E-02 0.  1.
       -1   -1    0    0    0  501  0.00000000000E+00  0.00000000000E+00 -0.61487073838E+03  0.61487073840E+03  0.50400001928E-02 0. -1.
    10030    2    1    2    0    0  0.00000000000E+00  0.00000000000E+00  0.89717217796E+03  0.21269136547E+04  0.19284303923E+04 0.  0.
        5    1    3    3  502    0 -0.63655870231E+03 -0.36238249504E+03 -0.24297571294E+03  0.77174305392E+03  0.46999998093E+01 0. -1.
       -5    1    3    3    0  502  0.63655870231E+03  0.36238249504E+03  0.11401478909E+04  0.13551706008E+04  0.46999998093E+01 0.  1.
</event>
<event>
 5   0  0.1650221E-04  0.2040379E+04  0.7818609E-02  0.8587971E-01
        1   -1    0    0  501    0  0.00000000000E+00  0.00000000000E+00  0.13113971534E+04  0.13113971534E+04  0.50400001928E-02 0. -1.
       -1   -1    0    0    0  501  0.00000000000E+00  0.00000000000E+00 -0.79364751155E+03  0.79364751157E+03  0.50400001928E-02 0.  1.
    10030    2    1    2    0    0  0.00000000000E+00  0.00000000000E+00  0.51774964185E+03  0.21050446650E+04  0.20403794622E+04 0.  0.
        1    1    3    3  502    0  0.55100547533E+03  0.22157603604E+03 -0.59692292317E+03  0.84203322370E+03  0.50400001928E-02 0.  1.
       -1    1    3    3    0  502 -0.55100547533E+03 -0.22157603604E+03  0.11146725650E+04  0.12630114413E+04  0.50400001928E-02 0. -1.
</event>
<event>
 5   0  0.3460648E-04  0.2009111E+04  0.7818609E-02  0.8602373E-01
       -2   -1    0    0    0  501  0.00000000000E+00  0.00000000000E+00  0.68645177964E+03  0.68645177964E+03  0.25500000920E-02 0.  1.
        2   -1    0    0  501    0  0.00000000000E+00  0.00000000000E+00 -0.14700688031E+04  0.14700688031E+04  0.25500000920E-02 0. -1.
    10030    2    1    2    0    0  0.00000000000E+00  0.00000000000E+00 -0.78361702348E+03  0.21565205828E+04  0.20091105954E+04 0.  0.
        5    1    3    3  502    0 -0.55626724479E+03 -0.83646044414E+03 -0.39519156458E+03  0.10794895946E+04  0.46999998093E+01 0.  1.
       -5    1    3    3    0  502  0.55626724479E+03  0.83646044414E+03 -0.38842545890E+03  0.10770309881E+04  0.46999998093E+01 0. -1.
</event>
<event>
 5   0  0.3431030E-04  0.1841704E+04  0.7818609E-02  0.8684431E-01
       -2   -1    0    0    0  501  0.00000000000E+00  0.00000000000E+00  0.41136759619E+03  0.41136759619E+03  0.25500000920E-02 0.  1.
        2   -1    0    0  501    0  0.00000000000E+00  0.00000000000E+00 -0.20613405720E+04  0.20613405720E+04  0.25500000920E-02 0. -1.
    10030    2    1    2    0    0  0.00000000000E+00  0.00000000000E+00 -0.16499729758E+04  0.24727081682E+04  0.18417043368E+04 0.  0.
        3    1    3    3  502    0 -0.27186093424E+03  0.44419084400E+03  0.19465752541E+03  0.55597251358E+03  0.10100000352E+00 0.  1.
       -3    1    3    3    0  502  0.27186093424E+03 -0.44419084400E+03 -0.18446305012E+04  0.19167356546E+04  0.10100000352E+00 0. -1.
</event>
<event>
 5   0  0.3395569E-04  0.2155914E+04  0.7818609E-02  0.8537005E-01
       -2   -1    0    0    0  501  0.00000000000E+00  0.00000000000E+00  0.54782831711E+03  0.54782831711E+03  0.25500000920E-02 0. -1.
        2   -1    0    0  501    0  0.00000000000E+00  0.00000000000E+00 -0.21210856851E+04  0.21210856851E+04  0.25500000920E-02 0.  1.
    10030    2    1    2    0    0  0.00000000000E+00  0.00000000000E+00 -0.15732573680E+04  0.26689140022E+04  0.21559135431E+04 0.  0.
        4    1    3    3  502    0 -0.10066293991E+04  0.14165305886E+03 -0.34265325989E+03  0.10727447067E+04  0.12699999809E+01 0.  1.
       -4    1    3    3    0  502  0.10066293991E+04 -0.14165305886E+03 -0.12306041081E+04  0.15961692956E+04  0.12699999809E+01 0. -1.
</event>
<event>
 5   0  0.3431030E-04  0.2016912E+04  0.7818609E-02  0.8598754E-01
       -2   -1    0    0    0  501  0.00000000000E+00  0.00000000000E+00  0.13080388329E+04  0.13080388329E+04  0.25500000920E-02 0. -1.
        2   -1    0    0  501    0  0.00000000000E+00  0.00000000000E+00 -0.77748719426E+03  0.77748719426E+03  0.25500000920E-02 0.  1.
    10030    2    1    2    0    0  0.00000000000E+00  0.00000000000E+00  0.53055163868E+03  0.20855260272E+04  0.20169119388E+04 0.  0.
        3    1    3    3  502    0 -0.74069448879E+03 -0.29374990614E+03 -0.37386702271E+03  0.88016696936E+03  0.10100000352E+00 0.  1.
       -3    1    3    3    0  502  0.74069448879E+03  0.29374990614E+03  0.90441866139E+03  0.12053590578E+04  0.10100000352E+00 0. -1.
</event>
<event>
 5   0  0.1664168E-04  0.1225383E+04  0.7818609E-02  0.9090924E-01
        1   -1    0    0  501    0  0.00000000000E+00  0.00000000000E+00  0.16812492522E+04  0.16812492522E+04  0.50400001928E-02 0. -1.
       -1   -1    0    0    0  501  0.00000000000E+00  0.00000000000E+00 -0.22328103883E+03  0.22328103889E+03  0.50400001928E-02 0.  1.
    10030    2    1    2    0    0  0.00000000000E+00  0.00000000000E+00  0.14579682134E+04  0.19045302911E+04  0.12253833353E+04 0.  0.
        5    1    3    3  502    0  0.10843892254E+03 -0.22208554268E+03 -0.14234017157E+03  0.28524340944E+03  0.46999998093E+01 0.  1.
       -5    1    3    3    0  502 -0.10843892254E+03  0.22208554268E+03  0.16003083849E+04  0.16192868817E+04  0.46999998093E+01 0. -1.
</event>
<event>
 5   0  0.1696052E-04  0.2255771E+04  0.7818609E-02  0.8495567E-01
        1   -1    0    0  501    0  0.00000000000E+00  0.00000000000E+00  0.13330384714E+04  0.13330384714E+04  0.50400001928E-02 0.  1.
       -1   -1    0    0    0  501  0.00000000000E+00  0.00000000000E+00 -0.95430546623E+03  0.95430546624E+03  0.50400001928E-02 0. -1.
    10030    2    1    2    0    0  0.00000000000E+00  0.00000000000E+00  0.37873300516E+03  0.22873439376E+04  0.22557711763E+04 0.  0.
        4    1    3    3  502    0  0.28814325521E+03  0.54712809765E+03 -0.76710070563E+03  0.98530238822E+03  0.12699999809E+01 0. -1.
       -4    1    3    3    0  502 -0.28814325521E+03 -0.54712809765E+03  0.11458337108E+04  0.13020415494E+04  0.12699999809E+01 0.  1.
</event>
<event>
 5   0  0.1664168E-04  0.1843000E+04  0.7818609E-02  0.8683761E-01
        1   -1    0    0  501    0  0.00000000000E+00  0.00000000000E+00  0.10541371905E+04  0.10541371906E+04  0.50400001928E-02 0. -1.
       -1   -1    0    0    0  501  0.00000000000E+00  0.00000000000E+00 -0.80555231892E+03  0.80555231893E+03  0.50400001928E-02 0.  1.
    10030    2    1    2    0    0  0.00000000000E+00  0.00000000000E+00  0.24858487163E+03  0.18596895095E+04  0.18430004431E+04 0.  0.
        5    1    3    3  502    0 -0.71780390024E+03  0.41603354695E+01  0.70734906537E+03  0.10077819893E+04  0.46999998093E+01 0. -1.
       -5    1    3    3    0  502  0.71780390024E+03 -0.41603354695E+01 -0.45876419374E+03  0.85190752024E+03  0.46999998093E+01 0.  1.
</event>
<event>
 5   0  0.1696052E-04  0.1992856E+04  0.7818609E-02  0.8609968E-01
       -1   -1    0    0    0  501  0.00000000000E+00  0.00000000000E+00  0.54558004350E+03  0.54558004353E+03  0.50400001928E-02 0. -1.
        1   -1    0    0  501    0  0.00000000000E+00  0.00000000000E+00 -0.18198403612E+04  0.18198403612E+04  0.50400001928E-02 0.  1.
    10030    2    1    2    0    0  0.00000000000E+00  0.00000000000E+00 -0.12742603177E+04  0.23654204047E+04  0.19928558237E+04 0.  0.
        4    1    3    3  502    0  0.33662619174E+03  0.93552429515E+03 -0.55889879421E+03  0.11405666902E+04  0.12699999809E+01 0.  1.
       -4    1    3    3    0  502 -0.33662619174E+03 -0.93552429515E+03 -0.71536152349E+03  0.12248537145E+04  0.12699999809E+01 0. -1.
</event>
<event>
 5   0  0.3431030E-04  0.1940348E+04  0.7818609E-02  0.8635029E-01
        2   -1    0    0  501    0  0.00000000000E+00  0.00000000000E+00  0.85696027664E+03  0.85696027664E+03  0.25500000920E-02 0. -1.
       -2   -1    0    0    0  501  0.00000000000E+00  0.00000000000E+00 -0.10983449462E+04  0.10983449462E+04  0.25500000920E-02 0.  1.
    10030    2    1    2    0    0  0.00000000000E+00  0.00000000000E+00 -0.24138466955E+03  0.19553052228E+04  0.19403484109E+04 0.  0.
        3    1    3    3  502    0  0.22473528065E+02  0.65003666505E+03  0.60470735552E+03  0.88810118871E+03  0.10100000352E+00 0. -1.
       -3    1    3    3    0  502 -0.22473528065E+02 -0.65003666505E+03 -0.84609202506E+03  0.10672040341E+04  0.10100000352E+00 0.  1.
</event>
<event>
 5   0  0.1708578E-04  0.2272161E+04  0.7818609E-02  0.8488979E-01
       -1   -1    0    0    0  501  0.00000000000E+00  0.00000000000E+00  0.16945239591E+04  0.16945239591E+04  0.50400001928E-02 0. -1.
        1   -1    0    0  501    0  0.00000000000E+00  0.00000000000E+00 -0.76167643698E+03  0.76167643700E+03  0.50400001928E-02 0.  1.
    10030    2    1    2    0    0  0.00000000000E+00  0.00000000000E+00  0.93284752211E+03  0.24562003961E+04  0.22721610608E+04 0.  0.
        3    1    3    3  502    0  0.13682719621E+03 -0.63463965546E+03 -0.54139396267E+03  0.84533816128E+03  0.10100000352E+00 0.  1.
       -3    1    3    3    0  502 -0.13682719621E+03  0.63463965546E+03  0.14742414848E+04  0.16108622348E+04  0.10100000352E+00 0. -1.
</event>
<event>
 5   0  0.1222488E-04  0.2006530E+04  0.7818609E-02  0.8603574E-01
       -4   -1    0    0    0  501  0.00000000000E+00  0.00000000000E+00  0.10647452935E+04  0.10647460509E+04  0.12699999809E+01 0. -1.
        4   -1    0    0  501    0  0.00000000000E+00  0.00000000000E+00 -0.94533326681E+03  0.94533411989E+03  0.12699999809E+01 0.  1.
    10030    2    1    2    0    0  0.00000000000E+00  0.00000000000E+00  0.11941202670E+03  0.20100801708E+04  0.20065301047E+04 0.  0.
        2    1    3    3  502    0  0.42221865100E+03 -0.69104254391E+03 -0.53356841502E+03  0.96979566933E+03  0.25500000920E-02 0.  1.
       -2    1    3    3    0  502 -0.42221865100E+03  0.69104254391E+03  0.65298044172E+03  0.10402845015E+04  0.25500000920E-02 0. -1.
</event>
<event>
 5   0  0.3431030E-04  0.1971646E+04  0.7818609E-02  0.8619993E-01
       -2   -1    0    0    0  501  0.00000000000E+00  0.00000000000E+00  0.94541229353E+03  0.94541229353E+03  0.25500000920E-02 0. -1.
        2   -1    0    0  501    0  0.00000000000E+00  0.00000000000E+00 -0.10279613371E+04  0.10279613371E+04  0.25500000920E-02 0.  1.
    10030    2    1    2    0    0  0.00000000000E+00  0.00000000000E+00 -0.82549043591E+02  0.19733736307E+04  0.19716463024E+04 0.  0.
        3    1    3    3  502    0 -0.36554820906E+03  0.43482806681E+03 -0.84767655948E+03  0.10204197668E+04  0.10100000352E+00 0.  1.
       -3    1    3    3    0  502  0.36554820906E+03 -0.43482806681E+03  0.76512751589E+03  0.95295386384E+03  0.10100000352E+00 0. -1.
</event>
<event>
 5   0  0.1708578E-04  0.2082922E+04  0.7818609E-02  0.8568804E-01
        1   -1    0    0  501    0  0.00000000000E+00  0.00000000000E+00  0.13280137644E+04  0.13280137644E+04  0.50400001928E-02 0.  1.
       -1   -1    0    0    0  501  0.00000000000E+00  0.00000000000E+00 -0.81673936192E+03  0.81673936194E+03  0.50400001928E-02 0. -1.
    10030    2    1    2    0    0  0.00000000000E+00  0.00000000000E+00  0.51127440249E+03  0.21447531264E+04  0.20829220961E+04 0.  0.
        3    1    3    3  502    0  0.87416669365E+03 -0.14943854368E+03  0.81786942095E+03  0.12064036168E+04  0.10100000352E+00 0.  1.
       -3    1    3    3    0  502 -0.87416669365E+03  0.14943854368E+03 -0.30659501846E+03  0.93834950960E+03  0.10100000352E+00 0. -1.
</event>
<event>
 5   0  0.3395569E-04  0.1966691E+04  0.7818609E-02  0.8622354E-01
        2   -1    0    0  501    0  0.00000000000E+00  0.00000000000E+00  0.85012467670E+03  0.85012467670E+03  0.25500000920E-02 0.  1.
       -2   -1    0    0    0  501  0.00000000000E+00  0.00000000000E+00 -0.11374428592E+04  0.11374428592E+04  0.25500000920E-02 0. -1.
    10030    2    1    2    0    0  0.00000000000E+00  0.00000000000E+00 -0.28731818246E+03  0.19875675359E+04  0.19666908683E+04 0.  0.
        4    1    3    3  502    0 -0.94499791999E+02 -0.69090474642E+03  0.55701652578E+03  0.89249571551E+03  0.12699999809E+01 0.  1.
       -4    1    3    3    0  502  0.94499791999E+02  0.69090474642E+03 -0.84433470823E+03  0.10950718204E+04  0.12699999809E+01 0. -1.
</event>
<event>
 5   0  0.1222488E-04  0.1809170E+04  0.7818609E-02  0.8701438E-01
        4   -1    0    0  501    0  0.00000000000E+00  0.00000000000E+00  0.11806354228E+04  0.11806361059E+04  0.12699999809E+01 0. -1.
       -4   -1    0    0    0  501  0.00000000000E+00  0.00000000000E+00 -0.69307770627E+03  0.69307886985E+03  0.12699999809E+01 0.  1.
    10030    2    1    2    0    0  0.00000000000E+00  0.00000000000E+00  0.48755771655E+03  0.18737149757E+04  0.18091697774E+04 0.  0.
        4    1    3    3  502    0  0.57562943573E+03  0.58646108809E+03 -0.14784712481E+03  0.83495283720E+03  0.12699999809E+01 0.  1.
       -4    1    3    3    0  502 -0.57562943573E+03 -0.58646108809E+03  0.63540484136E+03  0.10387621385E+04  0.12699999809E+01 0. -1.
</event>
<event>
 5   0  0.1643565E-04  0.1999840E+04  0.7818609E-02  0.8606696E-01
        1   -1    0    0  501    0  0.00000000000E+00  0.00000000000E+00  0.99523935278E+03  0.99523935279E+03  0.50400001928E-02 0.  1.
       -1   -1    0    0    0  501  0.00000000000E+00  0.00000000000E+00 -0.10046224222E+04  0.10046224222E+04  0.50400001928E-02 0. -1.
    10030    2    1    2    0    0  0.00000000000E+00  0.00000000000E+00 -0.93830693899E+01  0.19998617750E+04  0.19998397628E+04 0.  0.
        2    1    3    3  502    0  0.75627069668E+03 -0.59929268859E+03 -0.26688266593E+03  0.10011610513E+04  0.25500000920E-02 0. -1.
       -2    1    3    3    0  502 -0.75627069668E+03  0.59929268859E+03  0.25749959654E+03  0.99870072368E+03  0.25500000920E-02 0.  1.
</event>
<event>
 5   0  0.1696052E-04  0.2001115E+04  0.7818609E-02  0.8606099E-01
        1   -1    0    0  501    0  0.00000000000E+00  0.00000000000E+00  0.20350284275E+04  0.20350284275E+04  0.50400001928E-02 0.  1.
       -1   -1    0    0    0  501  0.00000000000E+00  0.00000000000E+00 -0.49194190565E+03  0.49194190567E+03  0.50400001928E-02 0. -1.
    10030    2    1    2    0    0  0.00000000000E+00  0.00000000000E+00  0.15430865218E+04  0.25269703332E+04  0.20011154516E+04 0.  0.
        4    1    3    3  502    0 -0.68646799629E+03 -0.30679380540E+03  0.16051253807E+04  0.17725094781E+04  0.12699999809E+01 0.  1.
       -4    1    3    3    0  502  0.68646799629E+03  0.30679380540E+03 -0.62038858914E+02  0.75446085510E+03  0.12699999809E+01 0. -1.
</event>
<event>
 5   0  0.1708578E-04  0.1853008E+04  0.7818609E-02  0.8678608E-01
       -1   -1    0    0    0  501  0.00000000000E+00  0.00000000000E+00  0.46901910419E+03  0.46901910421E+03  0.50400001928E-02 0.  1.
        1   -1    0    0  501    0  0.00000000000E+00  0.00000000000E+00 -0.18302228920E+04  0.18302228920E+04  0.50400001928E-02 0. -1.
    10030    2    1    2    0    0  0.00000000000E+00  0.00000000000E+00 -0.13612037878E+04  0.22992419962E+04  0.18530078265E+04 0.  0.
        3    1    3    3  502    0  0.49434778885E+01  0.76832661782E+03 -0.38176294987E+02  0.76929036737E+03  0.10100000352E+00 0.  1.
       -3    1    3    3    0  502 -0.49434778885E+01 -0.76832661782E+03 -0.13230274928E+04  0.15299516288E+04  0.10100000352E+00 0. -1.
</event>
<event>
 5   0  0.1664168E-04  0.2004302E+04  0.7818609E-02  0.8604612E-01
       -1   -1    0    0    0  501  0.00000000000E+00  0.00000000000E+00  0.91670072088E+03  0.91670072089E+03  0.50400001928E-02 0. -1.
        1   -1    0    0  501    0  0.00000000000E+00  0.00000000000E+00 -0.10955662507E+04  0.10955662507E+04  0.50400001928E-02 0.  1.
    10030    2    1    2    0    0  0.00000000000E+00  0.00000000000E+00 -0.17886552979E+03  0.20122669716E+04  0.20043017455E+04 0.  0.
        5    1    3    3  502    0 -0.79112359376E+03  0.61492641576E+03 -0.10602856201E+03  0.10076086459E+04  0.46999998093E+01 0.  1.
       -5    1    3    3    0  502  0.79112359376E+03 -0.61492641576E+03 -0.72836967778E+02  0.10046583256E+04  0.46999998093E+01 0. -1.
</event>
<event>
 5   0  0.3431030E-04  0.1973570E+04  0.7818609E-02  0.8619078E-01
        2   -1    0    0  501    0  0.00000000000E+00  0.00000000000E+00  0.69914186993E+03  0.69914186993E+03  0.25500000920E-02 0.  1.
       -2   -1    0    0    0  501  0.00000000000E+00  0.00000000000E+00 -0.13927711061E+04  0.13927711061E+04  0.25500000920E-02 0. -1.
    10030    2    1    2    0    0  0.00000000000E+00  0.00000000000E+00 -0.69362923614E+03  0.20919129760E+04  0.19735699587E+04 0.  0.
        3    1    3    3  502    0  0.37222010624E+03 -0.93785916733E+02 -0.13103917836E+04  0.13654560566E+04  0.10100000352E+00 0. -1.
       -3    1    3    3    0  502 -0.37222010624E+03  0.93785916733E+02  0.61676254746E+03  0.72645691945E+03  0.10100000352E+00 0.  1.
</event>
<event>
 5   0  0.1650221E-04  0.1993696E+04  0.7818609E-02  0.8609574E-01
        1   -1    0    0  501    0  0.00000000000E+00  0.00000000000E+00  0.13983818850E+04  0.13983818850E+04  0.50400001928E-02 0. -1.
       -1   -1    0    0    0  501  0.00000000000E+00  0.00000000000E+00 -0.71061121914E+03  0.71061121916E+03  0.50400001928E-02 0.  1.
    10030    2    1    2    0    0  0.00000000000E+00  0.00000000000E+00  0.68777066590E+03  0.21089931042E+04  0.19936959208E+04 0.  0.
        1    1    3    3  502    0 -0.28045413793E+03 -0.11240393089E+03 -0.66100761538E+03  0.72678761325E+03  0.50400001928E-02 0.  1.
       -1    1    3    3    0  502  0.28045413793E+03  0.11240393089E+03  0.13487782813E+04  0.13822054910E+04  0.50400001928E-02 0. -1.
</event>
<event>
 5   0  0.3387881E-04  0.1313139E+04  0.7818609E-02  0.9019211E-01
        2   -1    0    0  501    0  0.00000000000E+00  0.00000000000E+00  0.46667925196E+03  0.46667925197E+03  0.25500000920E-02 0. -1.
       -2   -1    0    0    0  501  0.00000000000E+00  0.00000000000E+00 -0.92372496300E+03  0.92372496301E+03  0.25500000920E-02 0.  1.
    10030    2    1    2    0    0  0.00000000000E+00  0.00000000000E+00 -0.45704571104E+03  0.13904042150E+04  0.13131386443E+04 0.  0.
        1    1    3    3  502    0 -0.36549389403E+02  0.31532323366E+03 -0.83707396331E+03  0.89524154262E+03  0.50400001928E-02 0.  1.
       -1    1    3    3    0  502  0.36549389403E+02 -0.31532323366E+03  0.38002825227E+03  0.49516267236E+03  0.50400001928E-02 0. -1.
</event>
<event>
 5   0  0.1708578E-04  0.1941610E+04  0.7818609E-02  0.8634417E-01
        1   -1    0    0  501    0  0.00000000000E+00  0.00000000000E+00  0.73671366979E+03  0.73671366981E+03  0.50400001928E-02 0. -1.
       -1   -1    0    0    0  501  0.00000000000E+00  0.00000000000E+00 -0.12792796024E+04  0.12792796024E+04  0.50400001928E-02 0.  1.
    10030    2    1    2    0    0  0.00000000000E+00  0.00000000000E+00 -0.54256593257E+03  0.20159932722E+04  0.19416104353E+04 0.  0.
        3    1    3    3  502    0 -0.23982405702E+03 -0.62868411355E+03  0.45531398374E+03  0.81244699948E+03  0.10100000352E+00 0. -1.
       -3    1    3    3    0  502  0.23982405702E+03  0.62868411355E+03 -0.99787991632E+03  0.12035462727E+04  0.10100000352E+00 0.  1.
</event>
<event>
 5   0  0.1643565E-04  0.1942436E+04  0.7818609E-02  0.8634017E-01
        1   -1    0    0  501    0  0.00000000000E+00  0.00000000000E+00  0.91528047247E+03  0.91528047248E+03  0.50400001928E-02 0.  1.
       -1   -1    0    0    0  501  0.00000000000E+00  0.00000000000E+00 -0.10305745408E+04  0.10305745408E+04  0.50400001928E-02 0. -1.
    10030    2    1    2    0    0  0.00000000000E+00  0.00000000000E+00 -0.11529406834E+03  0.19458550133E+04  0.19424363595E+04 0.  0.
        2    1    3    3  502    0 -0.19360790037E+03 -0.94847026874E+03 -0.13642947263E+03  0.97759545354E+03  0.25500000920E-02 0. -1.
       -2    1    3    3    0  502  0.19360790037E+03  0.94847026874E+03  0.21135404292E+02  0.96825955977E+03  0.25500000920E-02 0.  1.
</event>
<event>
 5   0  0.1664168E-04  0.2165250E+04  0.7818609E-02  0.8533032E-01
       -1   -1    0    0    0  501  0.00000000000E+00  0.00000000000E+00  0.62498201524E+03  0.62498201526E+03  0.50400001928E-02 0.  1.
        1   -1    0    0  501    0  0.00000000000E+00  0.00000000000E+00 -0.18753776636E+04  0.18753776636E+04  0.50400001928E-02 0. -1.
    10030    2    1    2    0    0  0.00000000000E+00  0.00000000000E+00 -0.12503956483E+04  0.25003596789E+04  0.21652503888E+04 0.  0.
        5    1    3    3  502    0 -0.39596119884E+03  0.33221083919E+02 -0.17881154455E+04  0.18317390228E+04  0.46999998093E+01 0. -1.
       -5    1    3    3    0  502  0.39596119884E+03 -0.33221083919E+02  0.53771979714E+03  0.66862065601E+03  0.46999998093E+01 0.  1.
</event>
<event>
 5   0  0.3460648E-04  0.2004229E+04  0.7818609E-02  0.8604646E-01
       -2   -1    0    0    0  501  0.00000000000E+00  0.00000000000E+00  0.42744790146E+03  0.42744790147E+03  0.25500000920E-02 0.  1.
        2   -1    0    0  501    0  0.00000000000E+00  0.00000000000E+00 -0.23493715307E+04  0.23493715307E+04  0.25500000920E-02 0. -1.
    10030    2    1    2    0    0  0.00000000000E+00  0.00000000000E+00 -0.19219236292E+04  0.27768194322E+04  0.20042294585E+04 0.  0.
        5    1    3    3  502    0  0.16474094718E+03 -0.87819730954E+03 -0.33237259632E+03  0.95334344648E+03  0.46999998093E+01 0.  1.
       -5    1    3    3    0  502 -0.16474094718E+03  0.87819730954E+03 -0.15895510329E+04  0.18234759857E+04  0.46999998093E+01 0. -1.
</event>
<event>
 5   0  0.3460648E-04  0.1990470E+04  0.7818609E-02  0.8611089E-01
        2   -1    0    0  501    0  0.00000000000E+00  0.00000000000E+00  0.10795419661E+04  0.10795419661E+04  0.25500000920E-02 0.  1.
       -2   -1    0    0    0  501  0.00000000000E+00  0.00000000000E+00 -0.91751206579E+03  0.91751206579E+03  0.25500000920E-02 0. -1.
    10030    2    1    2    0    0  0.00000000000E+00  0.00000000000E+00  0.16202990031E+03  0.19970540319E+04  0.19904700745E+04 0.  0.
        5    1    3    3  502    0  0.67931326433E+03 -0.71494440423E+03 -0.53063445931E+02  0.98764863769E+03  0.46999998093E+01 0. -1.
       -5    1    3    3    0  502 -0.67931326433E+03  0.71494440423E+03  0.21509334624E+03  0.10094053942E+04  0.46999998093E+01 0.  1.
</event>
<event>
 5   0  0.3460648E-04  0.1938812E+04  0.7818609E-02  0.8635775E-01
        2   -1    0    0  501    0  0.00000000000E+00  0.00000000000E+00  0.11656951946E+04  0.11656951946E+04  0.25500000920E-02 0. -1.
       -2   -1    0    0    0  501  0.00000000000E+00  0.00000000000E+00 -0.80616961807E+03  0.80616961807E+03  0.25500000920E-02 0.  1.
    10030    2    1    2    0    0  0.00000000000E+00  0.00000000000E+00  0.35952557650E+03  0.19718648126E+04  0.19388120588E+04 0.  0.
        5    1    3    3  502    0  0.12117519587E+03  0.95584020261E+03  0.28841111545E+03  0.10057420060E+04  0.46999998093E+01 0.  1.
       -5    1    3    3    0  502 -0.12117519587E+03 -0.95584020261E+03  0.71114461050E+02  0.96612280668E+03  0.46999998093E+01 0. -1.
</event>
<event>
 5   0  0.1696052E-04  0.2026676E+04  0.7818609E-02  0.8594249E-01
       -1   -1    0    0    0  501  0.00000000000E+00  0.00000000000E+00  0.55115484987E+03  0.55115484989E+03  0.50400001928E-02 0. -1.
        1   -1    0    0  501    0  0.00000000000E+00  0.00000000000E+00 -0.18630953054E+04  0.18630953054E+04  0.50400001928E-02 0.  1.
    10030    2    1    2    0    0  0.00000000000E+00  0.00000000000E+00 -0.13119404555E+04  0.24142501553E+04  0.20266761096E+04 0.  0.
        4    1    3    3  502    0 -0.43960840616E+03  0.77857909530E+03 -0.12240431333E+04  0.15158245821E+04  0.12699999809E+01 0.  1.
       -4    1    3    3    0  502  0.43960840616E+03 -0.77857909530E+03 -0.87897322142E+02  0.89842557319E+03  0.12699999809E+01 0. -1.
</event>
<event>
 5   0  0.3371947E-04  0.1342908E+04  0.7818609E-02  0.8996214E-01
        2   -1    0    0  501    0  0.00000000000E+00  0.00000000000E+00  0.20738304317E+04  0.20738304317E+04  0.25500000920E-02 0.  1.
       -2   -1    0    0    0  501  0.00000000000E+00  0.00000000000E+00 -0.21739994701E+03  0.21739994702E+03  0.25500000920E-02 0. -1.
    10030    2    1    2    0    0  0.00000000000E+00  0.00000000000E+00  0.18564304847E+04  0.22912303788E+04  0.13429082262E+04 0.  0.
        2    1    3    3  502    0  0.16290995004E+02 -0.67092817401E+03  0.96402917064E+03  0.11746328163E+04  0.25500000920E-02 0.  1.
       -2    1    3    3    0  502 -0.16290995004E+02  0.67092817401E+03  0.89240131409E+03  0.11165975625E+04  0.25500000920E-02 0. -1.
</event>
<event>
 5   0  0.3431030E-04  0.1965840E+04  0.7818609E-02  0.8622760E-01
        2   -1    0    0  501    0  0.00000000000E+00  0.00000000000E+00  0.11331025128E+04  0.11331025128E+04  0.25500000920E-02 0. -1.
       -2   -1    0    0    0  501  0.00000000000E+00  0.00000000000E+00 -0.85264300616E+03  0.85264300617E+03  0.25500000920E-02 0.  1.
    10030    2    1    2    0    0  0.00000000000E+00  0.00000000000E+00  0.28045950665E+03  0.19857455190E+04  0.19658402100E+04 0.  0.
        3    1    3    3  502    0  0.44709435751E+03 -0.77268211082E+03 -0.27527570103E+03  0.93418827368E+03  0.10100000352E+00 0.  1.
       -3    1    3    3    0  502 -0.44709435751E+03  0.77268211082E+03  0.55573520768E+03  0.10515572453E+04  0.10100000352E+00 0. -1.
</event>
<event>
 5   0  0.1708578E-04  0.2087302E+04  0.7818609E-02  0.8566858E-01
       -1   -1    0    0    0  501  0.00000000000E+00  0.00000000000E+00  0.92712701695E+03  0.92712701696E+03  0.50400001928E-02 0.  1.
        1   -1    0    0  501    0  0.00000000000E+00  0.00000000000E+00 -0.11748199524E+04  0.11748199524E+04  0.50400001928E-02 0. -1.
    10030    2    1    2    0    0  0.00000000000E+00  0.00000000000E+00 -0.24769293544E+03  0.21019469694E+04  0.20873019120E+04 0.  0.
        3    1    3    3  502    0  0.71844007274E+03 -0.36010609558E+03  0.54668933533E+03  0.97195770369E+03  0.10100000352E+00 0.  1.
       -3    1    3    3    0  502 -0.71844007274E+03  0.36010609558E+03 -0.79438227077E+03  0.11299892657E+04  0.10100000352E+00 0. -1.
</event>
<event>
 5   0  0.3431030E-04  0.1903419E+04  0.7818609E-02  0.8653157E-01
       -2   -1    0    0    0  501  0.00000000000E+00  0.00000000000E+00  0.56302281622E+03  0.56302281622E+03  0.25500000920E-02 0. -1.
        2   -1    0    0  501    0  0.00000000000E+00  0.00000000000E+00 -0.16087281751E+04  0.16087281751E+04  0.25500000920E-02 0.  1.
    10030    2    1    2    0    0  0.00000000000E+00  0.00000000000E+00 -0.10457053588E+04  0.21717509913E+04  0.19034186798E+04 0.  0.
        3    1    3    3  502    0  0.93366032924E+03  0.16756142701E+03 -0.61087949974E+03  0.11282607037E+04  0.10100000352E+00 0.  1.
       -3    1    3    3    0  502 -0.93366032924E+03 -0.16756142701E+03 -0.43482585910E+03  0.10434902875E+04  0.10100000352E+00 0. -1.
</event>
<event>
 5   0  0.1696052E-04  0.2107970E+04  0.7818609E-02  0.8557741E-01
       -1   -1    0    0    0  501  0.00000000000E+00  0.00000000000E+00  0.65862374994E+03  0.65862374996E+03  0.50400001928E-02 0.  1.
        1   -1    0    0  501    0  0.00000000000E+00  0.00000000000E+00 -0.16866748959E+04  0.16866748959E+04  0.50400001928E-02 0. -1.
    10030    2    1    2    0    0  0.00000000000E+00  0.00000000000E+00 -0.10280511460E+04  0.23452986459E+04  0.21079697768E+04 0.  0.
        4    1    3    3  502    0 -0.70857240932E+03  0.76510783986E+03 -0.34376833714E+03  0.10980178270E+04  0.12699999809E+01 0.  1.
       -4    1    3    3    0  502  0.70857240932E+03 -0.76510783986E+03 -0.68428280886E+03  0.12472808189E+04  0.12699999809E+01 0. -1.
</event>
<event>
 5   0  0.3460648E-04  0.1857912E+04  0.7818609E-02  0.8676095E-01
       -2   -1    0    0    0  501  0.00000000000E+00  0.00000000000E+00  0.51659227198E+03  0.51659227199E+03  0.25500000920E-02 0. -1.
        2   -1    0    0  501    0  0.00000000000E+00  0.00000000000E+00 -0.16704844621E+04  0.16704844621E+04  0.25500000920E-02 0.  1.
    10030    2    1    2    0    0  0.00000000000E+00  0.00000000000E+00 -0.11538921901E+04  0.21870767341E+04  0.18579121224E+04 0.  0.
        5    1    3    3  502    0 -0.74443388634E+02 -0.17075606583E+03  0.49436692128E+03  0.52831827053E+03  0.46999998093E+01 0. -1.
       -5    1    3    3    0  502  0.74443388634E+02  0.17075606583E+03 -0.16482591114E+04  0.16587584635E+04  0.46999998093E+01 0.  1.
</event>
<event>
 5   0  0.1708578E-04  0.1649859E+04  0.7818609E-02  0.8790490E-01
       -1   -1    0    0    0  501  0.00000000000E+00  0.00000000000E+00  0.53675860844E+03  0.53675860847E+03  0.50400001928E-02 0. -1.
        1   -1    0    0  501    0  0.00000000000E+00  0.00000000000E+00 -0.12678107457E+04  0.12678107457E+04  0.50400001928E-02 0.  1.
    10030    2    1    2    0    0  0.00000000000E+00  0.00000000000E+00 -0.73105213728E+03  0.18045693542E+04  0.16498585778E+04 0.  0.
        3    1    3    3  502    0 -0.29023390584E+03 -0.73136932564E+03 -0.63648923978E+03  0.10120550248E+04  0.10100000352E+00 0.  1.
       -3    1    3    3    0  502  0.29023390584E+03  0.73136932564E+03 -0.94562897505E+02  0.79251432944E+03  0.10100000352E+00 0. -1.
</event>
<event>
 5   0  0.3371947E-04  0.1996806E+04  0.7818609E-02  0.8608115E-01
       -2   -1    0    0    0  501  0.00000000000E+00  0.00000000000E+00  0.54989660386E+03  0.54989660386E+03  0.25500000920E-02 0.  1.
        2   -1    0    0  501    0  0.00000000000E+00  0.00000000000E+00 -0.18127208135E+04  0.18127208135E+04  0.25500000920E-02 0. -1.
    10030    2    1    2    0    0  0.00000000000E+00  0.00000000000E+00 -0.12628242097E+04  0.23626174174E+04  0.19968064694E+04 0.  0.
        2    1    3    3  502    0 -0.30344490033E+03  0.81554200141E+03 -0.12106010675E+04  0.14908864840E+04  0.25500000920E-02 0. -1.
       -2    1    3    3    0  502  0.30344490033E+03 -0.81554200141E+03 -0.52223142173E+02  0.87173093337E+03  0.25500000920E-02 0.  1.
</event>
<event>
 5   0  0.1664168E-04  0.1925119E+04  0.7818609E-02  0.8642453E-01
        1   -1    0    0  501    0  0.00000000000E+00  0.00000000000E+00  0.10302758418E+04  0.10302758419E+04  0.50400001928E-02 0.  1.
       -1   -1    0    0    0  501  0.00000000000E+00  0.00000000000E+00 -0.89929354043E+03  0.89929354045E+03  0.50400001928E-02 0. -1.
    10030    2    1    2    0    0  0.00000000000E+00  0.00000000000E+00  0.13098230141E+03  0.19295693823E+04  0.19251186036E+04 0.  0.
        5    1    3    3  502    0  0.19239586573E+03 -0.31182064712E+03 -0.82665096498E+03  0.90422463637E+03  0.46999998093E+01 0. -1.
       -5    1    3    3    0  502 -0.19239586573E+03  0.31182064712E+03  0.95763326639E+03  0.10253447459E+04  0.46999998093E+01 0.  1.
</event>
<event>
 5   0  0.1643565E-04  0.1966848E+04  0.7818609E-02  0.8622279E-01
       -1   -1    0    0    0  501  0.00000000000E+00  0.00000000000E+00  0.76371583341E+03  0.76371583343E+03  0.50400001928E-02 0.  1.
        1   -1    0    0  501    0  0.00000000000E+00  0.00000000000E+00 -0.12663389921E+04  0.12663389921E+04  0.50400001928E-02 0. -1.
    10030    2    1    2    0    0  0.00000000000E+00  0.00000000000E+00 -0.50262315871E+03  0.20300548256E+04  0.19668483813E+04 0.  0.
        2    1    3    3  502    0 -0.44396688660E+03 -0.69729182066E+03  0.29853760388E+03  0.87888974309E+03  0.25500000920E-02 0.  1.
       -2    1    3    3    0  502  0.44396688660E+03  0.69729182066E+03 -0.80116076259E+03  0.11511650825E+04  0.25500000920E-02 0. -1.
</event>
<event>
 5   0  0.1664168E-04  0.1986760E+04  0.7818609E-02  0.8612836E-01
        1   -1    0    0  501    0  0.00000000000E+00  0.00000000000E+00  0.65051538668E+03  0.65051538670E+03  0.50400001928E-02 0. -1.
       -1   -1    0    0    0  501  0.00000000000E+00  0.00000000000E+00 -0.15169576548E+04  0.15169576548E+04  0.50400001928E-02 0.  1.
    10030    2    1    2    0    0  0.00000000000E+00  0.00000000000E+00 -0.86644226810E+03  0.21674730415E+04  0.19867604742E+04 0.  0.
        5    1    3    3  502    0 -0.61841692184E+03  0.15003646047E+03  0.39893900983E+03  0.75108245369E+03  0.46999998093E+01 0. -1.
       -5    1    3    3    0  502  0.61841692184E+03 -0.15003646047E+03 -0.12653812779E+04  0.14163905878E+04  0.46999998093E+01 0.  1.
</event>
<event>
 5   0  0.3460648E-04  0.1995838E+04  0.7818609E-02  0.8608569E-01
       -2   -1    0    0    0  501  0.00000000000E+00  0.00000000000E+00  0.14091874660E+04  0.14091874660E+04  0.25500000920E-02 0.  1.
        2   -1    0    0  501    0  0.00000000000E+00  0.00000000000E+00 -0.70667822700E+03  0.70667822700E+03  0.25500000920E-02 0. -1.
    10030    2    1    2    0    0  0.00000000000E+00  0.00000000000E+00  0.70250923897E+03  0.21158656930E+04  0.19958377689E+04 0.  0.
        5    1    3    3  502    0 -0.36513089702E+03 -0.50138197290E+03  0.11800065044E+04  0.13330948560E+04  0.46999998093E+01 0.  1.
       -5    1    3    3    0  502  0.36513089702E+03  0.50138197290E+03 -0.47749726543E+03  0.78277083696E+03  0.46999998093E+01 0. -1.
</event>
<event>
 5   0  0.1664168E-04  0.2032701E+04  0.7818609E-02  0.8591483E-01
        1   -1    0    0  501    0  0.00000000000E+00  0.00000000000E+00  0.15550737012E+04  0.15550737012E+04  0.50400001928E-02 0.  1.
       -1   -1    0    0    0  501  0.00000000000E+00  0.00000000000E+00 -0.66425661232E+03  0.66425661234E+03  0.50400001928E-02 0. -1.
    10030    2    1    2    0    0  0.00000000000E+00  0.00000000000E+00  0.89081708891E+03  0.22193303136E+04  0.20327006555E+04 0.  0.
        5    1    3    3  502    0  0.18172756318E+03 -0.76579223367E+03 -0.25665670436E+03  0.82786315673E+03  0.46999998093E+01 0. -1.
       -5    1    3    3    0  502 -0.18172756318E+03  0.76579223367E+03  0.11474737933E+04  0.13914671569E+04  0.46999998093E+01 0.  1.
</event>
<event>
 5   0  0.3387881E-04  0.2025499E+04  0.7818609E-02  0.8594791E-01
       -2   -1    0    0    0  501  0.00000000000E+00  0.00000000000E+00  0.73103568249E+03  0.73103568249E+03  0.25500000920E-02 0.  1.
        2   -1    0    0  501    0  0.00000000000E+00  0.00000000000E+00 -0.14030254851E+04  0.14030254851E+04  0.25500000920E-02 0. -1.
    10030    2    1    2    0    0  0.00000000000E+00  0.00000000000E+00 -0.67198980263E+03  0.21340611676E+04  0.20254991415E+04 0.  0.
        1    1    3    3  502    0  0.62539817309E+03 -0.69382376434E+03 -0.74831035915E+03  0.11968636867E+04  0.50400001928E-02 0. -1.
       -1    1    3    3    0  502 -0.62539817309E+03  0.69382376434E+03  0.76320556522E+02  0.93719748092E+03  0.50400001928E-02 0.  1.
</event>
<event>
 5   0  0.3460648E-04  0.1913245E+04  0.7818609E-02  0.8648291E-01
       -2   -1    0    0    0  501  0.00000000000E+00  0.00000000000E+00  0.11506275554E+04  0.11506275554E+04  0.25500000920E-02 0.  1.
        2   -1    0    0  501    0  0.00000000000E+00  0.00000000000E+00 -0.79532829381E+03  0.79532829381E+03  0.25500000920E-02 0. -1.
    10030    2    1    2    0    0  0.00000000000E+00  0.00000000000E+00  0.35529926158E+03  0.19459558492E+04  0.19132450449E+04 0.  0.
        5    1    3    3  502    0 -0.43983062860E+03 -0.80743530372E+03 -0.90875174174E+02  0.92394974908E+03  0.46999998093E+01 0. -1.
       -5    1    3    3    0  502  0.43983062860E+03  0.80743530372E+03  0.44617443576E+03  0.10220061001E+04  0.46999998093E+01 0.  1.
</event>
<event>
 5   0  0.3460648E-04  0.1952038E+04  0.7818609E-02  0.8629379E-01
        2   -1    0    0  501    0  0.00000000000E+00  0.00000000000E+00  0.17081421969E+04  0.17081421969E+04  0.25500000920E-02 0.  1.
       -2   -1    0    0    0  501  0.00000000000E+00  0.00000000000E+00 -0.55768952883E+03  0.55768952883E+03  0.25500000920E-02 0. -1.
    10030    2    1    2    0    0  0.00000000000E+00  0.00000000000E+00  0.11504526681E+04  0.22658317257E+04  0.19520379269E+04 0.  0.
        5    1    3    3  502    0  0.62893693308E+03  0.30605081675E+03  0.13653583937E+04  0.15340972595E+04  0.46999998093E+01 0.  1.
       -5    1    3    3    0  502 -0.62893693308E+03 -0.30605081675E+03 -0.21490572563E+03  0.73173446627E+03  0.46999998093E+01 0. -1.
</event>
<event>
 5   0  0.1664168E-04  0.1986149E+04  0.7818609E-02  0.8613124E-01
       -1   -1    0    0    0  501  0.00000000000E+00  0.00000000000E+00  0.69393315922E+03  0.69393315924E+03  0.50400001928E-02 0. -1.
        1   -1    0    0  501    0  0.00000000000E+00  0.00000000000E+00 -0.14211693692E+04  0.14211693692E+04  0.50400001928E-02 0.  1.
    10030    2    1    2    0    0  0.00000000000E+00  0.00000000000E+00 -0.72723620999E+03  0.21151025285E+04  0.19861485848E+04 0.  0.
        5    1    3    3  502    0 -0.54050958823E+03  0.72357803936E+03  0.76054323438E+02  0.90637858763E+03  0.46999998093E+01 0. -1.
       -5    1    3    3    0  502  0.54050958823E+03 -0.72357803936E+03 -0.80329053343E+03  0.12087239408E+04  0.46999998093E+01 0.  1.
</event>
<event>
 5   0  0.1664168E-04  0.1943881E+04  0.7818609E-02  0.8633317E-01
       -1   -1    0    0    0  501  0.00000000000E+00  0.00000000000E+00  0.37792317303E+03  0.37792317307E+03  0.50400001928E-02 0. -1.
        1   -1    0    0  501    0  0.00000000000E+00  0.00000000000E+00 -0.24996296424E+04  0.24996296424E+04  0.50400001928E-02 0.  1.
    10030    2    1    2    0    0  0.00000000000E+00  0.00000000000E+00 -0.21217064694E+04  0.28775528155E+04  0.19438806197E+04 0.  0.
        5    1    3    3  502    0  0.74005650605E+03 -0.16574029837E+03 -0.19606749443E+04  0.21022420902E+04  0.46999998093E+01 0.  1.
       -5    1    3    3    0  502 -0.74005650605E+03  0.16574029837E+03 -0.16103152507E+03  0.77531072527E+03  0.46999998093E+01 0. -1.
</event>
<event>
 5   0  0.3460648E-04  0.1488903E+04  0.7818609E-02  0.8891866E-01
        2   -1    0    0  501    0  0.00000000000E+00  0.00000000000E+00  0.74686761535E+03  0.74686761535E+03  0.25500000920E-02 0. -1.
       -2   -1    0    0    0  501  0.00000000000E+00  0.00000000000E+00 -0.74204280362E+03  0.74204280362E+03  0.25500000920E-02 0.  1.
    10030    2    1    2    0    0  0.00000000000E+00  0.00000000000E+00  0.48248117299E+01  0.14889104190E+04  0.14889026016E+04 0.  0.
        5    1    3    3  502    0  0.56594934691E+03 -0.47146540569E+03 -0.10532560547E+03  0.74410608464E+03  0.46999998093E+01 0.  1.
       -5    1    3    3    0  502 -0.56594934691E+03  0.47146540569E+03  0.11015041720E+03  0.74480433433E+03  0.46999998093E+01 0. -1.
</event>
<event>
 5   0  0.1696052E-04  0.2040989E+04  0.7818609E-02  0.8587693E-01
        1   -1    0    0  501    0  0.00000000000E+00  0.00000000000E+00  0.10014440967E+04  0.10014440967E+04  0.50400001928E-02 0. -1.
       -1   -1    0    0    0  501  0.00000000000E+00  0.00000000000E+00 -0.10399069197E+04  0.10399069197E+04  0.50400001928E-02 0.  1.
    10030    2    1    2    0    0  0.00000000000E+00  0.00000000000E+00 -0.38462822939E+02  0.20413510164E+04  0.20409886290E+04 0.  0.
        4    1    3    3  502    0  0.63377723717E+03 -0.79462002971E+03 -0.11042026558E+03  0.10223936746E+04  0.12699999809E+01 0.  1.
       -4    1    3    3    0  502 -0.63377723717E+03  0.79462002971E+03  0.71957442642E+02  0.10189573418E+04  0.12699999809E+01 0. -1.
</event>
<event>
 5   0  0.3387881E-04  0.1981177E+04  0.7818609E-02  0.8615472E-01
        2   -1    0    0  501    0  0.00000000000E+00  0.00000000000E+00  0.20430365159E+04  0.20430365159E+04  0.25500000920E-02 0.  1.
       -2   -1    0    0    0  501  0.00000000000E+00  0.00000000000E+00 -0.48029781630E+03  0.48029781630E+03  0.25500000920E-02 0. -1.
    10030    2    1    2    0    0  0.00000000000E+00  0.00000000000E+00  0.15627386996E+04  0.25233343322E+04  0.19811774047E+04 0.  0.
        1    1    3    3  502    0 -0.32399723299E+03 -0.91887883623E+03  0.10090417254E+04  0.14026680742E+04  0.50400001928E-02 0.  1.
       -1    1    3    3    0  502  0.32399723299E+03  0.91887883623E+03  0.55369697420E+03  0.11206662580E+04  0.50400001928E-02 0. -1.
</event>
<event>
 5   0  0.1664168E-04  0.2037872E+04  0.7818609E-02  0.8589116E-01
       -1   -1    0    0    0  501  0.00000000000E+00  0.00000000000E+00  0.61811471413E+03  0.61811471415E+03  0.50400001928E-02 0. -1.
        1   -1    0    0  501    0  0.00000000000E+00  0.00000000000E+00 -0.16796726639E+04  0.16796726639E+04  0.50400001928E-02 0.  1.
    10030    2    1    2    0    0  0.00000000000E+00  0.00000000000E+00 -0.10615579497E+04  0.22977873780E+04  0.20378718198E+04 0.  0.
        5    1    3    3  502    0 -0.73186104747E+03  0.32265005625E+03 -0.12425474885E+04  0.14777246032E+04  0.46999998093E+01 0.  1.
       -5    1    3    3    0  502  0.73186104747E+03 -0.32265005625E+03  0.18098953876E+03  0.82006277488E+03  0.46999998093E+01 0. -1.
</event>
<event>
 5   0  0.1650221E-04  0.1064020E+04  0.7818609E-02  0.9240988E-01
       -1   -1    0    0    0  501  0.00000000000E+00  0.00000000000E+00  0.28189185964E+03  0.28189185968E+03  0.50400001928E-02 0.  1.
        1   -1    0    0  501    0  0.00000000000E+00  0.00000000000E+00 -0.10040531797E+04  0.10040531797E+04  0.50400001928E-02 0. -1.
    10030    2    1    2    0    0  0.00000000000E+00  0.00000000000E+00 -0.72216132009E+03  0.12859450394E+04  0.10640195826E+04 0.  0.
        1    1    3    3  502    0  0.29786008717E+03 -0.83081162181E+02  0.16212288894E+03  0.34915174664E+03  0.50400001928E-02 0.  1.
       -1    1    3    3    0  502 -0.29786008717E+03  0.83081162181E+02 -0.88428420903E+03  0.93679329278E+03  0.50400001928E-02 0. -1.
</event>
<event>
 5   0  0.1650221E-04  0.2013946E+04  0.7818609E-02  0.8600128E-01
        1   -1    0    0  501    0  0.00000000000E+00  0.00000000000E+00  0.11228363390E+04  0.11228363390E+04  0.50400001928E-02 0.  1.
       -1   -1    0    0    0  501  0.00000000000E+00  0.00000000000E+00 -0.90306519848E+03  0.90306519850E+03  0.50400001928E-02 0. -1.
    10030    2    1    2    0    0  0.00000000000E+00  0.00000000000E+00  0.21977114051E+03  0.20259015375E+04  0.20139458000E+04 0.  0.
        1    1    3    3  502    0 -0.98215404068E+03  0.22016977730E+03  0.13994827910E+03  0.10162119913E+04  0.50400001928E-02 0. -1.
       -1    1    3    3    0  502  0.98215404068E+03 -0.22016977730E+03  0.79822861417E+02  0.10096895462E+04  0.50400001928E-02 0.  1.
</event>
<event>
 5   0  0.1696052E-04  0.2019650E+04  0.7818609E-02  0.8597488E-01
       -1   -1    0    0    0  501  0.00000000000E+00  0.00000000000E+00  0.12031621638E+04  0.12031621638E+04  0.50400001928E-02 0.  1.
        1   -1    0    0  501    0  0.00000000000E+00  0.00000000000E+00 -0.84755557967E+03  0.84755557968E+03  0.50400001928E-02 0. -1.
    10030    2    1    2    0    0  0.00000000000E+00  0.00000000000E+00  0.35560658413E+03  0.20507177435E+04  0.20196502719E+04 0.  0.
        4    1    3    3  502    0 -0.16629645880E+02 -0.50358836506E+03  0.10664037040E+04  0.11794474381E+04  0.12699999809E+01 0.  1.
       -4    1    3    3    0  502  0.16629645880E+02  0.50358836506E+03 -0.71079711984E+03  0.87127030537E+03  0.12699999809E+01 0. -1.
</event>
<event>
 5   0  0.3395569E-04  0.2024813E+04  0.7818609E-02  0.8595107E-01
       -2   -1    0    0    0  501  0.00000000000E+00  0.00000000000E+00  0.48012639955E+03  0.48012639955E+03  0.25500000920E-02 0.  1.
        2   -1    0    0  501    0  0.00000000000E+00  0.00000000000E+00 -0.21347849936E+04  0.21347849936E+04  0.25500000920E-02 0. -1.
    10030    2    1    2    0    0  0.00000000000E+00  0.00000000000E+00 -0.16546585940E+04  0.26149113931E+04  0.20248127151E+04 0.  0.
        4    1    3    3  502    0 -0.20258389311E+03  0.60438462433E+02  0.45130224028E+03  0.49836569552E+03  0.12699999809E+01 0.  1.
       -4    1    3    3    0  502  0.20258389311E+03 -0.60438462433E+02 -0.21059608343E+04  0.21165456976E+04  0.12699999809E+01 0. -1.
</event>
<event>
 5   0  0.3431030E-04  0.1961662E+04  0.7818609E-02  0.8624758E-01
        2   -1    0    0  501    0  0.00000000000E+00  0.00000000000E+00  0.10166377585E+04  0.10166377585E+04  0.25500000920E-02 0.  1.
       -2   -1    0    0    0  501  0.00000000000E+00  0.00000000000E+00 -0.94628529945E+03  0.94628529945E+03  0.25500000920E-02 0. -1.
    10030    2    1    2    0    0  0.00000000000E+00  0.00000000000E+00  0.70352459048E+02  0.19629230579E+04  0.19616619135E+04 0.  0.
        3    1    3    3  502    0 -0.16443005930E+03  0.93660910404E+03  0.27565446714E+03  0.99008042786E+03  0.10100000352E+00 0.  1.
       -3    1    3    3    0  502  0.16443005930E+03 -0.93660910404E+03 -0.20530200810E+03  0.97284263008E+03  0.10100000352E+00 0. -1.
</event>
<event>
 5   0  0.1696052E-04  0.2051913E+04  0.7818609E-02  0.8582727E-01
       -1   -1    0    0    0  501  0.00000000000E+00  0.00000000000E+00  0.12867663139E+04  0.12867663139E+04  0.50400001928E-02 0. -1.
        1   -1    0    0  501    0  0.00000000000E+00  0.00000000000E+00 -0.81800904303E+03  0.81800904305E+03  0.50400001928E-02 0.  1.
    10030    2    1    2    0    0  0.00000000000E+00  0.00000000000E+00  0.46875727084E+03  0.21047753569E+04  0.20519127477E+04 0.  0.
        4    1    3    3  502    0  0.84497188968E+02 -0.67256114361E+02 -0.81216151250E+03  0.81931135421E+03  0.12699999809E+01 0.  1.
       -4    1    3    3    0  502 -0.84497188968E+02  0.67256114361E+02  0.12809187833E+04  0.12854640027E+04  0.12699999809E+01 0. -1.
</event>
<event>
 5   0  0.3460648E-04  0.1925308E+04  0.7818609E-02  0.8642361E-01
        2   -1    0    0  501    0  0.00000000000E+00  0.00000000000E+00  0.24141429003E+04  0.24141429003E+04  0.25500000920E-02 0.  1.
       -2   -1    0    0    0  501  0.00000000000E+00  0.00000000000E+00 -0.38386397752E+03  0.38386397753E+03  0.25500000920E-02 0. -1.
    10030    2    1    2    0    0  0.00000000000E+00  0.00000000000E+00  0.20302789228E+04  0.27980068778E+04  0.19253077635E+04 0.  0.
        5    1    3    3  502    0 -0.19055217840E+03  0.93174431643E+03  0.12317841396E+04  0.15562043119E+04  0.46999998093E+01 0.  1.
       -5    1    3    3    0  502  0.19055217840E+03 -0.93174431643E+03  0.79849478316E+03  0.12418025659E+04  0.46999998093E+01 0. -1.
</event>
<event>
 5   0  0.3431030E-04  0.1505098E+04  0.7818609E-02  0.8881070E-01
        2   -1    0    0  501    0  0.00000000000E+00  0.00000000000E+00  0.14199762537E+04  0.14199762537E+04  0.25500000920E-02 0. -1.
       -2   -1    0    0    0  501  0.00000000000E+00  0.00000000000E+00 -0.39883083991E+03  0.39883083992E+03  0.25500000920E-02 0.  1.
    10030    2    1    2    0    0  0.00000000000E+00  0.00000000000E+00  0.10211454138E+04  0.18188070936E+04  0.15050984312E+04 0.  0.
        3    1    3    3  502    0 -0.28440730411E+02 -0.46959972175E+03 -0.19921706054E+03  0.51090138112E+03  0.10100000352E+00 0.  1.
       -3    1    3    3    0  502  0.28440730411E+02  0.46959972175E+03  0.12203624743E+04  0.13079057125E+04  0.10100000352E+00 0. -1.
</event>
<event>
 5   0  0.3395569E-04  0.2048273E+04  0.7818609E-02  0.8584378E-01
       -2   -1    0    0    0  501  0.00000000000E+00  0.00000000000E+00  0.79110285839E+03  0.79110285840E+03  0.25500000920E-02 0.  1.
        2   -1    0    0  501    0  0.00000000000E+00  0.00000000000E+00 -0.13258149955E+04  0.13258149955E+04  0.25500000920E-02 0. -1.
    10030    2    1    2    0    0  0.00000000000E+00  0.00000000000E+00 -0.53471213710E+03  0.21169178539E+04  0.20482734511E+04 0.  0.
        4    1    3    3  502    0 -0.13991449172E+01  0.10055955991E+04 -0.46784154125E+03  0.11090995389E+04  0.12699999809E+01 0. -1.
       -4    1    3    3    0  502  0.13991449172E+01 -0.10055955991E+04 -0.66870595850E+02  0.10078183150E+04  0.12699999809E+01 0.  1.
</event>
<event>
 5   0  0.3371947E-04  0.1962957E+04  0.7818609E-02  0.8624138E-01
       -2   -1    0    0    0  501  0.00000000000E+00  0.00000000000E+00  0.10479258112E+04  0.10479258112E+04  0.25500000920E-02 0. -1.
        2   -1    0    0  501    0  0.00000000000E+00  0.00000000000E+00 -0.91924438677E+03  0.91924438677E+03  0.25500000920E-02 0.  1.
    10030    2    1    2    0    0  0.00000000000E+00  0.00000000000E+00  0.12868142443E+03  0.19671701980E+04  0.19629568714E+04 0.  0.
        2    1    3    3  502    0 -0.34483990141E+03 -0.45975993921E+03 -0.73298385706E+03  0.93142852331E+03  0.25500000920E-02 0.  1.
       -2    1    3    3    0  502  0.34483990141E+03  0.45975993921E+03  0.86166528150E+03  0.10357416747E+04  0.25500000920E-02 0. -1.
</event>
<event>
 5   0  0.3371947E-04  0.2093873E+04  0.7818609E-02  0.8563947E-01
        2   -1    0    0  501    0  0.00000000000E+00  0.00000000000E+00  0.13817781406E+04  0.13817781406E+04  0.25500000920E-02 0. -1.
       -2   -1    0    0    0  501  0.00000000000E+00  0.00000000000E+00 -0.79323558012E+03  0.79323558012E+03  0.25500000920E-02 0.  1.
    10030    2    1    2    0    0  0.00000000000E+00  0.00000000000E+00  0.58854256047E+03  0.21750137207E+04  0.20938725701E+04 0.  0.
        2    1    3    3  502    0  0.78502920027E+03  0.81040093457E+02 -0.42030930269E+03  0.89414666132E+03  0.25500000920E-02 0.  1.
       -2    1    3    3    0  502 -0.78502920027E+03 -0.81040093457E+02  0.10088518632E+04  0.12808670594E+04  0.25500000920E-02 0. -1.
</event>
<event>
 5   0  0.3371947E-04  0.2140352E+04  0.7818609E-02  0.8543674E-01
        2   -1    0    0  501    0  0.00000000000E+00  0.00000000000E+00  0.11592853413E+04  0.11592853413E+04  0.25500000920E-02 0.  1.
       -2   -1    0    0    0  501  0.00000000000E+00  0.00000000000E+00 -0.98791568784E+03  0.98791568784E+03  0.25500000920E-02 0. -1.
    10030    2    1    2    0    0  0.00000000000E+00  0.00000000000E+00  0.17136965347E+03  0.21472010292E+04  0.21403515369E+04 0.  0.
        2    1    3    3  502    0 -0.43363328056E+03 -0.69957576570E+03  0.77185621826E+03  0.11283643453E+04  0.25500000920E-02 0.  1.
       -2    1    3    3    0  502  0.43363328056E+03  0.69957576570E+03 -0.60048656479E+03  0.10188366839E+04  0.25500000920E-02 0. -1.
</event>
<event>
 5   0  0.3431030E-04  0.2037267E+04  0.7818609E-02  0.8589393E-01
        2   -1    0    0  501    0  0.00000000000E+00  0.00000000000E+00  0.64908782718E+03  0.64908782719E+03  0.25500000920E-02 0. -1.
       -2   -1    0    0    0  501  0.00000000000E+00  0.00000000000E+00 -0.15985723418E+04  0.15985723419E+04  0.25500000920E-02 0.  1.
    10030    2    1    2    0    0  0.00000000000E+00  0.00000000000E+00 -0.94948451467E+03  0.22476601690E+04  0.20372666472E+04 0.  0.
        3    1    3    3  502    0 -0.80338045808E+03  0.16915182775E+03  0.19050572358E+03  0.84280777296E+03  0.10100000352E+00 0. -1.
       -3    1    3    3    0  502  0.80338045808E+03 -0.16915182775E+03 -0.11399902383E+04  0.14048523961E+04  0.10100000352E+00 0.  1.
</event>
<event>
 5   0  0.3395569E-04  0.1965840E+04  0.7818609E-02  0.8622760E-01
        2   -1    0    0  501    0  0.00000000000E+00  0.00000000000E+00  0.19569136333E+04  0.19569136333E+04  0.25500000920E-02 0.  1.
       -2   -1    0    0    0  501  0.00000000000E+00  0.00000000000E+00 -0.49370168024E+03  0.49370168025E+03  0.25500000920E-02 0. -1.
    10030    2    1    2    0    0  0.00000000000E+00  0.00000000000E+00  0.14632119530E+04  0.24506153135E+04  0.19658398194E+04 0.  0.
        4    1    3    3  502    0  0.42500333038E+03 -0.28084464840E+03  0.17795125287E+04  0.18509910859E+04  0.12699999809E+01 0.  1.
       -4    1    3    3    0  502 -0.42500333038E+03  0.28084464840E+03 -0.31630057563E+03  0.59962422767E+03  0.12699999809E+01 0. -1.
</event>
<event>
 5   0  0.3387881E-04  0.1999187E+04  0.7818609E-02  0.8607001E-01
       -2   -1    0    0    0  501  0.00000000000E+00  0.00000000000E+00  0.55045781437E+03  0.55045781438E+03  0.25500000920E-02 0. -1.
        2   -1    0    0  501    0  0.00000000000E+00  0.00000000000E+00 -0.18151923173E+04  0.18151923173E+04  0.25500000920E-02 0.  1.
    10030    2    1    2    0    0  0.00000000000E+00  0.00000000000E+00 -0.12647345029E+04  0.23656501316E+04  0.19991866302E+04 0.  0.
        1    1    3    3  502    0  0.32299432482E+03  0.79698381005E+03 -0.12353640125E+04  0.15052019036E+04  0.50400001928E-02 0.  1.
       -1    1    3    3    0  502 -0.32299432482E+03 -0.79698381005E+03 -0.29370490397E+02  0.86044822800E+03  0.50400001928E-02 0. -1.
</event>
<event>
 5   0  0.1650221E-04  0.1991184E+04  0.7818609E-02  0.8610753E-01
        1   -1    0    0  501    0  0.00000000000E+00  0.00000000000E+00  0.69440231439E+03  0.69440231441E+03  0.50400001928E-02 0.  1.
       -1   -1    0    0    0  501  0.00000000000E+00  0.00000000000E+00 -0.14274197273E+04  0.14274197273E+04  0.50400001928E-02 0. -1.
    10030    2    1    2    0    0  0.00000000000E+00  0.00000000000E+00 -0.73301741288E+03  0.21218220417E+04  0.19911841324E+04 0.  0.
        1    1    3    3  502    0  0.70353213276E+03 -0.32425033383E+03  0.29990785961E+03  0.83068674306E+03  0.50400001928E-02 0.  1.
       -1    1    3    3    0  502 -0.70353213276E+03  0.32425033383E+03 -0.10329252725E+04  0.12911352986E+04  0.50400001928E-02 0. -1.
</event>
<event>
 5   0  0.1708578E-04  0.2010753E+04  0.7818609E-02  0.8601610E-01
       -1   -1    0    0    0  501  0.00000000000E+00  0.00000000000E+00  0.13085031670E+04  0.13085031670E+04  0.50400001928E-02 0.  1.
        1   -1    0    0  501    0  0.00000000000E+00  0.00000000000E+00 -0.77247203264E+03  0.77247203265E+03  0.50400001928E-02 0. -1.
    10030    2    1    2    0    0  0.00000000000E+00  0.00000000000E+00  0.53603113437E+03  0.20809751997E+04  0.20107531934E+04 0.  0.
        3    1    3    3  502    0  0.87201351057E+03 -0.44866756123E+03  0.38757415951E+02  0.98143379329E+03  0.10100000352E+00 0. -1.
       -3    1    3    3    0  502 -0.87201351057E+03  0.44866756123E+03  0.49727371841E+03  0.10995414064E+04  0.10100000352E+00 0.  1.
</event>
<event>
 5   0  0.1650221E-04  0.1967125E+04  0.7818609E-02  0.8622147E-01
       -1   -1    0    0    0  501  0.00000000000E+00  0.00000000000E+00  0.12681552977E+04  0.12681552977E+04  0.50400001928E-02 0. -1.
        1   -1    0    0  501    0  0.00000000000E+00  0.00000000000E+00 -0.76283634548E+03  0.76283634549E+03  0.50400001928E-02 0.  1.
    10030    2    1    2    0    0  0.00000000000E+00  0.00000000000E+00  0.50531895221E+03  0.20309916432E+04  0.19671247574E+04 0.  0.
        1    1    3    3  502    0  0.14272220050E+02  0.75987167773E+03  0.89725830461E+03  0.11758746226E+04  0.50400001928E-02 0. -1.
       -1    1    3    3    0  502 -0.14272220050E+02 -0.75987167773E+03 -0.39193935241E+03  0.85511702057E+03  0.50400001928E-02 0.  1.
</event>
<event>
 5   0  0.3395569E-04  0.2001576E+04  0.7818609E-02  0.8605884E-01
       -2   -1    0    0    0  501  0.00000000000E+00  0.00000000000E+00  0.81436999497E+03  0.81436999498E+03  0.25500000920E-02 0. -1.
        2   -1    0    0  501    0  0.00000000000E+00  0.00000000000E+00 -0.12298786776E+04  0.12298786776E+04  0.25500000920E-02 0.  1.
    10030    2    1    2    0    0  0.00000000000E+00  0.00000000000E+00 -0.41550868264E+03  0.20442486726E+04  0.20015756718E+04 0.  0.
        4    1    3    3  502    0  0.19574796537E+03 -0.26178152960E+03 -0.11738212077E+04  0.12184845817E+04  0.12699999809E+01 0.  1.
       -4    1    3    3    0  502 -0.19574796537E+03  0.26178152960E+03  0.75831252510E+03  0.82576409090E+03  0.12699999809E+01 0. -1.
</event>
<event>
 5   0  0.3371947E-04  0.2039519E+04  0.7818609E-02  0.8588364E-01
       -2   -1    0    0    0  501  0.00000000000E+00  0.00000000000E+00  0.71265672138E+03  0.71265672138E+03  0.25500000920E-02 0. -1.
        2   -1    0    0  501    0  0.00000000000E+00  0.00000000000E+00 -0.14592005718E+04  0.14592005718E+04  0.25500000920E-02 0.  1.
    10030    2    1    2    0    0  0.00000000000E+00  0.00000000000E+00 -0.74654385037E+03  0.21718572931E+04  0.20395186641E+04 0.  0.
        2    1    3    3  502    0  0.76539113450E+03  0.59031338156E+03 -0.71934489033E+03  0.12048861143E+04  0.25500000920E-02 0.  1.
       -2    1    3    3    0  502 -0.76539113450E+03 -0.59031338156E+03 -0.27198960045E+02  0.96697117882E+03  0.25500000920E-02 0. -1.
</event>
<event>
 5   0  0.3371947E-04  0.1977387E+04  0.7818609E-02  0.8617267E-01
        2   -1    0    0  501    0  0.00000000000E+00  0.00000000000E+00  0.12964098522E+04  0.12964098522E+04  0.25500000920E-02 0.  1.
       -2   -1    0    0    0  501  0.00000000000E+00  0.00000000000E+00 -0.75401650470E+03  0.75401650471E+03  0.25500000920E-02 0. -1.
    10030    2    1    2    0    0  0.00000000000E+00  0.00000000000E+00  0.54239334746E+03  0.20504263569E+04  0.19773865838E+04 0.  0.
        2    1    3    3  502    0  0.21896156059E+03  0.12196790382E+03 -0.72052665462E+03  0.76287547778E+03  0.25500000920E-02 0. -1.
       -2    1    3    3    0  502 -0.21896156059E+03 -0.12196790382E+03  0.12629200021E+04  0.12875508791E+04  0.25500000920E-02 0.  1.
</event>
<event>
 5   0  0.3387881E-04  0.1890770E+04  0.7818609E-02  0.8659465E-01
        2   -1    0    0  501    0  0.00000000000E+00  0.00000000000E+00  0.11580818795E+04  0.11580818795E+04  0.25500000920E-02 0.  1.
       -2   -1    0    0    0  501  0.00000000000E+00  0.00000000000E+00 -0.77175235499E+03  0.77175235500E+03  0.25500000920E-02 0. -1.
    10030    2    1    2    0    0  0.00000000000E+00  0.00000000000E+00  0.38632952453E+03  0.19298342345E+04  0.18907695976E+04 0.  0.
        1    1    3    3  502    0  0.67348318464E+03  0.10383652087E+03  0.86198246647E+03  0.10988063504E+04  0.50400001928E-02 0.  1.
       -1    1    3    3    0  502 -0.67348318464E+03 -0.10383652087E+03 -0.47565294194E+03  0.83102788417E+03  0.50400001928E-02 0. -1.
</event>
<event>
 5   0  0.3460648E-04  0.2031691E+04  0.7818609E-02  0.8591946E-01
       -2   -1    0    0    0  501  0.00000000000E+00  0.00000000000E+00  0.67889897392E+03  0.67889897392E+03  0.25500000920E-02 0.  1.
        2   -1    0    0  501    0  0.00000000000E+00  0.00000000000E+00 -0.15200228468E+04  0.15200228468E+04  0.25500000920E-02 0. -1.
    10030    2    1    2    0    0  0.00000000000E+00  0.00000000000E+00 -0.84112387284E+03  0.21989218207E+04  0.20316908731E+04 0.  0.
        5    1    3    3  502    0 -0.48736899252E+03 -0.79178730811E+03  0.22345660189E+02  0.93004144783E+03  0.46999998093E+01 0. -1.
       -5    1    3    3    0  502  0.48736899252E+03  0.79178730811E+03 -0.86346953303E+03  0.12688803729E+04  0.46999998093E+01 0.  1.
</event>
<event>
 5   0  0.1643565E-04  0.2054346E+04  0.7818609E-02  0.8581625E-01
        1   -1    0    0  501    0  0.00000000000E+00  0.00000000000E+00  0.11937254333E+04  0.11937254333E+04  0.50400001928E-02 0.  1.
       -1   -1    0    0    0  501  0.00000000000E+00  0.00000000000E+00 -0.88385888394E+03  0.88385888396E+03  0.50400001928E-02 0. -1.
    10030    2    1    2    0    0  0.00000000000E+00  0.00000000000E+00  0.30986654931E+03  0.20775843172E+04  0.20543464452E+04 0.  0.
        2    1    3    3  502    0  0.28792557546E+03 -0.47758458830E+03 -0.71743456969E+03  0.90868065776E+03  0.25500000920E-02 0. -1.
       -2    1    3    3    0  502 -0.28792557546E+03  0.47758458830E+03  0.10273011190E+04  0.11689036595E+04  0.25500000920E-02 0.  1.
</event>
<event>
 5   0  0.1708578E-04  0.2018218E+04  0.7818609E-02  0.8598150E-01
       -1   -1    0    0    0  501  0.00000000000E+00  0.00000000000E+00  0.11916367889E+04  0.11916367889E+04  0.50400001928E-02 0. -1.
        1   -1    0    0  501    0  0.00000000000E+00  0.00000000000E+00 -0.85453990558E+03  0.85453990560E+03  0.50400001928E-02 0.  1.
    10030    2    1    2    0    0  0.00000000000E+00  0.00000000000E+00  0.33709688333E+03  0.20461766945E+04  0.20182182133E+04 0.  0.
        3    1    3    3  502    0  0.87464626839E+03  0.45839670949E+03 -0.42097776767E+02  0.98838548709E+03  0.10100000352E+00 0. -1.
       -3    1    3    3    0  502 -0.87464626839E+03 -0.45839670949E+03  0.37919466009E+03  0.10577912074E+04  0.10100000352E+00 0.  1.
</event>
<event>
 5   0  0.1650221E-04  0.1996740E+04  0.7818609E-02  0.8608146E-01
       -1   -1    0    0    0  501  0.00000000000E+00  0.00000000000E+00  0.13475304357E+04  0.13475304358E+04  0.50400001928E-02 0. -1.
        1   -1    0    0  501    0  0.00000000000E+00  0.00000000000E+00 -0.73968079374E+03  0.73968079376E+03  0.50400001928E-02 0.  1.
    10030    2    1    2    0    0  0.00000000000E+00  0.00000000000E+00  0.60784964201E+03  0.20872112295E+04  0.19967397250E+04 0.  0.
        1    1    3    3  502    0 -0.18913734673E+03 -0.33369273087E+01  0.13286259579E+04  0.13420249651E+04  0.50400001928E-02 0. -1.
       -1    1    3    3    0  502  0.18913734673E+03  0.33369273087E+01 -0.72077631591E+03  0.74518626437E+03  0.50400001928E-02 0.  1.
</event>
<event>
 5   0  0.1643565E-04  0.1866386E+04  0.7818609E-02  0.8671772E-01
       -1   -1    0    0    0  501  0.00000000000E+00  0.00000000000E+00  0.32450201746E+03  0.32450201749E+03  0.50400001928E-02 0.  1.
        1   -1    0    0  501    0  0.00000000000E+00  0.00000000000E+00 -0.26836478968E+04  0.26836478968E+04  0.50400001928E-02 0. -1.
    10030    2    1    2    0    0  0.00000000000E+00  0.00000000000E+00 -0.23591458794E+04  0.30081499143E+04  0.18663859802E+04 0.  0.
        2    1    3    3  502    0 -0.90609738968E+03  0.10284802181E+02 -0.15390003319E+04  0.17859564043E+04  0.25500000920E-02 0. -1.
       -2    1    3    3    0  502  0.90609738968E+03 -0.10284802181E+02 -0.82014554753E+03  0.12221935100E+04  0.25500000920E-02 0.  1.
</event>
<event>
 5   0  0.3431030E-04  0.1990529E+04  0.7818609E-02  0.8611061E-01
       -2   -1    0    0    0  501  0.00000000000E+00  0.00000000000E+00  0.54463646637E+03  0.54463646638E+03  0.25500000920E-02 0. -1.
        2   -1    0    0  501    0  0.00000000000E+00  0.00000000000E+00 -0.18187395055E+04  0.18187395055E+04  0.25500000920E-02 0.  1.
    10030    2    1    2    0    0  0.00000000000E+00  0.00000000000E+00 -0.12741030392E+04  0.23633759719E+04  0.19905294346E+04 0.  0.
        3    1    3    3  502    0 -0.45919735945E+03  0.80791713747E+02 -0.16810492518E+04  0.17445102788E+04  0.10100000352E+00 0.  1.
       -3    1    3    3    0  502  0.45919735945E+03 -0.80791713747E+02  0.40694621258E+03  0.61886569308E+03  0.10100000352E+00 0. -1.
</event>
<event>
 5   0  0.1643565E-04  0.2008800E+04  0.7818609E-02  0.8602518E-01
       -1   -1    0    0    0  501  0.00000000000E+00  0.00000000000E+00  0.77138159277E+03  0.77138159279E+03  0.50400001928E-02 0. -1.
        1   -1    0    0  501    0  0.00000000000E+00  0.00000000000E+00 -0.13078079072E+04  0.13078079072E+04  0.50400001928E-02 0.  1.
    10030    2    1    2    0    0  0.00000000000E+00  0.00000000000E+00 -0.53642631440E+03  0.20791895000E+04  0.20087995883E+04 0.  0.
        2    1    3    3  502    0  0.44662632462E+03 -0.30631696373E+03  0.60730764006E+03  0.81371231144E+03  0.25500000920E-02 0. -1.
       -2    1    3    3    0  502 -0.44662632462E+03  0.30631696373E+03 -0.11437339545E+04  0.12654771885E+04  0.25500000920E-02 0.  1.
</event>
<event>
 5   0  0.3460648E-04  0.2013530E+04  0.7818609E-02  0.8600321E-01
       -2   -1    0    0    0  501  0.00000000000E+00  0.00000000000E+00  0.72425990183E+03  0.72425990183E+03  0.25500000920E-02 0.  1.
        2   -1    0    0  501    0  0.00000000000E+00  0.00000000000E+00 -0.13994638350E+04  0.13994638350E+04  0.25500000920E-02 0. -1.
    10030    2    1    2    0    0  0.00000000000E+00  0.00000000000E+00 -0.67520393316E+03  0.21237237368E+04  0.20135297760E+04 0.  0.
        5    1    3    3  502    0 -0.13980174287E+03  0.72614219884E+03  0.38295971312E+03  0.83277082809E+03  0.46999998093E+01 0.  1.
       -5    1    3    3    0  502  0.13980174287E+03 -0.72614219884E+03 -0.10581636463E+04  0.12909529087E+04  0.46999998093E+01 0. -1.
</event>
<event>
 5   0  0.3387881E-04  0.1871312E+04  0.7818609E-02  0.8669270E-01
        2   -1    0    0  501    0  0.00000000000E+00  0.00000000000E+00  0.19024837872E+04  0.19024837872E+04  0.25500000920E-02 0. -1.
       -2   -1    0    0    0  501  0.00000000000E+00  0.00000000000E+00 -0.46016252342E+03  0.46016252343E+03  0.25500000920E-02 0.  1.
    10030    2    1    2    0    0  0.00000000000E+00  0.00000000000E+00  0.14423212637E+04  0.23626463106E+04  0.18713115617E+04 0.  0.
        1    1    3    3  502    0 -0.40017194770E+03  0.31852827712E+03 -0.26804166798E+03  0.57744626317E+03  0.50400001928E-02 0.  1.
       -1    1    3    3    0  502  0.40017194770E+03 -0.31852827712E+03  0.17103629317E+04  0.17852000474E+04  0.50400001928E-02 0. -1.
</event>
<event>
 5   0  0.1664168E-04  0.1988374E+04  0.7818609E-02  0.8612076E-01
        1   -1    0    0  501    0  0.00000000000E+00  0.00000000000E+00  0.10233452716E+04  0.10233452716E+04  0.50400001928E-02 0. -1.
       -1   -1    0    0    0  501  0.00000000000E+00  0.00000000000E+00 -0.96585914284E+03  0.96585914286E+03  0.50400001928E-02 0.  1.
    10030    2    1    2    0    0  0.00000000000E+00  0.00000000000E+00  0.57486128760E+02  0.19892044145E+04  0.19883735936E+04 0.  0.
        5    1    3    3  502    0  0.96879892743E+03 -0.20943672236E+03  0.10591279879E+03  0.99683233967E+03  0.46999998093E+01 0. -1.
       -5    1    3    3    0  502 -0.96879892743E+03  0.20943672236E+03 -0.48426670035E+02  0.99237207480E+03  0.46999998093E+01 0.  1.
</event>
<event>
 5   0  0.1708578E-04  0.1954797E+04  0.7818609E-02  0.8628051E-01
        1   -1    0    0  501    0  0.00000000000E+00  0.00000000000E+00  0.18867673940E+04  0.18867673940E+04  0.50400001928E-02 0.  1.
       -1   -1    0    0    0  501  0.00000000000E+00  0.00000000000E+00 -0.50631963261E+03  0.50631963264E+03  0.50400001928E-02 0. -1.
    10030    2    1    2    0    0  0.00000000000E+00  0.00000000000E+00  0.13804477614E+04  0.23930870267E+04  0.19547965355E+04 0.  0.
        3    1    3    3  502    0  0.86267631000E+03 -0.37953331535E+03  0.10072250690E+04  0.13794050540E+04  0.10100000352E+00 0. -1.
       -3    1    3    3    0  502 -0.86267631000E+03  0.37953331535E+03  0.37322269242E+03  0.10136819726E+04  0.10100000352E+00 0.  1.
</event>
<event>
 5   0  0.1650221E-04  0.1990612E+04  0.7818609E-02  0.8611022E-01
        1   -1    0    0  501    0  0.00000000000E+00  0.00000000000E+00  0.15306970055E+04  0.15306970055E+04  0.50400001928E-02 0.  1.
       -1   -1    0    0    0  501  0.00000000000E+00  0.00000000000E+00 -0.64717860653E+03  0.64717860654E+03  0.50400001928E-02 0. -1.
    10030    2    1    2    0    0  0.00000000000E+00  0.00000000000E+00  0.88351839901E+03  0.21778756121E+04  0.19906123230E+04 0.  0.
        1    1    3    3  502    0 -0.25870911995E+03  0.67513625263E+03 -0.30661805485E+03  0.78533687036E+03  0.50400001928E-02 0. -1.
       -1    1    3    3    0  502  0.25870911995E+03 -0.67513625263E+03  0.11901364539E+04  0.13925387417E+04  0.50400001928E-02 0.  1.
</event>
<event>
 5   0  0.1664168E-04  0.1828791E+04  0.7818609E-02  0.8691137E-01
        1   -1    0    0  501    0  0.00000000000E+00  0.00000000000E+00  0.12703987773E+04  0.12703987773E+04  0.50400001928E-02 0.  1.
       -1   -1    0    0    0  501  0.00000000000E+00  0.00000000000E+00 -0.65815463379E+03  0.65815463381E+03  0.50400001928E-02 0. -1.
    10030    2    1    2    0    0  0.00000000000E+00  0.00000000000E+00  0.61224414353E+03  0.19285534111E+04  0.18287906847E+04 0.  0.
        5    1    3    3  502    0  0.13286955893E+03  0.38760975385E+03  0.11681498621E+04  0.12379385410E+04  0.46999998093E+01 0.  1.
       -5    1    3    3    0  502 -0.13286955893E+03 -0.38760975385E+03 -0.55590571855E+03  0.69061487016E+03  0.46999998093E+01 0. -1.
</event>
<event>
 5   0  0.3371947E-04  0.2008930E+04  0.7818609E-02  0.8602457E-01
       -2   -1    0    0    0  501  0.00000000000E+00  0.00000000000E+00  0.90306455140E+03  0.90306455140E+03  0.25500000920E-02 0.  1.
        2   -1    0    0  501    0  0.00000000000E+00  0.00000000000E+00 -0.11172507991E+04  0.11172507991E+04  0.25500000920E-02 0. -1.
    10030    2    1    2    0    0  0.00000000000E+00  0.00000000000E+00 -0.21418624766E+03  0.20203153505E+04  0.20089296570E+04 0.  0.
        2    1    3    3  502    0 -0.24953988345E+03  0.51994008924E+03  0.71996785172E+03  0.92247577602E+03  0.25500000920E-02 0.  1.
       -2    1    3    3    0  502  0.24953988345E+03 -0.51994008924E+03 -0.93415409938E+03  0.10978395744E+04  0.25500000920E-02 0. -1.
</event>
<event>
 5   0  0.1643565E-04  0.2044535E+04  0.7818609E-02  0.8586078E-01
        1   -1    0    0  501    0  0.00000000000E+00  0.00000000000E+00  0.12944959956E+04  0.12944959956E+04  0.50400001928E-02 0. -1.
       -1   -1    0    0    0  501  0.00000000000E+00  0.00000000000E+00 -0.80728786479E+03  0.80728786481E+03  0.50400001928E-02 0.  1.
    10030    2    1    2    0    0  0.00000000000E+00  0.00000000000E+00  0.48720813081E+03  0.21017838604E+04  0.20445350653E+04 0.  0.
        2    1    3    3  502    0 -0.76325830739E+03  0.65220351994E+03  0.44160630472E+03  0.10967902277E+04  0.25500000920E-02 0. -1.
       -2    1    3    3    0  502  0.76325830739E+03 -0.65220351994E+03  0.45601826086E+02  0.10049936327E+04  0.25500000920E-02 0.  1.
</event>
<event>
 5   0  0.3460648E-04  0.1528785E+04  0.7818609E-02  0.8865534E-01
        2   -1    0    0  501    0  0.00000000000E+00  0.00000000000E+00  0.69550073792E+03  0.69550073792E+03  0.25500000920E-02 0. -1.
       -2   -1    0    0    0  501  0.00000000000E+00  0.00000000000E+00 -0.84010844025E+03  0.84010844025E+03  0.25500000920E-02 0.  1.
    10030    2    1    2    0    0  0.00000000000E+00  0.00000000000E+00 -0.14460770233E+03  0.15356091782E+04  0.15287851911E+04 0.  0.
        5    1    3    3  502    0 -0.54383997050E+02 -0.11324158083E+03 -0.82965391916E+03  0.83912394218E+03  0.46999998093E+01 0.  1.
       -5    1    3    3    0  502  0.54383997050E+02  0.11324158083E+03  0.68504621683E+03  0.69648523599E+03  0.46999998093E+01 0. -1.
</event>
<event>
 5   0  0.1650221E-04  0.2014514E+04  0.7818609E-02  0.8599865E-01
        1   -1    0    0  501    0  0.00000000000E+00  0.00000000000E+00  0.11874227943E+04  0.11874227943E+04  0.50400001928E-02 0. -1.
       -1   -1    0    0    0  501  0.00000000000E+00  0.00000000000E+00 -0.85442757353E+03  0.85442757354E+03  0.50400001928E-02 0.  1.
    10030    2    1    2    0    0  0.00000000000E+00  0.00000000000E+00  0.33299522077E+03  0.20418503679E+04  0.20145141120E+04 0.  0.
        1    1    3    3  502    0  0.29181529783E+03 -0.30015423216E+03  0.10950723795E+04  0.11723618245E+04  0.50400001928E-02 0. -1.
       -1    1    3    3    0  502 -0.29181529783E+03  0.30015423216E+03 -0.76207715874E+03  0.86948854336E+03  0.50400001928E-02 0.  1.
</event>
<event>
 5   0  0.3431030E-04  0.2002579E+04  0.7818609E-02  0.8605416E-01
        2   -1    0    0  501    0  0.00000000000E+00  0.00000000000E+00  0.18992174252E+04  0.18992174252E+04  0.25500000920E-02 0. -1.
       -2   -1    0    0    0  501  0.00000000000E+00  0.00000000000E+00 -0.52789129183E+03  0.52789129184E+03  0.25500000920E-02 0.  1.
    10030    2    1    2    0    0  0.00000000000E+00  0.00000000000E+00  0.13713261334E+04  0.24271087171E+04  0.20025786777E+04 0.  0.
        3    1    3    3  502    0  0.76773567095E+03  0.23817393816E+03 -0.37922815161E+02  0.80472544099E+03  0.10100000352E+00 0.  1.
       -3    1    3    3    0  502 -0.76773567095E+03 -0.23817393816E+03  0.14092489485E+04  0.16223832761E+04  0.10100000352E+00 0. -1.
</event>
<event>
 5   0  0.3460648E-04  0.1843132E+04  0.7818609E-02  0.8683693E-01
       -2   -1    0    0    0  501  0.00000000000E+00  0.00000000000E+00  0.47965702037E+03  0.47965702038E+03  0.25500000920E-02 0. -1.
        2   -1    0    0  501    0  0.00000000000E+00  0.00000000000E+00 -0.17706062803E+04  0.17706062804E+04  0.25500000920E-02 0.  1.
    10030    2    1    2    0    0  0.00000000000E+00  0.00000000000E+00 -0.12909492600E+04  0.22502633007E+04  0.18431318267E+04 0.  0.
        5    1    3    3  502    0  0.55509859701E+03  0.25390168152E+03 -0.14883857949E+04  0.16086997485E+04  0.46999998093E+01 0.  1.
       -5    1    3    3    0  502 -0.55509859701E+03 -0.25390168152E+03  0.19743653491E+03  0.64156355226E+03  0.46999998093E+01 0. -1.
</event>
<event>
 5   0  0.3460648E-04  0.2006753E+04  0.7818609E-02  0.8603470E-01
        2   -1    0    0  501    0  0.00000000000E+00  0.00000000000E+00  0.15309233853E+04  0.15309233853E+04  0.25500000920E-02 0. -1.
       -2   -1    0    0    0  501  0.00000000000E+00  0.00000000000E+00 -0.65761906947E+03  0.65761906947E+03  0.25500000920E-02 0.  1.
    10030    2    1    2    0    0  0.00000000000E+00  0.00000000000E+00  0.87330431586E+03  0.21885424548E+04  0.20067530113E+04 0.  0.
        5    1    3    3  502    0 -0.68368261216E+03  0.16201907036E+03  0.12178291795E+04  0.14059879423E+04  0.46999998093E+01 0. -1.
       -5    1    3    3    0  502  0.68368261216E+03 -0.16201907036E+03 -0.34452486369E+03  0.78255451250E+03  0.46999998093E+01 0.  1.
</event>
<event>
 5   0  0.3431030E-04  0.2037922E+04  0.7818609E-02  0.8589093E-01
       -2   -1    0    0    0  501  0.00000000000E+00  0.00000000000E+00  0.12976439011E+04  0.12976439011E+04  0.25500000920E-02 0. -1.
        2   -1    0    0  501    0  0.00000000000E+00  0.00000000000E+00 -0.80012848896E+03  0.80012848896E+03  0.25500000920E-02 0.  1.
    10030    2    1    2    0    0  0.00000000000E+00  0.00000000000E+00  0.49751541217E+03  0.20977723901E+04  0.20379223281E+04 0.  0.
        3    1    3    3  502    0  0.48543401346E+03  0.24890083741E+03 -0.63714745038E+03  0.83878167125E+03  0.10100000352E+00 0.  1.
       -3    1    3    3    0  502 -0.48543401346E+03 -0.24890083741E+03  0.11346628626E+04  0.12589907188E+04  0.10100000352E+00 0. -1.
</event>
<event>
 5   0  0.1650221E-04  0.1932591E+04  0.7818609E-02  0.8638802E-01
        1   -1    0    0  501    0  0.00000000000E+00  0.00000000000E+00  0.12879247505E+04  0.12879247506E+04  0.50400001928E-02 0.  1.
       -1   -1    0    0    0  501  0.00000000000E+00  0.00000000000E+00 -0.72498539445E+03  0.72498539447E+03  0.50400001928E-02 0. -1.
    10030    2    1    2    0    0  0.00000000000E+00  0.00000000000E+00  0.56293935609E+03  0.20129101450E+04  0.19325906274E+04 0.  0.
        1    1    3    3  502    0 -0.31603696464E+03 -0.39760128665E+03  0.11376809024E+04  0.12459068913E+04  0.50400001928E-02 0.  1.
       -1    1    3    3    0  502  0.31603696464E+03  0.39760128665E+03 -0.57474154628E+03  0.76700325371E+03  0.50400001928E-02 0. -1.
</event>
<event>
 5   0  0.1696052E-04  0.1965520E+04  0.7818609E-02  0.8622913E-01
        1   -1    0    0  501    0  0.00000000000E+00  0.00000000000E+00  0.70892335237E+03  0.70892335239E+03  0.50400001928E-02 0. -1.
       -1   -1    0    0    0  501  0.00000000000E+00  0.00000000000E+00 -0.13623717734E+04  0.13623717734E+04  0.50400001928E-02 0.  1.
    10030    2    1    2    0    0  0.00000000000E+00  0.00000000000E+00 -0.65344842104E+03  0.20712951258E+04  0.19655199463E+04 0.  0.
        4    1    3    3  502    0 -0.18851229199E+03  0.24857094053E+03 -0.13088050267E+04  0.13454726336E+04  0.12699999809E+01 0.  1.
       -4    1    3    3    0  502  0.18851229199E+03 -0.24857094053E+03  0.65535660571E+03  0.72582249225E+03  0.12699999809E+01 0. -1.
</event>
<event>
 5   0  0.1664168E-04  0.1973033E+04  0.7818609E-02  0.8619334E-01
        1   -1    0    0  501    0  0.00000000000E+00  0.00000000000E+00  0.21963667363E+04  0.21963667363E+04  0.50400001928E-02 0.  1.
       -1   -1    0    0    0  501  0.00000000000E+00  0.00000000000E+00 -0.44310203902E+03  0.44310203905E+03  0.50400001928E-02 0. -1.
    10030    2    1    2    0    0  0.00000000000E+00  0.00000000000E+00  0.17532646973E+04  0.26394687754E+04  0.19730327715E+04 0.  0.
        5    1    3    3  502    0 -0.54755644549E+03  0.80437053718E+03  0.65942462881E+03  0.11754543603E+04  0.46999998093E+01 0. -1.
       -5    1    3    3    0  502  0.54755644549E+03 -0.80437053718E+03  0.10938400685E+04  0.14640144151E+04  0.46999998093E+01 0.  1.
</event>
<event>
 5   0  0.3371947E-04  0.1066944E+04  0.7818609E-02  0.9238023E-01
        2   -1    0    0  501    0  0.00000000000E+00  0.00000000000E+00  0.61377516673E+03  0.61377516673E+03  0.25500000920E-02 0. -1.
       -2   -1    0    0    0  501  0.00000000000E+00  0.00000000000E+00 -0.46367543761E+03  0.46367543762E+03  0.25500000920E-02 0.  1.
    10030    2    1    2    0    0  0.00000000000E+00  0.00000000000E+00  0.15009972912E+03  0.10774506043E+04  0.10669441767E+04 0.  0.
        2    1    3    3  502    0 -0.36891885328E+03  0.36998650224E+03 -0.33720276250E+02  0.52357252523E+03  0.25500000920E-02 0.  1.
       -2    1    3    3    0  502  0.36891885328E+03 -0.36998650224E+03  0.18382000537E+03  0.55387807911E+03  0.25500000920E-02 0. -1.
</event>
<event>
 5   0  0.1708578E-04  0.1076152E+04  0.7818609E-02  0.9228753E-01
       -1   -1    0    0    0  501  0.00000000000E+00  0.00000000000E+00  0.60412885896E+03  0.60412885898E+03  0.50400001928E-02 0. -1.
        1   -1    0    0  501    0  0.00000000000E+00  0.00000000000E+00 -0.47924511928E+03  0.47924511931E+03  0.50400001928E-02 0.  1.
    10030    2    1    2    0    0  0.00000000000E+00  0.00000000000E+00  0.12488373967E+03  0.10833739783E+04  0.10761520471E+04 0.  0.
        3    1    3    3  502    0 -0.14048438166E+03 -0.18073892445E+03  0.55266291230E+03  0.59819622628E+03  0.10100000352E+00 0. -1.
       -3    1    3    3    0  502  0.14048438166E+03  0.18073892445E+03 -0.42777917263E+03  0.48517775201E+03  0.10100000352E+00 0.  1.
</event>
<event>
 5   0  0.1696052E-04  0.1976583E+04  0.7818609E-02  0.8617648E-01
        1   -1    0    0  501    0  0.00000000000E+00  0.00000000000E+00  0.93860406034E+03  0.93860406035E+03  0.50400001928E-02 0.  1.
       -1   -1    0    0    0  501  0.00000000000E+00  0.00000000000E+00 -0.10406090370E+04  0.10406090371E+04  0.50400001928E-02 0. -1.
    10030    2    1    2    0    0  0.00000000000E+00  0.00000000000E+00 -0.10200497671E+03  0.19792130974E+04  0.19765827758E+04 0.  0.
        4    1    3    3  502    0 -0.61035228589E+03 -0.77729019427E+03 -0.53886514763E+02  0.98975518609E+03  0.12699999809E+01 0. -1.
       -4    1    3    3    0  502  0.61035228589E+03  0.77729019427E+03 -0.48118461945E+02  0.98945791133E+03  0.12699999809E+01 0.  1.
</event>
<event>
 5   0  0.3395569E-04  0.1756949E+04  0.7818609E-02  0.8729535E-01
        2   -1    0    0  501    0  0.00000000000E+00  0.00000000000E+00  0.20600670943E+04  0.20600670943E+04  0.25500000920E-02 0.  1.
       -2   -1    0    0    0  501  0.00000000000E+00  0.00000000000E+00 -0.37460771860E+03  0.37460771861E+03  0.25500000920E-02 0. -1.
    10030    2    1    2    0    0  0.00000000000E+00  0.00000000000E+00  0.16854593757E+04  0.24346748129E+04  0.17569485301E+04 0.  0.
        4    1    3    3  502    0 -0.86290767621E+03  0.16300105385E+03  0.87482447609E+03  0.12395557584E+04  0.12699999809E+01 0.  1.
       -4    1    3    3    0  502  0.86290767621E+03 -0.16300105385E+03  0.81063489966E+03  0.11951190546E+04  0.12699999809E+01 0. -1.
</event>
<event>
 5   0  0.1696052E-04  0.1948282E+04  0.7818609E-02  0.8631190E-01
        1   -1    0    0  501    0  0.00000000000E+00  0.00000000000E+00  0.10319934042E+04  0.10319934042E+04  0.50400001928E-02 0. -1.
       -1   -1    0    0    0  501  0.00000000000E+00  0.00000000000E+00 -0.91953190533E+03  0.91953190534E+03  0.50400001928E-02 0.  1.
    10030    2    1    2    0    0  0.00000000000E+00  0.00000000000E+00  0.11246149883E+03  0.19515253095E+04  0.19482821780E+04 0.  0.
        4    1    3    3  502    0 -0.92690552498E+03 -0.27811853980E+03 -0.55514237670E+02  0.96932307200E+03  0.12699999809E+01 0. -1.
       -4    1    3    3    0  502  0.92690552498E+03  0.27811853980E+03  0.16797573650E+03  0.98220223751E+03  0.12699999809E+01 0.  1.
</event>
<event>
 5   0  0.1696052E-04  0.1953330E+04  0.7818609E-02  0.8628757E-01
       -1   -1    0    0    0  501  0.00000000000E+00  0.00000000000E+00  0.89220672527E+03  0.89220672529E+03  0.50400001928E-02 0. -1.
        1   -1    0    0  501    0  0.00000000000E+00  0.00000000000E+00 -0.10691178979E+04  0.10691178979E+04  0.50400001928E-02 0.  1.
    10030    2    1    2    0    0  0.00000000000E+00  0.00000000000E+00 -0.17691117261E+03  0.19613246232E+04  0.19533296482E+04 0.  0.
        4    1    3    3  502    0  0.19910352239E+03 -0.35792264276E+02  0.87093899408E+03  0.89412507130E+03  0.12699999809E+01 0. -1.
       -4    1    3    3    0  502 -0.19910352239E+03  0.35792264276E+02 -0.10478501667E+04  0.10671995519E+04  0.12699999809E+01 0.  1.
</event>
<event>
 5   0  0.1650221E-04  0.1770943E+04  0.7818609E-02  0.8721906E-01
        1   -1    0    0  501    0  0.00000000000E+00  0.00000000000E+00  0.92499107330E+03  0.92499107331E+03  0.50400001928E-02 0.  1.
       -1   -1    0    0    0  501  0.00000000000E+00  0.00000000000E+00 -0.84764020683E+03  0.84764020685E+03  0.50400001928E-02 0. -1.
    10030    2    1    2    0    0  0.00000000000E+00  0.00000000000E+00  0.77350866464E+02  0.17726312802E+04  0.17709428277E+04 0.  0.
        1    1    3    3  502    0  0.63185475065E+03  0.61816736357E+03  0.90573776215E+02  0.88858028578E+03  0.50400001928E-02 0.  1.
       -1    1    3    3    0  502 -0.63185475065E+03 -0.61816736357E+03 -0.13222909751E+02  0.88405099439E+03  0.50400001928E-02 0. -1.
</event>
<event>
 5   0  0.3387881E-04  0.1861061E+04  0.7818609E-02  0.8674485E-01
       -2   -1    0    0    0  501  0.00000000000E+00  0.00000000000E+00  0.11026007975E+04  0.11026007975E+04  0.25500000920E-02 0.  1.
        2   -1    0    0  501    0  0.00000000000E+00  0.00000000000E+00 -0.78531344302E+03  0.78531344302E+03  0.25500000920E-02 0. -1.
    10030    2    1    2    0    0  0.00000000000E+00  0.00000000000E+00  0.31728735450E+03  0.18879142405E+04  0.18610612334E+04 0.  0.
        1    1    3    3  502    0 -0.28091910883E+03 -0.81244482631E+03 -0.20273382793E+03  0.88322315782E+03  0.50400001928E-02 0. -1.
       -1    1    3    3    0  502  0.28091910883E+03  0.81244482631E+03  0.52002118243E+03  0.10046910827E+04  0.50400001928E-02 0.  1.
</event>
<event>
 5   0  0.1708578E-04  0.1875175E+04  0.7818609E-02  0.8667313E-01
        1   -1    0    0  501    0  0.00000000000E+00  0.00000000000E+00  0.12547039039E+04  0.12547039039E+04  0.50400001928E-02 0.  1.
       -1   -1    0    0    0  501  0.00000000000E+00  0.00000000000E+00 -0.70061986617E+03  0.70061986619E+03  0.50400001928E-02 0. -1.
    10030    2    1    2    0    0  0.00000000000E+00  0.00000000000E+00  0.55408403770E+03  0.19553237701E+04  0.18751751718E+04 0.  0.
        3    1    3    3  502    0  0.33826594896E+03 -0.63557177856E+03  0.90329092012E+03  0.11551232984E+04  0.10100000352E+00 0.  1.
       -3    1    3    3    0  502 -0.33826594896E+03  0.63557177856E+03 -0.34920688242E+03  0.80020047167E+03  0.10100000352E+00 0. -1.
</event>
<event>
 5   0  0.3371947E-04  0.1859874E+04  0.7818609E-02  0.8675092E-01
       -2   -1    0    0    0  501  0.00000000000E+00  0.00000000000E+00  0.61308477385E+03  0.61308477385E+03  0.25500000920E-02 0. -1.
        2   -1    0    0  501    0  0.00000000000E+00  0.00000000000E+00 -0.14105429183E+04  0.14105429183E+04  0.25500000920E-02 0.  1.
    10030    2    1    2    0    0  0.00000000000E+00  0.00000000000E+00 -0.79745814441E+03  0.20236276921E+04  0.18598735291E+04 0.  0.
        2    1    3    3  502    0 -0.76785136398E+03 -0.73566635224E+02 -0.96385826803E+03  0.12345163133E+04  0.25500000920E-02 0.  1.
       -2    1    3    3    0  502  0.76785136398E+03  0.73566635224E+02  0.16640012363E+03  0.78911137879E+03  0.25500000920E-02 0. -1.
</event>
<event>
 5   0  0.3431030E-04  0.1421913E+04  0.7818609E-02  0.8938108E-01
        2   -1    0    0  501    0  0.00000000000E+00  0.00000000000E+00  0.76186678597E+03  0.76186678597E+03  0.25500000920E-02 0. -1.
       -2   -1    0    0    0  501  0.00000000000E+00  0.00000000000E+00 -0.66344792581E+03  0.66344792581E+03  0.25500000920E-02 0.  1.
    10030    2    1    2    0    0  0.00000000000E+00  0.00000000000E+00  0.98418860162E+02  0.14253147118E+04  0.14219127103E+04 0.  0.
        3    1    3    3  502    0  0.56552245570E+03 -0.28928982058E+03 -0.27085795046E+03  0.69055650581E+03  0.10100000352E+00 0. -1.
       -3    1    3    3    0  502 -0.56552245570E+03  0.28928982058E+03  0.36927681062E+03  0.73475820598E+03  0.10100000352E+00 0.  1.
</event>
<event>
 5   0  0.1664168E-04  0.2017239E+04  0.7818609E-02  0.8598603E-01
        1   -1    0    0  501    0  0.00000000000E+00  0.00000000000E+00  0.18667710091E+04  0.18667710091E+04  0.50400001928E-02 0.  1.
       -1   -1    0    0    0  501  0.00000000000E+00  0.00000000000E+00 -0.54495857339E+03  0.54495857341E+03  0.50400001928E-02 0. -1.
    10030    2    1    2    0    0  0.00000000000E+00  0.00000000000E+00  0.13218124357E+04  0.24117295825E+04  0.20172385739E+04 0.  0.
        5    1    3    3  502    0 -0.83203310538E+03  0.26554316776E+03  0.12640404402E+04  0.15364285166E+04  0.46999998093E+01 0.  1.
       -5    1    3    3    0  502  0.83203310538E+03 -0.26554316776E+03  0.57771995520E+02  0.87530106584E+03  0.46999998093E+01 0. -1.
</event>
<event>
 5   0  0.3395569E-04  0.1142311E+04  0.7818609E-02  0.9164907E-01
       -2   -1    0    0    0  501  0.00000000000E+00  0.00000000000E+00  0.18446113133E+03  0.18446113134E+03  0.25500000920E-02 0.  1.
        2   -1    0    0  501    0  0.00000000000E+00  0.00000000000E+00 -0.17684939029E+04  0.17684939029E+04  0.25500000920E-02 0. -1.
    10030    2    1    2    0    0  0.00000000000E+00  0.00000000000E+00 -0.15840327716E+04  0.19529550343E+04  0.11423106164E+04 0.  0.
        4    1    3    3  502    0  0.23331260144E+03 -0.52123356048E+03 -0.77512810598E+03  0.96277951169E+03  0.12699999809E+01 0. -1.
       -4    1    3    3    0  502 -0.23331260144E+03  0.52123356048E+03 -0.80890466563E+03  0.99017552259E+03  0.12699999809E+01 0.  1.
</event>
<event>
 5   0  0.3395569E-04  0.2015726E+04  0.7818609E-02  0.8599303E-01
       -2   -1    0    0    0  501  0.00000000000E+00  0.00000000000E+00  0.95864880636E+03  0.95864880636E+03  0.25500000920E-02 0. -1.
        2   -1    0    0  501    0  0.00000000000E+00  0.00000000000E+00 -0.10596042059E+04  0.10596042059E+04  0.25500000920E-02 0.  1.
    10030    2    1    2    0    0  0.00000000000E+00  0.00000000000E+00 -0.10095539957E+03  0.20182530123E+04  0.20157264767E+04 0.  0.
        4    1    3    3  502    0 -0.25160408731E+02 -0.96873562951E+03 -0.32778138629E+03  0.10229975641E+04  0.12699999809E+01 0.  1.
       -4    1    3    3    0  502  0.25160408731E+02  0.96873562951E+03  0.22682598671E+03  0.99525544821E+03  0.12699999809E+01 0. -1.
</event>
<event>
 5   0  0.3371947E-04  0.1971726E+04  0.7818609E-02  0.8619955E-01
       -2   -1    0    0    0  501  0.00000000000E+00  0.00000000000E+00  0.42046130630E+03  0.42046130630E+03  0.25500000920E-02 0.  1.
        2   -1    0    0  501    0  0.00000000000E+00  0.00000000000E+00 -0.23115703281E+04  0.23115703281E+04  0.25500000920E-02 0. -1.
    10030    2    1    2    0    0  0.00000000000E+00  0.00000000000E+00 -0.18911090218E+04  0.27320316344E+04  0.19717260253E+04 0.  0.
        2    1    3    3  502    0  0.21048532792E+03 -0.12083079430E+03 -0.22695292860E+04  0.22824695691E+04  0.25500000920E-02 0. -1.
       -2    1    3    3    0  502 -0.21048532792E+03  0.12083079430E+03  0.37842026421E+03  0.44956206523E+03  0.25500000920E-02 0.  1.
</event>
<event>
 5   0  0.1664168E-04  0.2058606E+04  0.7818609E-02  0.8579700E-01
       -1   -1    0    0    0  501  0.00000000000E+00  0.00000000000E+00  0.69639996685E+03  0.69639996687E+03  0.50400001928E-02 0. -1.
        1   -1    0    0  501    0  0.00000000000E+00  0.00000000000E+00 -0.15213449500E+04  0.15213449500E+04  0.50400001928E-02 0.  1.
    10030    2    1    2    0    0  0.00000000000E+00  0.00000000000E+00 -0.82494498317E+03  0.22177449169E+04  0.20586059096E+04 0.  0.
        5    1    3    3  502    0 -0.16368098534E+03  0.85107861630E+03 -0.10106589184E+04  0.13313826705E+04  0.46999998093E+01 0.  1.
       -5    1    3    3    0  502  0.16368098534E+03 -0.85107861630E+03  0.18571393518E+03  0.88636224638E+03  0.46999998093E+01 0. -1.
</event>
<event>
 5   0  0.3431030E-04  0.2130022E+04  0.7818609E-02  0.8548132E-01
       -2   -1    0    0    0  501  0.00000000000E+00  0.00000000000E+00  0.15564391435E+04  0.15564391435E+04  0.25500000920E-02 0. -1.
        2   -1    0    0  501    0  0.00000000000E+00  0.00000000000E+00 -0.72874596441E+03  0.72874596441E+03  0.25500000920E-02 0.  1.
    10030    2    1    2    0    0  0.00000000000E+00  0.00000000000E+00  0.82769317906E+03  0.22851851079E+04  0.21300222953E+04 0.  0.
        3    1    3    3  502    0  0.15053372652E+03  0.34674990870E+02  0.15443560995E+04  0.15520626695E+04  0.10100000352E+00 0. -1.
       -3    1    3    3    0  502 -0.15053372652E+03 -0.34674990870E+02 -0.71666292048E+03  0.73312243834E+03  0.10100000352E+00 0.  1.
</event>
<event>
 5   0  0.1222488E-04  0.2004530E+04  0.7818609E-02  0.8604506E-01
        3   -1    0    0  501    0  0.00000000000E+00  0.00000000000E+00  0.18515890483E+04  0.18515890510E+04  0.10100000352E+00 0.  1.
       -3   -1    0    0    0  501  0.00000000000E+00  0.00000000000E+00 -0.54252613222E+03  0.54252614162E+03  0.10100000352E+00 0. -1.
    10030    2    1    2    0    0  0.00000000000E+00  0.00000000000E+00  0.13090629160E+04  0.23941151926E+04  0.20045303284E+04 0.  0.
        1    1    3    3  502    0 -0.30109650846E+03  0.89732540699E+03  0.10482756411E+04  0.14123504570E+04  0.50400001928E-02 0.  1.
       -1    1    3    3    0  502  0.30109650846E+03 -0.89732540699E+03  0.26078727491E+03  0.98176473568E+03  0.50400001928E-02 0. -1.
</event>
<event>
 5   0  0.1708578E-04  0.2026124E+04  0.7818609E-02  0.8594503E-01
        1   -1    0    0  501    0  0.00000000000E+00  0.00000000000E+00  0.17791877725E+04  0.17791877725E+04  0.50400001928E-02 0. -1.
       -1   -1    0    0    0  501  0.00000000000E+00  0.00000000000E+00 -0.57683339392E+03  0.57683339394E+03  0.50400001928E-02 0.  1.
    10030    2    1    2    0    0  0.00000000000E+00  0.00000000000E+00  0.12023543786E+04  0.23560211665E+04  0.20261243015E+04 0.  0.
        3    1    3    3  502    0  0.14437738824E+03 -0.78593163571E+03  0.13252720595E+04  0.15475397921E+04  0.10100000352E+00 0. -1.
       -3    1    3    3    0  502 -0.14437738824E+03  0.78593163571E+03 -0.12291768088E+03  0.80848137438E+03  0.10100000352E+00 0.  1.
</event>
<event>
 5   0  0.1222488E-04  0.1995835E+04  0.7818609E-02  0.8608571E-01
        3   -1    0    0  501    0  0.00000000000E+00  0.00000000000E+00  0.71118242570E+03  0.71118243287E+03  0.10100000352E+00 0.  1.
       -3   -1    0    0    0  501  0.00000000000E+00  0.00000000000E+00 -0.14002582269E+04  0.14002582305E+04  0.10100000352E+00 0. -1.
    10030    2    1    2    0    0  0.00000000000E+00  0.00000000000E+00 -0.68907580117E+03  0.21114406634E+04  0.19958347164E+04 0.  0.
        3    1    3    3  502    0  0.32522118408E+03 -0.71332688184E+03  0.30866887709E+03  0.84254409072E+03  0.10100000352E+00 0.  1.
       -3    1    3    3    0  502 -0.32522118408E+03  0.71332688184E+03 -0.99774467826E+03  0.12688965727E+04  0.10100000352E+00 0. -1.
</event>
<event>
 5   0  0.3395569E-04  0.2134197E+04  0.7818609E-02  0.8546327E-01
       -2   -1    0    0    0  501  0.00000000000E+00  0.00000000000E+00  0.92006600519E+03  0.92006600520E+03  0.25500000920E-02 0. -1.
        2   -1    0    0  501    0  0.00000000000E+00  0.00000000000E+00 -0.12376276245E+04  0.12376276246E+04  0.25500000920E-02 0.  1.
    10030    2    1    2    0    0  0.00000000000E+00  0.00000000000E+00 -0.31756161935E+03  0.21576936297E+04  0.21341969023E+04 0.  0.
        4    1    3    3  502    0  0.49841173875E+03 -0.91963705278E+03 -0.37217551484E+03  0.11102534832E+04  0.12699999809E+01 0.  1.
       -4    1    3    3    0  502 -0.49841173875E+03  0.91963705278E+03  0.54613895488E+02  0.10474401466E+04  0.12699999809E+01 0. -1.
</event>
<event>
 5   0  0.1696052E-04  0.1913733E+04  0.7818609E-02  0.8648050E-01
       -1   -1    0    0    0  501  0.00000000000E+00  0.00000000000E+00  0.70709270174E+03  0.70709270175E+03  0.50400001928E-02 0.  1.
        1   -1    0    0  501    0  0.00000000000E+00  0.00000000000E+00 -0.12948710359E+04  0.12948710359E+04  0.50400001928E-02 0. -1.
    10030    2    1    2    0    0  0.00000000000E+00  0.00000000000E+00 -0.58777833415E+03  0.20019637376E+04  0.19137333766E+04 0.  0.
        4    1    3    3  502    0  0.13504154987E+03 -0.88046973517E+03 -0.65947074509E+03  0.11083169453E+04  0.12699999809E+01 0. -1.
       -4    1    3    3    0  502 -0.13504154987E+03  0.88046973517E+03  0.71692410947E+02  0.89364679233E+03  0.12699999809E+01 0.  1.
</event>
<event>
 5   0  0.1708578E-04  0.2036040E+04  0.7818609E-02  0.8589954E-01
       -1   -1    0    0    0  501  0.00000000000E+00  0.00000000000E+00  0.84590634806E+03  0.84590634807E+03  0.50400001928E-02 0.  1.
        1   -1    0    0  501    0  0.00000000000E+00  0.00000000000E+00 -0.12251527699E+04  0.12251527699E+04  0.50400001928E-02 0. -1.
    10030    2    1    2    0    0  0.00000000000E+00  0.00000000000E+00 -0.37924642186E+03  0.20710591180E+04  0.20360397888E+04 0.  0.
        3    1    3    3  502    0  0.23692274008E+03  0.83867225986E+03 -0.72484907043E+03  0.11335385875E+04  0.10100000352E+00 0. -1.
       -3    1    3    3    0  502 -0.23692274008E+03 -0.83867225986E+03  0.34560264857E+03  0.93752053051E+03  0.10100000352E+00 0.  1.
</event>
<event>
 5   0  0.3371947E-04  0.1031931E+04  0.7818609E-02  0.9274200E-01
       -2   -1    0    0    0  501  0.00000000000E+00  0.00000000000E+00  0.78196120663E+03  0.78196120663E+03  0.25500000920E-02 0.  1.
        2   -1    0    0  501    0  0.00000000000E+00  0.00000000000E+00 -0.34045249616E+03  0.34045249617E+03  0.25500000920E-02 0. -1.
    10030    2    1    2    0    0  0.00000000000E+00  0.00000000000E+00  0.44150871047E+03  0.11224137028E+04  0.10319314797E+04 0.  0.
        2    1    3    3  502    0 -0.32522772049E+03 -0.34980422720E+02 -0.21326219270E+03  0.39048362705E+03  0.25500000920E-02 0. -1.
       -2    1    3    3    0  502  0.32522772049E+03  0.34980422720E+02  0.65477090317E+03  0.73193007575E+03  0.25500000920E-02 0.  1.
</event>
<event>
 5   0  0.1708578E-04  0.1994549E+04  0.7818609E-02  0.8609174E-01
       -1   -1    0    0    0  501  0.00000000000E+00  0.00000000000E+00  0.57339868357E+03  0.57339868359E+03  0.50400001928E-02 0. -1.
        1   -1    0    0  501    0  0.00000000000E+00  0.00000000000E+00 -0.17344931976E+04  0.17344931976E+04  0.50400001928E-02 0.  1.
    10030    2    1    2    0    0  0.00000000000E+00  0.00000000000E+00 -0.11610945140E+04  0.23078918812E+04  0.19945486870E+04 0.  0.
        3    1    3    3  502    0  0.51905387728E+03  0.58475366141E+02  0.40245639324E+03  0.65939931349E+03  0.10100000352E+00 0. -1.
       -3    1    3    3    0  502 -0.51905387728E+03 -0.58475366141E+02 -0.15635509073E+04  0.16484925677E+04  0.10100000352E+00 0.  1.
</event>
<event>
 5   0  0.3395569E-04  0.1117315E+04  0.7818609E-02  0.9188478E-01
       -2   -1    0    0    0  501  0.00000000000E+00  0.00000000000E+00  0.15575310504E+03  0.15575310506E+03  0.25500000920E-02 0.  1.
        2   -1    0    0  501    0  0.00000000000E+00  0.00000000000E+00 -0.20037990934E+04  0.20037990934E+04  0.25500000920E-02 0. -1.
    10030    2    1    2    0    0  0.00000000000E+00  0.00000000000E+00 -0.18480459883E+04  0.21595521984E+04  0.11173145138E+04 0.  0.
        4    1    3    3  502    0 -0.49501040821E+03 -0.24276945466E+03 -0.10982331095E+04  0.12288571471E+04  0.12699999809E+01 0. -1.
       -4    1    3    3    0  502  0.49501040821E+03  0.24276945466E+03 -0.74981287882E+03  0.93069505129E+03  0.12699999809E+01 0.  1.
</event>
<event>
 5   0  0.3387881E-04  0.1854054E+04  0.7818609E-02  0.8678071E-01
        2   -1    0    0  501    0  0.00000000000E+00  0.00000000000E+00  0.14827045649E+04  0.14827045649E+04  0.25500000920E-02 0.  1.
       -2   -1    0    0    0  501  0.00000000000E+00  0.00000000000E+00 -0.57960237932E+03  0.57960237933E+03  0.25500000920E-02 0. -1.
    10030    2    1    2    0    0  0.00000000000E+00  0.00000000000E+00  0.90310218553E+03  0.20623069442E+04  0.18540540377E+04 0.  0.
        1    1    3    3  502    0  0.83330953871E+03 -0.31440160574E+03  0.16551763608E+03  0.90589692840E+03  0.50400001928E-02 0. -1.
       -1    1    3    3    0  502 -0.83330953871E+03  0.31440160574E+03  0.73758454945E+03  0.11564100158E+04  0.50400001928E-02 0.  1.
</event>
<event>
 5   0  0.3387881E-04  0.1855652E+04  0.7818609E-02  0.8677252E-01
       -2   -1    0    0    0  501  0.00000000000E+00  0.00000000000E+00  0.53593522123E+03  0.53593522123E+03  0.25500000920E-02 0. -1.
        2   -1    0    0  501    0  0.00000000000E+00  0.00000000000E+00 -0.16062774341E+04  0.16062774341E+04  0.25500000920E-02 0.  1.
    10030    2    1    2    0    0  0.00000000000E+00  0.00000000000E+00 -0.10703422128E+04  0.21422126553E+04  0.18556515319E+04 0.  0.
        1    1    3    3  502    0 -0.92692707505E+03 -0.23251328156E+02 -0.57391281601E+03  0.10904633635E+04  0.50400001928E-02 0.  1.
       -1    1    3    3    0  502  0.92692707505E+03  0.23251328156E+02 -0.49642939682E+03  0.10517492918E+04  0.50400001928E-02 0. -1.
</event>
<event>
 5   0  0.3431030E-04  0.2123212E+04  0.7818609E-02  0.8551087E-01
        2   -1    0    0  501    0  0.00000000000E+00  0.00000000000E+00  0.19297761320E+04  0.19297761320E+04  0.25500000920E-02 0. -1.
       -2   -1    0    0    0  501  0.00000000000E+00  0.00000000000E+00 -0.58400913239E+03  0.58400913240E+03  0.25500000920E-02 0.  1.
    10030    2    1    2    0    0  0.00000000000E+00  0.00000000000E+00  0.13457669996E+04  0.25137852644E+04  0.21232116094E+04 0.  0.
        3    1    3    3  502    0  0.90118107085E+03  0.56010592170E+03  0.63254368799E+03  0.12352965204E+04  0.10100000352E+00 0. -1.
       -3    1    3    3    0  502 -0.90118107085E+03 -0.56010592170E+03  0.71322331161E+03  0.12784887440E+04  0.10100000352E+00 0.  1.
</event>
<event>
 5   0  0.3460648E-04  0.1964845E+04  0.7818609E-02  0.8623236E-01
       -2   -1    0    0    0  501  0.00000000000E+00  0.00000000000E+00  0.59965411366E+03  0.59965411367E+03  0.25500000920E-02 0.  1.
        2   -1    0    0  501    0  0.00000000000E+00  0.00000000000E+00 -0.16095172843E+04  0.16095172843E+04  0.25500000920E-02 0. -1.
    10030    2    1    2    0    0  0.00000000000E+00  0.00000000000E+00 -0.10098631706E+04  0.22091713980E+04  0.19648446865E+04 0.  0.
        5    1    3    3  502    0  0.54192094174E+03  0.63350087701E+03 -0.10893010518E+04  0.13717144527E+04  0.46999998093E+01 0. -1.
       -5    1    3    3    0  502 -0.54192094174E+03 -0.63350087701E+03  0.79437881151E+02  0.83745694529E+03  0.46999998093E+01 0.  1.
</event>
<event>
 5   0  0.1708578E-04  0.1691009E+04  0.7818609E-02  0.8766509E-01
       -1   -1    0    0    0  501  0.00000000000E+00  0.00000000000E+00  0.46291509830E+03  0.46291509833E+03  0.50400001928E-02 0.  1.
        1   -1    0    0  501    0  0.00000000000E+00  0.00000000000E+00 -0.15442957160E+04  0.15442957160E+04  0.50400001928E-02 0. -1.
    10030    2    1    2    0    0  0.00000000000E+00  0.00000000000E+00 -0.10813806177E+04  0.20072108143E+04  0.16910089334E+04 0.  0.
        3    1    3    3  502    0  0.64989621405E+03 -0.32900350187E+03 -0.10502249283E+04  0.12781161151E+04  0.10100000352E+00 0. -1.
       -3    1    3    3    0  502 -0.64989621405E+03  0.32900350187E+03 -0.31155689325E+02  0.72909469924E+03  0.10100000352E+00 0.  1.
</event>
<event>
 5   0  0.1696052E-04  0.1998246E+04  0.7818609E-02  0.8607441E-01
        1   -1    0    0  501    0  0.00000000000E+00  0.00000000000E+00  0.20828011261E+04  0.20828011261E+04  0.50400001928E-02 0. -1.
       -1   -1    0    0    0  501  0.00000000000E+00  0.00000000000E+00 -0.47928091365E+03  0.47928091368E+03  0.50400001928E-02 0.  1.
    10030    2    1    2    0    0  0.00000000000E+00  0.00000000000E+00  0.16035202124E+04  0.25620820397E+04  0.19982460576E+04 0.  0.
        4    1    3    3  502    0 -0.52863309488E+03 -0.74090817816E+02  0.18846418608E+04  0.19587799658E+04  0.12699999809E+01 0. -1.
       -4    1    3    3    0  502  0.52863309488E+03  0.74090817816E+02 -0.28112164837E+03  0.60330207390E+03  0.12699999809E+01 0.  1.
</event>
<event>
 5   0  0.3395569E-04  0.1991684E+04  0.7818609E-02  0.8610519E-01
       -2   -1    0    0    0  501  0.00000000000E+00  0.00000000000E+00  0.55439174567E+03  0.55439174567E+03  0.25500000920E-02 0.  1.
        2   -1    0    0  501    0  0.00000000000E+00  0.00000000000E+00 -0.17888092590E+04  0.17888092590E+04  0.25500000920E-02 0. -1.
    10030    2    1    2    0    0  0.00000000000E+00  0.00000000000E+00 -0.12344175133E+04  0.23432010046E+04  0.19916837979E+04 0.  0.
        4    1    3    3  502    0  0.31531735475E+02  0.59431402329E+02 -0.17861315250E+04  0.17873986067E+04  0.12699999809E+01 0. -1.
       -4    1    3    3    0  502 -0.31531735475E+02 -0.59431402329E+02  0.55171401168E+03  0.55580239790E+03  0.12699999809E+01 0.  1.
</event>
<event>
 5   0  0.1708578E-04  0.1903250E+04  0.7818609E-02  0.8653240E-01
       -1   -1    0    0    0  501  0.00000000000E+00  0.00000000000E+00  0.52807507863E+03  0.52807507865E+03  0.50400001928E-02 0. -1.
        1   -1    0    0  501    0  0.00000000000E+00  0.00000000000E+00 -0.17148889057E+04  0.17148889057E+04  0.50400001928E-02 0.  1.
    10030    2    1    2    0    0  0.00000000000E+00  0.00000000000E+00 -0.11868138271E+04  0.22429639844E+04  0.19032499507E+04 0.  0.
        3    1    3    3  502    0 -0.11083157846E+03 -0.16776574138E+03  0.50275564825E+03  0.54147228444E+03  0.10100000352E+00 0. -1.
       -3    1    3    3    0  502  0.11083157846E+03  0.16776574138E+03 -0.16895694753E+04  0.17014916999E+04  0.10100000352E+00 0.  1.
</event>
<event>
 5   0  0.1643565E-04  0.1974731E+04  0.7818609E-02  0.8618527E-01
       -1   -1    0    0    0  501  0.00000000000E+00  0.00000000000E+00  0.95897265598E+03  0.95897265600E+03  0.50400001928E-02 0. -1.
        1   -1    0    0  501    0  0.00000000000E+00  0.00000000000E+00 -0.10165993528E+04  0.10165993528E+04  0.50400001928E-02 0.  1.
    10030    2    1    2    0    0  0.00000000000E+00  0.00000000000E+00 -0.57626696852E+02  0.19755720088E+04  0.19747313554E+04 0.  0.
        2    1    3    3  502    0  0.16972446171E+03 -0.96932510748E+03 -0.10942944066E+03  0.99013754569E+03  0.25500000920E-02 0. -1.
       -2    1    3    3    0  502 -0.16972446171E+03  0.96932510748E+03  0.51802743806E+02  0.98543446315E+03  0.25500000920E-02 0.  1.
</event>
<event>
 5   0  0.1664168E-04  0.1956815E+04  0.7818609E-02  0.8627082E-01
        1   -1    0    0  501    0  0.00000000000E+00  0.00000000000E+00  0.13550041044E+04  0.13550041044E+04  0.50400001928E-02 0. -1.
       -1   -1    0    0    0  501  0.00000000000E+00  0.00000000000E+00 -0.70647840426E+03  0.70647840428E+03  0.50400001928E-02 0.  1.
    10030    2    1    2    0    0  0.00000000000E+00  0.00000000000E+00  0.64852570012E+03  0.20614825087E+04  0.19568148992E+04 0.  0.
        5    1    3    3  502    0  0.59090998690E+03  0.42809329468E+02  0.11445320921E+04  0.12887913141E+04  0.46999998093E+01 0. -1.
       -5    1    3    3    0  502 -0.59090998690E+03 -0.42809329468E+02 -0.49600639201E+03  0.77269119460E+03  0.46999998093E+01 0.  1.
</event>
<event>
 5   0  0.1708578E-04  0.2031813E+04  0.7818609E-02  0.8591890E-01
        1   -1    0    0  501    0  0.00000000000E+00  0.00000000000E+00  0.58874515976E+03  0.58874515978E+03  0.50400001928E-02 0. -1.
       -1   -1    0    0    0  501  0.00000000000E+00  0.00000000000E+00 -0.17529934727E+04  0.17529934727E+04  0.50400001928E-02 0.  1.
    10030    2    1    2    0    0  0.00000000000E+00  0.00000000000E+00 -0.11642483129E+04  0.23417386325E+04  0.20318133991E+04 0.  0.
        3    1    3    3  502    0 -0.60185965584E+03  0.16237430974E+03 -0.15066464457E+04  0.16305164778E+04  0.10100000352E+00 0.  1.
       -3    1    3    3    0  502  0.60185965584E+03 -0.16237430974E+03  0.34239813277E+03  0.71122215469E+03  0.10100000352E+00 0. -1.
</event>
<event>
 5   0  0.1664168E-04  0.1961016E+04  0.7818609E-02  0.8625067E-01
        1   -1    0    0  501    0  0.00000000000E+00  0.00000000000E+00  0.98953314947E+03  0.98953314948E+03  0.50400001928E-02 0. -1.
       -1   -1    0    0    0  501  0.00000000000E+00  0.00000000000E+00 -0.97156534243E+03  0.97156534245E+03  0.50400001928E-02 0.  1.
    10030    2    1    2    0    0  0.00000000000E+00  0.00000000000E+00  0.17967807031E+02  0.19610984919E+04  0.19610161787E+04 0.  0.
        5    1    3    3  502    0  0.75248951175E+02  0.30376445244E+03 -0.92026916368E+03  0.97203532386E+03  0.46999998093E+01 0.  1.
       -5    1    3    3    0  502 -0.75248951175E+02 -0.30376445244E+03  0.93823697071E+03  0.98906316806E+03  0.46999998093E+01 0. -1.
</event>
<event>
 5   0  0.1643565E-04  0.2020771E+04  0.7818609E-02  0.8596971E-01
        1   -1    0    0  501    0  0.00000000000E+00  0.00000000000E+00  0.11132530339E+04  0.11132530339E+04  0.50400001928E-02 0. -1.
       -1   -1    0    0    0  501  0.00000000000E+00  0.00000000000E+00 -0.91702311717E+03  0.91702311718E+03  0.50400001928E-02 0.  1.
    10030    2    1    2    0    0  0.00000000000E+00  0.00000000000E+00  0.19622991668E+03  0.20302761510E+04  0.20207709097E+04 0.  0.
        2    1    3    3  502    0  0.48217156391E+03 -0.17841279405E+03 -0.77577995297E+03  0.93067452826E+03  0.25500000920E-02 0.  1.
       -2    1    3    3    0  502 -0.48217156391E+03  0.17841279405E+03  0.97200986965E+03  0.10996016228E+04  0.25500000920E-02 0. -1.
</event>
<event>
 5   0  0.1643565E-04  0.2013896E+04  0.7818609E-02  0.8600151E-01
        1   -1    0    0  501    0  0.00000000000E+00  0.00000000000E+00  0.10564746563E+04  0.10564746563E+04  0.50400001928E-02 0. -1.
       -1   -1    0    0    0  501  0.00000000000E+00  0.00000000000E+00 -0.95974268951E+03  0.95974268953E+03  0.50400001928E-02 0.  1.
    10030    2    1    2    0    0  0.00000000000E+00  0.00000000000E+00  0.96731966750E+02  0.20162173458E+04  0.20138955564E+04 0.  0.
        2    1    3    3  502    0 -0.66370297662E+03  0.19413239169E+03  0.78116257212E+03  0.10432660211E+04  0.25500000920E-02 0. -1.
       -2    1    3    3    0  502  0.66370297662E+03 -0.19413239169E+03 -0.68443060537E+03  0.97295132471E+03  0.25500000920E-02 0.  1.
</event>
<event>
 5   0  0.3460648E-04  0.1458095E+04  0.7818609E-02  0.8912808E-01
       -2   -1    0    0    0  501  0.00000000000E+00  0.00000000000E+00  0.71565578003E+03  0.71565578004E+03  0.25500000920E-02 0. -1.
        2   -1    0    0  501    0  0.00000000000E+00  0.00000000000E+00 -0.74268947385E+03  0.74268947386E+03  0.25500000920E-02 0.  1.
    10030    2    1    2    0    0  0.00000000000E+00  0.00000000000E+00 -0.27033693822E+02  0.14583452539E+04  0.14580946673E+04 0.  0.
        5    1    3    3  502    0 -0.49413159504E+03 -0.26610484672E+03  0.45186958053E+03  0.72054564774E+03  0.46999998093E+01 0. -1.
       -5    1    3    3    0  502  0.49413159504E+03  0.26610484672E+03 -0.47890327435E+03  0.73779960616E+03  0.46999998093E+01 0.  1.
</event>
<event>
 5   0  0.1708578E-04  0.2060285E+04  0.7818609E-02  0.8578943E-01
       -1   -1    0    0    0  501  0.00000000000E+00  0.00000000000E+00  0.98996531557E+03  0.98996531559E+03  0.50400001928E-02 0.  1.
        1   -1    0    0  501    0  0.00000000000E+00  0.00000000000E+00 -0.10719497578E+04  0.10719497578E+04  0.50400001928E-02 0. -1.
    10030    2    1    2    0    0  0.00000000000E+00  0.00000000000E+00 -0.81984442253E+02  0.20619150734E+04  0.20602845243E+04 0.  0.
        3    1    3    3  502    0  0.19579528391E+02  0.91957584111E+03  0.42326065226E+03  0.10124982348E+04  0.10100000352E+00 0.  1.
       -3    1    3    3    0  502 -0.19579528391E+02 -0.91957584111E+03 -0.50524509451E+03  0.10494168386E+04  0.10100000352E+00 0. -1.
</event>
<event>
 5   0  0.3460648E-04  0.1990508E+04  0.7818609E-02  0.8611071E-01
       -2   -1    0    0    0  501  0.00000000000E+00  0.00000000000E+00  0.52410470927E+03  0.52410470928E+03  0.25500000920E-02 0.  1.
        2   -1    0    0  501    0  0.00000000000E+00  0.00000000000E+00 -0.18899475661E+04  0.18899475661E+04  0.25500000920E-02 0. -1.
    10030    2    1    2    0    0  0.00000000000E+00  0.00000000000E+00 -0.13658428569E+04  0.24140522754E+04  0.19905078947E+04 0.  0.
        5    1    3    3  502    0  0.54812749144E+03 -0.57551998947E+03 -0.14094187065E+04  0.16180698951E+04  0.46999998093E+01 0. -1.
       -5    1    3    3    0  502 -0.54812749144E+03  0.57551998947E+03  0.43575849619E+02  0.79598238035E+03  0.46999998093E+01 0.  1.
</event>
<event>
 5   0  0.1708578E-04  0.2061135E+04  0.7818609E-02  0.8578560E-01
       -1   -1    0    0    0  501  0.00000000000E+00  0.00000000000E+00  0.70560028879E+03  0.70560028880E+03  0.50400001928E-02 0.  1.
        1   -1    0    0  501    0  0.00000000000E+00  0.00000000000E+00 -0.15051999740E+04  0.15051999741E+04  0.50400001928E-02 0. -1.
    10030    2    1    2    0    0  0.00000000000E+00  0.00000000000E+00 -0.79959968526E+03  0.22108002629E+04  0.20611351595E+04 0.  0.
        3    1    3    3  502    0 -0.42168646160E+03  0.87453157561E+03 -0.29096710660E+02  0.97132465088E+03  0.10100000352E+00 0.  1.
       -3    1    3    3    0  502  0.42168646160E+03 -0.87453157561E+03 -0.77050297460E+03  0.12394756120E+04  0.10100000352E+00 0. -1.
</event>
<event>
 5   0  0.3395569E-04  0.1986817E+04  0.7818609E-02  0.8612809E-01
       -2   -1    0    0    0  501  0.00000000000E+00  0.00000000000E+00  0.48213150256E+03  0.48213150256E+03  0.25500000920E-02 0.  1.
        2   -1    0    0  501    0  0.00000000000E+00  0.00000000000E+00 -0.20468706740E+04  0.20468706740E+04  0.25500000920E-02 0. -1.
    10030    2    1    2    0    0  0.00000000000E+00  0.00000000000E+00 -0.15647391714E+04  0.25290021765E+04  0.19868173883E+04 0.  0.
        4    1    3    3  502    0 -0.15477901252E+03 -0.29776956718E+03  0.40779105774E+03  0.52812727398E+03  0.12699999809E+01 0.  1.
       -4    1    3    3    0  502  0.15477901252E+03  0.29776956718E+03 -0.19725302291E+04  0.20008749025E+04  0.12699999809E+01 0. -1.
</event>
<event>
 5   0  0.1696052E-04  0.1976562E+04  0.7818609E-02  0.8617658E-01
       -1   -1    0    0    0  501  0.00000000000E+00  0.00000000000E+00  0.11721438838E+04  0.11721438838E+04  0.50400001928E-02 0. -1.
        1   -1    0    0  501    0  0.00000000000E+00  0.00000000000E+00 -0.83325914860E+03  0.83325914862E+03  0.50400001928E-02 0.  1.
    10030    2    1    2    0    0  0.00000000000E+00  0.00000000000E+00  0.33888473519E+03  0.20054030324E+04  0.19765622830E+04 0.  0.
        4    1    3    3  502    0 -0.87947658102E+03 -0.35379961737E+03 -0.11399890069E+03  0.95480395269E+03  0.12699999809E+01 0. -1.
       -4    1    3    3    0  502  0.87947658102E+03  0.35379961737E+03  0.45288363588E+03  0.10505990797E+04  0.12699999809E+01 0.  1.
</event>
<event>
 5   0  0.3395569E-04  0.1936491E+04  0.7818609E-02  0.8636903E-01
       -2   -1    0    0    0  501  0.00000000000E+00  0.00000000000E+00  0.58264865060E+03  0.58264865060E+03  0.25500000920E-02 0. -1.
        2   -1    0    0  501    0  0.00000000000E+00  0.00000000000E+00 -0.16090306504E+04  0.16090306504E+04  0.25500000920E-02 0.  1.
    10030    2    1    2    0    0  0.00000000000E+00  0.00000000000E+00 -0.10263819998E+04  0.21916793010E+04  0.19364911951E+04 0.  0.
        4    1    3    3  502    0  0.16839837766E+03  0.78302759392E+03 -0.11289531387E+04  0.13842062811E+04  0.12699999809E+01 0.  1.
       -4    1    3    3    0  502 -0.16839837766E+03 -0.78302759392E+03  0.10257113886E+03  0.80747301990E+03  0.12699999809E+01 0. -1.
</event>
<event>
 5   0  0.3371947E-04  0.2084628E+04  0.7818609E-02  0.8568045E-01
        2   -1    0    0  501    0  0.00000000000E+00  0.00000000000E+00  0.88028791221E+03  0.88028791221E+03  0.25500000920E-02 0.  1.
       -2   -1    0    0    0  501  0.00000000000E+00  0.00000000000E+00 -0.12341625734E+04  0.12341625734E+04  0.25500000920E-02 0. -1.
    10030    2    1    2    0    0  0.00000000000E+00  0.00000000000E+00 -0.35387466121E+03  0.21144504856E+04  0.20846279237E+04 0.  0.
        2    1    3    3  502    0 -0.11920131389E+03  0.10269962545E+04 -0.31107189971E+03  0.10796740188E+04  0.25500000920E-02 0. -1.
       -2    1    3    3    0  502  0.11920131389E+03 -0.10269962545E+04 -0.42802761501E+02  0.10347764669E+04  0.25500000920E-02 0.  1.
</event>
<event>
 5   0  0.1650221E-04  0.2058348E+04  0.7818609E-02  0.8579817E-01
       -1   -1    0    0    0  501  0.00000000000E+00  0.00000000000E+00  0.16620348468E+04  0.16620348469E+04  0.50400001928E-02 0. -1.
        1   -1    0    0  501    0  0.00000000000E+00  0.00000000000E+00 -0.63729075153E+03  0.63729075155E+03  0.50400001928E-02 0.  1.
    10030    2    1    2    0    0  0.00000000000E+00  0.00000000000E+00  0.10247440953E+04  0.22993255984E+04  0.20583483055E+04 0.  0.
        1    1    3    3  502    0 -0.50903012261E+03 -0.14992564620E+03 -0.47268764022E+03  0.71064968188E+03  0.50400001928E-02 0.  1.
       -1    1    3    3    0  502  0.50903012261E+03  0.14992564620E+03  0.14974317355E+04  0.15886759165E+04  0.50400001928E-02 0. -1.
</event>
<event>
 5   0  0.1222488E-04  0.2020389E+04  0.7818609E-02  0.8597147E-01
        3   -1    0    0  501    0  0.00000000000E+00  0.00000000000E+00  0.13510157051E+04  0.13510157089E+04  0.10100000352E+00 0.  1.
       -3   -1    0    0    0  501  0.00000000000E+00  0.00000000000E+00 -0.75535224587E+03  0.75535225262E+03  0.10100000352E+00 0. -1.
    10030    2    1    2    0    0  0.00000000000E+00  0.00000000000E+00  0.59566345927E+03  0.21063679615E+04  0.20203888321E+04 0.  0.
        5    1    3    3  502    0  0.14000839636E+03 -0.98812829533E+03  0.46092020329E+03  0.10993040539E+04  0.46999998093E+01 0.  1.
       -5    1    3    3    0  502 -0.14000839636E+03  0.98812829533E+03  0.13474325598E+03  0.10070639077E+04  0.46999998093E+01 0. -1.
</event>
<event>
 5   0  0.1650221E-04  0.2032450E+04  0.7818609E-02  0.8591598E-01
       -1   -1    0    0    0  501  0.00000000000E+00  0.00000000000E+00  0.10427314742E+04  0.10427314742E+04  0.50400001928E-02 0. -1.
        1   -1    0    0  501    0  0.00000000000E+00  0.00000000000E+00 -0.99039203804E+03  0.99039203805E+03  0.50400001928E-02 0.  1.
    10030    2    1    2    0    0  0.00000000000E+00  0.00000000000E+00  0.52339436120E+02  0.20331235122E+04  0.20324497040E+04 0.  0.
        1    1    3    3  502    0 -0.51052103547E+03 -0.62480953923E+03  0.64418863873E+03  0.10324716414E+04  0.50400001928E-02 0. -1.
       -1    1    3    3    0  502  0.51052103547E+03  0.62480953923E+03 -0.59184920261E+03  0.10006518708E+04  0.50400001928E-02 0.  1.
</event>
<event>
 5   0  0.3460648E-04  0.2015542E+04  0.7818609E-02  0.8599389E-01
        2   -1    0    0  501    0  0.00000000000E+00  0.00000000000E+00  0.12076012123E+04  0.12076012123E+04  0.25500000920E-02 0.  1.
       -2   -1    0    0    0  501  0.00000000000E+00  0.00000000000E+00 -0.84100818316E+03  0.84100818317E+03  0.25500000920E-02 0. -1.
    10030    2    1    2    0    0  0.00000000000E+00  0.00000000000E+00  0.36659302913E+03  0.20486093955E+04  0.20155421122E+04 0.  0.
        5    1    3    3  502    0 -0.74479339531E+03  0.61994560072E+03 -0.97883868711E+02  0.97398823981E+03  0.46999998093E+01 0. -1.
       -5    1    3    3    0  502  0.74479339531E+03 -0.61994560072E+03  0.46447689784E+03  0.10746211557E+04  0.46999998093E+01 0.  1.
</event>
<event>
 5   0  0.3431030E-04  0.1931988E+04  0.7818609E-02  0.8639096E-01
        2   -1    0    0  501    0  0.00000000000E+00  0.00000000000E+00  0.11512484417E+04  0.11512484417E+04  0.25500000920E-02 0.  1.
       -2   -1    0    0    0  501  0.00000000000E+00  0.00000000000E+00 -0.81054982066E+03  0.81054982066E+03  0.25500000920E-02 0. -1.
    10030    2    1    2    0    0  0.00000000000E+00  0.00000000000E+00  0.34069862099E+03  0.19617982623E+04  0.19319878032E+04 0.  0.
        3    1    3    3  502    0  0.92632444196E+03 -0.25543341798E+03  0.69719204627E+02  0.96342305375E+03  0.10100000352E+00 0. -1.
       -3    1    3    3    0  502 -0.92632444196E+03  0.25543341798E+03  0.27097941637E+03  0.99837520857E+03  0.10100000352E+00 0.  1.
</event>
<event>
 5   0  0.3460648E-04  0.1715625E+04  0.7818609E-02  0.8752503E-01
        2   -1    0    0  501    0  0.00000000000E+00  0.00000000000E+00  0.12858195042E+04  0.12858195042E+04  0.25500000920E-02 0.  1.
       -2   -1    0    0    0  501  0.00000000000E+00  0.00000000000E+00 -0.57227476964E+03  0.57227476965E+03  0.25500000920E-02 0. -1.
    10030    2    1    2    0    0  0.00000000000E+00  0.00000000000E+00  0.71354473452E+03  0.18580942738E+04  0.17156247382E+04 0.  0.
        5    1    3    3  502    0 -0.82631100497E+03 -0.48591963760E+02  0.60056256859E+03  0.10226673676E+04  0.46999998093E+01 0.  1.
       -5    1    3    3    0  502  0.82631100497E+03  0.48591963760E+02  0.11298216592E+03  0.83542690625E+03  0.46999998093E+01 0. -1.
</event>
<event>
 5   0  0.1643565E-04  0.1925904E+04  0.7818609E-02  0.8642068E-01
       -1   -1    0    0    0  501  0.00000000000E+00  0.00000000000E+00  0.77520238018E+03  0.77520238019E+03  0.50400001928E-02 0. -1.
        1   -1    0    0  501    0  0.00000000000E+00  0.00000000000E+00 -0.11961740603E+04  0.11961740603E+04  0.50400001928E-02 0.  1.
    10030    2    1    2    0    0  0.00000000000E+00  0.00000000000E+00 -0.42097168014E+03  0.19713764405E+04  0.19259044407E+04 0.  0.
        2    1    3    3  502    0  0.75618520969E+03 -0.34693858821E+01  0.39978609310E+03  0.85536952730E+03  0.25500000920E-02 0. -1.
       -2    1    3    3    0  502 -0.75618520969E+03  0.34693858821E+01 -0.82075777324E+03  0.11160069132E+04  0.25500000920E-02 0.  1.
</event>
<event>
 5   0  0.3395569E-04  0.1493607E+04  0.7818609E-02  0.8888716E-01
       -2   -1    0    0    0  501  0.00000000000E+00  0.00000000000E+00  0.29969940643E+03  0.29969940644E+03  0.25500000920E-02 0.  1.
        2   -1    0    0  501    0  0.00000000000E+00  0.00000000000E+00 -0.18609155772E+04  0.18609155772E+04  0.25500000920E-02 0. -1.
    10030    2    1    2    0    0  0.00000000000E+00  0.00000000000E+00 -0.15612161708E+04  0.21606149837E+04  0.14936067674E+04 0.  0.
        4    1    3    3  502    0  0.62406727419E+03  0.13360411426E+03 -0.13416177096E+04  0.14856815654E+04  0.12699999809E+01 0. -1.
       -4    1    3    3    0  502 -0.62406727419E+03 -0.13360411426E+03 -0.21959846117E+03  0.67493341828E+03  0.12699999809E+01 0.  1.
</event>
<event>
 5   0  0.1650221E-04  0.2026559E+04  0.7818609E-02  0.8594303E-01
       -1   -1    0    0    0  501  0.00000000000E+00  0.00000000000E+00  0.28098287343E+04  0.28098287343E+04  0.50400001928E-02 0.  1.
        1   -1    0    0  501    0  0.00000000000E+00  0.00000000000E+00 -0.36540866597E+03  0.36540866601E+03  0.50400001928E-02 0. -1.
    10030    2    1    2    0    0  0.00000000000E+00  0.00000000000E+00  0.24444200684E+04  0.31752374003E+04  0.20265594188E+04 0.  0.
        1    1    3    3  502    0  0.49279226344E+03  0.61293329480E+03  0.22232597888E+04  0.23582653641E+04  0.50400001928E-02 0.  1.
       -1    1    3    3    0  502 -0.49279226344E+03 -0.61293329480E+03  0.22116027954E+03  0.81697203627E+03  0.50400001928E-02 0. -1.
</event>
<event>
 5   0  0.3431030E-04  0.1810313E+04  0.7818609E-02  0.8700835E-01
        2   -1    0    0  501    0  0.00000000000E+00  0.00000000000E+00  0.17747644592E+04  0.17747644592E+04  0.25500000920E-02 0.  1.
       -2   -1    0    0    0  501  0.00000000000E+00  0.00000000000E+00 -0.46164318889E+03  0.46164318890E+03  0.25500000920E-02 0. -1.
    10030    2    1    2    0    0  0.00000000000E+00  0.00000000000E+00  0.13131212703E+04  0.22364076481E+04  0.18103125968E+04 0.  0.
        3    1    3    3  502    0  0.78973048994E+02  0.61776621905E+03  0.14679991568E+04  0.15946452203E+04  0.10100000352E+00 0.  1.
       -3    1    3    3    0  502 -0.78973048994E+02 -0.61776621905E+03 -0.15487788651E+03  0.64176242785E+03  0.10100000352E+00 0. -1.
</event>
<event>
 5   0  0.1650221E-04  0.1806947E+04  0.7818609E-02  0.8702614E-01
       -1   -1    0    0    0  501  0.00000000000E+00  0.00000000000E+00  0.11215611869E+04  0.11215611869E+04  0.50400001928E-02 0. -1.
        1   -1    0    0  501    0  0.00000000000E+00  0.00000000000E+00 -0.72779308109E+03  0.72779308111E+03  0.50400001928E-02 0.  1.
    10030    2    1    2    0    0  0.00000000000E+00  0.00000000000E+00  0.39376810579E+03  0.18493542680E+04  0.18069471181E+04 0.  0.
        1    1    3    3  502    0  0.34680036948E+03  0.50167919445E+03 -0.48532687807E+03  0.77941945640E+03  0.50400001928E-02 0.  1.
       -1    1    3    3    0  502 -0.34680036948E+03 -0.50167919445E+03  0.87909498386E+03  0.10699348116E+04  0.50400001928E-02 0. -1.
</event>
<event>
 5   0  0.3460648E-04  0.1960047E+04  0.7818609E-02  0.8625531E-01
        2   -1    0    0  501    0  0.00000000000E+00  0.00000000000E+00  0.31144440950E+04  0.31144440950E+04  0.25500000920E-02 0. -1.
       -2   -1    0    0    0  501  0.00000000000E+00  0.00000000000E+00 -0.30838453438E+03  0.30838453439E+03  0.25500000920E-02 0.  1.
    10030    2    1    2    0    0  0.00000000000E+00  0.00000000000E+00  0.28060595606E+04  0.34228286293E+04  0.19600473383E+04 0.  0.
        5    1    3    3  502    0  0.48685762395E+03 -0.39254506445E+03  0.27206494684E+04  0.27916084241E+04  0.46999998093E+01 0. -1.
       -5    1    3    3    0  502 -0.48685762395E+03  0.39254506445E+03  0.85410092151E+02  0.63122020521E+03  0.46999998093E+01 0.  1.
</event>
<event>
 5   0  0.1696052E-04  0.2005521E+04  0.7818609E-02  0.8604044E-01
        1   -1    0    0  501    0  0.00000000000E+00  0.00000000000E+00  0.20120518025E+04  0.20120518025E+04  0.50400001928E-02 0. -1.
       -1   -1    0    0    0  501  0.00000000000E+00  0.00000000000E+00 -0.49975277758E+03  0.49975277760E+03  0.50400001928E-02 0.  1.
    10030    2    1    2    0    0  0.00000000000E+00  0.00000000000E+00  0.15122990249E+04  0.25118045801E+04  0.20055208570E+04 0.  0.
        4    1    3    3  502    0  0.26193181547E+03 -0.78624249026E+03  0.14632446626E+04  0.16816278081E+04  0.12699999809E+01 0.  1.
       -4    1    3    3    0  502 -0.26193181547E+03  0.78624249026E+03  0.49054362344E+02  0.83017677203E+03  0.12699999809E+01 0. -1.
</event>
<event>
 5   0  0.3371947E-04  0.2243498E+04  0.7818609E-02  0.8500538E-01
        2   -1    0    0  501    0  0.00000000000E+00  0.00000000000E+00  0.16438156576E+04  0.16438156576E+04  0.25500000920E-02 0.  1.
       -2   -1    0    0    0  501  0.00000000000E+00  0.00000000000E+00 -0.76548788449E+03  0.76548788449E+03  0.25500000920E-02 0. -1.
    10030    2    1    2    0    0  0.00000000000E+00  0.00000000000E+00  0.87832777309E+03  0.24093035421E+04  0.22434981348E+04 0.  0.
        2    1    3    3  502    0 -0.95142408101E+03  0.17437687689E+03 -0.17089148364E+03  0.98225199226E+03  0.25500000920E-02 0.  1.
       -2    1    3    3    0  502  0.95142408101E+03 -0.17437687689E+03  0.10492192567E+04  0.14270515498E+04  0.25500000920E-02 0. -1.
</event>
<event>
 5   0  0.3431030E-04  0.1673928E+04  0.7818609E-02  0.8776375E-01
        2   -1    0    0  501    0  0.00000000000E+00  0.00000000000E+00  0.94910501374E+03  0.94910501374E+03  0.25500000920E-02 0.  1.
       -2   -1    0    0    0  501  0.00000000000E+00  0.00000000000E+00 -0.73807306579E+03  0.73807306580E+03  0.25500000920E-02 0. -1.
    10030    2    1    2    0    0  0.00000000000E+00  0.00000000000E+00  0.21103194795E+03  0.16871780795E+04  0.16739281314E+04 0.  0.
        3    1    3    3  502    0  0.42146670140E+03 -0.43465201310E+03 -0.47694432044E+03  0.77073500497E+03  0.10100000352E+00 0. -1.
       -3    1    3    3    0  502 -0.42146670140E+03  0.43465201310E+03  0.68797626838E+03  0.91644307458E+03  0.10100000352E+00 0.  1.
</event>
<event>
 5   0  0.1664168E-04  0.1945789E+04  0.7818609E-02  0.8632394E-01
       -1   -1    0    0    0  501  0.00000000000E+00  0.00000000000E+00  0.10752155138E+04  0.10752155138E+04  0.50400001928E-02 0. -1.
        1   -1    0    0  501    0  0.00000000000E+00  0.00000000000E+00 -0.88031091871E+03  0.88031091872E+03  0.50400001928E-02 0.  1.
    10030    2    1    2    0    0  0.00000000000E+00  0.00000000000E+00  0.19490459508E+03  0.19555264325E+04  0.19457892556E+04 0.  0.
        5    1    3    3  502    0  0.21787549553E+03 -0.28209320382E+03 -0.81231556781E+03  0.88708792061E+03  0.46999998093E+01 0.  1.
       -5    1    3    3    0  502 -0.21787549553E+03  0.28209320382E+03  0.10072201629E+04  0.10684385119E+04  0.46999998093E+01 0. -1.
</event>
<event>
 5   0  0.1222488E-04  0.1995118E+04  0.7818609E-02  0.8608907E-01
       -4   -1    0    0    0  501  0.00000000000E+00  0.00000000000E+00  0.10449750170E+04  0.10449757887E+04  0.12699999809E+01 0. -1.
        4   -1    0    0  501    0  0.00000000000E+00  0.00000000000E+00 -0.95229293053E+03  0.95229377738E+03  0.12699999809E+01 0.  1.
    10030    2    1    2    0    0  0.00000000000E+00  0.00000000000E+00  0.92682086463E+02  0.19972695661E+04  0.19951179791E+04 0.  0.
        3    1    3    3  502    0 -0.80122122987E+02 -0.51071679608E+03  0.90041568122E+03  0.10382676002E+04  0.10100000352E+00 0. -1.
       -3    1    3    3    0  502  0.80122122987E+02  0.51071679608E+03 -0.80773359475E+03  0.95900196594E+03  0.10100000352E+00 0.  1.
</event>
<event>
 5   0  0.3395569E-04  0.2023639E+04  0.7818609E-02  0.8595648E-01
       -2   -1    0    0    0  501  0.00000000000E+00  0.00000000000E+00  0.84228621006E+03  0.84228621007E+03  0.25500000920E-02 0. -1.
        2   -1    0    0  501    0  0.00000000000E+00  0.00000000000E+00 -0.12154762171E+04  0.12154762171E+04  0.25500000920E-02 0.  1.
    10030    2    1    2    0    0  0.00000000000E+00  0.00000000000E+00 -0.37319000706E+03  0.20577624272E+04  0.20236391539E+04 0.  0.
        4    1    3    3  502    0  0.10105527896E+04 -0.40136001619E+02 -0.21792697606E+03  0.10345634920E+04  0.12699999809E+01 0.  1.
       -4    1    3    3    0  502 -0.10105527896E+04  0.40136001619E+02 -0.15526303100E+03  0.10231989352E+04  0.12699999809E+01 0. -1.
</event>
<event>
 5   0  0.3371947E-04  0.1979405E+04  0.7818609E-02  0.8616310E-01
       -2   -1    0    0    0  501  0.00000000000E+00  0.00000000000E+00  0.67623208409E+03  0.67623208409E+03  0.25500000920E-02 0. -1.
        2   -1    0    0  501    0  0.00000000000E+00  0.00000000000E+00 -0.14484839598E+04  0.14484839598E+04  0.25500000920E-02 0.  1.
    10030    2    1    2    0    0  0.00000000000E+00  0.00000000000E+00 -0.77225187573E+03  0.21247160439E+04  0.19794052914E+04 0.  0.
        2    1    3    3  502    0 -0.16436588527E+03  0.95486178198E+03 -0.60276938275E+03  0.11410995117E+04  0.25500000920E-02 0.  1.
       -2    1    3    3    0  502  0.16436588527E+03 -0.95486178198E+03 -0.16948249298E+03  0.98361653217E+03  0.25500000920E-02 0. -1.
</event>
<event>
 5   0  0.1643565E-04  0.1967074E+04  0.7818609E-02  0.8622171E-01
        1   -1    0    0  501    0  0.00000000000E+00  0.00000000000E+00  0.10238680296E+04  0.10238680296E+04  0.50400001928E-02 0.  1.
       -1   -1    0    0    0  501  0.00000000000E+00  0.00000000000E+00 -0.94479505030E+03  0.94479505031E+03  0.50400001928E-02 0. -1.
    10030    2    1    2    0    0  0.00000000000E+00  0.00000000000E+00  0.79072979284E+02  0.19686630799E+04  0.19670744231E+04 0.  0.
        2    1    3    3  502    0 -0.97519849348E+03 -0.65492047750E+02  0.14937090436E+03  0.98874312997E+03  0.25500000920E-02 0.  1.
       -2    1    3    3    0  502  0.97519849348E+03  0.65492047750E+02 -0.70297925071E+02  0.97991994993E+03  0.25500000920E-02 0. -1.
</event>
<event>
 5   0  0.3371947E-04  0.1991044E+04  0.7818609E-02  0.8610819E-01
        2   -1    0    0  501    0  0.00000000000E+00  0.00000000000E+00  0.20960327840E+04  0.20960327840E+04  0.25500000920E-02 0.  1.
       -2   -1    0    0    0  501  0.00000000000E+00  0.00000000000E+00 -0.47282855091E+03  0.47282855092E+03  0.25500000920E-02 0. -1.
    10030    2    1    2    0    0  0.00000000000E+00  0.00000000000E+00  0.16232042331E+04  0.25688613349E+04  0.19910440919E+04 0.  0.
        2    1    3    3  502    0 -0.87745792834E+03  0.89570161501E+02  0.14072102126E+04  0.16607816871E+04  0.25500000920E-02 0.  1.
       -2    1    3    3    0  502  0.87745792834E+03 -0.89570161501E+02  0.21599402049E+03  0.90807964779E+03  0.25500000920E-02 0. -1.
</event>
<event>
 5   0  0.3460648E-04  0.1792728E+04  0.7818609E-02  0.8710176E-01
        2   -1    0    0  501    0  0.00000000000E+00  0.00000000000E+00  0.47246859164E+03  0.47246859165E+03  0.25500000920E-02 0. -1.
       -2   -1    0    0    0  501  0.00000000000E+00  0.00000000000E+00 -0.17005756026E+04  0.17005756026E+04  0.25500000920E-02 0.  1.
    10030    2    1    2    0    0  0.00000000000E+00  0.00000000000E+00 -0.12281070110E+04  0.21730441943E+04  0.17927281556E+04 0.  0.
        5    1    3    3  502    0 -0.62511589440E+03 -0.62262689096E+03 -0.42234944623E+03  0.97817957017E+03  0.46999998093E+01 0. -1.
       -5    1    3    3    0  502  0.62511589440E+03  0.62262689096E+03 -0.80575756478E+03  0.11948646241E+04  0.46999998093E+01 0.  1.
</event>
<event>
 5   0  0.3395569E-04  0.2513872E+04  0.7818609E-02  0.8398060E-01
       -2   -1    0    0    0  501  0.00000000000E+00  0.00000000000E+00  0.95420813224E+03  0.95420813225E+03  0.25500000920E-02 0. -1.
        2   -1    0    0  501    0  0.00000000000E+00  0.00000000000E+00 -0.16557059578E+04  0.16557059578E+04  0.25500000920E-02 0.  1.
    10030    2    1    2    0    0  0.00000000000E+00  0.00000000000E+00 -0.70149782556E+03  0.26099140901E+04  0.25138719852E+04 0.  0.
        4    1    3    3  502    0  0.43532006497E+03  0.16795809892E+03 -0.15624602933E+04  0.16306432053E+04  0.12699999809E+01 0.  1.
       -4    1    3    3    0  502 -0.43532006497E+03 -0.16795809892E+03  0.86096246774E+03  0.97927088475E+03  0.12699999809E+01 0. -1.
</event>
<event>
 5   0  0.3371947E-04  0.2008489E+04  0.7818609E-02  0.8602662E-01
        2   -1    0    0  501    0  0.00000000000E+00  0.00000000000E+00  0.18996390370E+04  0.18996390370E+04  0.25500000920E-02 0. -1.
       -2   -1    0    0    0  501  0.00000000000E+00  0.00000000000E+00 -0.53089407460E+03  0.53089407461E+03  0.25500000920E-02 0.  1.
    10030    2    1    2    0    0  0.00000000000E+00  0.00000000000E+00  0.13687449624E+04  0.24305331116E+04  0.20084890925E+04 0.  0.
        2    1    3    3  502    0 -0.84565938217E+03  0.51439268443E+03  0.88962240571E+03  0.13308522267E+04  0.25500000920E-02 0. -1.
       -2    1    3    3    0  502  0.84565938217E+03 -0.51439268443E+03  0.47912255673E+03  0.10996808850E+04  0.25500000920E-02 0.  1.
</event>
<event>
 5   0  0.3460648E-04  0.2005196E+04  0.7818609E-02  0.8604195E-01
        2   -1    0    0  501    0  0.00000000000E+00  0.00000000000E+00  0.14728904560E+04  0.14728904560E+04  0.25500000920E-02 0. -1.
       -2   -1    0    0    0  501  0.00000000000E+00  0.00000000000E+00 -0.68246914506E+03  0.68246914506E+03  0.25500000920E-02 0.  1.
    10030    2    1    2    0    0  0.00000000000E+00  0.00000000000E+00  0.79042131091E+03  0.21553596010E+04  0.20051955418E+04 0.  0.
        5    1    3    3  502    0 -0.60804754586E+03 -0.38932657967E+03 -0.35249949865E+03  0.80347681374E+03  0.46999998093E+01 0.  1.
       -5    1    3    3    0  502  0.60804754586E+03  0.38932657967E+03  0.11429208096E+04  0.13518827873E+04  0.46999998093E+01 0. -1.
</event>
<event>
 5   0  0.1650221E-04  0.1360428E+04  0.7818609E-02  0.8982972E-01
        1   -1    0    0  501    0  0.00000000000E+00  0.00000000000E+00  0.79852783717E+03  0.79852783718E+03  0.50400001928E-02 0. -1.
       -1   -1    0    0    0  501  0.00000000000E+00  0.00000000000E+00 -0.57943012135E+03  0.57943012137E+03  0.50400001928E-02 0.  1.
    10030    2    1    2    0    0  0.00000000000E+00  0.00000000000E+00  0.21909771582E+03  0.13779579586E+04  0.13604279939E+04 0.  0.
        1    1    3    3  502    0 -0.96432049452E+02 -0.67157718084E+03  0.15892151652E+03  0.69682931800E+03  0.50400001928E-02 0. -1.
       -1    1    3    3    0  502  0.96432049452E+02  0.67157718084E+03  0.60176199305E+02  0.68112864055E+03  0.50400001928E-02 0.  1.
</event>
<event>
 5   0  0.3431030E-04  0.2149840E+04  0.7818609E-02  0.8539601E-01
        2   -1    0    0  501    0  0.00000000000E+00  0.00000000000E+00  0.18155165510E+04  0.18155165510E+04  0.25500000920E-02 0.  1.
       -2   -1    0    0    0  501  0.00000000000E+00  0.00000000000E+00 -0.63643222356E+03  0.63643222357E+03  0.25500000920E-02 0. -1.
    10030    2    1    2    0    0  0.00000000000E+00  0.00000000000E+00  0.11790843275E+04  0.24519487746E+04  0.21498402131E+04 0.  0.
        3    1    3    3  502    0  0.85395154609E+03  0.22610461982E+03  0.12880589102E+04  0.15618746136E+04  0.10100000352E+00 0.  1.
       -3    1    3    3    0  502 -0.85395154609E+03 -0.22610461982E+03 -0.10897458277E+03  0.89007416099E+03  0.10100000352E+00 0. -1.
</event>
<event>
 5   0  0.1650221E-04  0.2349334E+04  0.7818609E-02  0.8458720E-01
       -1   -1    0    0    0  501  0.00000000000E+00  0.00000000000E+00  0.70350460632E+03  0.70350460634E+03  0.50400001928E-02 0. -1.
        1   -1    0    0  501    0  0.00000000000E+00  0.00000000000E+00 -0.19613833798E+04  0.19613833798E+04  0.50400001928E-02 0.  1.
    10030    2    1    2    0    0  0.00000000000E+00  0.00000000000E+00 -0.12578787735E+04  0.26648879862E+04  0.23493337290E+04 0.  0.
        1    1    3    3  502    0  0.70602127629E+03  0.16775464324E+03  0.41883666811E+03  0.83787338988E+03  0.50400001928E-02 0. -1.
       -1    1    3    3    0  502 -0.70602127629E+03 -0.16775464324E+03 -0.16767154416E+04  0.18270145963E+04  0.50400001928E-02 0.  1.
</event>
<event>
 5   0  0.3371947E-04  0.1732088E+04  0.7818609E-02  0.8743272E-01
        2   -1    0    0  501    0  0.00000000000E+00  0.00000000000E+00  0.10231321960E+04  0.10231321960E+04  0.25500000920E-02 0.  1.
       -2   -1    0    0    0  501  0.00000000000E+00  0.00000000000E+00 -0.73307456665E+03  0.73307456665E+03  0.25500000920E-02 0. -1.
    10030    2    1    2    0    0  0.00000000000E+00  0.00000000000E+00  0.29005762936E+03  0.17562067627E+04  0.17320879784E+04 0.  0.
        2    1    3    3  502    0 -0.24024195373E+03  0.73386003608E+03  0.54261846310E+03  0.94376985827E+03  0.25500000920E-02 0.  1.
       -2    1    3    3    0  502  0.24024195373E+03 -0.73386003608E+03 -0.25256083374E+03  0.81243690440E+03  0.25500000920E-02 0. -1.
</event>
<event>
 5   0  0.3460648E-04  0.1555005E+04  0.7818609E-02  0.8848677E-01
       -2   -1    0    0    0  501  0.00000000000E+00  0.00000000000E+00  0.62835175441E+03  0.62835175441E+03  0.25500000920E-02 0. -1.
        2   -1    0    0  501    0  0.00000000000E+00  0.00000000000E+00 -0.96205705009E+03  0.96205705009E+03  0.25500000920E-02 0.  1.
    10030    2    1    2    0    0  0.00000000000E+00  0.00000000000E+00 -0.33370529568E+03  0.15904088045E+04  0.15550051257E+04 0.  0.
        5    1    3    3  502    0  0.68083453000E+03  0.27834512479E+03  0.90828924943E+02  0.74113672783E+03  0.46999998093E+01 0.  1.
       -5    1    3    3    0  502 -0.68083453000E+03 -0.27834512479E+03 -0.42453422062E+03  0.84927207667E+03  0.46999998093E+01 0. -1.
</event>
<event>
 5   0  0.1708578E-04  0.2003727E+04  0.7818609E-02  0.8604880E-01
        1   -1    0    0  501    0  0.00000000000E+00  0.00000000000E+00  0.19886785761E+04  0.19886785761E+04  0.50400001928E-02 0. -1.
       -1   -1    0    0    0  501  0.00000000000E+00  0.00000000000E+00 -0.50472238488E+03  0.50472238491E+03  0.50400001928E-02 0.  1.
    10030    2    1    2    0    0  0.00000000000E+00  0.00000000000E+00  0.14839561913E+04  0.24934009611E+04  0.20037271209E+04 0.  0.
        3    1    3    3  502    0 -0.18910118514E+02  0.90406321266E+03  0.20524316365E+03  0.92726083251E+03  0.10100000352E+00 0.  1.
       -3    1    3    3    0  502  0.18910118514E+02 -0.90406321266E+03  0.12787130276E+04  0.15661401285E+04  0.10100000352E+00 0. -1.
</event>
<event>
 5   0  0.1650221E-04  0.1992947E+04  0.7818609E-02  0.8609925E-01
        1   -1    0    0  501    0  0.00000000000E+00  0.00000000000E+00  0.23272118117E+04  0.23272118117E+04  0.50400001928E-02 0.  1.
       -1   -1    0    0    0  501  0.00000000000E+00  0.00000000000E+00 -0.42667345277E+03  0.42667345280E+03  0.50400001928E-02 0. -1.
    10030    2    1    2    0    0  0.00000000000E+00  0.00000000000E+00  0.19005383589E+04  0.27538852645E+04  0.19929470631E+04 0.  0.
        1    1    3    3  502    0 -0.99605384327E+03 -0.26249740045E+02  0.96703371183E+03  0.13885123361E+04  0.50400001928E-02 0. -1.
       -1    1    3    3    0  502  0.99605384327E+03  0.26249740045E+02  0.93350464709E+03  0.13653729284E+04  0.50400001928E-02 0.  1.
</event>
<event>
 5   0  0.1664168E-04  0.1842022E+04  0.7818609E-02  0.8684267E-01
        1   -1    0    0  501    0  0.00000000000E+00  0.00000000000E+00  0.20195211940E+04  0.20195211940E+04  0.50400001928E-02 0. -1.
       -1   -1    0    0    0  501  0.00000000000E+00  0.00000000000E+00 -0.42003067913E+03  0.42003067916E+03  0.50400001928E-02 0.  1.
    10030    2    1    2    0    0  0.00000000000E+00  0.00000000000E+00  0.15994905149E+04  0.24395518732E+04  0.18420215620E+04 0.  0.
        5    1    3    3  502    0 -0.37890135847E+03  0.16736621283E+03 -0.28968879617E+03  0.50548924546E+03  0.46999998093E+01 0.  1.
       -5    1    3    3    0  502  0.37890135847E+03 -0.16736621283E+03  0.18891793110E+04  0.19340626277E+04  0.46999998093E+01 0. -1.
</event>
<event>
 5   0  0.1222488E-04  0.1239979E+04  0.7818609E-02  0.9078565E-01
        3   -1    0    0  501    0  0.00000000000E+00  0.00000000000E+00  0.45590879606E+03  0.45590880725E+03  0.10100000352E+00 0. -1.
       -3   -1    0    0    0  501  0.00000000000E+00  0.00000000000E+00 -0.84312300365E+03  0.84312300970E+03  0.10100000352E+00 0.  1.
    10030    2    1    2    0    0  0.00000000000E+00  0.00000000000E+00 -0.38721420759E+03  0.12990318169E+04  0.12399793623E+04 0.  0.
        1    1    3    3  502    0  0.19462981935E+03  0.13809411888E+02  0.42290477021E+03  0.46574661688E+03  0.50400001928E-02 0. -1.
       -1    1    3    3    0  502 -0.19462981935E+03 -0.13809411888E+02 -0.81011897780E+03  0.83328520007E+03  0.50400001928E-02 0.  1.
</event>
<event>
 5   0  0.1708578E-04  0.1920246E+04  0.7818609E-02  0.8644844E-01
       -1   -1    0    0    0  501  0.00000000000E+00  0.00000000000E+00  0.10229107924E+04  0.10229107924E+04  0.50400001928E-02 0. -1.
        1   -1    0    0  501    0  0.00000000000E+00  0.00000000000E+00 -0.90118945352E+03  0.90118945354E+03  0.50400001928E-02 0.  1.
    10030    2    1    2    0    0  0.00000000000E+00  0.00000000000E+00  0.12172133886E+03  0.19241002459E+04  0.19202462530E+04 0.  0.
        3    1    3    3  502    0 -0.61315255302E+03 -0.52334362642E+03 -0.46171438794E+03  0.92899127597E+03  0.10100000352E+00 0.  1.
       -3    1    3    3    0  502  0.61315255302E+03  0.52334362642E+03  0.58343572679E+03  0.99510896996E+03  0.10100000352E+00 0. -1.
</event>
<event>
 5   0  0.3460648E-04  0.1646402E+04  0.7818609E-02  0.8792538E-01
       -2   -1    0    0    0  501  0.00000000000E+00  0.00000000000E+00  0.53156826134E+03  0.53156826135E+03  0.25500000920E-02 0. -1.
        2   -1    0    0  501    0  0.00000000000E+00  0.00000000000E+00 -0.12748319737E+04  0.12748319737E+04  0.25500000920E-02 0.  1.
    10030    2    1    2    0    0  0.00000000000E+00  0.00000000000E+00 -0.74326371232E+03  0.18064002350E+04  0.16464024001E+04 0.  0.
        5    1    3    3  502    0 -0.72770304019E+03 -0.11013198308E+03  0.32924797010E+02  0.73674072825E+03  0.46999998093E+01 0. -1.
       -5    1    3    3    0  502  0.72770304019E+03  0.11013198308E+03 -0.77618850933E+03  0.10696595068E+04  0.46999998093E+01 0.  1.
</event>
<event>
 5   0  0.1222488E-04  0.2003905E+04  0.7818609E-02  0.8604797E-01
       -3   -1    0    0    0  501  0.00000000000E+00  0.00000000000E+00  0.58441082621E+03  0.58441083493E+03  0.10100000352E+00 0. -1.
        3   -1    0    0  501    0  0.00000000000E+00  0.00000000000E+00 -0.17178127431E+04  0.17178127461E+04  0.10100000352E+00 0.  1.
    10030    2    1    2    0    0  0.00000000000E+00  0.00000000000E+00 -0.11334019169E+04  0.23022235811E+04  0.20039045665E+04 0.  0.
        1    1    3    3  502    0  0.31026924387E+03  0.95190417141E+03 -0.61148950060E+03  0.11731615254E+04  0.50400001928E-02 0.  1.
       -1    1    3    3    0  502 -0.31026924387E+03 -0.95190417141E+03 -0.52191241634E+03  0.11290620557E+04  0.50400001928E-02 0. -1.
</event>
<event>
 5   0  0.3460648E-04  0.1988988E+04  0.7818609E-02  0.8611786E-01
        2   -1    0    0  501    0  0.00000000000E+00  0.00000000000E+00  0.15889506815E+04  0.15889506815E+04  0.25500000920E-02 0. -1.
       -2   -1    0    0    0  501  0.00000000000E+00  0.00000000000E+00 -0.62243490014E+03  0.62243490014E+03  0.25500000920E-02 0.  1.
    10030    2    1    2    0    0  0.00000000000E+00  0.00000000000E+00  0.96651578137E+03  0.22113855817E+04  0.19889880430E+04 0.  0.
        5    1    3    3  502    0 -0.40256388691E+03 -0.56811761671E+03  0.12727095129E+04  0.14507332296E+04  0.46999998093E+01 0. -1.
       -5    1    3    3    0  502  0.40256388691E+03  0.56811761671E+03 -0.30619373148E+03  0.76065235203E+03  0.46999998093E+01 0.  1.
</event>
<event>
 5   0  0.1650221E-04  0.1353714E+04  0.7818609E-02  0.8988021E-01
        1   -1    0    0  501    0  0.00000000000E+00  0.00000000000E+00  0.57135987676E+03  0.57135987678E+03  0.50400001928E-02 0. -1.
       -1   -1    0    0    0  501  0.00000000000E+00  0.00000000000E+00 -0.80183350328E+03  0.80183350330E+03  0.50400001928E-02 0.  1.
    10030    2    1    2    0    0  0.00000000000E+00  0.00000000000E+00 -0.23047362652E+03  0.13731933801E+04  0.13537141377E+04 0.  0.
        1    1    3    3  502    0 -0.27621561033E+03 -0.47574511254E+03 -0.51525499425E+03  0.75373482381E+03  0.50400001928E-02 0. -1.
       -1    1    3    3    0  502  0.27621561033E+03  0.47574511254E+03  0.28478136773E+03  0.61945855627E+03  0.50400001928E-02 0.  1.
</event>
<event>
 5   0  0.1664168E-04  0.1341657E+04  0.7818609E-02  0.8997168E-01
       -1   -1    0    0    0  501  0.00000000000E+00  0.00000000000E+00  0.57993498301E+03  0.57993498304E+03  0.50400001928E-02 0. -1.
        1   -1    0    0  501    0  0.00000000000E+00  0.00000000000E+00 -0.77596802391E+03  0.77596802392E+03  0.50400001928E-02 0.  1.
    10030    2    1    2    0    0  0.00000000000E+00  0.00000000000E+00 -0.19603304089E+03  0.13559030070E+04  0.13416571884E+04 0.  0.
        5    1    3    3  502    0  0.21292776808E+03  0.37346997112E+03  0.42239866404E+03  0.60271118716E+03  0.46999998093E+01 0. -1.
       -5    1    3    3    0  502 -0.21292776808E+03 -0.37346997112E+03 -0.61843170493E+03  0.75319181980E+03  0.46999998093E+01 0.  1.
</event>
<event>
 5   0  0.3431030E-04  0.2014253E+04  0.7818609E-02  0.8599986E-01
       -2   -1    0    0    0  501  0.00000000000E+00  0.00000000000E+00  0.10633843046E+04  0.10633843046E+04  0.25500000920E-02 0.  1.
        2   -1    0    0  501    0  0.00000000000E+00  0.00000000000E+00 -0.95384458216E+03  0.95384458216E+03  0.25500000920E-02 0. -1.
    10030    2    1    2    0    0  0.00000000000E+00  0.00000000000E+00  0.10953972243E+03  0.20172288868E+04  0.20142525737E+04 0.  0.
        3    1    3    3  502    0 -0.55262316681E+03  0.51538510722E+03  0.72155331468E+03  0.10448221712E+04  0.10100000352E+00 0.  1.
       -3    1    3    3    0  502  0.55262316681E+03 -0.51538510722E+03 -0.61201359225E+03  0.97240671559E+03  0.10100000352E+00 0. -1.
</event>
<event>
 5   0  0.3460648E-04  0.2005539E+04  0.7818609E-02  0.8604035E-01
       -2   -1    0    0    0  501  0.00000000000E+00  0.00000000000E+00  0.71926513631E+03  0.71926513632E+03  0.25500000920E-02 0.  1.
        2   -1    0    0  501    0  0.00000000000E+00  0.00000000000E+00 -0.13980194844E+04  0.13980194844E+04  0.25500000920E-02 0. -1.
    10030    2    1    2    0    0  0.00000000000E+00  0.00000000000E+00 -0.67875434805E+03  0.21172846207E+04  0.20055390049E+04 0.  0.
        5    1    3    3  502    0 -0.77897432066E+03 -0.42999909496E+03 -0.82755351938E+03  0.12151407866E+04  0.46999998093E+01 0. -1.
       -5    1    3    3    0  502  0.77897432066E+03  0.42999909496E+03  0.14879917133E+03  0.90214383405E+03  0.46999998093E+01 0.  1.
</event>
<event>
 5   0  0.1222488E-04  0.2018663E+04  0.7818609E-02  0.8597945E-01
        3   -1    0    0  501    0  0.00000000000E+00  0.00000000000E+00  0.97561114062E+03  0.97561114584E+03  0.10100000352E+00 0.  1.
       -3   -1    0    0    0  501  0.00000000000E+00  0.00000000000E+00 -0.10442171332E+04  0.10442171381E+04  0.10100000352E+00 0. -1.
    10030    2    1    2    0    0  0.00000000000E+00  0.00000000000E+00 -0.68605992629E+02  0.20198282840E+04  0.20186628036E+04 0.  0.
        5    1    3    3  502    0  0.92607173387E+03 -0.39689241599E+03 -0.94298789857E+02  0.10119519741E+04  0.46999998093E+01 0.  1.
       -5    1    3    3    0  502 -0.92607173387E+03  0.39689241599E+03  0.25692797229E+02  0.10078763099E+04  0.46999998093E+01 0. -1.
</event>
<event>
 5   0  0.3395569E-04  0.2017513E+04  0.7818609E-02  0.8598477E-01
        2   -1    0    0  501    0  0.00000000000E+00  0.00000000000E+00  0.17086015462E+04  0.17086015462E+04  0.25500000920E-02 0.  1.
       -2   -1    0    0    0  501  0.00000000000E+00  0.00000000000E+00 -0.59556845483E+03  0.59556845484E+03  0.25500000920E-02 0. -1.
    10030    2    1    2    0    0  0.00000000000E+00  0.00000000000E+00  0.11130330913E+04  0.23041700010E+04  0.20175125108E+04 0.  0.
        4    1    3    3  502    0 -0.54104610537E+03 -0.46151058371E+03  0.13736177599E+04  0.15467870798E+04  0.12699999809E+01 0.  1.
       -4    1    3    3    0  502  0.54104610537E+03  0.46151058371E+03 -0.26058466852E+03  0.75738292124E+03  0.12699999809E+01 0. -1.
</event>
<event>
 5   0  0.1708578E-04  0.2001932E+04  0.7818609E-02  0.8605718E-01
        1   -1    0    0  501    0  0.00000000000E+00  0.00000000000E+00  0.10000984597E+04  0.10000984597E+04  0.50400001928E-02 0.  1.
       -1   -1    0    0    0  501  0.00000000000E+00  0.00000000000E+00 -0.10018345108E+04  0.10018345108E+04  0.50400001928E-02 0. -1.
    10030    2    1    2    0    0  0.00000000000E+00  0.00000000000E+00 -0.17360511137E+01  0.20019329706E+04  0.20019322178E+04 0.  0.
        3    1    3    3  502    0 -0.20218371011E+03  0.77724403703E+03  0.59658227671E+03  0.10004483839E+04  0.10100000352E+00 0.  1.
       -3    1    3    3    0  502  0.20218371011E+03 -0.77724403703E+03 -0.59831832783E+03  0.10014845867E+04  0.10100000352E+00 0. -1.
</event>
<event>
 5   0  0.1696052E-04  0.1617529E+04  0.7818609E-02  0.8809851E-01
       -1   -1    0    0    0  501  0.00000000000E+00  0.00000000000E+00  0.95275195739E+03  0.95275195740E+03  0.50400001928E-02 0.  1.
        1   -1    0    0  501    0  0.00000000000E+00  0.00000000000E+00 -0.68653777206E+03  0.68653777208E+03  0.50400001928E-02 0. -1.
    10030    2    1    2    0    0  0.00000000000E+00  0.00000000000E+00  0.26621418533E+03  0.16392897295E+04  0.16175292346E+04 0.  0.
        4    1    3    3  502    0 -0.56946883212E+03  0.28381460525E+03  0.63907605210E+03  0.90181222778E+03  0.12699999809E+01 0.  1.
       -4    1    3    3    0  502  0.56946883212E+03 -0.28381460525E+03 -0.37286186677E+03  0.73747750169E+03  0.12699999809E+01 0. -1.
</event>
<event>
 5   0  0.1696052E-04  0.2005157E+04  0.7818609E-02  0.8604213E-01
       -1   -1    0    0    0  501  0.00000000000E+00  0.00000000000E+00  0.13208439300E+04  0.13208439300E+04  0.50400001928E-02 0. -1.
        1   -1    0    0  501    0  0.00000000000E+00  0.00000000000E+00 -0.76100142567E+03  0.76100142569E+03  0.50400001928E-02 0.  1.
    10030    2    1    2    0    0  0.00000000000E+00  0.00000000000E+00  0.55984250435E+03  0.20818453557E+04  0.20051574640E+04 0.  0.
        4    1    3    3  502    0 -0.21146211584E+03 -0.20335083696E+02 -0.73736461037E+03  0.76735775463E+03  0.12699999809E+01 0.  1.
       -4    1    3    3    0  502  0.21146211584E+03  0.20335083696E+02  0.12972071147E+04  0.13144876011E+04  0.12699999809E+01 0. -1.
</event>
<event>
 5   0  0.1696052E-04  0.1736964E+04  0.7818609E-02  0.8740559E-01
       -1   -1    0    0    0  501  0.00000000000E+00  0.00000000000E+00  0.72954622638E+03  0.72954622640E+03  0.50400001928E-02 0.  1.
        1   -1    0    0  501    0  0.00000000000E+00  0.00000000000E+00 -0.10338769773E+04  0.10338769773E+04  0.50400001928E-02 0. -1.
    10030    2    1    2    0    0  0.00000000000E+00  0.00000000000E+00 -0.30433075095E+03  0.17634232037E+04  0.17369640726E+04 0.  0.
        4    1    3    3  502    0 -0.65614680483E+03  0.19307389772E+03 -0.69553156515E+03  0.97548548451E+03  0.12699999809E+01 0. -1.
       -4    1    3    3    0  502  0.65614680483E+03 -0.19307389772E+03  0.39120081420E+03  0.78793771924E+03  0.12699999809E+01 0.  1.
</event>
<event>
 5   0  0.1650221E-04  0.2031779E+04  0.7818609E-02  0.8591905E-01
        1   -1    0    0  501    0  0.00000000000E+00  0.00000000000E+00  0.10694990825E+04  0.10694990825E+04  0.50400001928E-02 0.  1.
       -1   -1    0    0    0  501  0.00000000000E+00  0.00000000000E+00 -0.96496760548E+03  0.96496760549E+03  0.50400001928E-02 0. -1.
    10030    2    1    2    0    0  0.00000000000E+00  0.00000000000E+00  0.10453147704E+03  0.20344666880E+04  0.20317794848E+04 0.  0.
        1    1    3    3  502    0  0.33650526816E+03  0.66818257854E+03 -0.63590461145E+03  0.98187495571E+03  0.50400001928E-02 0. -1.
       -1    1    3    3    0  502 -0.33650526816E+03 -0.66818257854E+03  0.74043608849E+03  0.10525917323E+04  0.50400001928E-02 0.  1.
</event>
<event>
 5   0  0.1664168E-04  0.2244388E+04  0.7818609E-02  0.8500177E-01
        1   -1    0    0  501    0  0.00000000000E+00  0.00000000000E+00  0.17451964254E+04  0.17451964254E+04  0.50400001928E-02 0. -1.
       -1   -1    0    0    0  501  0.00000000000E+00  0.00000000000E+00 -0.72159183045E+03  0.72159183047E+03  0.50400001928E-02 0.  1.
    10030    2    1    2    0    0  0.00000000000E+00  0.00000000000E+00  0.10236045950E+04  0.24667882559E+04  0.22443880976E+04 0.  0.
        5    1    3    3  502    0 -0.11639743531E+03  0.91122778393E+03  0.12201947638E+04  0.15273446857E+04  0.46999998093E+01 0. -1.
       -5    1    3    3    0  502  0.11639743531E+03 -0.91122778393E+03 -0.19659016885E+03  0.93944357023E+03  0.46999998093E+01 0.  1.
</event>
<event>
 5   0  0.3395569E-04  0.2322853E+04  0.7818609E-02  0.8468965E-01
        2   -1    0    0  501    0  0.00000000000E+00  0.00000000000E+00  0.79481893659E+03  0.79481893659E+03  0.25500000920E-02 0.  1.
       -2   -1    0    0    0  501  0.00000000000E+00  0.00000000000E+00 -0.16971300391E+04  0.16971300391E+04  0.25500000920E-02 0. -1.
    10030    2    1    2    0    0  0.00000000000E+00  0.00000000000E+00 -0.90231110251E+03  0.24919489757E+04  0.23228526367E+04 0.  0.
        4    1    3    3  502    0  0.43051419889E+03  0.90544521026E+03  0.17781452063E+03  0.10182303869E+04  0.12699999809E+01 0.  1.
       -4    1    3    3    0  502 -0.43051419889E+03 -0.90544521026E+03 -0.10801256231E+04  0.14737185888E+04  0.12699999809E+01 0. -1.
</event>
<event>
 5   0  0.1664168E-04  0.2055581E+04  0.7818609E-02  0.8581067E-01
        1   -1    0    0  501    0  0.00000000000E+00  0.00000000000E+00  0.13849761823E+04  0.13849761823E+04  0.50400001928E-02 0. -1.
       -1   -1    0    0    0  501  0.00000000000E+00  0.00000000000E+00 -0.76272277477E+03  0.76272277479E+03  0.50400001928E-02 0.  1.
    10030    2    1    2    0    0  0.00000000000E+00  0.00000000000E+00  0.62225340754E+03  0.21476989571E+04  0.20555805767E+04 0.  0.
        5    1    3    3  502    0 -0.77449694184E+02 -0.89819825298E+03 -0.20452064251E+03  0.92445083158E+03  0.46999998093E+01 0.  1.
       -5    1    3    3    0  502  0.77449694184E+02  0.89819825298E+03  0.82677405005E+03  0.12232481255E+04  0.46999998093E+01 0. -1.
</event>
<event>
 5   0  0.3395569E-04  0.2139573E+04  0.7818609E-02  0.8544009E-01
        2   -1    0    0  501    0  0.00000000000E+00  0.00000000000E+00  0.16993261340E+04  0.16993261340E+04  0.25500000920E-02 0. -1.
       -2   -1    0    0    0  501  0.00000000000E+00  0.00000000000E+00 -0.67346892858E+03  0.67346892859E+03  0.25500000920E-02 0.  1.
    10030    2    1    2    0    0  0.00000000000E+00  0.00000000000E+00  0.10258572054E+04  0.23727950626E+04  0.21395731825E+04 0.  0.
        4    1    3    3  502    0  0.48308706528E+03 -0.37559695393E+03 -0.46021558440E+03  0.76566714796E+03  0.12699999809E+01 0.  1.
       -4    1    3    3    0  502 -0.48308706528E+03  0.37559695393E+03  0.14860727899E+04  0.16071279147E+04  0.12699999809E+01 0. -1.
</event>
<event>
 5   0  0.1650221E-04  0.1684031E+04  0.7818609E-02  0.8770525E-01
       -1   -1    0    0    0  501  0.00000000000E+00  0.00000000000E+00  0.29826897429E+03  0.29826897434E+03  0.50400001928E-02 0.  1.
        1   -1    0    0  501    0  0.00000000000E+00  0.00000000000E+00 -0.23770153247E+04  0.23770153248E+04  0.50400001928E-02 0. -1.
    10030    2    1    2    0    0  0.00000000000E+00  0.00000000000E+00 -0.20787463505E+04  0.26752842991E+04  0.16840307870E+04 0.  0.
        1    1    3    3  502    0  0.61401619910E+03 -0.31542717989E+03 -0.27340195051E+03  0.74246806338E+03  0.50400001928E-02 0.  1.
       -1    1    3    3    0  502 -0.61401619910E+03  0.31542717989E+03 -0.18053443999E+04  0.19328162357E+04  0.50400001928E-02 0. -1.
</event>
<event>
 5   0  0.3387881E-04  0.1963025E+04  0.7818609E-02  0.8624105E-01
        2   -1    0    0  501    0  0.00000000000E+00  0.00000000000E+00  0.13038506290E+04  0.13038506290E+04  0.25500000920E-02 0. -1.
       -2   -1    0    0    0  501  0.00000000000E+00  0.00000000000E+00 -0.73886282628E+03  0.73886282628E+03  0.25500000920E-02 0.  1.
    10030    2    1    2    0    0  0.00000000000E+00  0.00000000000E+00  0.56498780275E+03  0.20427134553E+04  0.19630249726E+04 0.  0.
        1    1    3    3  502    0  0.28832358481E+03  0.80203777882E+03 -0.22406487254E+03  0.88124920161E+03  0.50400001928E-02 0.  1.
       -1    1    3    3    0  502 -0.28832358481E+03 -0.80203777882E+03  0.78905267529E+03  0.11614642537E+04  0.50400001928E-02 0. -1.
</event>
<event>
 5   0  0.1708578E-04  0.1995959E+04  0.7818609E-02  0.8608512E-01
       -1   -1    0    0    0  501  0.00000000000E+00  0.00000000000E+00  0.54293671838E+03  0.54293671840E+03  0.50400001928E-02 0.  1.
        1   -1    0    0  501    0  0.00000000000E+00  0.00000000000E+00 -0.18344004807E+04  0.18344004807E+04  0.50400001928E-02 0. -1.
    10030    2    1    2    0    0  0.00000000000E+00  0.00000000000E+00 -0.12914637623E+04  0.23773371991E+04  0.19959592954E+04 0.  0.
        3    1    3    3  502    0 -0.19475306085E+03  0.29315467896E+03  0.46656569461E+03  0.58442448451E+03  0.10100000352E+00 0.  1.
       -3    1    3    3    0  502  0.19475306085E+03 -0.29315467896E+03 -0.17580294569E+04  0.17929127146E+04  0.10100000352E+00 0. -1.
</event>
<event>
 5   0  0.3371947E-04  0.2053848E+04  0.7818609E-02  0.8581851E-01
        2   -1    0    0  501    0  0.00000000000E+00  0.00000000000E+00  0.10208411933E+04  0.10208411933E+04  0.25500000920E-02 0.  1.
       -2   -1    0    0    0  501  0.00000000000E+00  0.00000000000E+00 -0.10330434732E+04  0.10330434733E+04  0.25500000920E-02 0. -1.
    10030    2    1    2    0    0  0.00000000000E+00  0.00000000000E+00 -0.12202279983E+02  0.20538846665E+04  0.20538484189E+04 0.  0.
        2    1    3    3  502    0  0.59991385224E+03 -0.79505884838E+03 -0.25622178602E+03  0.10284283184E+04  0.25500000920E-02 0.  1.
       -2    1    3    3    0  502 -0.59991385224E+03  0.79505884838E+03  0.24401950604E+03  0.10254563481E+04  0.25500000920E-02 0. -1.
</event>
<event>
 5   0  0.1650221E-04  0.1984459E+04  0.7818609E-02  0.8613921E-01
        1   -1    0    0  501    0  0.00000000000E+00  0.00000000000E+00  0.13841730371E+04  0.13841730371E+04  0.50400001928E-02 0.  1.
       -1   -1    0    0    0  501  0.00000000000E+00  0.00000000000E+00 -0.71126896825E+03  0.71126896827E+03  0.50400001928E-02 0. -1.
    10030    2    1    2    0    0  0.00000000000E+00  0.00000000000E+00  0.67290406886E+03  0.20954420054E+04  0.19844589469E+04 0.  0.
        1    1    3    3  502    0  0.43141557706E+03  0.81684476948E+03 -0.45968993166E+02  0.92491509119E+03  0.50400001928E-02 0. -1.
       -1    1    3    3    0  502 -0.43141557706E+03 -0.81684476948E+03  0.71887306203E+03  0.11705269142E+04  0.50400001928E-02 0.  1.
</event>
<event>
 5   0  0.1708578E-04  0.2039199E+04  0.7818609E-02  0.8588510E-01
        1   -1    0    0  501    0  0.00000000000E+00  0.00000000000E+00  0.15419493593E+04  0.15419493593E+04  0.50400001928E-02 0. -1.
       -1   -1    0    0    0  501  0.00000000000E+00  0.00000000000E+00 -0.67420036860E+03  0.67420036862E+03  0.50400001928E-02 0.  1.
    10030    2    1    2    0    0  0.00000000000E+00  0.00000000000E+00  0.86774899069E+03  0.22161497279E+04  0.20391986921E+04 0.  0.
        3    1    3    3  502    0  0.31901182841E+03 -0.38074349350E+03  0.14015610431E+04  0.14869793281E+04  0.10100000352E+00 0. -1.
       -3    1    3    3    0  502 -0.31901182841E+03  0.38074349350E+03 -0.53381205239E+03  0.72917039983E+03  0.10100000352E+00 0.  1.
</event>
<event>
 5   0  0.1650221E-04  0.1956916E+04  0.7818609E-02  0.8627033E-01
        1   -1    0    0  501    0  0.00000000000E+00  0.00000000000E+00  0.10683928475E+04  0.10683928475E+04  0.50400001928E-02 0. -1.
       -1   -1    0    0    0  501  0.00000000000E+00  0.00000000000E+00 -0.89609341309E+03  0.89609341310E+03  0.50400001928E-02 0.  1.
    10030    2    1    2    0    0  0.00000000000E+00  0.00000000000E+00  0.17229943438E+03  0.19644862606E+04  0.19569157296E+04 0.  0.
        1    1    3    3  502    0 -0.21954705990E+03  0.62049120084E+03  0.81294611537E+03  0.10459883500E+04  0.50400001928E-02 0. -1.
       -1    1    3    3    0  502  0.21954705990E+03 -0.62049120084E+03 -0.64064668100E+03  0.91849791057E+03  0.50400001928E-02 0.  1.
</event>
<event>
 5   0  0.3460648E-04  0.1911061E+04  0.7818609E-02  0.8649370E-01
        2   -1    0    0  501    0  0.00000000000E+00  0.00000000000E+00  0.13738389604E+04  0.13738389604E+04  0.25500000920E-02 0.  1.
       -2   -1    0    0    0  501  0.00000000000E+00  0.00000000000E+00 -0.66458896058E+03  0.66458896059E+03  0.25500000920E-02 0. -1.
    10030    2    1    2    0    0  0.00000000000E+00  0.00000000000E+00  0.70924999977E+03  0.20384279209E+04  0.19110606549E+04 0.  0.
        5    1    3    3  502    0  0.83143258607E+03  0.14284642270E+03 -0.12397872496E+03  0.85268872392E+03  0.46999998093E+01 0. -1.
       -5    1    3    3    0  502 -0.83143258607E+03 -0.14284642270E+03  0.83322872473E+03  0.11857391970E+04  0.46999998093E+01 0.  1.
</event>
<event>
 5   0  0.3431030E-04  0.2095182E+04  0.7818609E-02  0.8563369E-01
        2   -1    0    0  501    0  0.00000000000E+00  0.00000000000E+00  0.85721713915E+03  0.85721713916E+03  0.25500000920E-02 0. -1.
       -2   -1    0    0    0  501  0.00000000000E+00  0.00000000000E+00 -0.12802441039E+04  0.12802441039E+04  0.25500000920E-02 0.  1.
    10030    2    1    2    0    0  0.00000000000E+00  0.00000000000E+00 -0.42302696470E+03  0.21374612430E+04  0.20951822719E+04 0.  0.
        3    1    3    3  502    0 -0.17796848825E+03  0.91252099819E+02 -0.12605867850E+04  0.12763537054E+04  0.10100000352E+00 0.  1.
       -3    1    3    3    0  502  0.17796848825E+03 -0.91252099819E+02  0.83755982031E+03  0.86110753761E+03  0.10100000352E+00 0. -1.
</event>
<event>
 5   0  0.3387881E-04  0.1989213E+04  0.7818609E-02  0.8611681E-01
       -2   -1    0    0    0  501  0.00000000000E+00  0.00000000000E+00  0.11868050748E+04  0.11868050748E+04  0.25500000920E-02 0. -1.
        2   -1    0    0  501    0  0.00000000000E+00  0.00000000000E+00 -0.83353365336E+03  0.83353365337E+03  0.25500000920E-02 0.  1.
    10030    2    1    2    0    0  0.00000000000E+00  0.00000000000E+00  0.35327142146E+03  0.20203387282E+04  0.19892128794E+04 0.  0.
        1    1    3    3  502    0  0.72061528134E+03  0.60935272038E+03 -0.14235653870E+03  0.95439117016E+03  0.50400001928E-02 0.  1.
       -1    1    3    3    0  502 -0.72061528134E+03 -0.60935272038E+03  0.49562796016E+03  0.10659475580E+04  0.50400001928E-02 0. -1.
</event>
<event>
 5   0  0.1643565E-04  0.2025981E+04  0.7818609E-02  0.8594569E-01
        1   -1    0    0  501    0  0.00000000000E+00  0.00000000000E+00  0.14029720157E+04  0.14029720157E+04  0.50400001928E-02 0. -1.
       -1   -1    0    0    0  501  0.00000000000E+00  0.00000000000E+00 -0.73141174102E+03  0.73141174103E+03  0.50400001928E-02 0.  1.
    10030    2    1    2    0    0  0.00000000000E+00  0.00000000000E+00  0.67156027464E+03  0.21343837567E+04  0.20259814457E+04 0.  0.
        2    1    3    3  502    0 -0.27616654260E+03  0.66198244266E+03 -0.41779820675E+03  0.83008677571E+03  0.25500000920E-02 0.  1.
       -2    1    3    3    0  502  0.27616654260E+03 -0.66198244266E+03  0.10893584814E+04  0.13042969810E+04  0.25500000920E-02 0. -1.
</event>
<event>
 5   0  0.1650221E-04  0.2041416E+04  0.7818609E-02  0.8587498E-01
       -1   -1    0    0    0  501  0.00000000000E+00  0.00000000000E+00  0.65696352922E+03  0.65696352924E+03  0.50400001928E-02 0. -1.
        1   -1    0    0  501    0  0.00000000000E+00  0.00000000000E+00 -0.15858495535E+04  0.15858495535E+04  0.50400001928E-02 0.  1.
    10030    2    1    2    0    0  0.00000000000E+00  0.00000000000E+00 -0.92888602426E+03  0.22428130827E+04  0.20414164881E+04 0.  0.
        1    1    3    3  502    0  0.61881675535E+03  0.33591110576E+02 -0.13554943212E+04  0.14904453678E+04  0.50400001928E-02 0.  1.
       -1    1    3    3    0  502 -0.61881675535E+03 -0.33591110576E+02  0.42660829698E+03  0.75236771494E+03  0.50400001928E-02 0. -1.
</event>
<event>
 5   0  0.3460648E-04  0.2008079E+04  0.7818609E-02  0.8602853E-01
       -2   -1    0    0    0  501  0.00000000000E+00  0.00000000000E+00  0.10913601065E+04  0.10913601065E+04  0.25500000920E-02 0. -1.
        2   -1    0    0  501    0  0.00000000000E+00  0.00000000000E+00 -0.92370554681E+03  0.92370554682E+03  0.25500000920E-02 0.  1.
    10030    2    1    2    0    0  0.00000000000E+00  0.00000000000E+00  0.16765455967E+03  0.20150656533E+04  0.20080790661E+04 0.  0.
        5    1    3    3  502    0  0.50354398622E+03  0.14690829830E+03 -0.77526740770E+03  0.93605568083E+03  0.46999998093E+01 0.  1.
       -5    1    3    3    0  502 -0.50354398622E+03 -0.14690829830E+03  0.94292196737E+03  0.10790099725E+04  0.46999998093E+01 0. -1.
</event>
<event>
 5   0  0.1664168E-04  0.1860313E+04  0.7818609E-02  0.8674867E-01
        1   -1    0    0  501    0  0.00000000000E+00  0.00000000000E+00  0.12124641231E+04  0.12124641231E+04  0.50400001928E-02 0. -1.
       -1   -1    0    0    0  501  0.00000000000E+00  0.00000000000E+00 -0.71358109974E+03  0.71358109976E+03  0.50400001928E-02 0.  1.
    10030    2    1    2    0    0  0.00000000000E+00  0.00000000000E+00  0.49888302340E+03  0.19260452229E+04  0.18603133955E+04 0.  0.
        5    1    3    3  502    0 -0.26194702933E+03 -0.73776899898E+03  0.76943271595E+03  0.10977104064E+04  0.46999998093E+01 0.  1.
       -5    1    3    3    0  502  0.26194702933E+03  0.73776899898E+03 -0.27054969255E+03  0.82833481647E+03  0.46999998093E+01 0. -1.
</event>
<event>
 5   0  0.1696052E-04  0.1680567E+04  0.7818609E-02  0.8772526E-01
        1   -1    0    0  501    0  0.00000000000E+00  0.00000000000E+00  0.10921591990E+04  0.10921591990E+04  0.50400001928E-02 0. -1.
       -1   -1    0    0    0  501  0.00000000000E+00  0.00000000000E+00 -0.64649581139E+03  0.64649581141E+03  0.50400001928E-02 0.  1.
    10030    2    1    2    0    0  0.00000000000E+00  0.00000000000E+00  0.44566338761E+03  0.17386550104E+04  0.16805669848E+04 0.  0.
        4    1    3    3  502    0  0.36502100262E+03 -0.27826021298E+03 -0.50534717075E+03  0.68267595122E+03  0.12699999809E+01 0.  1.
       -4    1    3    3    0  502 -0.36502100262E+03  0.27826021298E+03  0.95101055837E+03  0.10559790592E+04  0.12699999809E+01 0. -1.
</event>
<event>
 5   0  0.3460648E-04  0.2103250E+04  0.7818609E-02  0.8559813E-01
       -2   -1    0    0    0  501  0.00000000000E+00  0.00000000000E+00  0.41166150596E+03  0.41166150597E+03  0.25500000920E-02 0.  1.
        2   -1    0    0  501    0  0.00000000000E+00  0.00000000000E+00 -0.26864666673E+04  0.26864666673E+04  0.25500000920E-02 0. -1.
    10030    2    1    2    0    0  0.00000000000E+00  0.00000000000E+00 -0.22748051614E+04  0.30981281733E+04  0.21032497845E+04 0.  0.
        5    1    3    3  502    0 -0.48477738367E+03  0.38041641572E+02 -0.25108988169E+04  0.25575557153E+04  0.46999998093E+01 0. -1.
       -5    1    3    3    0  502  0.48477738367E+03 -0.38041641572E+02  0.23609365550E+03  0.54057245802E+03  0.46999998093E+01 0.  1.
</event>
<event>
 5   0  0.1222488E-04  0.2000099E+04  0.7818609E-02  0.8606575E-01
       -3   -1    0    0    0  501  0.00000000000E+00  0.00000000000E+00  0.72996767964E+03  0.72996768663E+03  0.10100000352E+00 0. -1.
        3   -1    0    0  501    0  0.00000000000E+00  0.00000000000E+00 -0.13700587309E+04  0.13700587346E+04  0.10100000352E+00 0.  1.
    10030    2    1    2    0    0  0.00000000000E+00  0.00000000000E+00 -0.64009105125E+03  0.21000264213E+04  0.20000986016E+04 0.  0.
        4    1    3    3  502    0  0.77617625681E+02  0.46264944284E+03  0.60727195276E+03  0.76736551935E+03  0.12699999809E+01 0. -1.
       -4    1    3    3    0  502 -0.77617625681E+02 -0.46264944284E+03 -0.12473630040E+04  0.13326609019E+04  0.12699999809E+01 0.  1.
</event>
<event>
 5   0  0.3460648E-04  0.1998767E+04  0.7818609E-02  0.8607197E-01
        2   -1    0    0  501    0  0.00000000000E+00  0.00000000000E+00  0.27273008151E+04  0.27273008151E+04  0.25500000920E-02 0.  1.
       -2   -1    0    0    0  501  0.00000000000E+00  0.00000000000E+00 -0.36621103917E+03  0.36621103918E+03  0.25500000920E-02 0. -1.
    10030    2    1    2    0    0  0.00000000000E+00  0.00000000000E+00  0.23610897759E+04  0.30935118542E+04  0.19987672857E+04 0.  0.
        5    1    3    3  502    0 -0.80234245948E+03 -0.40668452409E+03  0.18544652027E+04  0.20611183864E+04  0.46999998093E+01 0.  1.
       -5    1    3    3    0  502  0.80234245948E+03  0.40668452409E+03  0.50662457315E+03  0.10323934679E+04  0.46999998093E+01 0. -1.
</event>
<event>
 5   0  0.3395569E-04  0.2009727E+04  0.7818609E-02  0.8602087E-01
        2   -1    0    0  501    0  0.00000000000E+00  0.00000000000E+00  0.15681468528E+04  0.15681468528E+04  0.25500000920E-02 0. -1.
       -2   -1    0    0    0  501  0.00000000000E+00  0.00000000000E+00 -0.64391314525E+03  0.64391314526E+03  0.25500000920E-02 0.  1.
    10030    2    1    2    0    0  0.00000000000E+00  0.00000000000E+00  0.92423370754E+03  0.22120599981E+04  0.20097267199E+04 0.  0.
        4    1    3    3  502    0 -0.20046532573E+03  0.51321861461E+03 -0.46282459205E+03  0.71957481134E+03  0.12699999809E+01 0.  1.
       -4    1    3    3    0  502  0.20046532573E+03 -0.51321861461E+03  0.13870582996E+04  0.14924851867E+04  0.12699999809E+01 0. -1.
</event>
<event>
 5   0  0.3387881E-04  0.1858721E+04  0.7818609E-02  0.8675681E-01
       -2   -1    0    0    0  501  0.00000000000E+00  0.00000000000E+00  0.92704292329E+03  0.92704292329E+03  0.25500000920E-02 0. -1.
        2   -1    0    0  501    0  0.00000000000E+00  0.00000000000E+00 -0.93168338104E+03  0.93168338104E+03  0.25500000920E-02 0.  1.
    10030    2    1    2    0    0  0.00000000000E+00  0.00000000000E+00 -0.46404577487E+01  0.18587263043E+04  0.18587205117E+04 0.  0.
        1    1    3    3  502    0  0.71991618380E+03 -0.57105365846E+03  0.13670859208E+03  0.92901605568E+03  0.50400001928E-02 0.  1.
       -1    1    3    3    0  502 -0.71991618380E+03  0.57105365846E+03 -0.14134904983E+03  0.92971024865E+03  0.50400001928E-02 0. -1.
</event>
<event>
 5   0  0.3387881E-04  0.2023980E+04  0.7818609E-02  0.8595491E-01
        2   -1    0    0  501    0  0.00000000000E+00  0.00000000000E+00  0.14538927325E+04  0.14538927325E+04  0.25500000920E-02 0.  1.
       -2   -1    0    0    0  501  0.00000000000E+00  0.00000000000E+00 -0.70440093751E+03  0.70440093751E+03  0.25500000920E-02 0. -1.
    10030    2    1    2    0    0  0.00000000000E+00  0.00000000000E+00  0.74949179504E+03  0.21582936701E+04  0.20239796480E+04 0.  0.
        1    1    3    3  502    0 -0.77009482502E+03 -0.42247725055E+03 -0.16118989459E+03  0.89303709268E+03  0.50400001928E-02 0. -1.
       -1    1    3    3    0  502  0.77009482502E+03  0.42247725055E+03  0.91068168963E+03  0.12652565774E+04  0.50400001928E-02 0.  1.
</event>
<event>
 5   0  0.1643565E-04  0.1981760E+04  0.7818609E-02  0.8615196E-01
        1   -1    0    0  501    0  0.00000000000E+00  0.00000000000E+00  0.13387787469E+04  0.13387787469E+04  0.50400001928E-02 0. -1.
       -1   -1    0    0    0  501  0.00000000000E+00  0.00000000000E+00 -0.73338687227E+03  0.73338687229E+03  0.50400001928E-02 0.  1.
    10030    2    1    2    0    0  0.00000000000E+00  0.00000000000E+00  0.60539187461E+03  0.20721656192E+04  0.19817595796E+04 0.  0.
        2    1    3    3  502    0 -0.53379943555E+01 -0.41781824142E+03  0.12421497234E+04  0.13105481725E+04  0.25500000920E-02 0. -1.
       -2    1    3    3    0  502  0.53379943555E+01  0.41781824142E+03 -0.63675784882E+03  0.76161744668E+03  0.25500000920E-02 0.  1.
</event>
<event>
 5   0  0.3387881E-04  0.1972100E+04  0.7818609E-02  0.8619777E-01
       -2   -1    0    0    0  501  0.00000000000E+00  0.00000000000E+00  0.82417386713E+03  0.82417386713E+03  0.25500000920E-02 0.  1.
        2   -1    0    0  501    0  0.00000000000E+00  0.00000000000E+00 -0.11797202314E+04  0.11797202314E+04  0.25500000920E-02 0. -1.
    10030    2    1    2    0    0  0.00000000000E+00  0.00000000000E+00 -0.35554636429E+03  0.20038940986E+04  0.19720999825E+04 0.  0.
        1    1    3    3  502    0  0.35336132175E+03  0.32752800284E+03  0.69641997216E+03  0.84684094965E+03  0.50400001928E-02 0.  1.
       -1    1    3    3    0  502 -0.35336132175E+03 -0.32752800284E+03 -0.10519663364E+04  0.11570531489E+04  0.50400001928E-02 0. -1.
</event>
<event>
 5   0  0.1664168E-04  0.1951564E+04  0.7818609E-02  0.8629607E-01
       -1   -1    0    0    0  501  0.00000000000E+00  0.00000000000E+00  0.10096839222E+04  0.10096839222E+04  0.50400001928E-02 0. -1.
        1   -1    0    0  501    0  0.00000000000E+00  0.00000000000E+00 -0.94301849724E+03  0.94301849725E+03  0.50400001928E-02 0.  1.
    10030    2    1    2    0    0  0.00000000000E+00  0.00000000000E+00  0.66665424955E+02  0.19527024195E+04  0.19515641061E+04 0.  0.
        5    1    3    3  502    0  0.55301690017E+03 -0.30591795234E+03 -0.71054900242E+03  0.95095502537E+03  0.46999998093E+01 0.  1.
       -5    1    3    3    0  502 -0.55301690017E+03  0.30591795234E+03  0.77721442738E+03  0.10017473941E+04  0.46999998093E+01 0. -1.
</event>
<event>
 5   0  0.1708578E-04  0.2069784E+04  0.7818609E-02  0.8574672E-01
        1   -1    0    0  501    0  0.00000000000E+00  0.00000000000E+00  0.68262923799E+03  0.68262923801E+03  0.50400001928E-02 0.  1.
       -1   -1    0    0    0  501  0.00000000000E+00  0.00000000000E+00 -0.15689365421E+04  0.15689365421E+04  0.50400001928E-02 0. -1.
    10030    2    1    2    0    0  0.00000000000E+00  0.00000000000E+00 -0.88630730410E+03  0.22515657801E+04  0.20697844875E+04 0.  0.
        3    1    3    3  502    0 -0.65671885485E+03 -0.55428478128E+03 -0.10704160374E+04  0.13726987202E+04  0.10100000352E+00 0. -1.
       -3    1    3    3    0  502  0.65671885485E+03  0.55428478128E+03  0.18410873334E+03  0.87886705990E+03  0.10100000352E+00 0.  1.
</event>
<event>
 5   0  0.3395569E-04  0.1976607E+04  0.7818609E-02  0.8617636E-01
        2   -1    0    0  501    0  0.00000000000E+00  0.00000000000E+00  0.10260576282E+04  0.10260576282E+04  0.25500000920E-02 0.  1.
       -2   -1    0    0    0  501  0.00000000000E+00  0.00000000000E+00 -0.95193877509E+03  0.95193877510E+03  0.25500000920E-02 0. -1.
    10030    2    1    2    0    0  0.00000000000E+00  0.00000000000E+00  0.74118853131E+02  0.19779964033E+04  0.19766072365E+04 0.  0.
        4    1    3    3  502    0 -0.97943198430E+03  0.10785972735E+03 -0.39294238344E+02  0.98613710138E+03  0.12699999809E+01 0. -1.
       -4    1    3    3    0  502  0.97943198430E+03 -0.10785972735E+03  0.11341309148E+03  0.99185930195E+03  0.12699999809E+01 0.  1.
</event>
<event>
 5   0  0.1650221E-04  0.1955309E+04  0.7818609E-02  0.8627805E-01
       -1   -1    0    0    0  501  0.00000000000E+00  0.00000000000E+00  0.52293251877E+03  0.52293251880E+03  0.50400001928E-02 0. -1.
        1   -1    0    0  501    0  0.00000000000E+00  0.00000000000E+00 -0.18277853228E+04  0.18277853229E+04  0.50400001928E-02 0.  1.
    10030    2    1    2    0    0  0.00000000000E+00  0.00000000000E+00 -0.13048528041E+04  0.23507178416E+04  0.19553090627E+04 0.  0.
        1    1    3    3  502    0 -0.80354762270E+03  0.42593819330E+03 -0.10837150698E+04  0.14147616333E+04  0.50400001928E-02 0.  1.
       -1    1    3    3    0  502  0.80354762270E+03 -0.42593819330E+03 -0.22113773429E+03  0.93595620838E+03  0.50400001928E-02 0. -1.
</event>
<event>
 5   0  0.3431030E-04  0.1859823E+04  0.7818609E-02  0.8675117E-01
        2   -1    0    0  501    0  0.00000000000E+00  0.00000000000E+00  0.61399214943E+03  0.61399214943E+03  0.25500000920E-02 0. -1.
       -2   -1    0    0    0  501  0.00000000000E+00  0.00000000000E+00 -0.14083824638E+04  0.14083824638E+04  0.25500000920E-02 0.  1.
    10030    2    1    2    0    0  0.00000000000E+00  0.00000000000E+00 -0.79439031440E+03  0.20223746133E+04  0.18598234069E+04 0.  0.
        3    1    3    3  502    0  0.73307103183E+03  0.17479269547E+03  0.19520427207E+03  0.77849235200E+03  0.10100000352E+00 0. -1.
       -3    1    3    3    0  502 -0.73307103183E+03 -0.17479269547E+03 -0.98959458647E+03  0.12438822613E+04  0.10100000352E+00 0.  1.
</event>
<event>
 5   0  0.3431030E-04  0.2055591E+04  0.7818609E-02  0.8581062E-01
       -2   -1    0    0    0  501  0.00000000000E+00  0.00000000000E+00  0.85934790831E+03  0.85934790831E+03  0.25500000920E-02 0. -1.
        2   -1    0    0  501    0  0.00000000000E+00  0.00000000000E+00 -0.12292622697E+04  0.12292622697E+04  0.25500000920E-02 0.  1.
    10030    2    1    2    0    0  0.00000000000E+00  0.00000000000E+00 -0.36991436135E+03  0.20886101780E+04  0.20555913604E+04 0.  0.
        3    1    3    3  502    0 -0.17783842960E+03 -0.10086564225E+04 -0.97849919125E+02  0.10288774963E+04  0.10100000352E+00 0. -1.
       -3    1    3    3    0  502  0.17783842960E+03  0.10086564225E+04 -0.27206444222E+03  0.10597326816E+04  0.10100000352E+00 0.  1.
</event>
<event>
 5   0  0.3431030E-04  0.2038382E+04  0.7818609E-02  0.8588883E-01
        2   -1    0    0  501    0  0.00000000000E+00  0.00000000000E+00  0.15918342179E+04  0.15918342179E+04  0.25500000920E-02 0. -1.
       -2   -1    0    0    0  501  0.00000000000E+00  0.00000000000E+00 -0.65254923956E+03  0.65254923956E+03  0.25500000920E-02 0.  1.
    10030    2    1    2    0    0  0.00000000000E+00  0.00000000000E+00  0.93928497829E+03  0.22443834574E+04  0.20383819155E+04 0.  0.
        3    1    3    3  502    0 -0.91901484100E+03  0.37446486183E+03  0.21392591925E+03  0.10151731477E+04  0.10100000352E+00 0.  1.
       -3    1    3    3    0  502  0.91901484100E+03 -0.37446486183E+03  0.72535905904E+03  0.12292103097E+04  0.10100000352E+00 0. -1.
</event>
<event>
 5   0  0.1643565E-04  0.1986133E+04  0.7818609E-02  0.8613131E-01
        1   -1    0    0  501    0  0.00000000000E+00  0.00000000000E+00  0.15764228131E+04  0.15764228131E+04  0.50400001928E-02 0.  1.
       -1   -1    0    0    0  501  0.00000000000E+00  0.00000000000E+00 -0.62558172483E+03  0.62558172485E+03  0.50400001928E-02 0. -1.
    10030    2    1    2    0    0  0.00000000000E+00  0.00000000000E+00  0.95084108826E+03  0.22020045380E+04  0.19861332307E+04 0.  0.
        2    1    3    3  502    0  0.11405661573E+03 -0.75311224076E+03  0.11818516652E+04  0.14060442089E+04  0.25500000920E-02 0.  1.
       -2    1    3    3    0  502 -0.11405661573E+03  0.75311224076E+03 -0.23101057695E+03  0.79596032907E+03  0.25500000920E-02 0. -1.
</event>
<event>
 5   0  0.3460648E-04  0.1976257E+04  0.7818609E-02  0.8617802E-01
        2   -1    0    0  501    0  0.00000000000E+00  0.00000000000E+00  0.15041286858E+04  0.15041286858E+04  0.25500000920E-02 0.  1.
       -2   -1    0    0    0  501  0.00000000000E+00  0.00000000000E+00 -0.64914537582E+03  0.64914537582E+03  0.25500000920E-02 0. -1.
    10030    2    1    2    0    0  0.00000000000E+00  0.00000000000E+00  0.85498331001E+03  0.21532740617E+04  0.19762572515E+04 0.  0.
        5    1    3    3  502    0  0.56359507599E+03  0.62003225046E+03  0.99813678554E+03  0.13032185289E+04  0.46999998093E+01 0.  1.
       -5    1    3    3    0  502 -0.56359507599E+03 -0.62003225046E+03 -0.14315347553E+03  0.85005553281E+03  0.46999998093E+01 0. -1.
</event>
<event>
 5   0  0.3460648E-04  0.2104263E+04  0.7818609E-02  0.8559368E-01
        2   -1    0    0  501    0  0.00000000000E+00  0.00000000000E+00  0.10212558695E+04  0.10212558695E+04  0.25500000920E-02 0. -1.
       -2   -1    0    0    0  501  0.00000000000E+00  0.00000000000E+00 -0.10839401925E+04  0.10839401925E+04  0.25500000920E-02 0.  1.
    10030    2    1    2    0    0  0.00000000000E+00  0.00000000000E+00 -0.62684322988E+02  0.21051960620E+04  0.21042626108E+04 0.  0.
        5    1    3    3  502    0  0.48746829229E+03  0.42994921498E+03 -0.85904013346E+03  0.10772435678E+04  0.46999998093E+01 0.  1.
       -5    1    3    3    0  502 -0.48746829229E+03 -0.42994921498E+03  0.79635581047E+03  0.10279524942E+04  0.46999998093E+01 0. -1.
</event>
<event>
 5   0  0.3395569E-04  0.2055258E+04  0.7818609E-02  0.8581213E-01
       -2   -1    0    0    0  501  0.00000000000E+00  0.00000000000E+00  0.11530136681E+04  0.11530136681E+04  0.25500000920E-02 0. -1.
        2   -1    0    0  501    0  0.00000000000E+00  0.00000000000E+00 -0.91587949711E+03  0.91587949712E+03  0.25500000920E-02 0.  1.
    10030    2    1    2    0    0  0.00000000000E+00  0.00000000000E+00  0.23713417102E+03  0.20688931653E+04  0.20552582111E+04 0.  0.
        4    1    3    3  502    0 -0.77312568278E+03 -0.67015348140E+03  0.22061598270E+02  0.10233852339E+04  0.12699999809E+01 0.  1.
       -4    1    3    3    0  502  0.77312568278E+03  0.67015348140E+03  0.21507257275E+03  0.10455079313E+04  0.12699999809E+01 0. -1.
</event>
<event>
 5   0  0.3395569E-04  0.2050771E+04  0.7818609E-02  0.8583245E-01
       -2   -1    0    0    0  501  0.00000000000E+00  0.00000000000E+00  0.90286709417E+03  0.90286709417E+03  0.25500000920E-02 0. -1.
        2   -1    0    0  501    0  0.00000000000E+00  0.00000000000E+00 -0.11645299095E+04  0.11645299095E+04  0.25500000920E-02 0.  1.
    10030    2    1    2    0    0  0.00000000000E+00  0.00000000000E+00 -0.26166281536E+03  0.20673970037E+04  0.20507713042E+04 0.  0.
        4    1    3    3  502    0  0.75801734523E+03 -0.18936353686E+03 -0.80026707485E+03  0.11184265057E+04  0.12699999809E+01 0.  1.
       -4    1    3    3    0  502 -0.75801734523E+03  0.18936353686E+03  0.53860425949E+03  0.94897049796E+03  0.12699999809E+01 0. -1.
</event>
<event>
 5   0  0.1643565E-04  0.2026827E+04  0.7818609E-02  0.8594180E-01
       -1   -1    0    0    0  501  0.00000000000E+00  0.00000000000E+00  0.46644030707E+03  0.46644030709E+03  0.50400001928E-02 0.  1.
        1   -1    0    0  501    0  0.00000000000E+00  0.00000000000E+00 -0.22017974616E+04  0.22017974616E+04  0.50400001928E-02 0. -1.
    10030    2    1    2    0    0  0.00000000000E+00  0.00000000000E+00 -0.17353571546E+04  0.26682377687E+04  0.20268271600E+04 0.  0.
        2    1    3    3  502    0 -0.53884470499E+03  0.85498968482E+03 -0.76875897542E+03  0.12697839736E+04  0.25500000920E-02 0. -1.
       -2    1    3    3    0  502  0.53884470499E+03 -0.85498968482E+03 -0.96659817913E+03  0.13984537951E+04  0.25500000920E-02 0.  1.
</event>
<event>
 5   0  0.3431030E-04  0.2005042E+04  0.7818609E-02  0.8604267E-01
        2   -1    0    0  501    0  0.00000000000E+00  0.00000000000E+00  0.10566365418E+04  0.10566365418E+04  0.25500000920E-02 0.  1.
       -2   -1    0    0    0  501  0.00000000000E+00  0.00000000000E+00 -0.95117726061E+03  0.95117726062E+03  0.25500000920E-02 0. -1.
    10030    2    1    2    0    0  0.00000000000E+00  0.00000000000E+00  0.10545928123E+03  0.20078138025E+04  0.20050422952E+04 0.  0.
        3    1    3    3  502    0 -0.45359110772E+03  0.81442762995E+03  0.42203662967E+03  0.10233045414E+04  0.10100000352E+00 0.  1.
       -3    1    3    3    0  502  0.45359110772E+03 -0.81442762995E+03 -0.31657734844E+03  0.98450926109E+03  0.10100000352E+00 0. -1.
</event>
<event>
 5   0  0.1696052E-04  0.1973441E+04  0.7818609E-02  0.8619140E-01
        1   -1    0    0  501    0  0.00000000000E+00  0.00000000000E+00  0.18865608611E+04  0.18865608611E+04  0.50400001928E-02 0.  1.
       -1   -1    0    0    0  501  0.00000000000E+00  0.00000000000E+00 -0.51608042958E+03  0.51608042961E+03  0.50400001928E-02 0. -1.
    10030    2    1    2    0    0  0.00000000000E+00  0.00000000000E+00  0.13704804315E+04  0.24026412907E+04  0.19734407918E+04 0.  0.
        4    1    3    3  502    0 -0.57049215505E+03 -0.66129034483E+03  0.12618986405E+03  0.88243510460E+03  0.12699999809E+01 0. -1.
       -4    1    3    3    0  502  0.57049215505E+03  0.66129034483E+03  0.12442905675E+04  0.15202061861E+04  0.12699999809E+01 0.  1.
</event>
<event>
 5   0  0.3387881E-04  0.2023976E+04  0.7818609E-02  0.8595492E-01
       -2   -1    0    0    0  501  0.00000000000E+00  0.00000000000E+00  0.45113409857E+03  0.45113409858E+03  0.25500000920E-02 0.  1.
        2   -1    0    0  501    0  0.00000000000E+00  0.00000000000E+00 -0.22701005662E+04  0.22701005662E+04  0.25500000920E-02 0. -1.
    10030    2    1    2    0    0  0.00000000000E+00  0.00000000000E+00 -0.18189664676E+04  0.27212346647E+04  0.20239760597E+04 0.  0.
        1    1    3    3  502    0  0.77883482195E+03  0.25942985358E+03 -0.11380278539E+03  0.82875726410E+03  0.50400001928E-02 0.  1.
       -1    1    3    3    0  502 -0.77883482195E+03 -0.25942985358E+03 -0.17051636822E+04  0.18924774006E+04  0.50400001928E-02 0. -1.
</event>
<event>
 5   0  0.3371947E-04  0.1995642E+04  0.7818609E-02  0.8608661E-01
        2   -1    0    0  501    0  0.00000000000E+00  0.00000000000E+00  0.12696687757E+04  0.12696687757E+04  0.25500000920E-02 0.  1.
       -2   -1    0    0    0  501  0.00000000000E+00  0.00000000000E+00 -0.78417835183E+03  0.78417835184E+03  0.25500000920E-02 0. -1.
    10030    2    1    2    0    0  0.00000000000E+00  0.00000000000E+00  0.48549042384E+03  0.20538471275E+04  0.19956420199E+04 0.  0.
        2    1    3    3  502    0 -0.70287169546E+03 -0.33173845538E+03 -0.40125932968E+03  0.87469313060E+03  0.25500000920E-02 0. -1.
       -2    1    3    3    0  502  0.70287169546E+03  0.33173845538E+03  0.88674975352E+03  0.11791539969E+04  0.25500000920E-02 0.  1.
</event>
<event>
 5   0  0.1696052E-04  0.1900109E+04  0.7818609E-02  0.8654802E-01
        1   -1    0    0  501    0  0.00000000000E+00  0.00000000000E+00  0.50472816634E+03  0.50472816636E+03  0.50400001928E-02 0. -1.
       -1   -1    0    0    0  501  0.00000000000E+00  0.00000000000E+00 -0.17882955803E+04  0.17882955803E+04  0.50400001928E-02 0.  1.
    10030    2    1    2    0    0  0.00000000000E+00  0.00000000000E+00 -0.12835674139E+04  0.22930237467E+04  0.19001085749E+04 0.  0.
        4    1    3    3  502    0  0.58335613218E+03 -0.38410598923E+03 -0.14189759110E+04  0.15815612656E+04  0.12699999809E+01 0.  1.
       -4    1    3    3    0  502 -0.58335613218E+03  0.38410598923E+03  0.13540849710E+03  0.71146248102E+03  0.12699999809E+01 0. -1.
</event>
<event>
 5   0  0.1643565E-04  0.2008193E+04  0.7818609E-02  0.8602800E-01
       -1   -1    0    0    0  501  0.00000000000E+00  0.00000000000E+00  0.84990653412E+03  0.84990653413E+03  0.50400001928E-02 0.  1.
        1   -1    0    0  501    0  0.00000000000E+00  0.00000000000E+00 -0.11862593887E+04  0.11862593887E+04  0.50400001928E-02 0. -1.
    10030    2    1    2    0    0  0.00000000000E+00  0.00000000000E+00 -0.33635285459E+03  0.20361659229E+04  0.20081928251E+04 0.  0.
        2    1    3    3  502    0 -0.16157507525E+03 -0.14429076536E+03 -0.11622841487E+04  0.11822989352E+04  0.25500000920E-02 0. -1.
       -2    1    3    3    0  502  0.16157507525E+03  0.14429076536E+03  0.82593129413E+03  0.85386698761E+03  0.25500000920E-02 0.  1.
</event>
<event>
 5   0  0.3395569E-04  0.2005365E+04  0.7818609E-02  0.8604117E-01
        2   -1    0    0  501    0  0.00000000000E+00  0.00000000000E+00  0.34664432293E+03  0.34664432294E+03  0.25500000920E-02 0. -1.
       -2   -1    0    0    0  501  0.00000000000E+00  0.00000000000E+00 -0.29002977577E+04  0.29002977577E+04  0.25500000920E-02 0.  1.
    10030    2    1    2    0    0  0.00000000000E+00  0.00000000000E+00 -0.25536534348E+04  0.32469420807E+04  0.20053645579E+04 0.  0.
        4    1    3    3  502    0  0.89530826258E+03 -0.29925013495E+03 -0.72956475008E+03  0.11930607134E+04  0.12699999809E+01 0. -1.
       -4    1    3    3    0  502 -0.89530826258E+03  0.29925013495E+03 -0.18240886847E+04  0.20538813673E+04  0.12699999809E+01 0.  1.
</event>
<event>
 5   0  0.3395569E-04  0.1895691E+04  0.7818609E-02  0.8657004E-01
        2   -1    0    0  501    0  0.00000000000E+00  0.00000000000E+00  0.94470736364E+03  0.94470736365E+03  0.25500000920E-02 0.  1.
       -2   -1    0    0    0  501  0.00000000000E+00  0.00000000000E+00 -0.95099445152E+03  0.95099445153E+03  0.25500000920E-02 0. -1.
    10030    2    1    2    0    0  0.00000000000E+00  0.00000000000E+00 -0.62870878794E+01  0.18957018152E+04  0.18956913896E+04 0.  0.
        4    1    3    3  502    0  0.55404832713E+03 -0.75905627506E+03 -0.12673172596E+03  0.94826078732E+03  0.12699999809E+01 0. -1.
       -4    1    3    3    0  502 -0.55404832713E+03  0.75905627506E+03  0.12044463809E+03  0.94744102785E+03  0.12699999809E+01 0.  1.
</event>
<event>
 5   0  0.1696052E-04  0.2002975E+04  0.7818609E-02  0.8605231E-01
        1   -1    0    0  501    0  0.00000000000E+00  0.00000000000E+00  0.93021292494E+03  0.93021292495E+03  0.50400001928E-02 0. -1.
       -1   -1    0    0    0  501  0.00000000000E+00  0.00000000000E+00 -0.10782230358E+04  0.10782230358E+04  0.50400001928E-02 0.  1.
    10030    2    1    2    0    0  0.00000000000E+00  0.00000000000E+00 -0.14801011085E+03  0.20084359607E+04  0.20029747915E+04 0.  0.
        4    1    3    3  502    0 -0.11098031317E+03  0.43815653130E+03  0.82211925968E+03  0.93817880272E+03  0.12699999809E+01 0. -1.
       -4    1    3    3    0  502  0.11098031317E+03 -0.43815653130E+03 -0.97012937053E+03  0.10702571580E+04  0.12699999809E+01 0.  1.
</event>
<event>
 5   0  0.1643565E-04  0.1838308E+04  0.7818609E-02  0.8686189E-01
       -1   -1    0    0    0  501  0.00000000000E+00  0.00000000000E+00  0.70115529168E+03  0.70115529169E+03  0.50400001928E-02 0. -1.
        1   -1    0    0  501    0  0.00000000000E+00  0.00000000000E+00 -0.12049311893E+04  0.12049311893E+04  0.50400001928E-02 0.  1.
    10030    2    1    2    0    0  0.00000000000E+00  0.00000000000E+00 -0.50377589762E+03  0.19060864810E+04  0.18383077865E+04 0.  0.
        2    1    3    3  502    0  0.29267437256E+03 -0.87091289421E+03 -0.22452711140E+03  0.94581181078E+03  0.25500000920E-02 0. -1.
       -2    1    3    3    0  502 -0.29267437256E+03  0.87091289421E+03 -0.27924878623E+03  0.96027467022E+03  0.25500000920E-02 0.  1.
</event>
<event>
 5   0  0.3460648E-04  0.1981550E+04  0.7818609E-02  0.8615296E-01
        2   -1    0    0  501    0  0.00000000000E+00  0.00000000000E+00  0.13937422821E+04  0.13937422822E+04  0.25500000920E-02 0. -1.
       -2   -1    0    0    0  501  0.00000000000E+00  0.00000000000E+00 -0.70431580339E+03  0.70431580340E+03  0.25500000920E-02 0.  1.
    10030    2    1    2    0    0  0.00000000000E+00  0.00000000000E+00  0.68942647876E+03  0.20980580855E+04  0.19815496110E+04 0.  0.
        5    1    3    3  502    0  0.40933261459E+03 -0.43321956994E+03  0.11826892426E+04  0.13243897914E+04  0.46999998093E+01 0. -1.
       -5    1    3    3    0  502 -0.40933261459E+03  0.43321956994E+03 -0.49326276382E+03  0.77366829412E+03  0.46999998093E+01 0.  1.
</event>
<event>
 5   0  0.3460648E-04  0.2040430E+04  0.7818609E-02  0.8587948E-01
       -2   -1    0    0    0  501  0.00000000000E+00  0.00000000000E+00  0.35261647719E+03  0.35261647720E+03  0.25500000920E-02 0.  1.
        2   -1    0    0  501    0  0.00000000000E+00  0.00000000000E+00 -0.29517572515E+04  0.29517572515E+04  0.25500000920E-02 0. -1.
    10030    2    1    2    0    0  0.00000000000E+00  0.00000000000E+00 -0.25991407744E+04  0.33043737287E+04  0.20404296053E+04 0.  0.
        5    1    3    3  502    0 -0.96642865320E+03  0.29888326089E+03 -0.10853335661E+04  0.14836733418E+04  0.46999998093E+01 0.  1.
       -5    1    3    3    0  502  0.96642865320E+03 -0.29888326089E+03 -0.15138072082E+04  0.18207003870E+04  0.46999998093E+01 0. -1.
</event>
<event>
 5   0  0.1664168E-04  0.1984387E+04  0.7818609E-02  0.8613955E-01
       -1   -1    0    0    0  501  0.00000000000E+00  0.00000000000E+00  0.68976619113E+03  0.68976619115E+03  0.50400001928E-02 0. -1.
        1   -1    0    0  501    0  0.00000000000E+00  0.00000000000E+00 -0.14272201090E+04  0.14272201090E+04  0.50400001928E-02 0.  1.
    10030    2    1    2    0    0  0.00000000000E+00  0.00000000000E+00 -0.73745391784E+03  0.21169863001E+04  0.19843872389E+04 0.  0.
        5    1    3    3  502    0  0.58713798025E+03 -0.53986959649E+03  0.26082037942E+03  0.83918981725E+03  0.46999998093E+01 0. -1.
       -5    1    3    3    0  502 -0.58713798025E+03  0.53986959649E+03 -0.99827429727E+03  0.12777964829E+04  0.46999998093E+01 0.  1.
</event>
<event>
 5   0  0.3371947E-04  0.1912086E+04  0.7818609E-02  0.8648864E-01
       -2   -1    0    0    0  501  0.00000000000E+00  0.00000000000E+00  0.68833840145E+03  0.68833840145E+03  0.25500000920E-02 0.  1.
        2   -1    0    0  501    0  0.00000000000E+00  0.00000000000E+00 -0.13278618036E+04  0.13278618036E+04  0.25500000920E-02 0. -1.
    10030    2    1    2    0    0  0.00000000000E+00  0.00000000000E+00 -0.63952340217E+03  0.20162002051E+04  0.19120860559E+04 0.  0.
        2    1    3    3  502    0  0.83441848663E+03 -0.28985265687E+02 -0.81087301241E+03  0.11638768830E+04  0.25500000920E-02 0. -1.
       -2    1    3    3    0  502 -0.83441848663E+03  0.28985265687E+02  0.17134961024E+03  0.85232332210E+03  0.25500000920E-02 0.  1.
</event>
<event>
 5   0  0.1696052E-04  0.1914455E+04  0.7818609E-02  0.8647694E-01
        1   -1    0    0  501    0  0.00000000000E+00  0.00000000000E+00  0.14941395302E+04  0.14941395302E+04  0.50400001928E-02 0. -1.
       -1   -1    0    0    0  501  0.00000000000E+00  0.00000000000E+00 -0.61325249343E+03  0.61325249345E+03  0.50400001928E-02 0.  1.
    10030    2    1    2    0    0  0.00000000000E+00  0.00000000000E+00  0.88088703676E+03  0.21073920237E+04  0.19144553194E+04 0.  0.
        4    1    3    3  502    0 -0.32612244701E+03 -0.73555432288E+03  0.10112450566E+04  0.12922902885E+04  0.12699999809E+01 0.  1.
       -4    1    3    3    0  502  0.32612244701E+03  0.73555432288E+03 -0.13035801987E+03  0.81510173512E+03  0.12699999809E+01 0. -1.
</event>
<event>
 5   0  0.3431030E-04  0.2073716E+04  0.7818609E-02  0.8572911E-01
       -2   -1    0    0    0  501  0.00000000000E+00  0.00000000000E+00  0.10804071353E+04  0.10804071353E+04  0.25500000920E-02 0.  1.
        2   -1    0    0  501    0  0.00000000000E+00  0.00000000000E+00 -0.99506428209E+03  0.99506428209E+03  0.25500000920E-02 0. -1.
    10030    2    1    2    0    0  0.00000000000E+00  0.00000000000E+00  0.85342853240E+02  0.20754714174E+04  0.20737160370E+04 0.  0.
        3    1    3    3  502    0  0.87363189341E+03 -0.36307261521E+03 -0.38197552176E+03  0.10202743349E+04  0.10100000352E+00 0. -1.
       -3    1    3    3    0  502 -0.87363189341E+03  0.36307261521E+03  0.46731837500E+03  0.10551970825E+04  0.10100000352E+00 0.  1.
</event>
<event>
 5   0  0.1222488E-04  0.1918398E+04  0.7818609E-02  0.8645752E-01
       -4   -1    0    0    0  501  0.00000000000E+00  0.00000000000E+00  0.93613465758E+03  0.93613551905E+03  0.12699999809E+01 0.  1.
        4   -1    0    0  501    0  0.00000000000E+00  0.00000000000E+00 -0.98282999239E+03  0.98283081293E+03  0.12699999809E+01 0. -1.
    10030    2    1    2    0    0  0.00000000000E+00  0.00000000000E+00 -0.46695334807E+02  0.19189663320E+04  0.19183981153E+04 0.  0.
        1    1    3    3  502    0  0.17976518705E+03  0.91406366851E+03 -0.25196496222E+03  0.96504624489E+03  0.50400001928E-02 0. -1.
       -1    1    3    3    0  502 -0.17976518705E+03 -0.91406366851E+03  0.20526962742E+03  0.95392008708E+03  0.50400001928E-02 0.  1.
</event>
<event>
 5   0  0.3371947E-04  0.2020455E+04  0.7818609E-02  0.8597117E-01
        2   -1    0    0  501    0  0.00000000000E+00  0.00000000000E+00  0.19448545402E+04  0.19448545402E+04  0.25500000920E-02 0.  1.
       -2   -1    0    0    0  501  0.00000000000E+00  0.00000000000E+00 -0.52474858172E+03  0.52474858173E+03  0.25500000920E-02 0. -1.
    10030    2    1    2    0    0  0.00000000000E+00  0.00000000000E+00  0.14201059584E+04  0.24696031219E+04  0.20204550592E+04 0.  0.
        2    1    3    3  502    0  0.91771205258E+03  0.36162742178E+03  0.44340691676E+03  0.10814709878E+04  0.25500000920E-02 0. -1.
       -2    1    3    3    0  502 -0.91771205258E+03 -0.36162742178E+03  0.97669904169E+03  0.13881321341E+04  0.25500000920E-02 0.  1.
</event>
<event>
 5   0  0.1708578E-04  0.2014494E+04  0.7818609E-02  0.8599874E-01
        1   -1    0    0  501    0  0.00000000000E+00  0.00000000000E+00  0.11779380347E+04  0.11779380347E+04  0.50400001928E-02 0. -1.
       -1   -1    0    0    0  501  0.00000000000E+00  0.00000000000E+00 -0.86129034500E+03  0.86129034501E+03  0.50400001928E-02 0.  1.
    10030    2    1    2    0    0  0.00000000000E+00  0.00000000000E+00  0.31664768973E+03  0.20392283798E+04  0.20144941363E+04 0.  0.
        3    1    3    3  502    0  0.15851112522E+03  0.33626771261E+02  0.11646577000E+04  0.11758758884E+04  0.10100000352E+00 0. -1.
       -3    1    3    3    0  502 -0.15851112522E+03 -0.33626771261E+02 -0.84801001028E+03  0.86335249134E+03  0.10100000352E+00 0.  1.
</event>
<event>
 5   0  0.3371947E-04  0.2030520E+04  0.7818609E-02  0.8592483E-01
       -2   -1    0    0    0  501  0.00000000000E+00  0.00000000000E+00  0.63821226879E+03  0.63821226880E+03  0.25500000920E-02 0.  1.
        2   -1    0    0  501    0  0.00000000000E+00  0.00000000000E+00 -0.16150626451E+04  0.16150626451E+04  0.25500000920E-02 0. -1.
    10030    2    1    2    0    0  0.00000000000E+00  0.00000000000E+00 -0.97685037631E+03  0.22532749139E+04  0.20305199285E+04 0.  0.
        2    1    3    3  502    0  0.87341085529E+03  0.14776657354E+03 -0.10388999578E+04  0.13652818773E+04  0.25500000920E-02 0. -1.
       -2    1    3    3    0  502 -0.87341085529E+03 -0.14776657354E+03  0.62049581443E+02  0.88799303655E+03  0.25500000920E-02 0.  1.
</event>
<event>
 5   0  0.1664168E-04  0.2146483E+04  0.7818609E-02  0.8541039E-01
        1   -1    0    0  501    0  0.00000000000E+00  0.00000000000E+00  0.16329406767E+04  0.16329406767E+04  0.50400001928E-02 0.  1.
       -1   -1    0    0    0  501  0.00000000000E+00  0.00000000000E+00 -0.70538229743E+03  0.70538229745E+03  0.50400001928E-02 0. -1.
    10030    2    1    2    0    0  0.00000000000E+00  0.00000000000E+00  0.92755837923E+03  0.23383229741E+04  0.21464831200E+04 0.  0.
        5    1    3    3  502    0  0.66966622490E+02  0.24600496899E+03 -0.67190166930E+03  0.71866328451E+03  0.46999998093E+01 0. -1.
       -5    1    3    3    0  502 -0.66966622490E+02 -0.24600496899E+03  0.15994600485E+04  0.16196596896E+04  0.46999998093E+01 0.  1.
</event>
<event>
 5   0  0.1696052E-04  0.1981687E+04  0.7818609E-02  0.8615231E-01
        1   -1    0    0  501    0  0.00000000000E+00  0.00000000000E+00  0.73225476230E+03  0.73225476231E+03  0.50400001928E-02 0. -1.
       -1   -1    0    0    0  501  0.00000000000E+00  0.00000000000E+00 -0.13407508941E+04  0.13407508941E+04  0.50400001928E-02 0.  1.
    10030    2    1    2    0    0  0.00000000000E+00  0.00000000000E+00 -0.60849613176E+03  0.20730056564E+04  0.19816873893E+04 0.  0.
        4    1    3    3  502    0 -0.81581909029E+03  0.56103922997E+03 -0.34399651335E+03  0.10481703200E+04  0.12699999809E+01 0. -1.
       -4    1    3    3    0  502  0.81581909029E+03 -0.56103922997E+03 -0.26449961842E+03  0.10248353364E+04  0.12699999809E+01 0.  1.
</event>
<event>
 5   0  0.3431030E-04  0.2031328E+04  0.7818609E-02  0.8592112E-01
        2   -1    0    0  501    0  0.00000000000E+00  0.00000000000E+00  0.10937855434E+04  0.10937855434E+04  0.25500000920E-02 0.  1.
       -2   -1    0    0    0  501  0.00000000000E+00  0.00000000000E+00 -0.94312259143E+03  0.94312259143E+03  0.25500000920E-02 0. -1.
    10030    2    1    2    0    0  0.00000000000E+00  0.00000000000E+00  0.15066295196E+03  0.20369081348E+04  0.20313284876E+04 0.  0.
        3    1    3    3  502    0 -0.64442103354E+02 -0.96808305440E+03  0.37655010636E+03  0.10407341532E+04  0.10100000352E+00 0. -1.
       -3    1    3    3    0  502  0.64442103354E+02  0.96808305440E+03 -0.22588715440E+03  0.99617398160E+03  0.10100000352E+00 0.  1.
</event>
<event>
 5   0  0.1708578E-04  0.1968932E+04  0.7818609E-02  0.8621285E-01
       -1   -1    0    0    0  501  0.00000000000E+00  0.00000000000E+00  0.50187443399E+03  0.50187443402E+03  0.50400001928E-02 0. -1.
        1   -1    0    0  501    0  0.00000000000E+00  0.00000000000E+00 -0.19311062186E+04  0.19311062186E+04  0.50400001928E-02 0.  1.
    10030    2    1    2    0    0  0.00000000000E+00  0.00000000000E+00 -0.14292317846E+04  0.24329806527E+04  0.19689315280E+04 0.  0.
        3    1    3    3  502    0  0.16852947537E+03  0.24422434075E+03 -0.18745326767E+04  0.18978726193E+04  0.10100000352E+00 0.  1.
       -3    1    3    3    0  502 -0.16852947537E+03 -0.24422434075E+03  0.44530089209E+03  0.53510803338E+03  0.10100000352E+00 0. -1.
</event>
<event>
 5   0  0.1643565E-04  0.1927159E+04  0.7818609E-02  0.8641454E-01
        1   -1    0    0  501    0  0.00000000000E+00  0.00000000000E+00  0.21504173352E+04  0.21504173352E+04  0.50400001928E-02 0. -1.
       -1   -1    0    0    0  501  0.00000000000E+00  0.00000000000E+00 -0.43177007275E+03  0.43177007278E+03  0.50400001928E-02 0.  1.
    10030    2    1    2    0    0  0.00000000000E+00  0.00000000000E+00  0.17186472625E+04  0.25821874080E+04  0.19271594115E+04 0.  0.
        2    1    3    3  502    0 -0.24664207049E+03  0.19959580643E+03 -0.35976920217E+03  0.47969227189E+03  0.25500000920E-02 0.  1.
       -2    1    3    3    0  502  0.24664207049E+03 -0.19959580643E+03  0.20784164647E+04  0.21024951361E+04  0.25500000920E-02 0. -1.
</event>
<event>
 5   0  0.1643565E-04  0.1954820E+04  0.7818609E-02  0.8628040E-01
       -1   -1    0    0    0  501  0.00000000000E+00  0.00000000000E+00  0.66878999425E+03  0.66878999427E+03  0.50400001928E-02 0. -1.
        1   -1    0    0  501    0  0.00000000000E+00  0.00000000000E+00 -0.14284460788E+04  0.14284460788E+04  0.50400001928E-02 0.  1.
    10030    2    1    2    0    0  0.00000000000E+00  0.00000000000E+00 -0.75965608459E+03  0.20972360731E+04  0.19548201399E+04 0.  0.
        2    1    3    3  502    0 -0.45519019268E+03 -0.71756582595E+03  0.13829657561E+03  0.86094411486E+03  0.25500000920E-02 0. -1.
       -2    1    3    3    0  502  0.45519019268E+03  0.71756582595E+03 -0.89795266020E+03  0.12362919583E+04  0.25500000920E-02 0.  1.
</event>
<event>
 5   0  0.3395569E-04  0.1878906E+04  0.7818609E-02  0.8665428E-01
       -2   -1    0    0    0  501  0.00000000000E+00  0.00000000000E+00  0.56400481919E+03  0.56400481920E+03  0.25500000920E-02 0.  1.
        2   -1    0    0  501    0  0.00000000000E+00  0.00000000000E+00 -0.15648298361E+04  0.15648298361E+04  0.25500000920E-02 0. -1.
    10030    2    1    2    0    0  0.00000000000E+00  0.00000000000E+00 -0.10008250169E+04  0.21288346553E+04  0.18789056057E+04 0.  0.
        4    1    3    3  502    0  0.10970127110E+03  0.85812094285E+01 -0.15575022669E+04  0.15613849398E+04  0.12699999809E+01 0. -1.
       -4    1    3    3    0  502 -0.10970127110E+03 -0.85812094285E+01  0.55667724999E+03  0.56744971547E+03  0.12699999809E+01 0.  1.
</event>
<event>
 5   0  0.1650221E-04  0.1777522E+04  0.7818609E-02  0.8718345E-01
        1   -1    0    0  501    0  0.00000000000E+00  0.00000000000E+00  0.14877876038E+04  0.14877876038E+04  0.50400001928E-02 0. -1.
       -1   -1    0    0    0  501  0.00000000000E+00  0.00000000000E+00 -0.53091998766E+03  0.53091998768E+03  0.50400001928E-02 0.  1.
    10030    2    1    2    0    0  0.00000000000E+00  0.00000000000E+00  0.95686761611E+03  0.20187075915E+04  0.17775220688E+04 0.  0.
        1    1    3    3  502    0 -0.73824529039E+02  0.47481093405E+03  0.13275450436E+04  0.14118326130E+04  0.50400001928E-02 0. -1.
       -1    1    3    3    0  502  0.73824529039E+02 -0.47481093405E+03 -0.37067742753E+03  0.60687497847E+03  0.50400001928E-02 0.  1.
</event>
<event>
 5   0  0.1650221E-04  0.1687857E+04  0.7818609E-02  0.8768320E-01
        1   -1    0    0  501    0  0.00000000000E+00  0.00000000000E+00  0.21615453541E+04  0.21615453541E+04  0.50400001928E-02 0.  1.
       -1   -1    0    0    0  501  0.00000000000E+00  0.00000000000E+00 -0.32949358412E+03  0.32949358416E+03  0.50400001928E-02 0. -1.
    10030    2    1    2    0    0  0.00000000000E+00  0.00000000000E+00  0.18320517700E+04  0.24910389382E+04  0.16878570153E+04 0.  0.
        1    1    3    3  502    0 -0.63812061020E+03 -0.55059310838E+03  0.85229608221E+03  0.11986489461E+04  0.50400001928E-02 0.  1.
       -1    1    3    3    0  502  0.63812061020E+03  0.55059310838E+03  0.97975568776E+03  0.12923899922E+04  0.50400001928E-02 0. -1.
</event>
<event>
 5   0  0.3460648E-04  0.1982921E+04  0.7818609E-02  0.8614647E-01
       -2   -1    0    0    0  501  0.00000000000E+00  0.00000000000E+00  0.60000279016E+03  0.60000279017E+03  0.25500000920E-02 0. -1.
        2   -1    0    0  501    0  0.00000000000E+00  0.00000000000E+00 -0.16383160278E+04  0.16383160278E+04  0.25500000920E-02 0.  1.
    10030    2    1    2    0    0  0.00000000000E+00  0.00000000000E+00 -0.10383132377E+04  0.22383188180E+04  0.19829212671E+04 0.  0.
        5    1    3    3  502    0 -0.31646923646E+03 -0.60621561783E+03  0.29116195524E+03  0.74326813944E+03  0.46999998093E+01 0. -1.
       -5    1    3    3    0  502  0.31646923646E+03  0.60621561783E+03 -0.13294751929E+04  0.14950506786E+04  0.46999998093E+01 0.  1.
</event>
<event>
 5   0  0.3387881E-04  0.1896561E+04  0.7818609E-02  0.8656570E-01
        2   -1    0    0  501    0  0.00000000000E+00  0.00000000000E+00  0.13357148094E+04  0.13357148094E+04  0.25500000920E-02 0.  1.
       -2   -1    0    0    0  501  0.00000000000E+00  0.00000000000E+00 -0.67322469246E+03  0.67322469246E+03  0.25500000920E-02 0. -1.
    10030    2    1    2    0    0  0.00000000000E+00  0.00000000000E+00  0.66249011698E+03  0.20089395019E+04  0.18965613007E+04 0.  0.
        1    1    3    3  502    0  0.54769501532E+03  0.41089382174E+03  0.10261934704E+04  0.12336436281E+04  0.50400001928E-02 0.  1.
       -1    1    3    3    0  502 -0.54769501532E+03 -0.41089382174E+03 -0.36370335341E+03  0.77529587376E+03  0.50400001928E-02 0. -1.
</event>
<event>
 5   0  0.3387881E-04  0.2051889E+04  0.7818609E-02  0.8582738E-01
       -2   -1    0    0    0  501  0.00000000000E+00  0.00000000000E+00  0.67214307073E+03  0.67214307073E+03  0.25500000920E-02 0.  1.
        2   -1    0    0  501    0  0.00000000000E+00  0.00000000000E+00 -0.15659796123E+04  0.15659796123E+04  0.25500000920E-02 0. -1.
    10030    2    1    2    0    0  0.00000000000E+00  0.00000000000E+00 -0.89383654153E+03  0.22381226830E+04  0.20518892224E+04 0.  0.
        1    1    3    3  502    0  0.97500182915E+03 -0.20635726625E+01 -0.98677217148E+02  0.97998470314E+03  0.50400001928E-02 0.  1.
       -1    1    3    3    0  502 -0.97500182915E+03  0.20635726625E+01 -0.79515932438E+03  0.12581379799E+04  0.50400001928E-02 0. -1.
</event>
<event>
 5   0  0.1708578E-04  0.2006737E+04  0.7818609E-02  0.8603477E-01
        1   -1    0    0  501    0  0.00000000000E+00  0.00000000000E+00  0.19668054605E+04  0.19668054605E+04  0.50400001928E-02 0. -1.
       -1   -1    0    0    0  501  0.00000000000E+00  0.00000000000E+00 -0.51186970271E+03  0.51186970273E+03  0.50400001928E-02 0.  1.
    10030    2    1    2    0    0  0.00000000000E+00  0.00000000000E+00  0.14549357578E+04  0.24786751632E+04  0.20067367803E+04 0.  0.
        3    1    3    3  502    0  0.21312413685E+01  0.70829408804E+03  0.16052808758E+04  0.17545973207E+04  0.10100000352E+00 0. -1.
       -3    1    3    3    0  502 -0.21312413685E+01 -0.70829408804E+03 -0.15034511803E+03  0.72407784254E+03  0.10100000352E+00 0.  1.
</event>
<event>
 5   0  0.3460648E-04  0.1987049E+04  0.7818609E-02  0.8612700E-01
        2   -1    0    0  501    0  0.00000000000E+00  0.00000000000E+00  0.82951428135E+03  0.82951428136E+03  0.25500000920E-02 0.  1.
       -2   -1    0    0    0  501  0.00000000000E+00  0.00000000000E+00 -0.11899626106E+04  0.11899626106E+04  0.25500000920E-02 0. -1.
    10030    2    1    2    0    0  0.00000000000E+00  0.00000000000E+00 -0.36044832925E+03  0.20194768920E+04  0.19870490480E+04 0.  0.
        5    1    3    3  502    0 -0.86871207071E+03  0.25614564743E+02 -0.66948692422E+03  0.10970649932E+04  0.46999998093E+01 0. -1.
       -5    1    3    3    0  502  0.86871207071E+03 -0.25614564743E+02  0.30903859496E+03  0.92241189872E+03  0.46999998093E+01 0.  1.
</event>
<event>
 5   0  0.3371947E-04  0.1868655E+04  0.7818609E-02  0.8670618E-01
        2   -1    0    0  501    0  0.00000000000E+00  0.00000000000E+00  0.17923672195E+04  0.17923672195E+04  0.25500000920E-02 0.  1.
       -2   -1    0    0    0  501  0.00000000000E+00  0.00000000000E+00 -0.48704732436E+03  0.48704732436E+03  0.25500000920E-02 0. -1.
    10030    2    1    2    0    0  0.00000000000E+00  0.00000000000E+00  0.13053198951E+04  0.22794145438E+04  0.18686547659E+04 0.  0.
        2    1    3    3  502    0  0.58337190530E+01  0.75058630692E+03 -0.26015796053E+02  0.75105969008E+03  0.25500000920E-02 0. -1.
       -2    1    3    3    0  502 -0.58337190530E+01 -0.75058630692E+03  0.13313356912E+04  0.15283548537E+04  0.25500000920E-02 0.  1.
</event>
<event>
 5   0  0.1664168E-04  0.2080802E+04  0.7818609E-02  0.8569748E-01
       -1   -1    0    0    0  501  0.00000000000E+00  0.00000000000E+00  0.18634183043E+04  0.18634183043E+04  0.50400001928E-02 0. -1.
        1   -1    0    0  501    0  0.00000000000E+00  0.00000000000E+00 -0.58088658900E+03  0.58088658902E+03  0.50400001928E-02 0.  1.
    10030    2    1    2    0    0  0.00000000000E+00  0.00000000000E+00  0.12825317153E+04  0.24443048933E+04  0.20808024439E+04 0.  0.
        5    1    3    3  502    0  0.57260564056E+03  0.51336452277E+03 -0.18185167205E+03  0.79026101603E+03  0.46999998093E+01 0.  1.
       -5    1    3    3    0  502 -0.57260564056E+03 -0.51336452277E+03  0.14643833873E+04  0.16540438773E+04  0.46999998093E+01 0. -1.
</event>
<event>
 5   0  0.3387881E-04  0.1999643E+04  0.7818609E-02  0.8606787E-01
        2   -1    0    0  501    0  0.00000000000E+00  0.00000000000E+00  0.13067190049E+04  0.13067190049E+04  0.25500000920E-02 0.  1.
       -2   -1    0    0    0  501  0.00000000000E+00  0.00000000000E+00 -0.76500264500E+03  0.76500264501E+03  0.25500000920E-02 0. -1.
    10030    2    1    2    0    0  0.00000000000E+00  0.00000000000E+00  0.54171635988E+03  0.20717216499E+04  0.19996434632E+04 0.  0.
        1    1    3    3  502    0 -0.61466154850E+03 -0.35899786016E+03 -0.45655734905E+03  0.84565530554E+03  0.50400001928E-02 0. -1.
       -1    1    3    3    0  502  0.61466154850E+03  0.35899786016E+03  0.99827370893E+03  0.12260663444E+04  0.50400001928E-02 0.  1.
</event>
<event>
 5   0  0.3395569E-04  0.2031116E+04  0.7818609E-02  0.8592210E-01
        2   -1    0    0  501    0  0.00000000000E+00  0.00000000000E+00  0.20208627373E+04  0.20208627373E+04  0.25500000920E-02 0.  1.
       -2   -1    0    0    0  501  0.00000000000E+00  0.00000000000E+00 -0.51035516265E+03  0.51035516265E+03  0.25500000920E-02 0. -1.
    10030    2    1    2    0    0  0.00000000000E+00  0.00000000000E+00  0.15105075746E+04  0.25312178999E+04  0.20311156845E+04 0.  0.
        4    1    3    3  502    0  0.85018964883E+02 -0.32982278498E+03  0.19475584388E+04  0.19771183018E+04  0.12699999809E+01 0.  1.
       -4    1    3    3    0  502 -0.85018964883E+02  0.32982278498E+03 -0.43705086416E+03  0.55409959813E+03  0.12699999809E+01 0. -1.
</event>
<event>
 5   0  0.3387881E-04  0.1968372E+04  0.7818609E-02  0.8621552E-01
        2   -1    0    0  501    0  0.00000000000E+00  0.00000000000E+00  0.42331288945E+03  0.42331288945E+03  0.25500000920E-02 0. -1.
       -2   -1    0    0    0  501  0.00000000000E+00  0.00000000000E+00 -0.22881945683E+04  0.22881945683E+04  0.25500000920E-02 0.  1.
    10030    2    1    2    0    0  0.00000000000E+00  0.00000000000E+00 -0.18648816788E+04  0.27115074577E+04  0.19683721745E+04 0.  0.
        1    1    3    3  502    0  0.32651667146E+03 -0.30371951449E+03 -0.21410399330E+04  0.21869866654E+04  0.50400001928E-02 0.  1.
       -1    1    3    3    0  502 -0.32651667146E+03  0.30371951449E+03  0.27615825412E+03  0.52452079231E+03  0.50400001928E-02 0. -1.
</event>
<event>
 5   0  0.3371947E-04  0.2013697E+04  0.7818609E-02  0.8600243E-01
        2   -1    0    0  501    0  0.00000000000E+00  0.00000000000E+00  0.13863423587E+04  0.13863423587E+04  0.25500000920E-02 0. -1.
       -2   -1    0    0    0  501  0.00000000000E+00  0.00000000000E+00 -0.73123637514E+03  0.73123637514E+03  0.25500000920E-02 0.  1.
    10030    2    1    2    0    0  0.00000000000E+00  0.00000000000E+00  0.65510598357E+03  0.21175787339E+04  0.20136970587E+04 0.  0.
        2    1    3    3  502    0  0.22483236048E+03  0.28474624174E+03  0.13152136981E+04  0.13643375990E+04  0.25500000920E-02 0. -1.
       -2    1    3    3    0  502 -0.22483236048E+03 -0.28474624174E+03 -0.66010771448E+03  0.75324113485E+03  0.25500000920E-02 0.  1.
</event>
<event>
 5   0  0.1643565E-04  0.1931518E+04  0.7818609E-02  0.8639325E-01
       -1   -1    0    0    0  501  0.00000000000E+00  0.00000000000E+00  0.52081505438E+03  0.52081505440E+03  0.50400001928E-02 0.  1.
        1   -1    0    0  501    0  0.00000000000E+00  0.00000000000E+00 -0.17908288045E+04  0.17908288045E+04  0.50400001928E-02 0. -1.
    10030    2    1    2    0    0  0.00000000000E+00  0.00000000000E+00 -0.12700137501E+04  0.23116438589E+04  0.19315181607E+04 0.  0.
        2    1    3    3  502    0 -0.66507622657E+01 -0.19788668462E+03 -0.17662769642E+04  0.17773400594E+04  0.25500000920E-02 0. -1.
       -2    1    3    3    0  502  0.66507622657E+01  0.19788668462E+03  0.49626321403E+03  0.53430379953E+03  0.25500000920E-02 0.  1.
</event>
<event>
 5   0  0.1643565E-04  0.1992011E+04  0.7818609E-02  0.8610365E-01
        1   -1    0    0  501    0  0.00000000000E+00  0.00000000000E+00  0.12677018947E+04  0.12677018947E+04  0.50400001928E-02 0. -1.
       -1   -1    0    0    0  501  0.00000000000E+00  0.00000000000E+00 -0.78253983124E+03  0.78253983126E+03  0.50400001928E-02 0.  1.
    10030    2    1    2    0    0  0.00000000000E+00  0.00000000000E+00  0.48516206346E+03  0.20502417260E+04  0.19920112718E+04 0.  0.
        2    1    3    3  502    0  0.75627380864E+02  0.68583659057E+03 -0.49670269955E+03  0.85017933487E+03  0.25500000920E-02 0.  1.
       -2    1    3    3    0  502 -0.75627380864E+02 -0.68583659057E+03  0.98186476301E+03  0.12000623911E+04  0.25500000920E-02 0. -1.
</event>
<event>
 5   0  0.3387881E-04  0.1984195E+04  0.7818609E-02  0.8614046E-01
        2   -1    0    0  501    0  0.00000000000E+00  0.00000000000E+00  0.24173753210E+04  0.24173753210E+04  0.25500000920E-02 0. -1.
       -2   -1    0    0    0  501  0.00000000000E+00  0.00000000000E+00 -0.40715960288E+03  0.40715960289E+03  0.25500000920E-02 0.  1.
    10030    2    1    2    0    0  0.00000000000E+00  0.00000000000E+00  0.20102157181E+04  0.28245349239E+04  0.19841951272E+04 0.  0.
        1    1    3    3  502    0  0.12905621773E+03 -0.22952949942E+03 -0.35650524365E+03  0.44321020658E+03  0.50400001928E-02 0.  1.
       -1    1    3    3    0  502 -0.12905621773E+03  0.22952949942E+03  0.23667209617E+04  0.23813247173E+04  0.50400001928E-02 0. -1.
</event>
<event>
 5   0  0.1650221E-04  0.1961165E+04  0.7818609E-02  0.8624995E-01
       -1   -1    0    0    0  501  0.00000000000E+00  0.00000000000E+00  0.12998347168E+04  0.12998347168E+04  0.50400001928E-02 0. -1.
        1   -1    0    0  501    0  0.00000000000E+00  0.00000000000E+00 -0.73974202689E+03  0.73974202691E+03  0.50400001928E-02 0.  1.
    10030    2    1    2    0    0  0.00000000000E+00  0.00000000000E+00  0.56009268988E+03  0.20395767437E+04  0.19611653352E+04 0.  0.
        1    1    3    3  502    0  0.75443156117E+03 -0.62546655251E+03  0.31557325210E+03  0.10295444946E+04  0.50400001928E-02 0.  1.
       -1    1    3    3    0  502 -0.75443156117E+03  0.62546655251E+03  0.24451943778E+03  0.10100322491E+04  0.50400001928E-02 0. -1.
</event>
<event>
 5   0  0.1664168E-04  0.2039698E+04  0.7818609E-02  0.8588282E-01
        1   -1    0    0  501    0  0.00000000000E+00  0.00000000000E+00  0.12848897823E+04  0.12848897823E+04  0.50400001928E-02 0. -1.
       -1   -1    0    0    0  501  0.00000000000E+00  0.00000000000E+00 -0.80947951719E+03  0.80947951721E+03  0.50400001928E-02 0.  1.
    10030    2    1    2    0    0  0.00000000000E+00  0.00000000000E+00  0.47541026513E+03  0.20943692995E+04  0.20396979783E+04 0.  0.
        5    1    3    3  502    0  0.33289429832E+02 -0.37301914306E+03 -0.73630804674E+03  0.82608903692E+03  0.46999998093E+01 0.  1.
       -5    1    3    3    0  502 -0.33289429832E+02  0.37301914306E+03  0.12117183119E+04  0.12682802626E+04  0.46999998093E+01 0. -1.
</event>
<event>
 5   0  0.3387881E-04  0.1987873E+04  0.7818609E-02  0.8612311E-01
        2   -1    0    0  501    0  0.00000000000E+00  0.00000000000E+00  0.98146987355E+03  0.98146987355E+03  0.25500000920E-02 0.  1.
       -2   -1    0    0    0  501  0.00000000000E+00  0.00000000000E+00 -0.10065616361E+04  0.10065616361E+04  0.25500000920E-02 0. -1.
    10030    2    1    2    0    0  0.00000000000E+00  0.00000000000E+00 -0.25091762576E+02  0.19880315097E+04  0.19878731567E+04 0.  0.
        1    1    3    3  502    0  0.20163635389E+03  0.36697708166E+03  0.88895841085E+03  0.98263749874E+03  0.50400001928E-02 0.  1.
       -1    1    3    3    0  502 -0.20163635389E+03 -0.36697708166E+03 -0.91405017343E+03  0.10053940109E+04  0.50400001928E-02 0. -1.
</event>
<event>
 5   0  0.1696052E-04  0.1977156E+04  0.7818609E-02  0.8617376E-01
       -1   -1    0    0    0  501  0.00000000000E+00  0.00000000000E+00  0.65173336676E+03  0.65173336678E+03  0.50400001928E-02 0.  1.
        1   -1    0    0  501    0  0.00000000000E+00  0.00000000000E+00 -0.14995190867E+04  0.14995190867E+04  0.50400001928E-02 0. -1.
    10030    2    1    2    0    0  0.00000000000E+00  0.00000000000E+00 -0.84778571997E+03  0.21512524535E+04  0.19771561627E+04 0.  0.
        4    1    3    3  502    0 -0.56153892552E+03 -0.14291422293E+03  0.44759318634E+03  0.73218284148E+03  0.12699999809E+01 0.  1.
       -4    1    3    3    0  502  0.56153892552E+03  0.14291422293E+03 -0.12953789063E+04  0.14190696120E+04  0.12699999809E+01 0. -1.
</event>
<event>
 5   0  0.3371947E-04  0.2061295E+04  0.7818609E-02  0.8578487E-01
       -2   -1    0    0    0  501  0.00000000000E+00  0.00000000000E+00  0.90205655826E+03  0.90205655826E+03  0.25500000920E-02 0.  1.
        2   -1    0    0  501    0  0.00000000000E+00  0.00000000000E+00 -0.11775695473E+04  0.11775695473E+04  0.25500000920E-02 0. -1.
    10030    2    1    2    0    0  0.00000000000E+00  0.00000000000E+00 -0.27551298907E+03  0.20796261056E+04  0.20612950618E+04 0.  0.
        2    1    3    3  502    0 -0.82400916559E+03 -0.45164416269E+03  0.28940071081E+03  0.98322241944E+03  0.25500000920E-02 0.  1.
       -2    1    3    3    0  502  0.82400916559E+03  0.45164416269E+03 -0.56491369989E+03  0.10964036861E+04  0.25500000920E-02 0. -1.
</event>
<event>
 5   0  0.1696052E-04  0.2012441E+04  0.7818609E-02  0.8600826E-01
        1   -1    0    0  501    0  0.00000000000E+00  0.00000000000E+00  0.22632584087E+04  0.22632584087E+04  0.50400001928E-02 0. -1.
       -1   -1    0    0    0  501  0.00000000000E+00  0.00000000000E+00 -0.44735492668E+03  0.44735492671E+03  0.50400001928E-02 0.  1.
    10030    2    1    2    0    0  0.00000000000E+00  0.00000000000E+00  0.18159034821E+04  0.27106133355E+04  0.20124411043E+04 0.  0.
        4    1    3    3  502    0 -0.15992260847E+02  0.56414294353E+03  0.20300043745E+04  0.21069960575E+04  0.12699999809E+01 0. -1.
       -4    1    3    3    0  502  0.15992260847E+02 -0.56414294353E+03 -0.21410089244E+03  0.60361727791E+03  0.12699999809E+01 0.  1.
</event>
<event>
 5   0  0.1650221E-04  0.1309086E+04  0.7818609E-02  0.9022391E-01
       -1   -1    0    0    0  501  0.00000000000E+00  0.00000000000E+00  0.54778385110E+03  0.54778385113E+03  0.50400001928E-02 0.  1.
        1   -1    0    0  501    0  0.00000000000E+00  0.00000000000E+00 -0.78210889123E+03  0.78210889125E+03  0.50400001928E-02 0. -1.
    10030    2    1    2    0    0  0.00000000000E+00  0.00000000000E+00 -0.23432504013E+03  0.13298927424E+04  0.13090861247E+04 0.  0.
        1    1    3    3  502    0 -0.60056093651E+02 -0.54585937577E+03  0.24466895870E+03  0.60119222540E+03  0.50400001928E-02 0.  1.
       -1    1    3    3    0  502  0.60056093651E+02  0.54585937577E+03 -0.47899399883E+03  0.72870051698E+03  0.50400001928E-02 0. -1.
</event>
<event>
 5   0  0.3460648E-04  0.2008803E+04  0.7818609E-02  0.8602516E-01
       -2   -1    0    0    0  501  0.00000000000E+00  0.00000000000E+00  0.17339909259E+04  0.17339909259E+04  0.25500000920E-02 0.  1.
        2   -1    0    0  501    0  0.00000000000E+00  0.00000000000E+00 -0.58179208426E+03  0.58179208426E+03  0.25500000920E-02 0. -1.
    10030    2    1    2    0    0  0.00000000000E+00  0.00000000000E+00  0.11521988417E+04  0.23157830102E+04  0.20088028225E+04 0.  0.
        5    1    3    3  502    0 -0.85897288650E+03  0.51375537430E+03  0.47950252975E+03  0.11098305143E+04  0.46999998093E+01 0. -1.
       -5    1    3    3    0  502  0.85897288650E+03 -0.51375537430E+03  0.67269631193E+03  0.12059524959E+04  0.46999998093E+01 0.  1.
</event>
<event>
 5   0  0.1708578E-04  0.2022852E+04  0.7818609E-02  0.8596010E-01
        1   -1    0    0  501    0  0.00000000000E+00  0.00000000000E+00  0.11598255035E+04  0.11598255035E+04  0.50400001928E-02 0.  1.
       -1   -1    0    0    0  501  0.00000000000E+00  0.00000000000E+00 -0.88201452555E+03  0.88201452557E+03  0.50400001928E-02 0. -1.
    10030    2    1    2    0    0  0.00000000000E+00  0.00000000000E+00  0.27781097797E+03  0.20418400291E+04  0.20228523834E+04 0.  0.
        3    1    3    3  502    0 -0.30266021335E+03 -0.55028723274E+03  0.93916743568E+03  0.11298029588E+04  0.10100000352E+00 0.  1.
       -3    1    3    3    0  502  0.30266021335E+03  0.55028723274E+03 -0.66135645771E+03  0.91203707031E+03  0.10100000352E+00 0. -1.
</event>
<event>
 5   0  0.1664168E-04  0.1993259E+04  0.7818609E-02  0.8609779E-01
        1   -1    0    0  501    0  0.00000000000E+00  0.00000000000E+00  0.12481856834E+04  0.12481856834E+04  0.50400001928E-02 0.  1.
       -1   -1    0    0    0  501  0.00000000000E+00  0.00000000000E+00 -0.79577160754E+03  0.79577160756E+03  0.50400001928E-02 0. -1.
    10030    2    1    2    0    0  0.00000000000E+00  0.00000000000E+00  0.45241407585E+03  0.20439572910E+04  0.19932593688E+04 0.  0.
        5    1    3    3  502    0  0.92795113992E+02  0.91314887707E+03  0.62440965781E+03  0.11101177035E+04  0.46999998093E+01 0.  1.
       -5    1    3    3    0  502 -0.92795113992E+02 -0.91314887707E+03 -0.17199558195E+03  0.93383958745E+03  0.46999998093E+01 0. -1.
</event>
<event>
 5   0  0.3371947E-04  0.1927327E+04  0.7818609E-02  0.8641372E-01
       -2   -1    0    0    0  501  0.00000000000E+00  0.00000000000E+00  0.11513340729E+04  0.11513340729E+04  0.25500000920E-02 0. -1.
        2   -1    0    0  501    0  0.00000000000E+00  0.00000000000E+00 -0.80658361041E+03  0.80658361041E+03  0.25500000920E-02 0.  1.
    10030    2    1    2    0    0  0.00000000000E+00  0.00000000000E+00  0.34475046245E+03  0.19579176833E+04  0.19273268465E+04 0.  0.
        2    1    3    3  502    0 -0.69091935078E+03 -0.31766220108E+03 -0.42893903034E+03  0.87307932917E+03  0.25500000920E-02 0.  1.
       -2    1    3    3    0  502  0.69091935078E+03  0.31766220108E+03  0.77368949278E+03  0.10848383541E+04  0.25500000920E-02 0. -1.
</event>
<event>
 5   0  0.3395569E-04  0.2025831E+04  0.7818609E-02  0.8594638E-01
        2   -1    0    0  501    0  0.00000000000E+00  0.00000000000E+00  0.73387925509E+03  0.73387925509E+03  0.25500000920E-02 0.  1.
       -2   -1    0    0    0  501  0.00000000000E+00  0.00000000000E+00 -0.13980477073E+04  0.13980477073E+04  0.25500000920E-02 0. -1.
    10030    2    1    2    0    0  0.00000000000E+00  0.00000000000E+00 -0.66416845222E+03  0.21319269624E+04  0.20258313948E+04 0.  0.
        4    1    3    3  502    0 -0.28378348436E+03 -0.46652141083E+03  0.56571950692E+03  0.78626679070E+03  0.12699999809E+01 0.  1.
       -4    1    3    3    0  502  0.28378348436E+03  0.46652141083E+03 -0.12298879591E+04  0.13456601717E+04  0.12699999809E+01 0. -1.
</event>
<event>
 5   0  0.1708578E-04  0.1922830E+04  0.7818609E-02  0.8643575E-01
        1   -1    0    0  501    0  0.00000000000E+00  0.00000000000E+00  0.18270170970E+04  0.18270170970E+04  0.50400001928E-02 0.  1.
       -1   -1    0    0    0  501  0.00000000000E+00  0.00000000000E+00 -0.50591701881E+03  0.50591701884E+03  0.50400001928E-02 0. -1.
    10030    2    1    2    0    0  0.00000000000E+00  0.00000000000E+00  0.13211000782E+04  0.23329341158E+04  0.19228302505E+04 0.  0.
        3    1    3    3  502    0 -0.61789407648E+03  0.58144922307E+03  0.11196068060E+03  0.85581043050E+03  0.10100000352E+00 0. -1.
       -3    1    3    3    0  502  0.61789407648E+03 -0.58144922307E+03  0.12091393976E+04  0.14771236853E+04  0.10100000352E+00 0.  1.
</event>
<event>
 5   0  0.3371947E-04  0.2002264E+04  0.7818609E-02  0.8605563E-01
        2   -1    0    0  501    0  0.00000000000E+00  0.00000000000E+00  0.92088543164E+03  0.92088543164E+03  0.25500000920E-02 0.  1.
       -2   -1    0    0    0  501  0.00000000000E+00  0.00000000000E+00 -0.10883714510E+04  0.10883714510E+04  0.25500000920E-02 0. -1.
    10030    2    1    2    0    0  0.00000000000E+00  0.00000000000E+00 -0.16748601932E+03  0.20092568826E+04  0.20022641318E+04 0.  0.
        2    1    3    3  502    0  0.98516037278E+03 -0.16562761551E+03 -0.14948475600E+03  0.10101084889E+04  0.25500000920E-02 0. -1.
       -2    1    3    3    0  502 -0.98516037278E+03  0.16562761551E+03 -0.18001263326E+02  0.99914839368E+03  0.25500000920E-02 0.  1.
</event>
<event>
 5   0  0.3395569E-04  0.2019173E+04  0.7818609E-02  0.8597709E-01
       -2   -1    0    0    0  501  0.00000000000E+00  0.00000000000E+00  0.10014979707E+04  0.10014979707E+04  0.25500000920E-02 0.  1.
        2   -1    0    0  501    0  0.00000000000E+00  0.00000000000E+00 -0.10177401375E+04  0.10177401375E+04  0.25500000920E-02 0. -1.
    10030    2    1    2    0    0  0.00000000000E+00  0.00000000000E+00 -0.16242166811E+02  0.20192381083E+04  0.20191727836E+04 0.  0.
        4    1    3    3  502    0  0.20489543084E+02  0.65550720563E+03 -0.77570930180E+03  0.10157933116E+04  0.12699999809E+01 0. -1.
       -4    1    3    3    0  502 -0.20489543084E+02 -0.65550720563E+03  0.75946713499E+03  0.10034447967E+04  0.12699999809E+01 0.  1.
</event>
<event>
 5   0  0.3431030E-04  0.1926250E+04  0.7818609E-02  0.8641899E-01
       -2   -1    0    0    0  501  0.00000000000E+00  0.00000000000E+00  0.96536607254E+03  0.96536607254E+03  0.25500000920E-02 0. -1.
        2   -1    0    0  501    0  0.00000000000E+00  0.00000000000E+00 -0.96088951969E+03  0.96088951969E+03  0.25500000920E-02 0.  1.
    10030    2    1    2    0    0  0.00000000000E+00  0.00000000000E+00  0.44765528485E+01  0.19262555922E+04  0.19262503905E+04 0.  0.
        3    1    3    3  502    0  0.93962052868E+03 -0.18550360904E+03  0.10378560716E+03  0.96336378868E+03  0.10100000352E+00 0. -1.
       -3    1    3    3    0  502 -0.93962052868E+03  0.18550360904E+03 -0.99309054308E+02  0.96289180356E+03  0.10100000352E+00 0.  1.
</event>
<event>
 5   0  0.1664168E-04  0.2360333E+04  0.7818609E-02  0.8454506E-01
        1   -1    0    0  501    0  0.00000000000E+00  0.00000000000E+00  0.17531846351E+04  0.17531846351E+04  0.50400001928E-02 0. -1.
       -1   -1    0    0    0  501  0.00000000000E+00  0.00000000000E+00 -0.79443567866E+03  0.79443567868E+03  0.50400001928E-02 0.  1.
    10030    2    1    2    0    0  0.00000000000E+00  0.00000000000E+00  0.95874895645E+03  0.25476203138E+04  0.23603325405E+04 0.  0.
        5    1    3    3  502    0  0.42204825426E+03  0.10983399082E+04  0.38107050286E+03  0.12368153059E+04  0.46999998093E+01 0. -1.
       -5    1    3    3    0  502 -0.42204825426E+03 -0.10983399082E+04  0.57767845359E+03  0.13108050078E+04  0.46999998093E+01 0.  1.
</event>
<event>
 5   0  0.3371947E-04  0.1986557E+04  0.7818609E-02  0.8612931E-01
       -2   -1    0    0    0  501  0.00000000000E+00  0.00000000000E+00  0.67503555974E+03  0.67503555975E+03  0.25500000920E-02 0. -1.
        2   -1    0    0  501    0  0.00000000000E+00  0.00000000000E+00 -0.14615563379E+04  0.14615563379E+04  0.25500000920E-02 0.  1.
    10030    2    1    2    0    0  0.00000000000E+00  0.00000000000E+00 -0.78652077817E+03  0.21365918977E+04  0.19865573243E+04 0.  0.
        2    1    3    3  502    0 -0.26874448325E+03  0.16706932057E+03 -0.14058925112E+04  0.14410654073E+04  0.25500000920E-02 0.  1.
       -2    1    3    3    0  502  0.26874448325E+03 -0.16706932057E+03  0.61937173300E+03  0.69552649036E+03  0.25500000920E-02 0. -1.
</event>
<event>
 5   0  0.1222488E-04  0.1115998E+04  0.7818609E-02  0.9189738E-01
       -3   -1    0    0    0  501  0.00000000000E+00  0.00000000000E+00  0.22435838236E+03  0.22435840509E+03  0.10100000352E+00 0. -1.
        3   -1    0    0  501    0  0.00000000000E+00  0.00000000000E+00 -0.13877919818E+04  0.13877919855E+04  0.10100000352E+00 0.  1.
    10030    2    1    2    0    0  0.00000000000E+00  0.00000000000E+00 -0.11634335995E+04  0.16121503906E+04  0.11159978233E+04 0.  0.
        1    1    3    3  502    0 -0.20285689148E+03  0.12021205228E+01  0.16920247677E+03  0.26416252892E+03  0.50400001928E-02 0. -1.
       -1    1    3    3    0  502  0.20285689148E+03 -0.12021205228E+01 -0.13326360762E+04  0.13479878617E+04  0.50400001928E-02 0.  1.
</event>
<event>
 5   0  0.1696052E-04  0.2004362E+04  0.7818609E-02  0.8604584E-01
        1   -1    0    0  501    0  0.00000000000E+00  0.00000000000E+00  0.51223352590E+03  0.51223352592E+03  0.50400001928E-02 0. -1.
       -1   -1    0    0    0  501  0.00000000000E+00  0.00000000000E+00 -0.19607602378E+04  0.19607602378E+04  0.50400001928E-02 0.  1.
    10030    2    1    2    0    0  0.00000000000E+00  0.00000000000E+00 -0.14485267119E+04  0.24729937638E+04  0.20043623725E+04 0.  0.
        4    1    3    3  502    0 -0.40627744068E+03 -0.74244348885E+03 -0.13864870404E+04  0.16243865362E+04  0.12699999809E+01 0.  1.
       -4    1    3    3    0  502  0.40627744068E+03  0.74244348885E+03 -0.62039671568E+02  0.84860722757E+03  0.12699999809E+01 0. -1.
</event>
<event>
 5   0  0.3371947E-04  0.1907094E+04  0.7818609E-02  0.8651333E-01
        2   -1    0    0  501    0  0.00000000000E+00  0.00000000000E+00  0.16011741916E+04  0.16011741916E+04  0.25500000920E-02 0. -1.
       -2   -1    0    0    0  501  0.00000000000E+00  0.00000000000E+00 -0.56786562223E+03  0.56786562223E+03  0.25500000920E-02 0.  1.
    10030    2    1    2    0    0  0.00000000000E+00  0.00000000000E+00  0.10333085694E+04  0.21690398138E+04  0.19070938924E+04 0.  0.
        2    1    3    3  502    0 -0.49425325340E+03 -0.74602492609E+03  0.14216900839E+03  0.90611891924E+03  0.25500000920E-02 0.  1.
       -2    1    3    3    0  502  0.49425325340E+03  0.74602492609E+03  0.89113956098E+03  0.12629208946E+04  0.25500000920E-02 0. -1.
</event>
<event>
 5   0  0.1664168E-04  0.1740889E+04  0.7818609E-02  0.8738381E-01
        1   -1    0    0  501    0  0.00000000000E+00  0.00000000000E+00  0.10864745686E+04  0.10864745687E+04  0.50400001928E-02 0.  1.
       -1   -1    0    0    0  501  0.00000000000E+00  0.00000000000E+00 -0.69736925546E+03  0.69736925548E+03  0.50400001928E-02 0. -1.
    10030    2    1    2    0    0  0.00000000000E+00  0.00000000000E+00  0.38910531318E+03  0.17838438241E+04  0.17408893831E+04 0.  0.
        5    1    3    3  502    0 -0.20746414732E+03 -0.25100451111E+03  0.10216918518E+04  0.10723436795E+04  0.46999998093E+01 0.  1.
       -5    1    3    3    0  502  0.20746414732E+03  0.25100451111E+03 -0.63258653858E+03  0.71150014463E+03  0.46999998093E+01 0. -1.
</event>
<event>
 5   0  0.1664168E-04  0.1964381E+04  0.7818609E-02  0.8623457E-01
        1   -1    0    0  501    0  0.00000000000E+00  0.00000000000E+00  0.24224675475E+04  0.24224675475E+04  0.50400001928E-02 0. -1.
       -1   -1    0    0    0  501  0.00000000000E+00  0.00000000000E+00 -0.39822936960E+03  0.39822936963E+03  0.50400001928E-02 0.  1.
    10030    2    1    2    0    0  0.00000000000E+00  0.00000000000E+00  0.20242381779E+04  0.28206969171E+04  0.19643805378E+04 0.  0.
        5    1    3    3  502    0  0.96510488280E+03  0.50531966736E+02  0.76054689432E+03  0.12298107915E+04  0.46999998093E+01 0. -1.
       -5    1    3    3    0  502 -0.96510488280E+03 -0.50531966736E+02  0.12636912836E+04  0.15908861256E+04  0.46999998093E+01 0.  1.
</event>
<event>
 5   0  0.1708578E-04  0.1806740E+04  0.7818609E-02  0.8702724E-01
       -1   -1    0    0    0  501  0.00000000000E+00  0.00000000000E+00  0.10358287146E+04  0.10358287147E+04  0.50400001928E-02 0.  1.
        1   -1    0    0  501    0  0.00000000000E+00  0.00000000000E+00 -0.78784951213E+03  0.78784951215E+03  0.50400001928E-02 0. -1.
    10030    2    1    2    0    0  0.00000000000E+00  0.00000000000E+00  0.24797920251E+03  0.18236782268E+04  0.18067397682E+04 0.  0.
        3    1    3    3  502    0  0.64331589071E+03 -0.13444640428E+03 -0.50161617192E+03  0.82677080560E+03  0.10100000352E+00 0.  1.
       -3    1    3    3    0  502 -0.64331589071E+03  0.13444640428E+03  0.74959537443E+03  0.99690742120E+03  0.10100000352E+00 0. -1.
</event>
<event>
 5   0  0.1643565E-04  0.1989119E+04  0.7818609E-02  0.8611725E-01
       -1   -1    0    0    0  501  0.00000000000E+00  0.00000000000E+00  0.83003073620E+03  0.83003073621E+03  0.50400001928E-02 0. -1.
        1   -1    0    0  501    0  0.00000000000E+00  0.00000000000E+00 -0.11917015911E+04  0.11917015911E+04  0.50400001928E-02 0.  1.
    10030    2    1    2    0    0  0.00000000000E+00  0.00000000000E+00 -0.36167085493E+03  0.20217323274E+04  0.19891193519E+04 0.  0.
        2    1    3    3  502    0  0.97562029719E+03  0.19297653100E+03 -0.18958134699E+03  0.10124307349E+04  0.25500000920E-02 0. -1.
       -2    1    3    3    0  502 -0.97562029719E+03 -0.19297653100E+03 -0.17208950795E+03  0.10093015925E+04  0.25500000920E-02 0.  1.
</event>
<event>
 5   0  0.3460648E-04  0.1999647E+04  0.7818609E-02  0.8606786E-01
        2   -1    0    0  501    0  0.00000000000E+00  0.00000000000E+00  0.92230582618E+03  0.92230582619E+03  0.25500000920E-02 0. -1.
       -2   -1    0    0    0  501  0.00000000000E+00  0.00000000000E+00 -0.10838558987E+04  0.10838558987E+04  0.25500000920E-02 0.  1.
    10030    2    1    2    0    0  0.00000000000E+00  0.00000000000E+00 -0.16155007254E+03  0.20061617249E+04  0.19996465789E+04 0.  0.
        5    1    3    3  502    0 -0.92137664118E+03  0.37887925107E+03  0.39994957479E+01  0.99625422848E+03  0.46999998093E+01 0.  1.
       -5    1    3    3    0  502  0.92137664118E+03 -0.37887925107E+03 -0.16554956829E+03  0.10099074964E+04  0.46999998093E+01 0. -1.
</event>
<event>
 5   0  0.1696052E-04  0.1938154E+04  0.7818609E-02  0.8636094E-01
       -1   -1    0    0    0  501  0.00000000000E+00  0.00000000000E+00  0.11340546624E+04  0.11340546624E+04  0.50400001928E-02 0.  1.
        1   -1    0    0  501    0  0.00000000000E+00  0.00000000000E+00 -0.82809943596E+03  0.82809943597E+03  0.50400001928E-02 0. -1.
    10030    2    1    2    0    0  0.00000000000E+00  0.00000000000E+00  0.30595522648E+03  0.19621540984E+04  0.19381537878E+04 0.  0.
        4    1    3    3  502    0  0.48148451421E+02 -0.80918890907E+03  0.69059349267E+03  0.10649065447E+04  0.12699999809E+01 0.  1.
       -4    1    3    3    0  502 -0.48148451421E+02  0.80918890907E+03 -0.38463826619E+03  0.89724755372E+03  0.12699999809E+01 0. -1.
</event>
<event>
 5   0  0.1664168E-04  0.1992182E+04  0.7818609E-02  0.8610285E-01
        1   -1    0    0  501    0  0.00000000000E+00  0.00000000000E+00  0.15286159942E+04  0.15286159942E+04  0.50400001928E-02 0. -1.
       -1   -1    0    0    0  501  0.00000000000E+00  0.00000000000E+00 -0.64908195972E+03  0.64908195974E+03  0.50400001928E-02 0.  1.
    10030    2    1    2    0    0  0.00000000000E+00  0.00000000000E+00  0.87953403450E+03  0.21776979540E+04  0.19921817841E+04 0.  0.
        5    1    3    3  502    0  0.67591214968E+03 -0.19821026247E+03  0.12096466663E+04  0.13997898733E+04  0.46999998093E+01 0. -1.
       -5    1    3    3    0  502 -0.67591214968E+03  0.19821026247E+03 -0.33011263179E+03  0.77790808062E+03  0.46999998093E+01 0.  1.
</event>
<event>
 5   0  0.3371947E-04  0.2004762E+04  0.7818609E-02  0.8604398E-01
        2   -1    0    0  501    0  0.00000000000E+00  0.00000000000E+00  0.60125374418E+03  0.60125374418E+03  0.25500000920E-02 0.  1.
       -2   -1    0    0    0  501  0.00000000000E+00  0.00000000000E+00 -0.16711201834E+04  0.16711201834E+04  0.25500000920E-02 0. -1.
    10030    2    1    2    0    0  0.00000000000E+00  0.00000000000E+00 -0.10698664392E+04  0.22723739276E+04  0.20047615990E+04 0.  0.
        2    1    3    3  502    0 -0.57965359417E+03 -0.81370478468E+03 -0.44247571050E+03  0.10926566342E+04  0.25500000920E-02 0.  1.
       -2    1    3    3    0  502  0.57965359417E+03  0.81370478468E+03 -0.62739072871E+03  0.11797172934E+04  0.25500000920E-02 0. -1.
</event>
<event>
 5   0  0.1643565E-04  0.1967402E+04  0.7818609E-02  0.8622015E-01
       -1   -1    0    0    0  501  0.00000000000E+00  0.00000000000E+00  0.92958398872E+03  0.92958398873E+03  0.50400001928E-02 0.  1.
        1   -1    0    0  501    0  0.00000000000E+00  0.00000000000E+00 -0.10409689566E+04  0.10409689566E+04  0.50400001928E-02 0. -1.
    10030    2    1    2    0    0  0.00000000000E+00  0.00000000000E+00 -0.11138496792E+03  0.19705529454E+04  0.19674024244E+04 0.  0.
        2    1    3    3  502    0  0.65345148421E+03  0.71187337171E+03 -0.24012190736E+03  0.99570129556E+03  0.25500000920E-02 0. -1.
       -2    1    3    3    0  502 -0.65345148421E+03 -0.71187337171E+03  0.12873693944E+03  0.97485164982E+03  0.25500000920E-02 0.  1.
</event>
<event>
 5   0  0.3460648E-04  0.2255452E+04  0.7818609E-02  0.8495696E-01
        2   -1    0    0  501    0  0.00000000000E+00  0.00000000000E+00  0.12403162984E+04  0.12403162984E+04  0.25500000920E-02 0. -1.
       -2   -1    0    0    0  501  0.00000000000E+00  0.00000000000E+00 -0.10253565399E+04  0.10253565399E+04  0.25500000920E-02 0.  1.
    10030    2    1    2    0    0  0.00000000000E+00  0.00000000000E+00  0.21495975844E+03  0.22656728383E+04  0.22554524408E+04 0.  0.
        5    1    3    3  502    0 -0.14557708562E+03 -0.14713125236E+03  0.12210626711E+04  0.12384895761E+04  0.46999998093E+01 0. -1.
       -5    1    3    3    0  502  0.14557708562E+03  0.14713125236E+03 -0.10061029127E+04  0.10271832622E+04  0.46999998093E+01 0.  1.
</event>
<event>
 5   0  0.1650221E-04  0.1722426E+04  0.7818609E-02  0.8748676E-01
       -1   -1    0    0    0  501  0.00000000000E+00  0.00000000000E+00  0.46424423246E+03  0.46424423249E+03  0.50400001928E-02 0. -1.
        1   -1    0    0  501    0  0.00000000000E+00  0.00000000000E+00 -0.15976250378E+04  0.15976250378E+04  0.50400001928E-02 0.  1.
    10030    2    1    2    0    0  0.00000000000E+00  0.00000000000E+00 -0.11333808054E+04  0.20618692703E+04  0.17224264390E+04 0.  0.
        1    1    3    3  502    0  0.29506239885E+01  0.67406343915E+03  0.74964988424E+02  0.67822560825E+03  0.50400001928E-02 0. -1.
       -1    1    3    3    0  502 -0.29506239885E+01 -0.67406343915E+03 -0.12083457938E+04  0.13836436621E+04  0.50400001928E-02 0.  1.
</event>
<event>
 5   0  0.3431030E-04  0.1343621E+04  0.7818609E-02  0.8995671E-01
        2   -1    0    0  501    0  0.00000000000E+00  0.00000000000E+00  0.37204721335E+03  0.37204721335E+03  0.25500000920E-02 0. -1.
       -2   -1    0    0    0  501  0.00000000000E+00  0.00000000000E+00 -0.12130976170E+04  0.12130976170E+04  0.25500000920E-02 0.  1.
    10030    2    1    2    0    0  0.00000000000E+00  0.00000000000E+00 -0.84105040368E+03  0.15851448304E+04  0.13436213573E+04 0.  0.
        3    1    3    3  502    0 -0.30112976099E+03  0.13028642678E+03  0.27109327060E+03  0.42561162758E+03  0.10100000352E+00 0. -1.
       -3    1    3    3    0  502  0.30112976099E+03 -0.13028642678E+03 -0.11121436743E+04  0.11595332028E+04  0.10100000352E+00 0.  1.
</event>
<event>
 5   0  0.3460648E-04  0.1966982E+04  0.7818609E-02  0.8622215E-01
        2   -1    0    0  501    0  0.00000000000E+00  0.00000000000E+00  0.83137673993E+03  0.83137673993E+03  0.25500000920E-02 0.  1.
       -2   -1    0    0    0  501  0.00000000000E+00  0.00000000000E+00 -0.11634367479E+04  0.11634367479E+04  0.25500000920E-02 0. -1.
    10030    2    1    2    0    0  0.00000000000E+00  0.00000000000E+00 -0.33206000801E+03  0.19948134879E+04  0.19669816986E+04 0.  0.
        5    1    3    3  502    0  0.32274162988E+03 -0.49941641908E+03  0.62841436872E+03  0.86516219758E+03  0.46999998093E+01 0.  1.
       -5    1    3    3    0  502 -0.32274162988E+03  0.49941641908E+03 -0.96047437673E+03  0.11296512903E+04  0.46999998093E+01 0. -1.
</event>
<event>
 5   0  0.1650221E-04  0.1981701E+04  0.7818609E-02  0.8615224E-01
       -1   -1    0    0    0  501  0.00000000000E+00  0.00000000000E+00  0.44796244574E+03  0.44796244577E+03  0.50400001928E-02 0. -1.
        1   -1    0    0  501    0  0.00000000000E+00  0.00000000000E+00 -0.21916679788E+04  0.21916679788E+04  0.50400001928E-02 0.  1.
    10030    2    1    2    0    0  0.00000000000E+00  0.00000000000E+00 -0.17437055331E+04  0.26396304246E+04  0.19817012369E+04 0.  0.
        1    1    3    3  502    0 -0.78984492539E+03  0.49052603010E+03 -0.41562663746E+03  0.10184381641E+04  0.50400001928E-02 0. -1.
       -1    1    3    3    0  502  0.78984492539E+03 -0.49052603010E+03 -0.13280788956E+04  0.16211922605E+04  0.50400001928E-02 0.  1.
</event>
<event>
 5   0  0.3371947E-04  0.2020052E+04  0.7818609E-02  0.8597303E-01
       -2   -1    0    0    0  501  0.00000000000E+00  0.00000000000E+00  0.41301662050E+03  0.41301662051E+03  0.25500000920E-02 0.  1.
        2   -1    0    0  501    0  0.00000000000E+00  0.00000000000E+00 -0.24700035645E+04  0.24700035645E+04  0.25500000920E-02 0. -1.
    10030    2    1    2    0    0  0.00000000000E+00  0.00000000000E+00 -0.20569869440E+04  0.28830201850E+04  0.20200520041E+04 0.  0.
        2    1    3    3  502    0 -0.15837196877E+03  0.32416310643E+03  0.31791700652E+03  0.48086861314E+03  0.25500000920E-02 0.  1.
       -2    1    3    3    0  502  0.15837196877E+03 -0.32416310643E+03 -0.23749039505E+04  0.24021515719E+04  0.25500000920E-02 0. -1.
</event>
<event>
 5   0  0.3460648E-04  0.2017439E+04  0.7818609E-02  0.8598511E-01
       -2   -1    0    0    0  501  0.00000000000E+00  0.00000000000E+00  0.84063354738E+03  0.84063354738E+03  0.25500000920E-02 0.  1.
        2   -1    0    0  501    0  0.00000000000E+00  0.00000000000E+00 -0.12104139051E+04  0.12104139051E+04  0.25500000920E-02 0. -1.
    10030    2    1    2    0    0  0.00000000000E+00  0.00000000000E+00 -0.36978035773E+03  0.20510474525E+04  0.20174385094E+04 0.  0.
        5    1    3    3  502    0 -0.91760329040E+03 -0.29906434006E+03  0.11335190398E+03  0.97175409554E+03  0.46999998093E+01 0. -1.
       -5    1    3    3    0  502  0.91760329040E+03  0.29906434006E+03 -0.48313226170E+03  0.10792933569E+04  0.46999998093E+01 0.  1.
</event>
<event>
 5   0  0.1643565E-04  0.2039680E+04  0.7818609E-02  0.8588290E-01
       -1   -1    0    0    0  501  0.00000000000E+00  0.00000000000E+00  0.92897323313E+03  0.92897323314E+03  0.50400001928E-02 0. -1.
        1   -1    0    0  501    0  0.00000000000E+00  0.00000000000E+00 -0.11195947794E+04  0.11195947794E+04  0.50400001928E-02 0.  1.
    10030    2    1    2    0    0  0.00000000000E+00  0.00000000000E+00 -0.19062154623E+03  0.20485680125E+04  0.20396799573E+04 0.  0.
        2    1    3    3  502    0  0.76380128595E+03  0.66144354965E+03 -0.23438295975E+03  0.10372248289E+04  0.25500000920E-02 0. -1.
       -2    1    3    3    0  502 -0.76380128595E+03 -0.66144354965E+03  0.43761413518E+02  0.10113431836E+04  0.25500000920E-02 0.  1.
</event>
<event>
 5   0  0.3460648E-04  0.1819972E+04  0.7818609E-02  0.8695750E-01
        2   -1    0    0  501    0  0.00000000000E+00  0.00000000000E+00  0.74364223736E+03  0.74364223737E+03  0.25500000920E-02 0. -1.
       -2   -1    0    0    0  501  0.00000000000E+00  0.00000000000E+00 -0.11135388571E+04  0.11135388571E+04  0.25500000920E-02 0.  1.
    10030    2    1    2    0    0  0.00000000000E+00  0.00000000000E+00 -0.36989661972E+03  0.18571810945E+04  0.18199720076E+04 0.  0.
        5    1    3    3  502    0 -0.65089486583E+03  0.55428617410E+03 -0.50301812349E+03  0.99194083076E+03  0.46999998093E+01 0.  1.
       -5    1    3    3    0  502  0.65089486583E+03 -0.55428617410E+03  0.13312150378E+03  0.86524026370E+03  0.46999998093E+01 0. -1.
</event>
<event>
 5   0  0.1696052E-04  0.2046541E+04  0.7818609E-02  0.8585165E-01
        1   -1    0    0  501    0  0.00000000000E+00  0.00000000000E+00  0.26491090701E+04  0.26491090701E+04  0.50400001928E-02 0. -1.
       -1   -1    0    0    0  501  0.00000000000E+00  0.00000000000E+00 -0.39525819612E+03  0.39525819615E+03  0.50400001928E-02 0.  1.
    10030    2    1    2    0    0  0.00000000000E+00  0.00000000000E+00  0.22538508740E+04  0.30443672663E+04  0.20465405664E+04 0.  0.
        4    1    3    3  502    0  0.90650153230E+03  0.10486760147E+03  0.18156197449E+04  0.20320479603E+04  0.12699999809E+01 0. -1.
       -4    1    3    3    0  502 -0.90650153230E+03 -0.10486760147E+03  0.43823112910E+03  0.10123193060E+04  0.12699999809E+01 0.  1.
</event>
<event>
 5   0  0.1664168E-04  0.2070690E+04  0.7818609E-02  0.8574266E-01
       -1   -1    0    0    0  501  0.00000000000E+00  0.00000000000E+00  0.12042478481E+04  0.12042478482E+04  0.50400001928E-02 0. -1.
        1   -1    0    0  501    0  0.00000000000E+00  0.00000000000E+00 -0.89013140698E+03  0.89013140699E+03  0.50400001928E-02 0.  1.
    10030    2    1    2    0    0  0.00000000000E+00  0.00000000000E+00  0.31411644117E+03  0.20943792551E+04  0.20706895774E+04 0.  0.
        5    1    3    3  502    0 -0.84713198045E+03 -0.25219666022E+03 -0.38825829134E+03  0.96540268206E+03  0.46999998093E+01 0.  1.
       -5    1    3    3    0  502  0.84713198045E+03  0.25219666022E+03  0.70237473251E+03  0.11289765731E+04  0.46999998093E+01 0. -1.
</event>
<event>
 5   0  0.1664168E-04  0.1900562E+04  0.7818609E-02  0.8654576E-01
       -1   -1    0    0    0  501  0.00000000000E+00  0.00000000000E+00  0.52326128676E+03  0.52326128679E+03  0.50400001928E-02 0.  1.
        1   -1    0    0  501    0  0.00000000000E+00  0.00000000000E+00 -0.17257808999E+04  0.17257808999E+04  0.50400001928E-02 0. -1.
    10030    2    1    2    0    0  0.00000000000E+00  0.00000000000E+00 -0.12025196131E+04  0.22490421867E+04  0.19005623740E+04 0.  0.
        5    1    3    3  502    0  0.49867888897E+03  0.69622039578E+03 -0.11391131323E+03  0.86394522459E+03  0.46999998093E+01 0.  1.
       -5    1    3    3    0  502 -0.49867888897E+03 -0.69622039578E+03 -0.10886082999E+04  0.13850969621E+04  0.46999998093E+01 0. -1.
</event>
<event>
 5   0  0.1222488E-04  0.2057626E+04  0.7818609E-02  0.8580143E-01
        3   -1    0    0  501    0  0.00000000000E+00  0.00000000000E+00  0.66626519213E+03  0.66626519979E+03  0.10100000352E+00 0. -1.
       -3   -1    0    0    0  501  0.00000000000E+00  0.00000000000E+00 -0.15886404511E+04  0.15886404543E+04  0.10100000352E+00 0.  1.
    10030    2    1    2    0    0  0.00000000000E+00  0.00000000000E+00 -0.92237525895E+03  0.22549056541E+04  0.20576256682E+04 0.  0.
        1    1    3    3  502    0  0.13533014813E+03 -0.86887021207E+03 -0.10464376695E+04  0.13668509395E+04  0.50400001928E-02 0.  1.
       -1    1    3    3    0  502 -0.13533014813E+03  0.86887021207E+03  0.12406241060E+03  0.88805471463E+03  0.50400001928E-02 0. -1.
</event>
<event>
 5   0  0.3431030E-04  0.1918282E+04  0.7818609E-02  0.8645809E-01
       -2   -1    0    0    0  501  0.00000000000E+00  0.00000000000E+00  0.72533449634E+03  0.72533449635E+03  0.25500000920E-02 0. -1.
        2   -1    0    0  501    0  0.00000000000E+00  0.00000000000E+00 -0.12683136236E+04  0.12683136236E+04  0.25500000920E-02 0.  1.
    10030    2    1    2    0    0  0.00000000000E+00  0.00000000000E+00 -0.54297912721E+03  0.19936481199E+04  0.19182821725E+04 0.  0.
        3    1    3    3  502    0 -0.36527087608E+03  0.20742952937E+03  0.62465283680E+03  0.75275560396E+03  0.10100000352E+00 0. -1.
       -3    1    3    3    0  502  0.36527087608E+03 -0.20742952937E+03 -0.11676319640E+04  0.12408925159E+04  0.10100000352E+00 0.  1.
</event>
<event>
 5   0  0.1664168E-04  0.2012699E+04  0.7818609E-02  0.8600706E-01
       -1   -1    0    0    0  501  0.00000000000E+00  0.00000000000E+00  0.16802890586E+04  0.16802890586E+04  0.50400001928E-02 0.  1.
        1   -1    0    0  501    0  0.00000000000E+00  0.00000000000E+00 -0.60271740293E+03  0.60271740295E+03  0.50400001928E-02 0. -1.
    10030    2    1    2    0    0  0.00000000000E+00  0.00000000000E+00  0.10775716557E+04  0.22830064616E+04  0.20126991406E+04 0.  0.
        5    1    3    3  502    0 -0.92371572694E+02  0.54269064895E+03 -0.41677211989E+03  0.69048297431E+03  0.46999998093E+01 0. -1.
       -5    1    3    3    0  502  0.92371572694E+02 -0.54269064895E+03  0.14943437756E+04  0.15925234873E+04  0.46999998093E+01 0.  1.
</event>
<event>
 5   0  0.1664168E-04  0.1971242E+04  0.7818609E-02  0.8620185E-01
        1   -1    0    0  501    0  0.00000000000E+00  0.00000000000E+00  0.15366957955E+04  0.15366957955E+04  0.50400001928E-02 0. -1.
       -1   -1    0    0    0  501  0.00000000000E+00  0.00000000000E+00 -0.63216697483E+03  0.63216697485E+03  0.50400001928E-02 0.  1.
    10030    2    1    2    0    0  0.00000000000E+00  0.00000000000E+00  0.90452882071E+03  0.21688627704E+04  0.19712415705E+04 0.  0.
        5    1    3    3  502    0  0.65059156610E+03 -0.28826775851E+03 -0.29805476247E+03  0.77150918200E+03  0.46999998093E+01 0.  1.
       -5    1    3    3    0  502 -0.65059156610E+03  0.28826775851E+03  0.12025835832E+04  0.13973535884E+04  0.46999998093E+01 0. -1.
</event>
<event>
 5   0  0.3431030E-04  0.1818156E+04  0.7818609E-02  0.8696703E-01
       -2   -1    0    0    0  501  0.00000000000E+00  0.00000000000E+00  0.64149648290E+03  0.64149648290E+03  0.25500000920E-02 0.  1.
        2   -1    0    0  501    0  0.00000000000E+00  0.00000000000E+00 -0.12882740152E+04  0.12882740152E+04  0.25500000920E-02 0. -1.
    10030    2    1    2    0    0  0.00000000000E+00  0.00000000000E+00 -0.64677753229E+03  0.19297704981E+04  0.18181564837E+04 0.  0.
        3    1    3    3  502    0  0.82732239515E+03  0.94668905592E+02 -0.71046641034E+03  0.10946173202E+04  0.10100000352E+00 0. -1.
       -3    1    3    3    0  502 -0.82732239515E+03 -0.94668905592E+02  0.63688878047E+02  0.83515317792E+03  0.10100000352E+00 0.  1.
</event>
<event>
 5   0  0.3387881E-04  0.1482673E+04  0.7818609E-02  0.8896057E-01
        2   -1    0    0  501    0  0.00000000000E+00  0.00000000000E+00  0.17688266411E+04  0.17688266411E+04  0.25500000920E-02 0.  1.
       -2   -1    0    0    0  501  0.00000000000E+00  0.00000000000E+00 -0.31070310843E+03  0.31070310844E+03  0.25500000920E-02 0. -1.
    10030    2    1    2    0    0  0.00000000000E+00  0.00000000000E+00  0.14581235326E+04  0.20795297495E+04  0.14826731746E+04 0.  0.
        1    1    3    3  502    0 -0.30692481691E+03 -0.59641080713E+03  0.28626479509E+03  0.72928473660E+03  0.50400001928E-02 0. -1.
       -1    1    3    3    0  502  0.30692481691E+03  0.59641080713E+03  0.11718587376E+04  0.13502450129E+04  0.50400001928E-02 0.  1.
</event>
<event>
 5   0  0.3395569E-04  0.1988413E+04  0.7818609E-02  0.8612057E-01
       -2   -1    0    0    0  501  0.00000000000E+00  0.00000000000E+00  0.11508992266E+04  0.11508992266E+04  0.25500000920E-02 0.  1.
        2   -1    0    0  501    0  0.00000000000E+00  0.00000000000E+00 -0.85884679322E+03  0.85884679323E+03  0.25500000920E-02 0. -1.
    10030    2    1    2    0    0  0.00000000000E+00  0.00000000000E+00  0.29205243337E+03  0.20097460198E+04  0.19884125428E+04 0.  0.
        4    1    3    3  502    0 -0.21366293751E+02  0.54130813696E+03 -0.69656863124E+03  0.88242874419E+03  0.12699999809E+01 0. -1.
       -4    1    3    3    0  502  0.21366293751E+02 -0.54130813696E+03  0.98862106461E+03  0.11273172756E+04  0.12699999809E+01 0.  1.
</event>
<event>
 5   0  0.1643565E-04  0.2028949E+04  0.7818609E-02  0.8593204E-01
        1   -1    0    0  501    0  0.00000000000E+00  0.00000000000E+00  0.15911429523E+04  0.15911429523E+04  0.50400001928E-02 0.  1.
       -1   -1    0    0    0  501  0.00000000000E+00  0.00000000000E+00 -0.64680457222E+03  0.64680457224E+03  0.50400001928E-02 0. -1.
    10030    2    1    2    0    0  0.00000000000E+00  0.00000000000E+00  0.94433838004E+03  0.22379475245E+04  0.20289490251E+04 0.  0.
        2    1    3    3  502    0  0.94242299894E+03  0.18175358394E+02  0.58479206849E+02  0.94441054115E+03  0.25500000920E-02 0. -1.
       -2    1    3    3    0  502 -0.94242299894E+03 -0.18175358394E+02  0.88585917319E+03  0.12935369834E+04  0.25500000920E-02 0.  1.
</event>
<event>
 5   0  0.3460648E-04  0.1975527E+04  0.7818609E-02  0.8618149E-01
        2   -1    0    0  501    0  0.00000000000E+00  0.00000000000E+00  0.93843493285E+03  0.93843493285E+03  0.25500000920E-02 0.  1.
       -2   -1    0    0    0  501  0.00000000000E+00  0.00000000000E+00 -0.10396850007E+04  0.10396850007E+04  0.25500000920E-02 0. -1.
    10030    2    1    2    0    0  0.00000000000E+00  0.00000000000E+00 -0.10125006780E+03  0.19781199335E+04  0.19755269917E+04 0.  0.
        5    1    3    3  502    0  0.50246996471E+03  0.21870553275E+03  0.77224825463E+03  0.94694119789E+03  0.46999998093E+01 0.  1.
       -5    1    3    3    0  502 -0.50246996471E+03 -0.21870553275E+03 -0.87349832243E+03  0.10311787356E+04  0.46999998093E+01 0. -1.
</event>
<event>
 5   0  0.1696052E-04  0.1217904E+04  0.7818609E-02  0.9097328E-01
        1   -1    0    0  501    0  0.00000000000E+00  0.00000000000E+00  0.13557399257E+04  0.13557399257E+04  0.50400001928E-02 0. -1.
       -1   -1    0    0    0  501  0.00000000000E+00  0.00000000000E+00 -0.27352058023E+03  0.27352058028E+03  0.50400001928E-02 0.  1.
    10030    2    1    2    0    0  0.00000000000E+00  0.00000000000E+00  0.10822193455E+04  0.16292605060E+04  0.12179043824E+04 0.  0.
        4    1    3    3  502    0 -0.40391735399E+03 -0.16010275235E+03 -0.29658309481E+02  0.43550355726E+03  0.12699999809E+01 0.  1.
       -4    1    3    3    0  502  0.40391735399E+03  0.16010275235E+03  0.11118776550E+04  0.11937569487E+04  0.12699999809E+01 0. -1.
</event>
<event>
 5   0  0.3387881E-04  0.2022304E+04  0.7818609E-02  0.8596263E-01
        2   -1    0    0  501    0  0.00000000000E+00  0.00000000000E+00  0.85492090363E+03  0.85492090363E+03  0.25500000920E-02 0.  1.
       -2   -1    0    0    0  501  0.00000000000E+00  0.00000000000E+00 -0.11959331141E+04  0.11959331141E+04  0.25500000920E-02 0. -1.
    10030    2    1    2    0    0  0.00000000000E+00  0.00000000000E+00 -0.34101221042E+03  0.20508540177E+04  0.20223038531E+04 0.  0.
        1    1    3    3  502    0 -0.61661191675E+03 -0.62103720450E+03 -0.68414518205E+03  0.11108339639E+04  0.50400001928E-02 0. -1.
       -1    1    3    3    0  502  0.61661191675E+03  0.62103720450E+03  0.34313297162E+03  0.94002005377E+03  0.50400001928E-02 0.  1.
</event>
<event>
 5   0  0.3460648E-04  0.1950980E+04  0.7818609E-02  0.8629889E-01
        2   -1    0    0  501    0  0.00000000000E+00  0.00000000000E+00  0.11871540401E+04  0.11871540401E+04  0.25500000920E-02 0.  1.
       -2   -1    0    0    0  501  0.00000000000E+00  0.00000000000E+00 -0.80156431863E+03  0.80156431863E+03  0.25500000920E-02 0. -1.
    10030    2    1    2    0    0  0.00000000000E+00  0.00000000000E+00  0.38558972147E+03  0.19887183587E+04  0.19509795686E+04 0.  0.
        5    1    3    3  502    0 -0.77536725793E+03  0.44023184249E+03  0.59612497383E+03  0.10725602707E+04  0.46999998093E+01 0.  1.
       -5    1    3    3    0  502  0.77536725793E+03 -0.44023184249E+03 -0.21053525237E+03  0.91615808805E+03  0.46999998093E+01 0. -1.
</event>
<event>
 5   0  0.3371947E-04  0.1969937E+04  0.7818609E-02  0.8620806E-01
       -2   -1    0    0    0  501  0.00000000000E+00  0.00000000000E+00  0.90700887702E+03  0.90700887702E+03  0.25500000920E-02 0.  1.
        2   -1    0    0  501    0  0.00000000000E+00  0.00000000000E+00 -0.10696292277E+04  0.10696292277E+04  0.25500000920E-02 0. -1.
    10030    2    1    2    0    0  0.00000000000E+00  0.00000000000E+00 -0.16262035066E+03  0.19766381047E+04  0.19699372626E+04 0.  0.
        2    1    3    3  502    0  0.17363959809E+03  0.73417265367E+03  0.55409183397E+03  0.93604377884E+03  0.25500000920E-02 0.  1.
       -2    1    3    3    0  502 -0.17363959809E+03 -0.73417265367E+03 -0.71671218463E+03  0.10405943259E+04  0.25500000920E-02 0. -1.
</event>
<event>
 5   0  0.1650221E-04  0.1995753E+04  0.7818609E-02  0.8608609E-01
       -1   -1    0    0    0  501  0.00000000000E+00  0.00000000000E+00  0.10231483007E+04  0.10231483007E+04  0.50400001928E-02 0. -1.
        1   -1    0    0  501    0  0.00000000000E+00  0.00000000000E+00 -0.97322867010E+03  0.97322867012E+03  0.50400001928E-02 0.  1.
    10030    2    1    2    0    0  0.00000000000E+00  0.00000000000E+00  0.49919630596E+02  0.19963769708E+04  0.19957527502E+04 0.  0.
        1    1    3    3  502    0 -0.60625436174E+03 -0.69137368148E+03  0.41265727878E+03  0.10078829041E+04  0.50400001928E-02 0. -1.
       -1    1    3    3    0  502  0.60625436174E+03  0.69137368148E+03 -0.36273764818E+03  0.98849406675E+03  0.50400001928E-02 0.  1.
</event>
<event>
 5   0  0.1696052E-04  0.2009800E+04  0.7818609E-02  0.8602052E-01
       -1   -1    0    0    0  501  0.00000000000E+00  0.00000000000E+00  0.15304765572E+04  0.15304765572E+04  0.50400001928E-02 0. -1.
        1   -1    0    0  501    0  0.00000000000E+00  0.00000000000E+00 -0.65981047343E+03  0.65981047345E+03  0.50400001928E-02 0.  1.
    10030    2    1    2    0    0  0.00000000000E+00  0.00000000000E+00  0.87066608380E+03  0.21902870307E+04  0.20098004496E+04 0.  0.
        4    1    3    3  502    0 -0.66958596367E+03 -0.31245149846E+03  0.11775614924E+04  0.13901884703E+04  0.12699999809E+01 0. -1.
       -4    1    3    3    0  502  0.66958596367E+03  0.31245149846E+03 -0.30689540861E+03  0.80009856040E+03  0.12699999809E+01 0.  1.
</event>
<event>
 5   0  0.3371947E-04  0.1714678E+04  0.7818609E-02  0.8753037E-01
        2   -1    0    0  501    0  0.00000000000E+00  0.00000000000E+00  0.12621789220E+04  0.12621789220E+04  0.25500000920E-02 0. -1.
       -2   -1    0    0    0  501  0.00000000000E+00  0.00000000000E+00 -0.58235000464E+03  0.58235000465E+03  0.25500000920E-02 0.  1.
    10030    2    1    2    0    0  0.00000000000E+00  0.00000000000E+00  0.67982891738E+03  0.18445289267E+04  0.17146776969E+04 0.  0.
        2    1    3    3  502    0  0.28364006548E+03 -0.72247051635E+03 -0.51826144610E+02  0.77788256377E+03  0.25500000920E-02 0.  1.
       -2    1    3    3    0  502 -0.28364006548E+03  0.72247051635E+03  0.73165506199E+03  0.10666463629E+04  0.25500000920E-02 0. -1.
</event>
<event>
 5   0  0.3460648E-04  0.2125981E+04  0.7818609E-02  0.8549884E-01
       -2   -1    0    0    0  501  0.00000000000E+00  0.00000000000E+00  0.58525582135E+03  0.58525582136E+03  0.25500000920E-02 0.  1.
        2   -1    0    0  501    0  0.00000000000E+00  0.00000000000E+00 -0.19306918195E+04  0.19306918195E+04  0.25500000920E-02 0. -1.
    10030    2    1    2    0    0  0.00000000000E+00  0.00000000000E+00 -0.13454359981E+04  0.25159476409E+04  0.21259808340E+04 0.  0.
        5    1    3    3  502    0  0.81014661351E+03  0.18907561194E+03  0.11035036865E+03  0.83921774068E+03  0.46999998093E+01 0.  1.
       -5    1    3    3    0  502 -0.81014661351E+03 -0.18907561194E+03 -0.14557863668E+04  0.16767299002E+04  0.46999998093E+01 0. -1.
</event>
<event>
 5   0  0.1696052E-04  0.1614749E+04  0.7818609E-02  0.8811538E-01
       -1   -1    0    0    0  501  0.00000000000E+00  0.00000000000E+00  0.51951760550E+03  0.51951760552E+03  0.50400001928E-02 0. -1.
        1   -1    0    0  501    0  0.00000000000E+00  0.00000000000E+00 -0.12547289693E+04  0.12547289693E+04  0.50400001928E-02 0.  1.
    10030    2    1    2    0    0  0.00000000000E+00  0.00000000000E+00 -0.73521136383E+03  0.17742465749E+04  0.16147492557E+04 0.  0.
        4    1    3    3  502    0 -0.54665767824E+03  0.56826037240E+02  0.28224197860E+03  0.61783975518E+03  0.12699999809E+01 0. -1.
       -4    1    3    3    0  502  0.54665767824E+03 -0.56826037240E+02 -0.10174533424E+04  0.11564068197E+04  0.12699999809E+01 0.  1.
</event>
<event>
 5   0  0.1643565E-04  0.2021635E+04  0.7818609E-02  0.8596572E-01
        1   -1    0    0  501    0  0.00000000000E+00  0.00000000000E+00  0.11019093545E+04  0.11019093545E+04  0.50400001928E-02 0. -1.
       -1   -1    0    0    0  501  0.00000000000E+00  0.00000000000E+00 -0.92725555276E+03  0.92725555277E+03  0.50400001928E-02 0.  1.
    10030    2    1    2    0    0  0.00000000000E+00  0.00000000000E+00  0.17465380177E+03  0.20291649073E+04  0.20216345542E+04 0.  0.
        2    1    3    3  502    0 -0.99117787263E+03 -0.56127883261E+01  0.28627339955E+03  0.10317061296E+04  0.25500000920E-02 0. -1.
       -2    1    3    3    0  502  0.99117787263E+03  0.56127883261E+01 -0.11161959778E+03  0.99745877769E+03  0.25500000920E-02 0.  1.
</event>
<event>
 5   0  0.3395569E-04  0.2078124E+04  0.7818609E-02  0.8570942E-01
       -2   -1    0    0    0  501  0.00000000000E+00  0.00000000000E+00  0.70935749639E+03  0.70935749639E+03  0.25500000920E-02 0. -1.
        2   -1    0    0  501    0  0.00000000000E+00  0.00000000000E+00 -0.15220104916E+04  0.15220104916E+04  0.25500000920E-02 0.  1.
    10030    2    1    2    0    0  0.00000000000E+00  0.00000000000E+00 -0.81265299519E+03  0.22313679880E+04  0.20781237228E+04 0.  0.
        4    1    3    3  502    0  0.88871896091E+03 -0.44675411747E+02 -0.98238729491E+03  0.13254824382E+04  0.12699999809E+01 0.  1.
       -4    1    3    3    0  502 -0.88871896091E+03  0.44675411747E+02  0.16973429972E+03  0.90588554977E+03  0.12699999809E+01 0. -1.
</event>
<event>
 5   0  0.1222488E-04  0.2021562E+04  0.7818609E-02  0.8596605E-01
        3   -1    0    0  501    0  0.00000000000E+00  0.00000000000E+00  0.59205485630E+03  0.59205486492E+03  0.10100000352E+00 0.  1.
       -3   -1    0    0    0  501  0.00000000000E+00  0.00000000000E+00 -0.17256485339E+04  0.17256485368E+04  0.10100000352E+00 0. -1.
    10030    2    1    2    0    0  0.00000000000E+00  0.00000000000E+00 -0.11335936776E+04  0.23177034017E+04  0.20215623742E+04 0.  0.
        4    1    3    3  502    0  0.65634655979E+03 -0.40671614161E+02 -0.14468600722E+04  0.15892925056E+04  0.12699999809E+01 0. -1.
       -4    1    3    3    0  502 -0.65634655979E+03  0.40671614161E+02  0.31326639466E+03  0.72841089618E+03  0.12699999809E+01 0.  1.
</event>
<event>
 5   0  0.3395569E-04  0.1794156E+04  0.7818609E-02  0.8709414E-01
       -2   -1    0    0    0  501  0.00000000000E+00  0.00000000000E+00  0.58317634009E+03  0.58317634010E+03  0.25500000920E-02 0. -1.
        2   -1    0    0  501    0  0.00000000000E+00  0.00000000000E+00 -0.13799404518E+04  0.13799404518E+04  0.25500000920E-02 0.  1.
    10030    2    1    2    0    0  0.00000000000E+00  0.00000000000E+00 -0.79676411172E+03  0.19631167919E+04  0.17941556479E+04 0.  0.
        4    1    3    3  502    0 -0.71453411311E+03  0.28437034761E+01 -0.99184353812E+03  0.12224247635E+04  0.12699999809E+01 0. -1.
       -4    1    3    3    0  502  0.71453411311E+03 -0.28437034761E+01  0.19507942640E+03  0.74069202841E+03  0.12699999809E+01 0.  1.
</event>
<event>
 5   0  0.3395569E-04  0.2082425E+04  0.7818609E-02  0.8569025E-01
        2   -1    0    0  501    0  0.00000000000E+00  0.00000000000E+00  0.34217950635E+04  0.34217950635E+04  0.25500000920E-02 0.  1.
       -2   -1    0    0    0  501  0.00000000000E+00  0.00000000000E+00 -0.31682875211E+03  0.31682875212E+03  0.25500000920E-02 0. -1.
    10030    2    1    2    0    0  0.00000000000E+00  0.00000000000E+00  0.31049663114E+04  0.37386238156E+04  0.20824246060E+04 0.  0.
        4    1    3    3  502    0  0.25712812338E+03 -0.63022994187E+03  0.13791391489E+03  0.69449730905E+03  0.12699999809E+01 0. -1.
       -4    1    3    3    0  502 -0.25712812338E+03  0.63022994187E+03  0.29670523965E+04  0.30441265066E+04  0.12699999809E+01 0.  1.
</event>
<event>
 5   0  0.3431030E-04  0.2008816E+04  0.7818609E-02  0.8602510E-01
        2   -1    0    0  501    0  0.00000000000E+00  0.00000000000E+00  0.69504278579E+03  0.69504278579E+03  0.25500000920E-02 0.  1.
       -2   -1    0    0    0  501  0.00000000000E+00  0.00000000000E+00 -0.14514731098E+04  0.14514731098E+04  0.25500000920E-02 0. -1.
    10030    2    1    2    0    0  0.00000000000E+00  0.00000000000E+00 -0.75643032403E+03  0.21465158956E+04  0.20088164812E+04 0.  0.
        3    1    3    3  502    0 -0.30337265282E+03 -0.95673334240E+03 -0.41907573531E+03  0.10876571781E+04  0.10100000352E+00 0. -1.
       -3    1    3    3    0  502  0.30337265282E+03  0.95673334240E+03 -0.33735458872E+03  0.10588587175E+04  0.10100000352E+00 0.  1.
</event>
<event>
 5   0  0.1643565E-04  0.1970209E+04  0.7818609E-02  0.8620677E-01
        1   -1    0    0  501    0  0.00000000000E+00  0.00000000000E+00  0.11354504839E+04  0.11354504839E+04  0.50400001928E-02 0.  1.
       -1   -1    0    0    0  501  0.00000000000E+00  0.00000000000E+00 -0.85466592939E+03  0.85466592941E+03  0.50400001928E-02 0. -1.
    10030    2    1    2    0    0  0.00000000000E+00  0.00000000000E+00  0.28078455448E+03  0.19901164133E+04  0.19702089667E+04 0.  0.
        2    1    3    3  502    0 -0.26147730260E+03 -0.75460005988E+03 -0.44218415623E+03  0.91286278168E+03  0.25500000920E-02 0. -1.
       -2    1    3    3    0  502  0.26147730260E+03  0.75460005988E+03  0.72296871071E+03  0.10772536316E+04  0.25500000920E-02 0.  1.
</event>
<event>
 5   0  0.1650221E-04  0.1996497E+04  0.7818609E-02  0.8608260E-01
       -1   -1    0    0    0  501  0.00000000000E+00  0.00000000000E+00  0.49432986300E+03  0.49432986302E+03  0.50400001928E-02 0. -1.
        1   -1    0    0  501    0  0.00000000000E+00  0.00000000000E+00 -0.20158601195E+04  0.20158601195E+04  0.50400001928E-02 0.  1.
    10030    2    1    2    0    0  0.00000000000E+00  0.00000000000E+00 -0.15215302565E+04  0.25101899825E+04  0.19964967886E+04 0.  0.
        1    1    3    3  502    0  0.83637578062E+03  0.83142606941E+02 -0.83616611338E+02  0.84464719097E+03  0.50400001928E-02 0. -1.
       -1    1    3    3    0  502 -0.83637578062E+03 -0.83142606941E+02 -0.14379136451E+04  0.16655427915E+04  0.50400001928E-02 0.  1.
</event>
<event>
 5   0  0.1664168E-04  0.2116478E+04  0.7818609E-02  0.8554019E-01
       -1   -1    0    0    0  501  0.00000000000E+00  0.00000000000E+00  0.51157401196E+03  0.51157401198E+03  0.50400001928E-02 0. -1.
        1   -1    0    0  501    0  0.00000000000E+00  0.00000000000E+00 -0.21890670285E+04  0.21890670285E+04  0.50400001928E-02 0.  1.
    10030    2    1    2    0    0  0.00000000000E+00  0.00000000000E+00 -0.16774930165E+04  0.27006410405E+04  0.21164780200E+04 0.  0.
        5    1    3    3  502    0 -0.15884604993E+03 -0.51234966188E+03  0.32523043155E+03  0.62732062552E+03  0.46999998093E+01 0. -1.
       -5    1    3    3    0  502  0.15884604993E+03  0.51234966188E+03 -0.20027234481E+04  0.20733204149E+04  0.46999998093E+01 0.  1.
</event>
<event>
 5   0  0.3387881E-04  0.1987614E+04  0.7818609E-02  0.8612434E-01
       -2   -1    0    0    0  501  0.00000000000E+00  0.00000000000E+00  0.63876284840E+03  0.63876284840E+03  0.25500000920E-02 0.  1.
        2   -1    0    0  501    0  0.00000000000E+00  0.00000000000E+00 -0.15461953972E+04  0.15461953972E+04  0.25500000920E-02 0. -1.
    10030    2    1    2    0    0  0.00000000000E+00  0.00000000000E+00 -0.90743254877E+03  0.21849582456E+04  0.19876138217E+04 0.  0.
        1    1    3    3  502    0 -0.97499793282E+02  0.88362623961E+03 -0.94206538151E+03  0.12952948406E+04  0.50400001928E-02 0. -1.
       -1    1    3    3    0  502  0.97499793282E+02 -0.88362623961E+03  0.34632832738E+02  0.88966340497E+03  0.50400001928E-02 0.  1.
</event>
<event>
 5   0  0.3460648E-04  0.1992479E+04  0.7818609E-02  0.8610145E-01
       -2   -1    0    0    0  501  0.00000000000E+00  0.00000000000E+00  0.12965991068E+04  0.12965991068E+04  0.25500000920E-02 0.  1.
        2   -1    0    0  501    0  0.00000000000E+00  0.00000000000E+00 -0.76545889652E+03  0.76545889652E+03  0.25500000920E-02 0. -1.
    10030    2    1    2    0    0  0.00000000000E+00  0.00000000000E+00  0.53114021026E+03  0.20620580033E+04  0.19924791808E+04 0.  0.
        5    1    3    3  502    0  0.99033675438E+03 -0.29849086506E+02  0.37318880646E+03  0.10587491820E+04  0.46999998093E+01 0.  1.
       -5    1    3    3    0  502 -0.99033675438E+03  0.29849086506E+02  0.15795140380E+03  0.10033088213E+04  0.46999998093E+01 0. -1.
</event>
<event>
 5   0  0.3395569E-04  0.1931646E+04  0.7818609E-02  0.8639262E-01
        2   -1    0    0  501    0  0.00000000000E+00  0.00000000000E+00  0.10882784136E+04  0.10882784136E+04  0.25500000920E-02 0.  1.
       -2   -1    0    0    0  501  0.00000000000E+00  0.00000000000E+00 -0.85714684251E+03  0.85714684251E+03  0.25500000920E-02 0. -1.
    10030    2    1    2    0    0  0.00000000000E+00  0.00000000000E+00  0.23113157105E+03  0.19454252561E+04  0.19316463506E+04 0.  0.
        4    1    3    3  502    0  0.66063254127E+03  0.40842237790E+03 -0.46260992819E+03  0.90402088024E+03  0.12699999809E+01 0. -1.
       -4    1    3    3    0  502 -0.66063254127E+03 -0.40842237790E+03  0.69374149924E+03  0.10414043758E+04  0.12699999809E+01 0.  1.
</event>
<event>
 5   0  0.1664168E-04  0.1725180E+04  0.7818609E-02  0.8747132E-01
        1   -1    0    0  501    0  0.00000000000E+00  0.00000000000E+00  0.10508766735E+04  0.10508766735E+04  0.50400001928E-02 0.  1.
       -1   -1    0    0    0  501  0.00000000000E+00  0.00000000000E+00 -0.70803854701E+03  0.70803854703E+03  0.50400001928E-02 0. -1.
    10030    2    1    2    0    0  0.00000000000E+00  0.00000000000E+00  0.34283812651E+03  0.17589152206E+04  0.17251796347E+04 0.  0.
        5    1    3    3  502    0  0.76426239861E+03  0.39664858236E+03  0.22352610756E+03  0.88961403012E+03  0.46999998093E+01 0.  1.
       -5    1    3    3    0  502 -0.76426239861E+03 -0.39664858236E+03  0.11931201895E+03  0.86930119043E+03  0.46999998093E+01 0. -1.
</event>
<event>
 5   0  0.1650221E-04  0.2046430E+04  0.7818609E-02  0.8585216E-01
       -1   -1    0    0    0  501  0.00000000000E+00  0.00000000000E+00  0.11162302256E+04  0.11162302256E+04  0.50400001928E-02 0. -1.
        1   -1    0    0  501    0  0.00000000000E+00  0.00000000000E+00 -0.93795076164E+03  0.93795076165E+03  0.50400001928E-02 0.  1.
    10030    2    1    2    0    0  0.00000000000E+00  0.00000000000E+00  0.17827946397E+03  0.20541809873E+04  0.20464300528E+04 0.  0.
        1    1    3    3  502    0  0.75240127965E+03  0.40524681148E+03 -0.47569600860E+03  0.97806919820E+03  0.50400001928E-02 0.  1.
       -1    1    3    3    0  502 -0.75240127965E+03 -0.40524681148E+03  0.65397547257E+03  0.10761117891E+04  0.50400001928E-02 0. -1.
</event>
<event>
 5   0  0.1643565E-04  0.1969618E+04  0.7818609E-02  0.8620959E-01
        1   -1    0    0  501    0  0.00000000000E+00  0.00000000000E+00  0.13044232468E+04  0.13044232468E+04  0.50400001928E-02 0. -1.
       -1   -1    0    0    0  501  0.00000000000E+00  0.00000000000E+00 -0.74350752106E+03  0.74350752108E+03  0.50400001928E-02 0.  1.
    10030    2    1    2    0    0  0.00000000000E+00  0.00000000000E+00  0.56091572574E+03  0.20479307679E+04  0.19696177240E+04 0.  0.
        2    1    3    3  502    0 -0.48351326054E+02 -0.97020618336E+03  0.44879186769E+03  0.10700710395E+04  0.25500000920E-02 0. -1.
       -2    1    3    3    0  502  0.48351326054E+02  0.97020618336E+03  0.11212385806E+03  0.97785972845E+03  0.25500000920E-02 0.  1.
</event>
<event>
 5   0  0.1643565E-04  0.2005290E+04  0.7818609E-02  0.8604152E-01
       -1   -1    0    0    0  501  0.00000000000E+00  0.00000000000E+00  0.92762615924E+03  0.92762615925E+03  0.50400001928E-02 0. -1.
        1   -1    0    0  501    0  0.00000000000E+00  0.00000000000E+00 -0.10837303010E+04  0.10837303010E+04  0.50400001928E-02 0.  1.
    10030    2    1    2    0    0  0.00000000000E+00  0.00000000000E+00 -0.15610414174E+03  0.20113564602E+04  0.20052895819E+04 0.  0.
        2    1    3    3  502    0  0.39475967001E+03  0.28124206035E+03  0.80230735152E+03  0.93735232431E+03  0.25500000920E-02 0. -1.
       -2    1    3    3    0  502 -0.39475967001E+03 -0.28124206035E+03 -0.95841149326E+03  0.10740041359E+04  0.25500000920E-02 0.  1.
</event>
<event>
 5   0  0.1664168E-04  0.1279657E+04  0.7818609E-02  0.9045854E-01
        1   -1    0    0  501    0  0.00000000000E+00  0.00000000000E+00  0.15257259596E+04  0.15257259596E+04  0.50400001928E-02 0.  1.
       -1   -1    0    0    0  501  0.00000000000E+00  0.00000000000E+00 -0.26831867256E+03  0.26831867261E+03  0.50400001928E-02 0. -1.
    10030    2    1    2    0    0  0.00000000000E+00  0.00000000000E+00  0.12574072870E+04  0.17940446322E+04  0.12796573982E+04 0.  0.
        5    1    3    3  502    0 -0.31849876558E+03  0.49721896682E+03  0.97408582113E+03  0.11390932541E+04  0.46999998093E+01 0.  1.
       -5    1    3    3    0  502  0.31849876558E+03 -0.49721896682E+03  0.28332146591E+03  0.65495137810E+03  0.46999998093E+01 0. -1.
</event>
<event>
 5   0  0.3387881E-04  0.1922221E+04  0.7818609E-02  0.8643874E-01
        2   -1    0    0  501    0  0.00000000000E+00  0.00000000000E+00  0.12541857693E+04  0.12541857693E+04  0.25500000920E-02 0. -1.
       -2   -1    0    0    0  501  0.00000000000E+00  0.00000000000E+00 -0.73652067520E+03  0.73652067521E+03  0.25500000920E-02 0.  1.
    10030    2    1    2    0    0  0.00000000000E+00  0.00000000000E+00  0.51766509412E+03  0.19907064445E+04  0.19222213709E+04 0.  0.
        1    1    3    3  502    0 -0.44773102064E+03 -0.84684759220E+03  0.17781598729E+03  0.97428560321E+03  0.50400001928E-02 0. -1.
       -1    1    3    3    0  502  0.44773102064E+03  0.84684759220E+03  0.33984910683E+03  0.10164208413E+04  0.50400001928E-02 0.  1.
</event>
<event>
 5   0  0.1643565E-04  0.1833050E+04  0.7818609E-02  0.8688918E-01
       -1   -1    0    0    0  501  0.00000000000E+00  0.00000000000E+00  0.62194634231E+03  0.62194634233E+03  0.50400001928E-02 0.  1.
        1   -1    0    0  501    0  0.00000000000E+00  0.00000000000E+00 -0.13506284729E+04  0.13506284730E+04  0.50400001928E-02 0. -1.
    10030    2    1    2    0    0  0.00000000000E+00  0.00000000000E+00 -0.72868213064E+03  0.19725748153E+04  0.18330503960E+04 0.  0.
        2    1    3    3  502    0  0.13824302873E+03 -0.70259799504E+03  0.25127191996E+03  0.75887591567E+03  0.25500000920E-02 0.  1.
       -2    1    3    3    0  502 -0.13824302873E+03  0.70259799504E+03 -0.97995405060E+03  0.12136988996E+04  0.25500000920E-02 0. -1.
</event>
<event>
 5   0  0.1650221E-04  0.1963048E+04  0.7818609E-02  0.8624095E-01
        1   -1    0    0  501    0  0.00000000000E+00  0.00000000000E+00  0.13874134462E+04  0.13874134462E+04  0.50400001928E-02 0.  1.
       -1   -1    0    0    0  501  0.00000000000E+00  0.00000000000E+00 -0.69437782734E+03  0.69437782736E+03  0.50400001928E-02 0. -1.
    10030    2    1    2    0    0  0.00000000000E+00  0.00000000000E+00  0.69303561882E+03  0.20817912735E+04  0.19630477675E+04 0.  0.
        1    1    3    3  502    0 -0.43848096148E+03 -0.59468453774E+03  0.10317235156E+04  0.12690030204E+04  0.50400001928E-02 0.  1.
       -1    1    3    3    0  502  0.43848096148E+03  0.59468453774E+03 -0.33868789681E+03  0.81278825316E+03  0.50400001928E-02 0. -1.
</event>
<event>
 5   0  0.3395569E-04  0.2003974E+04  0.7818609E-02  0.8604765E-01
        2   -1    0    0  501    0  0.00000000000E+00  0.00000000000E+00  0.16571906902E+04  0.16571906902E+04  0.25500000920E-02 0. -1.
       -2   -1    0    0    0  501  0.00000000000E+00  0.00000000000E+00 -0.60583104407E+03  0.60583104408E+03  0.25500000920E-02 0.  1.
    10030    2    1    2    0    0  0.00000000000E+00  0.00000000000E+00  0.10513596461E+04  0.22630217343E+04  0.20039736187E+04 0.  0.
        4    1    3    3  502    0  0.32563720863E+03  0.79253295853E+03 -0.60917569917E+02  0.85898815197E+03  0.12699999809E+01 0.  1.
       -4    1    3    3    0  502 -0.32563720863E+03 -0.79253295853E+03  0.11122772160E+04  0.14040335823E+04  0.12699999809E+01 0. -1.
</event>
<event>
 5   0  0.1664168E-04  0.2034003E+04  0.7818609E-02  0.8590886E-01
       -1   -1    0    0    0  501  0.00000000000E+00  0.00000000000E+00  0.99949886516E+03  0.99949886517E+03  0.50400001928E-02 0.  1.
        1   -1    0    0  501    0  0.00000000000E+00  0.00000000000E+00 -0.10348111327E+04  0.10348111327E+04  0.50400001928E-02 0. -1.
    10030    2    1    2    0    0  0.00000000000E+00  0.00000000000E+00 -0.35312267569E+02  0.20343099979E+04  0.20340034934E+04 0.  0.
        5    1    3    3  502    0  0.13965139953E+03 -0.26987414253E+03 -0.98833620421E+03  0.10340044046E+04  0.46999998093E+01 0. -1.
       -5    1    3    3    0  502 -0.13965139953E+03  0.26987414253E+03  0.95302393664E+03  0.10003055933E+04  0.46999998093E+01 0.  1.
</event>
<event>
 5   0  0.1664168E-04  0.1929064E+04  0.7818609E-02  0.8640523E-01
        1   -1    0    0  501    0  0.00000000000E+00  0.00000000000E+00  0.21534116132E+04  0.21534116132E+04  0.50400001928E-02 0.  1.
       -1   -1    0    0    0  501  0.00000000000E+00  0.00000000000E+00 -0.43202250419E+03  0.43202250422E+03  0.50400001928E-02 0. -1.
    10030    2    1    2    0    0  0.00000000000E+00  0.00000000000E+00  0.17213891090E+04  0.25854341174E+04  0.19290643097E+04 0.  0.
        5    1    3    3  502    0  0.75421963687E+03  0.22443379967E+03  0.11317167876E+03  0.79501428286E+03  0.46999998093E+01 0. -1.
       -5    1    3    3    0  502 -0.75421963687E+03 -0.22443379967E+03  0.16082174302E+04  0.17904198345E+04  0.46999998093E+01 0.  1.
</event>
<event>
 5   0  0.1643565E-04  0.1959344E+04  0.7818609E-02  0.8625868E-01
       -1   -1    0    0    0  501  0.00000000000E+00  0.00000000000E+00  0.90082695057E+03  0.90082695058E+03  0.50400001928E-02 0.  1.
        1   -1    0    0  501    0  0.00000000000E+00  0.00000000000E+00 -0.10654179892E+04  0.10654179892E+04  0.50400001928E-02 0. -1.
    10030    2    1    2    0    0  0.00000000000E+00  0.00000000000E+00 -0.16459103860E+03  0.19662449398E+04  0.19593440109E+04 0.  0.
        2    1    3    3  502    0 -0.76377771097E+03 -0.33489798619E+03  0.43356185583E+03  0.93994092142E+03  0.25500000920E-02 0.  1.
       -2    1    3    3    0  502  0.76377771097E+03  0.33489798619E+03 -0.59815289442E+03  0.10263040183E+04  0.25500000920E-02 0. -1.
</event>
<event>
 5   0  0.3387881E-04  0.2082534E+04  0.7818609E-02  0.8568977E-01
       -2   -1    0    0    0  501  0.00000000000E+00  0.00000000000E+00  0.69592914657E+03  0.69592914657E+03  0.25500000920E-02 0. -1.
        2   -1    0    0  501    0  0.00000000000E+00  0.00000000000E+00 -0.15579697683E+04  0.15579697683E+04  0.25500000920E-02 0.  1.
    10030    2    1    2    0    0  0.00000000000E+00  0.00000000000E+00 -0.86204062171E+03  0.22538989149E+04  0.20825336216E+04 0.  0.
        1    1    3    3  502    0 -0.60267821588E+03 -0.25670350181E+03 -0.13070169929E+04  0.14619887617E+04  0.50400001928E-02 0.  1.
       -1    1    3    3    0  502  0.60267821588E+03  0.25670350181E+03  0.44497637115E+03  0.79191015314E+03  0.50400001928E-02 0. -1.
</event>
<event>
 5   0  0.1696052E-04  0.1926205E+04  0.7818609E-02  0.8641921E-01
       -1   -1    0    0    0  501  0.00000000000E+00  0.00000000000E+00  0.99983282444E+03  0.99983282445E+03  0.50400001928E-02 0. -1.
        1   -1    0    0  501    0  0.00000000000E+00  0.00000000000E+00 -0.92772190858E+03  0.92772190859E+03  0.50400001928E-02 0.  1.
    10030    2    1    2    0    0  0.00000000000E+00  0.00000000000E+00  0.72110915864E+02  0.19275547330E+04  0.19262054056E+04 0.  0.
        4    1    3    3  502    0  0.64246561586E+03  0.55850456812E+03  0.48678832333E+03  0.98063953867E+03  0.12699999809E+01 0. -1.
       -4    1    3    3    0  502 -0.64246561586E+03 -0.55850456812E+03 -0.41467740746E+03  0.94691519437E+03  0.12699999809E+01 0.  1.
</event>
<event>
 5   0  0.3387881E-04  0.2002044E+04  0.7818609E-02  0.8605666E-01
        2   -1    0    0  501    0  0.00000000000E+00  0.00000000000E+00  0.12672199556E+04  0.12672199556E+04  0.25500000920E-02 0.  1.
       -2   -1    0    0    0  501  0.00000000000E+00  0.00000000000E+00 -0.79074278023E+03  0.79074278024E+03  0.25500000920E-02 0. -1.
    10030    2    1    2    0    0  0.00000000000E+00  0.00000000000E+00  0.47647717541E+03  0.20579627359E+04  0.20020439864E+04 0.  0.
        1    1    3    3  502    0  0.35185653447E+03 -0.24219842961E+03  0.11688322255E+04  0.12444403849E+04  0.50400001928E-02 0.  1.
       -1    1    3    3    0  502 -0.35185653447E+03  0.24219842961E+03 -0.69235505009E+03  0.81352235099E+03  0.50400001928E-02 0. -1.
</event>
<event>
 5   0  0.3431030E-04  0.1995738E+04  0.7818609E-02  0.8608616E-01
       -2   -1    0    0    0  501  0.00000000000E+00  0.00000000000E+00  0.85026363286E+03  0.85026363286E+03  0.25500000920E-02 0. -1.
        2   -1    0    0  501    0  0.00000000000E+00  0.00000000000E+00 -0.11710989051E+04  0.11710989051E+04  0.25500000920E-02 0.  1.
    10030    2    1    2    0    0  0.00000000000E+00  0.00000000000E+00 -0.32083527223E+03  0.20213625380E+04  0.19957382689E+04 0.  0.
        3    1    3    3  502    0  0.93097409813E+03  0.13114786281E+03 -0.49912162117E+03  0.10644411380E+04  0.10100000352E+00 0.  1.
       -3    1    3    3    0  502 -0.93097409813E+03 -0.13114786281E+03  0.17828634894E+03  0.95692139997E+03  0.10100000352E+00 0. -1.
</event>
<event>
 5   0  0.3431030E-04  0.2006954E+04  0.7818609E-02  0.8603376E-01
       -2   -1    0    0    0  501  0.00000000000E+00  0.00000000000E+00  0.10219036118E+04  0.10219036118E+04  0.25500000920E-02 0.  1.
        2   -1    0    0  501    0  0.00000000000E+00  0.00000000000E+00 -0.98538279096E+03  0.98538279097E+03  0.25500000920E-02 0. -1.
    10030    2    1    2    0    0  0.00000000000E+00  0.00000000000E+00  0.36520820820E+02  0.20072864028E+04  0.20069541431E+04 0.  0.
        3    1    3    3  502    0 -0.97090630115E+03 -0.19618847888E+03  0.17896450821E+03  0.10065670719E+04  0.10100000352E+00 0.  1.
       -3    1    3    3    0  502  0.97090630115E+03  0.19618847888E+03 -0.14244368739E+03  0.10007193308E+04  0.10100000352E+00 0. -1.
</event>
<event>
 5   0  0.1650221E-04  0.1986306E+04  0.7818609E-02  0.8613050E-01
       -1   -1    0    0    0  501  0.00000000000E+00  0.00000000000E+00  0.73895974853E+03  0.73895974854E+03  0.50400001928E-02 0. -1.
        1   -1    0    0  501    0  0.00000000000E+00  0.00000000000E+00 -0.13347860255E+04  0.13347860256E+04  0.50400001928E-02 0.  1.
    10030    2    1    2    0    0  0.00000000000E+00  0.00000000000E+00 -0.59582627702E+03  0.20737457741E+04  0.19863062662E+04 0.  0.
        1    1    3    3  502    0 -0.31456983656E+03 -0.33316751966E+02 -0.12807851555E+04  0.13192705570E+04  0.50400001928E-02 0.  1.
       -1    1    3    3    0  502  0.31456983656E+03  0.33316751966E+02  0.68495887845E+03  0.75447521711E+03  0.50400001928E-02 0. -1.
</event>
<event>
 5   0  0.1664168E-04  0.2033575E+04  0.7818609E-02  0.8591082E-01
        1   -1    0    0  501    0  0.00000000000E+00  0.00000000000E+00  0.12694821702E+04  0.12694821703E+04  0.50400001928E-02 0.  1.
       -1   -1    0    0    0  501  0.00000000000E+00  0.00000000000E+00 -0.81439220230E+03  0.81439220231E+03  0.50400001928E-02 0. -1.
    10030    2    1    2    0    0  0.00000000000E+00  0.00000000000E+00  0.45508996795E+03  0.20838743726E+04  0.20335745675E+04 0.  0.
        5    1    3    3  502    0  0.29627084976E+03  0.78649255032E+03 -0.35887490488E+03  0.91387101687E+03  0.46999998093E+01 0. -1.
       -5    1    3    3    0  502 -0.29627084976E+03 -0.78649255032E+03  0.81396487283E+03  0.11700033557E+04  0.46999998093E+01 0.  1.
</event>
<event>
 5   0  0.3431030E-04  0.1980340E+04  0.7818609E-02  0.8615868E-01
       -2   -1    0    0    0  501  0.00000000000E+00  0.00000000000E+00  0.38156953259E+03  0.38156953260E+03  0.25500000920E-02 0.  1.
        2   -1    0    0  501    0  0.00000000000E+00  0.00000000000E+00 -0.25694833696E+04  0.25694833696E+04  0.25500000920E-02 0. -1.
    10030    2    1    2    0    0  0.00000000000E+00  0.00000000000E+00 -0.21879138370E+04  0.29510529022E+04  0.19803399389E+04 0.  0.
        3    1    3    3  502    0  0.59125985163E+03 -0.59097595032E+03 -0.30318668379E+03  0.88924853750E+03  0.10100000352E+00 0.  1.
       -3    1    3    3    0  502 -0.59125985163E+03  0.59097595032E+03 -0.18847271532E+04  0.20618043647E+04  0.10100000352E+00 0. -1.
</event>
<event>
 5   0  0.1664168E-04  0.2031203E+04  0.7818609E-02  0.8592169E-01
        1   -1    0    0  501    0  0.00000000000E+00  0.00000000000E+00  0.18000662216E+04  0.18000662216E+04  0.50400001928E-02 0. -1.
       -1   -1    0    0    0  501  0.00000000000E+00  0.00000000000E+00 -0.57300489864E+03  0.57300489866E+03  0.50400001928E-02 0.  1.
    10030    2    1    2    0    0  0.00000000000E+00  0.00000000000E+00  0.12270613229E+04  0.23730711202E+04  0.20312033506E+04 0.  0.
        5    1    3    3  502    0 -0.46334709786E+03 -0.26956908486E+02  0.16688998618E+04  0.17322430680E+04  0.46999998093E+01 0. -1.
       -5    1    3    3    0  502  0.46334709786E+03  0.26956908486E+02 -0.44183853890E+03  0.64082805218E+03  0.46999998093E+01 0.  1.
</event>
<event>
 5   0  0.3371947E-04  0.2017167E+04  0.7818609E-02  0.8598636E-01
        2   -1    0    0  501    0  0.00000000000E+00  0.00000000000E+00  0.18568781551E+04  0.18568781551E+04  0.25500000920E-02 0. -1.
       -2   -1    0    0    0  501  0.00000000000E+00  0.00000000000E+00 -0.54782308341E+03  0.54782308342E+03  0.25500000920E-02 0.  1.
    10030    2    1    2    0    0  0.00000000000E+00  0.00000000000E+00  0.13090550717E+04  0.24047012385E+04  0.20171670396E+04 0.  0.
        2    1    3    3  502    0  0.65674508273E+03  0.27486152166E+03  0.15061853454E+04  0.16659703642E+04  0.25500000920E-02 0. -1.
       -2    1    3    3    0  502 -0.65674508273E+03 -0.27486152166E+03 -0.19713027373E+03  0.73873087428E+03  0.25500000920E-02 0.  1.
</event>
<event>
 5   0  0.1708578E-04  0.2043942E+04  0.7818609E-02  0.8586347E-01
       -1   -1    0    0    0  501  0.00000000000E+00  0.00000000000E+00  0.14900544596E+04  0.14900544596E+04  0.50400001928E-02 0. -1.
        1   -1    0    0  501    0  0.00000000000E+00  0.00000000000E+00 -0.70093062187E+03  0.70093062189E+03  0.50400001928E-02 0.  1.
    10030    2    1    2    0    0  0.00000000000E+00  0.00000000000E+00  0.78912383770E+03  0.21909850815E+04  0.20439420726E+04 0.  0.
        3    1    3    3  502    0 -0.46973110384E+03 -0.50963593955E+03 -0.41049972152E+03  0.80553468725E+03  0.10100000352E+00 0.  1.
       -3    1    3    3    0  502  0.46973110384E+03  0.50963593955E+03  0.11996235592E+04  0.13854503942E+04  0.10100000352E+00 0. -1.
</event>
<event>
 5   0  0.1650221E-04  0.2020699E+04  0.7818609E-02  0.8597004E-01
       -1   -1    0    0    0  501  0.00000000000E+00  0.00000000000E+00  0.85102012271E+03  0.85102012273E+03  0.50400001928E-02 0. -1.
        1   -1    0    0  501    0  0.00000000000E+00  0.00000000000E+00 -0.11995089720E+04  0.11995089720E+04  0.50400001928E-02 0.  1.
    10030    2    1    2    0    0  0.00000000000E+00  0.00000000000E+00 -0.34848884928E+03  0.20505290947E+04  0.20206991588E+04 0.  0.
        1    1    3    3  502    0  0.25446949605E+03 -0.95093646371E+03 -0.40513658556E+03  0.10645048311E+04  0.50400001928E-02 0.  1.
       -1    1    3    3    0  502 -0.25446949605E+03  0.95093646371E+03  0.56647736286E+02  0.98602426364E+03  0.50400001928E-02 0. -1.
</event>
<event>
 5   0  0.1696052E-04  0.2004305E+04  0.7818609E-02  0.8604611E-01
        1   -1    0    0  501    0  0.00000000000E+00  0.00000000000E+00  0.61708284311E+03  0.61708284313E+03  0.50400001928E-02 0.  1.
       -1   -1    0    0    0  501  0.00000000000E+00  0.00000000000E+00 -0.16275116434E+04  0.16275116434E+04  0.50400001928E-02 0. -1.
    10030    2    1    2    0    0  0.00000000000E+00  0.00000000000E+00 -0.10104288003E+04  0.22445944865E+04  0.20043048791E+04 0.  0.
        4    1    3    3  502    0 -0.27102297917E+03 -0.23526393599E+03  0.54264618276E+03  0.65059132132E+03  0.12699999809E+01 0.  1.
       -4    1    3    3    0  502  0.27102297917E+03  0.23526393599E+03 -0.15530749831E+04  0.15940031652E+04  0.12699999809E+01 0. -1.
</event>
<event>
 5   0  0.3395569E-04  0.2029143E+04  0.7818609E-02  0.8593115E-01
        2   -1    0    0  501    0  0.00000000000E+00  0.00000000000E+00  0.18356491383E+04  0.18356491383E+04  0.25500000920E-02 0. -1.
       -2   -1    0    0    0  501  0.00000000000E+00  0.00000000000E+00 -0.56075804362E+03  0.56075804362E+03  0.25500000920E-02 0.  1.
    10030    2    1    2    0    0  0.00000000000E+00  0.00000000000E+00  0.12748910947E+04  0.23964071820E+04  0.20291426954E+04 0.  0.
        4    1    3    3  502    0  0.32123223702E+03 -0.22993739713E+02  0.17736795992E+04  0.18026812795E+04  0.12699999809E+01 0. -1.
       -4    1    3    3    0  502 -0.32123223702E+03  0.22993739713E+02 -0.49878850444E+03  0.59372590244E+03  0.12699999809E+01 0.  1.
</event>
<event>
 5   0  0.1708578E-04  0.1998164E+04  0.7818609E-02  0.8607480E-01
       -1   -1    0    0    0  501  0.00000000000E+00  0.00000000000E+00  0.82650084727E+03  0.82650084728E+03  0.50400001928E-02 0.  1.
        1   -1    0    0  501    0  0.00000000000E+00  0.00000000000E+00 -0.12076996695E+04  0.12076996695E+04  0.50400001928E-02 0. -1.
    10030    2    1    2    0    0  0.00000000000E+00  0.00000000000E+00 -0.38119882223E+03  0.20342005168E+04  0.19981639573E+04 0.  0.
        3    1    3    3  502    0  0.41982178654E+03  0.86751549641E+03  0.77457727103E+02  0.96686771517E+03  0.10100000352E+00 0.  1.
       -3    1    3    3    0  502 -0.41982178654E+03 -0.86751549641E+03 -0.45865654933E+03  0.10673328016E+04  0.10100000352E+00 0. -1.
</event>
<event>
 5   0  0.1664168E-04  0.2022358E+04  0.7818609E-02  0.8596238E-01
        1   -1    0    0  501    0  0.00000000000E+00  0.00000000000E+00  0.15371043703E+04  0.15371043703E+04  0.50400001928E-02 0.  1.
       -1   -1    0    0    0  501  0.00000000000E+00  0.00000000000E+00 -0.66520091646E+03  0.66520091648E+03  0.50400001928E-02 0. -1.
    10030    2    1    2    0    0  0.00000000000E+00  0.00000000000E+00  0.87190345382E+03  0.22023052868E+04  0.20223582629E+04 0.  0.
        5    1    3    3  502    0  0.59596162693E+03 -0.70439421033E+03  0.88642539430E+03  0.12794973755E+04  0.46999998093E+01 0.  1.
       -5    1    3    3    0  502 -0.59596162693E+03  0.70439421033E+03 -0.14521940471E+02  0.92280791125E+03  0.46999998093E+01 0. -1.
</event>
<event>
 5   0  0.1696052E-04  0.1969544E+04  0.7818609E-02  0.8620994E-01
        1   -1    0    0  501    0  0.00000000000E+00  0.00000000000E+00  0.13130983925E+04  0.13130983926E+04  0.50400001928E-02 0.  1.
       -1   -1    0    0    0  501  0.00000000000E+00  0.00000000000E+00 -0.73854007465E+03  0.73854007467E+03  0.50400001928E-02 0. -1.
    10030    2    1    2    0    0  0.00000000000E+00  0.00000000000E+00  0.57455831789E+03  0.20516384672E+04  0.19695438912E+04 0.  0.
        4    1    3    3  502    0 -0.35820693615E+02  0.46400467370E+03 -0.61676084374E+03  0.77264416815E+03  0.12699999809E+01 0. -1.
       -4    1    3    3    0  502  0.35820693615E+02 -0.46400467370E+03  0.11913191616E+04  0.12789942991E+04  0.12699999809E+01 0.  1.
</event>
<event>
 5   0  0.3371947E-04  0.1941227E+04  0.7818609E-02  0.8634603E-01
       -2   -1    0    0    0  501  0.00000000000E+00  0.00000000000E+00  0.70101281610E+03  0.70101281610E+03  0.25500000920E-02 0.  1.
        2   -1    0    0  501    0  0.00000000000E+00  0.00000000000E+00 -0.13438987167E+04  0.13438987167E+04  0.25500000920E-02 0. -1.
    10030    2    1    2    0    0  0.00000000000E+00  0.00000000000E+00 -0.64288590065E+03  0.20449115329E+04  0.19412266472E+04 0.  0.
        2    1    3    3  502    0  0.60434938052E+02  0.88348363182E+03  0.97140256815E+02  0.89086022413E+03  0.25500000920E-02 0. -1.
       -2    1    3    3    0  502 -0.60434938052E+02 -0.88348363182E+03 -0.74002615746E+03  0.11540513087E+04  0.25500000920E-02 0.  1.
</event>
<event>
 5   0  0.3395569E-04  0.2058779E+04  0.7818609E-02  0.8579622E-01
        2   -1    0    0  501    0  0.00000000000E+00  0.00000000000E+00  0.26968888043E+04  0.26968888043E+04  0.25500000920E-02 0.  1.
       -2   -1    0    0    0  501  0.00000000000E+00  0.00000000000E+00 -0.39291296535E+03  0.39291296536E+03  0.25500000920E-02 0. -1.
    10030    2    1    2    0    0  0.00000000000E+00  0.00000000000E+00  0.23039758389E+04  0.30898017696E+04  0.20587788393E+04 0.  0.
        4    1    3    3  502    0  0.63412729798E+03 -0.75786826081E+03  0.71919897229E+03  0.12221826809E+04  0.12699999809E+01 0.  1.
       -4    1    3    3    0  502 -0.63412729798E+03  0.75786826081E+03  0.15847768666E+04  0.18676190888E+04  0.12699999809E+01 0. -1.
</event>
<event>
 5   0  0.3395569E-04  0.1909475E+04  0.7818609E-02  0.8650155E-01
       -2   -1    0    0    0  501  0.00000000000E+00  0.00000000000E+00  0.91425246633E+03  0.91425246634E+03  0.25500000920E-02 0. -1.
        2   -1    0    0  501    0  0.00000000000E+00  0.00000000000E+00 -0.99701499446E+03  0.99701499447E+03  0.25500000920E-02 0.  1.
    10030    2    1    2    0    0  0.00000000000E+00  0.00000000000E+00 -0.82762528132E+02  0.19112674608E+04  0.19094747107E+04 0.  0.
        4    1    3    3  502    0 -0.73902855107E+03 -0.46477227154E+02  0.56184405527E+03  0.92951260739E+03  0.12699999809E+01 0. -1.
       -4    1    3    3    0  502  0.73902855107E+03  0.46477227154E+02 -0.64460658340E+03  0.98175485342E+03  0.12699999809E+01 0.  1.
</event>
<event>
 5   0  0.1696052E-04  0.1992305E+04  0.7818609E-02  0.8610227E-01
       -1   -1    0    0    0  501  0.00000000000E+00  0.00000000000E+00  0.70623579494E+03  0.70623579496E+03  0.50400001928E-02 0. -1.
        1   -1    0    0  501    0  0.00000000000E+00  0.00000000000E+00 -0.14050829171E+04  0.14050829171E+04  0.50400001928E-02 0.  1.
    10030    2    1    2    0    0  0.00000000000E+00  0.00000000000E+00 -0.69884712213E+03  0.21113187120E+04  0.19923050479E+04 0.  0.
        4    1    3    3  502    0  0.49805536852E+03  0.32291137703E+03  0.49835738143E+03  0.77504361171E+03  0.12699999809E+01 0. -1.
       -4    1    3    3    0  502 -0.49805536852E+03 -0.32291137703E+03 -0.11972045036E+04  0.13362751003E+04  0.12699999809E+01 0.  1.
</event>
<event>
 5   0  0.3371947E-04  0.1632743E+04  0.7818609E-02  0.8800681E-01
        2   -1    0    0  501    0  0.00000000000E+00  0.00000000000E+00  0.90573491924E+03  0.90573491925E+03  0.25500000920E-02 0.  1.
       -2   -1    0    0    0  501  0.00000000000E+00  0.00000000000E+00 -0.73582525404E+03  0.73582525404E+03  0.25500000920E-02 0. -1.
    10030    2    1    2    0    0  0.00000000000E+00  0.00000000000E+00  0.16990966521E+03  0.16415601733E+04  0.16327432463E+04 0.  0.
        2    1    3    3  502    0  0.26330304701E+03 -0.85709810997E+02 -0.68716883069E+03  0.74086143653E+03  0.25500000920E-02 0. -1.
       -2    1    3    3    0  502 -0.26330304701E+03  0.85709810997E+02  0.85707849589E+03  0.90069873676E+03  0.25500000920E-02 0.  1.
</event>
<event>
 5   0  0.3395569E-04  0.2000479E+04  0.7818609E-02  0.8606397E-01
        2   -1    0    0  501    0  0.00000000000E+00  0.00000000000E+00  0.19010440241E+04  0.19010440241E+04  0.25500000920E-02 0. -1.
       -2   -1    0    0    0  501  0.00000000000E+00  0.00000000000E+00 -0.52627870962E+03  0.52627870962E+03  0.25500000920E-02 0.  1.
    10030    2    1    2    0    0  0.00000000000E+00  0.00000000000E+00  0.13747653145E+04  0.24273227338E+04  0.20004789386E+04 0.  0.
        4    1    3    3  502    0 -0.42362353229E+03  0.90566009759E+03  0.72170783367E+03  0.12331021529E+04  0.12699999809E+01 0.  1.
       -4    1    3    3    0  502  0.42362353229E+03 -0.90566009759E+03  0.65305748084E+03  0.11942205808E+04  0.12699999809E+01 0. -1.
</event>
<event>
 5   0  0.3460648E-04  0.2070828E+04  0.7818609E-02  0.8574204E-01
        2   -1    0    0  501    0  0.00000000000E+00  0.00000000000E+00  0.17265927398E+04  0.17265927398E+04  0.25500000920E-02 0.  1.
       -2   -1    0    0    0  501  0.00000000000E+00  0.00000000000E+00 -0.62092363972E+03  0.62092363972E+03  0.25500000920E-02 0. -1.
    10030    2    1    2    0    0  0.00000000000E+00  0.00000000000E+00  0.11056691001E+04  0.23475163795E+04  0.20708280936E+04 0.  0.
        5    1    3    3  502    0  0.55261487002E+03 -0.51350211555E+03 -0.25114565401E+03  0.79508732022E+03  0.46999998093E+01 0. -1.
       -5    1    3    3    0  502 -0.55261487002E+03  0.51350211555E+03  0.13568147541E+04  0.15524290593E+04  0.46999998093E+01 0.  1.
</event>
<event>
 5   0  0.1222488E-04  0.1983327E+04  0.7818609E-02  0.8614456E-01
       -4   -1    0    0    0  501  0.00000000000E+00  0.00000000000E+00  0.13175664598E+04  0.13175670719E+04  0.12699999809E+01 0.  1.
        4   -1    0    0  501    0  0.00000000000E+00  0.00000000000E+00 -0.74637169117E+03  0.74637277166E+03  0.12699999809E+01 0. -1.
    10030    2    1    2    0    0  0.00000000000E+00  0.00000000000E+00  0.57119476868E+03  0.20639398436E+04  0.19833265526E+04 0.  0.
        5    1    3    3  502    0  0.14087000867E+03  0.60813285143E+03  0.10874375565E+04  0.12538789629E+04  0.46999998093E+01 0.  1.
       -5    1    3    3    0  502 -0.14087000867E+03 -0.60813285143E+03 -0.51624278786E+03  0.81006088064E+03  0.46999998093E+01 0. -1.
</event>
<event>
 5   0  0.3460648E-04  0.1998848E+04  0.7818609E-02  0.8607159E-01
        2   -1    0    0  501    0  0.00000000000E+00  0.00000000000E+00  0.21003809631E+04  0.21003809631E+04  0.25500000920E-02 0. -1.
       -2   -1    0    0    0  501  0.00000000000E+00  0.00000000000E+00 -0.47555591173E+03  0.47555591173E+03  0.25500000920E-02 0.  1.
    10030    2    1    2    0    0  0.00000000000E+00  0.00000000000E+00  0.16248250513E+04  0.25759368748E+04  0.19988482522E+04 0.  0.
        5    1    3    3  502    0  0.66014851081E+03  0.74351103760E+03  0.94270476228E+03  0.13701529397E+04  0.46999998093E+01 0.  1.
       -5    1    3    3    0  502 -0.66014851081E+03 -0.74351103760E+03  0.68212028905E+03  0.12057839351E+04  0.46999998093E+01 0. -1.
</event>
<event>
 5   0  0.1222488E-04  0.1466757E+04  0.7818609E-02  0.8906865E-01
        3   -1    0    0  501    0  0.00000000000E+00  0.00000000000E+00  0.12718839056E+04  0.12718839096E+04  0.10100000352E+00 0.  1.
       -3   -1    0    0    0  501  0.00000000000E+00  0.00000000000E+00 -0.42287183604E+03  0.42287184810E+03  0.10100000352E+00 0. -1.
    10030    2    1    2    0    0  0.00000000000E+00  0.00000000000E+00  0.84901206952E+03  0.16947557577E+04  0.14667568251E+04 0.  0.
        2    1    3    3  502    0  0.43764460683E+03 -0.54798658398E+03  0.67237992942E+03  0.97155384185E+03  0.25500000920E-02 0.  1.
       -2    1    3    3    0  502 -0.43764460683E+03  0.54798658398E+03  0.17663214010E+03  0.72320191581E+03  0.25500000920E-02 0. -1.
</event>
<event>
 5   0  0.1643565E-04  0.1841392E+04  0.7818609E-02  0.8684592E-01
       -1   -1    0    0    0  501  0.00000000000E+00  0.00000000000E+00  0.77779259932E+03  0.77779259934E+03  0.50400001928E-02 0. -1.
        1   -1    0    0  501    0  0.00000000000E+00  0.00000000000E+00 -0.10898551875E+04  0.10898551875E+04  0.50400001928E-02 0.  1.
    10030    2    1    2    0    0  0.00000000000E+00  0.00000000000E+00 -0.31206258820E+03  0.18676477869E+04  0.18413921899E+04 0.  0.
        2    1    3    3  502    0  0.61975082462E+02  0.80564541251E+03 -0.60365826214E+03  0.10086172411E+04  0.25500000920E-02 0.  1.
       -2    1    3    3    0  502 -0.61975082462E+02 -0.80564541251E+03  0.29159567393E+03  0.85903054580E+03  0.25500000920E-02 0. -1.
</event>
<event>
 5   0  0.3387881E-04  0.1935189E+04  0.7818609E-02  0.8637536E-01
        2   -1    0    0  501    0  0.00000000000E+00  0.00000000000E+00  0.19129464557E+04  0.19129464557E+04  0.25500000920E-02 0. -1.
       -2   -1    0    0    0  501  0.00000000000E+00  0.00000000000E+00 -0.48942246020E+03  0.48942246021E+03  0.25500000920E-02 0.  1.
    10030    2    1    2    0    0  0.00000000000E+00  0.00000000000E+00  0.14235239955E+04  0.24023689159E+04  0.19351888389E+04 0.  0.
        1    1    3    3  502    0 -0.85363345657E+03 -0.15805030480E+03  0.18132983683E+03  0.88687681601E+03  0.50400001928E-02 0.  1.
       -1    1    3    3    0  502  0.85363345657E+03  0.15805030480E+03  0.12421941587E+04  0.15154920999E+04  0.50400001928E-02 0. -1.
</event>
<event>
 5   0  0.1696052E-04  0.1201622E+04  0.7818609E-02  0.9111438E-01
        1   -1    0    0  501    0  0.00000000000E+00  0.00000000000E+00  0.12732696146E+04  0.12732696146E+04  0.50400001928E-02 0.  1.
       -1   -1    0    0    0  501  0.00000000000E+00  0.00000000000E+00 -0.28350134908E+03  0.28350134912E+03  0.50400001928E-02 0. -1.
    10030    2    1    2    0    0  0.00000000000E+00  0.00000000000E+00  0.98976826550E+03  0.15567709637E+04  0.12016216601E+04 0.  0.
        4    1    3    3  502    0 -0.31090966387E+02  0.53919164368E+03  0.83588376050E+03  0.99518719384E+03  0.12699999809E+01 0.  1.
       -4    1    3    3    0  502  0.31090966387E+02 -0.53919164368E+03  0.15388450500E+03  0.56158376987E+03  0.12699999809E+01 0. -1.
</event>
<event>
 5   0  0.3431030E-04  0.1152715E+04  0.7818609E-02  0.9155282E-01
       -2   -1    0    0    0  501  0.00000000000E+00  0.00000000000E+00  0.30008492148E+03  0.30008492149E+03  0.25500000920E-02 0.  1.
        2   -1    0    0  501    0  0.00000000000E+00  0.00000000000E+00 -0.11069804883E+04  0.11069804883E+04  0.25500000920E-02 0. -1.
    10030    2    1    2    0    0  0.00000000000E+00  0.00000000000E+00 -0.80689556680E+03  0.14070654098E+04  0.11527153212E+04 0.  0.
        3    1    3    3  502    0 -0.53710872430E+02  0.15183156411E+03  0.27206037231E+03  0.31615587621E+03  0.10100000352E+00 0.  1.
       -3    1    3    3    0  502  0.53710872430E+02 -0.15183156411E+03 -0.10789559391E+04  0.10909095336E+04  0.10100000352E+00 0. -1.
</event>
<event>
 5   0  0.1664168E-04  0.2069515E+04  0.7818609E-02  0.8574793E-01
        1   -1    0    0  501    0  0.00000000000E+00  0.00000000000E+00  0.12688806835E+04  0.12688806835E+04  0.50400001928E-02 0.  1.
       -1   -1    0    0    0  501  0.00000000000E+00  0.00000000000E+00 -0.84383260434E+03  0.84383260436E+03  0.50400001928E-02 0. -1.
    10030    2    1    2    0    0  0.00000000000E+00  0.00000000000E+00  0.42504807915E+03  0.21127132879E+04  0.20695148144E+04 0.  0.
        5    1    3    3  502    0 -0.57686211098E+03  0.10804635123E+02 -0.66436677137E+03  0.87993859565E+03  0.46999998093E+01 0. -1.
       -5    1    3    3    0  502  0.57686211098E+03 -0.10804635123E+02  0.10894148505E+04  0.12327746922E+04  0.46999998093E+01 0.  1.
</event>
<event>
 5   0  0.1708578E-04  0.1982870E+04  0.7818609E-02  0.8614671E-01
        1   -1    0    0  501    0  0.00000000000E+00  0.00000000000E+00  0.18516250932E+04  0.18516250932E+04  0.50400001928E-02 0.  1.
       -1   -1    0    0    0  501  0.00000000000E+00  0.00000000000E+00 -0.53085455113E+03  0.53085455116E+03  0.50400001928E-02 0. -1.
    10030    2    1    2    0    0  0.00000000000E+00  0.00000000000E+00  0.13207705421E+04  0.23824796444E+04  0.19828702507E+04 0.  0.
        3    1    3    3  502    0 -0.86501721630E+03 -0.30917830824E+02  0.79494032367E+02  0.86921229175E+03  0.10100000352E+00 0. -1.
       -3    1    3    3    0  502  0.86501721630E+03  0.30917830824E+02  0.12412765097E+04  0.15132673526E+04  0.10100000352E+00 0.  1.
</event>
<event>
 5   0  0.1222488E-04  0.1958105E+04  0.7818609E-02  0.8626462E-01
       -3   -1    0    0    0  501  0.00000000000E+00  0.00000000000E+00  0.67509500896E+03  0.67509501651E+03  0.10100000352E+00 0. -1.
        3   -1    0    0  501    0  0.00000000000E+00  0.00000000000E+00 -0.14198649523E+04  0.14198649559E+04  0.10100000352E+00 0.  1.
    10030    2    1    2    0    0  0.00000000000E+00  0.00000000000E+00 -0.74476994339E+03  0.20949599724E+04  0.19581049557E+04 0.  0.
        3    1    3    3  502    0  0.71924087901E+03  0.62109764359E+02 -0.10799535970E+04  0.12990245751E+04  0.10100000352E+00 0.  1.
       -3    1    3    3    0  502 -0.71924087901E+03 -0.62109764359E+02  0.33518365362E+03  0.79593539733E+03  0.10100000352E+00 0. -1.
</event>
<event>
 5   0  0.3371947E-04  0.2009458E+04  0.7818609E-02  0.8602211E-01
        2   -1    0    0  501    0  0.00000000000E+00  0.00000000000E+00  0.12213883783E+04  0.12213883783E+04  0.25500000920E-02 0.  1.
       -2   -1    0    0    0  501  0.00000000000E+00  0.00000000000E+00 -0.82650274545E+03  0.82650274546E+03  0.25500000920E-02 0. -1.
    10030    2    1    2    0    0  0.00000000000E+00  0.00000000000E+00  0.39488563289E+03  0.20478911238E+04  0.20094584822E+04 0.  0.
        2    1    3    3  502    0 -0.71647399400E+03  0.47862493177E+03  0.72410911918E+03  0.11255002558E+04  0.25500000920E-02 0.  1.
       -2    1    3    3    0  502  0.71647399400E+03 -0.47862493177E+03 -0.32922348629E+03  0.92239086797E+03  0.25500000920E-02 0. -1.
</event>
<event>
 5   0  0.3460648E-04  0.1968632E+04  0.7818609E-02  0.8621428E-01
       -2   -1    0    0    0  501  0.00000000000E+00  0.00000000000E+00  0.96271820163E+03  0.96271820164E+03  0.25500000920E-02 0. -1.
        2   -1    0    0  501    0  0.00000000000E+00  0.00000000000E+00 -0.10063983595E+04  0.10063983595E+04  0.25500000920E-02 0.  1.
    10030    2    1    2    0    0  0.00000000000E+00  0.00000000000E+00 -0.43680157903E+02  0.19691165612E+04  0.19686320315E+04 0.  0.
        5    1    3    3  502    0 -0.83930421380E+03  0.50306140785E+03 -0.12841950919E+03  0.98692249124E+03  0.46999998093E+01 0.  1.
       -5    1    3    3    0  502  0.83930421380E+03 -0.50306140785E+03  0.84739351287E+02  0.98219406994E+03  0.46999998093E+01 0. -1.
</event>
<event>
 5   0  0.1696052E-04  0.1907688E+04  0.7818609E-02  0.8651039E-01
        1   -1    0    0  501    0  0.00000000000E+00  0.00000000000E+00  0.18743069436E+04  0.18743069437E+04  0.50400001928E-02 0. -1.
       -1   -1    0    0    0  501  0.00000000000E+00  0.00000000000E+00 -0.48541586854E+03  0.48541586857E+03  0.50400001928E-02 0.  1.
    10030    2    1    2    0    0  0.00000000000E+00  0.00000000000E+00  0.13888910751E+04  0.23597228122E+04  0.19076879546E+04 0.  0.
        4    1    3    3  502    0 -0.36497252542E+03  0.53217150579E+03  0.15633170191E+04  0.16912637793E+04  0.12699999809E+01 0. -1.
       -4    1    3    3    0  502  0.36497252542E+03 -0.53217150579E+03 -0.17442594402E+03  0.66845903295E+03  0.12699999809E+01 0.  1.
</event>
<event>
 5   0  0.3395569E-04  0.1999775E+04  0.7818609E-02  0.8606726E-01
       -2   -1    0    0    0  501  0.00000000000E+00  0.00000000000E+00  0.82734882425E+03  0.82734882425E+03  0.25500000920E-02 0.  1.
        2   -1    0    0  501    0  0.00000000000E+00  0.00000000000E+00 -0.12084084354E+04  0.12084084354E+04  0.25500000920E-02 0. -1.
    10030    2    1    2    0    0  0.00000000000E+00  0.00000000000E+00 -0.38105961117E+03  0.20357572597E+04  0.19997752856E+04 0.  0.
        4    1    3    3  502    0  0.56866400841E+03  0.33519499209E+03  0.57400886650E+03  0.87476981481E+03  0.12699999809E+01 0.  1.
       -4    1    3    3    0  502 -0.56866400841E+03 -0.33519499209E+03 -0.95506847767E+03  0.11609874449E+04  0.12699999809E+01 0. -1.
</event>
<event>
 5   0  0.1664168E-04  0.2014530E+04  0.7818609E-02  0.8599857E-01
        1   -1    0    0  501    0  0.00000000000E+00  0.00000000000E+00  0.80709442942E+03  0.80709442944E+03  0.50400001928E-02 0.  1.
       -1   -1    0    0    0  501  0.00000000000E+00  0.00000000000E+00 -0.12570810840E+04  0.12570810840E+04  0.50400001928E-02 0. -1.
    10030    2    1    2    0    0  0.00000000000E+00  0.00000000000E+00 -0.44998665453E+03  0.20641755134E+04  0.20145303574E+04 0.  0.
        5    1    3    3  502    0 -0.45437005368E+03 -0.56369621788E+03  0.49251727290E+03  0.87567169980E+03  0.46999998093E+01 0.  1.
       -5    1    3    3    0  502  0.45437005368E+03  0.56369621788E+03 -0.94250392743E+03  0.11885038136E+04  0.46999998093E+01 0. -1.
</event>
<event>
 5   0  0.3371947E-04  0.2021426E+04  0.7818609E-02  0.8596668E-01
       -2   -1    0    0    0  501  0.00000000000E+00  0.00000000000E+00  0.10557201263E+04  0.10557201263E+04  0.25500000920E-02 0. -1.
        2   -1    0    0  501    0  0.00000000000E+00  0.00000000000E+00 -0.96762486412E+03  0.96762486413E+03  0.25500000920E-02 0.  1.
    10030    2    1    2    0    0  0.00000000000E+00  0.00000000000E+00  0.88095262222E+02  0.20233449905E+04  0.20214262725E+04 0.  0.
        2    1    3    3  502    0  0.24406654872E+03  0.34478809426E+03 -0.87502527450E+03  0.97165659632E+03  0.25500000920E-02 0.  1.
       -2    1    3    3    0  502 -0.24406654872E+03 -0.34478809426E+03  0.96312053672E+03  0.10516883942E+04  0.25500000920E-02 0. -1.
</event>
<event>
 5   0  0.3431030E-04  0.1402683E+04  0.7818609E-02  0.8951878E-01
       -2   -1    0    0    0  501  0.00000000000E+00  0.00000000000E+00  0.39436117975E+03  0.39436117976E+03  0.25500000920E-02 0. -1.
        2   -1    0    0  501    0  0.00000000000E+00  0.00000000000E+00 -0.12472835679E+04  0.12472835679E+04  0.25500000920E-02 0.  1.
    10030    2    1    2    0    0  0.00000000000E+00  0.00000000000E+00 -0.85292238812E+03  0.16416447476E+04  0.14026834558E+04 0.  0.
        3    1    3    3  502    0  0.16168198794E+03  0.12854650366E+03 -0.12108774817E+04  0.12283686559E+04  0.10100000352E+00 0.  1.
       -3    1    3    3    0  502 -0.16168198794E+03 -0.12854650366E+03  0.35795509357E+03  0.41327609178E+03  0.10100000352E+00 0. -1.
</event>
<event>
 5   0  0.1643565E-04  0.2009693E+04  0.7818609E-02  0.8602102E-01
       -1   -1    0    0    0  501  0.00000000000E+00  0.00000000000E+00  0.82184623879E+03  0.82184623880E+03  0.50400001928E-02 0. -1.
        1   -1    0    0  501    0  0.00000000000E+00  0.00000000000E+00 -0.12285956092E+04  0.12285956093E+04  0.50400001928E-02 0.  1.
    10030    2    1    2    0    0  0.00000000000E+00  0.00000000000E+00 -0.40674937045E+03  0.20504418481E+04  0.20096931910E+04 0.  0.
        2    1    3    3  502    0  0.51235216292E+03  0.72393554433E+03 -0.68531800780E+03  0.11208247780E+04  0.25500000920E-02 0.  1.
       -2    1    3    3    0  502 -0.51235216292E+03 -0.72393554433E+03  0.27856863734E+03  0.92961707004E+03  0.25500000920E-02 0. -1.
</event>
<event>
 5   0  0.1664168E-04  0.1986130E+04  0.7818609E-02  0.8613133E-01
        1   -1    0    0  501    0  0.00000000000E+00  0.00000000000E+00  0.68468696242E+03  0.68468696244E+03  0.50400001928E-02 0.  1.
       -1   -1    0    0    0  501  0.00000000000E+00  0.00000000000E+00 -0.14403338908E+04  0.14403338908E+04  0.50400001928E-02 0. -1.
    10030    2    1    2    0    0  0.00000000000E+00  0.00000000000E+00 -0.75564692836E+03  0.21250208532E+04  0.19861297406E+04 0.  0.
        5    1    3    3  502    0 -0.90015858267E+03 -0.33436086573E+03 -0.10699556806E+03  0.96620536330E+03  0.46999998093E+01 0.  1.
       -5    1    3    3    0  502  0.90015858267E+03  0.33436086573E+03 -0.64865136030E+03  0.11588154899E+04  0.46999998093E+01 0. -1.
</event>
<event>
 5   0  0.3431030E-04  0.1920526E+04  0.7818609E-02  0.8644706E-01
        2   -1    0    0  501    0  0.00000000000E+00  0.00000000000E+00  0.94337020094E+03  0.94337020094E+03  0.25500000920E-02 0. -1.
       -2   -1    0    0    0  501  0.00000000000E+00  0.00000000000E+00 -0.97745850464E+03  0.97745850464E+03  0.25500000920E-02 0.  1.
    10030    2    1    2    0    0  0.00000000000E+00  0.00000000000E+00 -0.34088303698E+02  0.19208287056E+04  0.19205262049E+04 0.  0.
        3    1    3    3  502    0  0.13986067466E+03  0.49176142815E+03  0.79592759369E+03  0.94598681551E+03  0.10100000352E+00 0. -1.
       -3    1    3    3    0  502 -0.13986067466E+03 -0.49176142815E+03 -0.83001589739E+03  0.97484189007E+03  0.10100000352E+00 0.  1.
</event>
<event>
 5   0  0.3431030E-04  0.2015758E+04  0.7818609E-02  0.8599289E-01
       -2   -1    0    0    0  501  0.00000000000E+00  0.00000000000E+00  0.17397561616E+04  0.17397561616E+04  0.25500000920E-02 0.  1.
        2   -1    0    0  501    0  0.00000000000E+00  0.00000000000E+00 -0.58388641255E+03  0.58388641256E+03  0.25500000920E-02 0. -1.
    10030    2    1    2    0    0  0.00000000000E+00  0.00000000000E+00  0.11558697491E+04  0.23236425742E+04  0.20157579060E+04 0.  0.
        3    1    3    3  502    0  0.74968936039E+03 -0.54369083511E+02  0.13519283147E+04  0.15468355803E+04  0.10100000352E+00 0.  1.
       -3    1    3    3    0  502 -0.74968936039E+03  0.54369083511E+02 -0.19605856562E+03  0.77680699384E+03  0.10100000352E+00 0. -1.
</event>
<event>
 5   0  0.3371947E-04  0.1708997E+04  0.7818609E-02  0.8756249E-01
       -2   -1    0    0    0  501  0.00000000000E+00  0.00000000000E+00  0.59340314153E+03  0.59340314154E+03  0.25500000920E-02 0. -1.
        2   -1    0    0  501    0  0.00000000000E+00  0.00000000000E+00 -0.12304753718E+04  0.12304753718E+04  0.25500000920E-02 0.  1.
    10030    2    1    2    0    0  0.00000000000E+00  0.00000000000E+00 -0.63707223031E+03  0.18238785134E+04  0.17089973098E+04 0.  0.
        2    1    3    3  502    0 -0.84712692140E+03  0.53323284337E+02 -0.42364825509E+03  0.94865443532E+03  0.25500000920E-02 0.  1.
       -2    1    3    3    0  502  0.84712692140E+03 -0.53323284337E+02 -0.21342397522E+03  0.87522407806E+03  0.25500000920E-02 0. -1.
</event>
<event>
 5   0  0.1650221E-04  0.2081135E+04  0.7818609E-02  0.8569599E-01
        1   -1    0    0  501    0  0.00000000000E+00  0.00000000000E+00  0.15237838652E+04  0.15237838652E+04  0.50400001928E-02 0.  1.
       -1   -1    0    0    0  501  0.00000000000E+00  0.00000000000E+00 -0.71058712290E+03  0.71058712292E+03  0.50400001928E-02 0. -1.
    10030    2    1    2    0    0  0.00000000000E+00  0.00000000000E+00  0.81319674228E+03  0.22343709881E+04  0.20811354523E+04 0.  0.
        1    1    3    3  502    0 -0.24917453767E+03 -0.35287599222E+03  0.14229653985E+04  0.14870911006E+04  0.50400001928E-02 0.  1.
       -1    1    3    3    0  502  0.24917453767E+03  0.35287599222E+03 -0.60976865624E+03  0.74727988750E+03  0.50400001928E-02 0. -1.
</event>
<event>
 5   0  0.3395569E-04  0.2014363E+04  0.7818609E-02  0.8599935E-01
       -2   -1    0    0    0  501  0.00000000000E+00  0.00000000000E+00  0.82740994972E+03  0.82740994972E+03  0.25500000920E-02 0.  1.
        2   -1    0    0  501    0  0.00000000000E+00  0.00000000000E+00 -0.12260120514E+04  0.12260120514E+04  0.25500000920E-02 0. -1.
    10030    2    1    2    0    0  0.00000000000E+00  0.00000000000E+00 -0.39860210165E+03  0.20534220011E+04  0.20143629959E+04 0.  0.
        4    1    3    3  502    0  0.43337469042E+03  0.86677252556E+03  0.80437026295E+02  0.97240935900E+03  0.12699999809E+01 0.  1.
       -4    1    3    3    0  502 -0.43337469042E+03 -0.86677252556E+03 -0.47903912794E+03  0.10810126421E+04  0.12699999809E+01 0. -1.
</event>
<event>
 5   0  0.3431030E-04  0.1526373E+04  0.7818609E-02  0.8867102E-01
        2   -1    0    0  501    0  0.00000000000E+00  0.00000000000E+00  0.88774511546E+03  0.88774511546E+03  0.25500000920E-02 0.  1.
       -2   -1    0    0    0  501  0.00000000000E+00  0.00000000000E+00 -0.65610425881E+03  0.65610425881E+03  0.25500000920E-02 0. -1.
    10030    2    1    2    0    0  0.00000000000E+00  0.00000000000E+00  0.23164085665E+03  0.15438493743E+04  0.15263726295E+04 0.  0.
        3    1    3    3  502    0  0.52828599217E+03 -0.41088195966E+03  0.48682165031E+03  0.82759011818E+03  0.10100000352E+00 0.  1.
       -3    1    3    3    0  502 -0.52828599217E+03  0.41088195966E+03 -0.25518079367E+03  0.71625925610E+03  0.10100000352E+00 0. -1.
</event>
<event>
 5   0  0.1643565E-04  0.2016730E+04  0.7818609E-02  0.8598839E-01
       -1   -1    0    0    0  501  0.00000000000E+00  0.00000000000E+00  0.51502334993E+03  0.51502334996E+03  0.50400001928E-02 0. -1.
        1   -1    0    0  501    0  0.00000000000E+00  0.00000000000E+00 -0.19742791422E+04  0.19742791422E+04  0.50400001928E-02 0.  1.
    10030    2    1    2    0    0  0.00000000000E+00  0.00000000000E+00 -0.14592557923E+04  0.24893024922E+04  0.20167298853E+04 0.  0.
        2    1    3    3  502    0 -0.29963216104E+03  0.94083398231E+03 -0.98214292756E+03  0.13926782630E+04  0.25500000920E-02 0.  1.
       -2    1    3    3    0  502  0.29963216104E+03 -0.94083398231E+03 -0.47711286470E+03  0.10966242291E+04  0.25500000920E-02 0. -1.
</event>
<event>
 5   0  0.1650221E-04  0.2517532E+04  0.7818609E-02  0.8396766E-01
        1   -1    0    0  501    0  0.00000000000E+00  0.00000000000E+00  0.19735069752E+04  0.19735069752E+04  0.50400001928E-02 0. -1.
       -1   -1    0    0    0  501  0.00000000000E+00  0.00000000000E+00 -0.80288149424E+03  0.80288149425E+03  0.50400001928E-02 0.  1.
    10030    2    1    2    0    0  0.00000000000E+00  0.00000000000E+00  0.11706254810E+04  0.27763884695E+04  0.25175323070E+04 0.  0.
        1    1    3    3  502    0 -0.42390900490E+03  0.11852384361E+04  0.58332941352E+03  0.13873579926E+04  0.50400001928E-02 0.  1.
       -1    1    3    3    0  502  0.42390900490E+03 -0.11852384361E+04  0.58729606746E+03  0.13890304769E+04  0.50400001928E-02 0. -1.
</event>
<event>
 5   0  0.3387881E-04  0.2023584E+04  0.7818609E-02  0.8595673E-01
       -2   -1    0    0    0  501  0.00000000000E+00  0.00000000000E+00  0.74676373965E+03  0.74676373966E+03  0.25500000920E-02 0.  1.
        2   -1    0    0  501    0  0.00000000000E+00  0.00000000000E+00 -0.13708794799E+04  0.13708794799E+04  0.25500000920E-02 0. -1.
    10030    2    1    2    0    0  0.00000000000E+00  0.00000000000E+00 -0.62411574026E+03  0.21176432196E+04  0.20235840354E+04 0.  0.
        1    1    3    3  502    0 -0.47642711670E+03  0.65420895579E+03  0.32341660437E+03  0.87153339315E+03  0.50400001928E-02 0.  1.
       -1    1    3    3    0  502  0.47642711670E+03 -0.65420895579E+03 -0.94753234463E+03  0.12461098264E+04  0.50400001928E-02 0. -1.
</event>
<event>
 5   0  0.1664168E-04  0.2004662E+04  0.7818609E-02  0.8604444E-01
        1   -1    0    0  501    0  0.00000000000E+00  0.00000000000E+00  0.11856112968E+04  0.11856112968E+04  0.50400001928E-02 0. -1.
       -1   -1    0    0    0  501  0.00000000000E+00  0.00000000000E+00 -0.84738354539E+03  0.84738354541E+03  0.50400001928E-02 0.  1.
    10030    2    1    2    0    0  0.00000000000E+00  0.00000000000E+00  0.33822775141E+03  0.20329948422E+04  0.20046620704E+04 0.  0.
        5    1    3    3  502    0 -0.55298283471E+03 -0.56019432837E+02  0.10149991811E+04  0.11572266934E+04  0.46999998093E+01 0. -1.
       -5    1    3    3    0  502  0.55298283471E+03  0.56019432837E+02 -0.67677142971E+03  0.87576814878E+03  0.46999998093E+01 0.  1.
</event>
<event>
 5   0  0.1650221E-04  0.1055135E+04  0.7818609E-02  0.9250058E-01
        1   -1    0    0  501    0  0.00000000000E+00  0.00000000000E+00  0.66251250050E+03  0.66251250052E+03  0.50400001928E-02 0. -1.
       -1   -1    0    0    0  501  0.00000000000E+00  0.00000000000E+00 -0.42010935038E+03  0.42010935041E+03  0.50400001928E-02 0.  1.
    10030    2    1    2    0    0  0.00000000000E+00  0.00000000000E+00  0.24240315012E+03  0.10826218509E+04  0.10551354344E+04 0.  0.
        1    1    3    3  502    0  0.15324173575E+02 -0.49224412625E+03 -0.72905269948E+02  0.49784966459E+03  0.50400001928E-02 0.  1.
       -1    1    3    3    0  502 -0.15324173575E+02  0.49224412625E+03  0.31530842007E+03  0.58477218634E+03  0.50400001928E-02 0. -1.
</event>
<event>
 5   0  0.3431030E-04  0.1978338E+04  0.7818609E-02  0.8616816E-01
       -2   -1    0    0    0  501  0.00000000000E+00  0.00000000000E+00  0.90615295852E+03  0.90615295852E+03  0.25500000920E-02 0. -1.
        2   -1    0    0  501    0  0.00000000000E+00  0.00000000000E+00 -0.10797906371E+04  0.10797906371E+04  0.25500000920E-02 0.  1.
    10030    2    1    2    0    0  0.00000000000E+00  0.00000000000E+00 -0.17363767862E+03  0.19859435957E+04  0.19783381717E+04 0.  0.
        3    1    3    3  502    0  0.20214055419E+03 -0.15439724362E+03  0.87276193308E+03  0.90907244735E+03  0.10100000352E+00 0. -1.
       -3    1    3    3    0  502 -0.20214055419E+03  0.15439724362E+03 -0.10463996117E+04  0.10768711483E+04  0.10100000352E+00 0.  1.
</event>
<event>
 5   0  0.1650221E-04  0.2068551E+04  0.7818609E-02  0.8575225E-01
       -1   -1    0    0    0  501  0.00000000000E+00  0.00000000000E+00  0.17028046510E+04  0.17028046510E+04  0.50400001928E-02 0. -1.
        1   -1    0    0  501    0  0.00000000000E+00  0.00000000000E+00 -0.62821425476E+03  0.62821425478E+03  0.50400001928E-02 0.  1.
    10030    2    1    2    0    0  0.00000000000E+00  0.00000000000E+00  0.10745903962E+04  0.23310189058E+04  0.20685513335E+04 0.  0.
        1    1    3    3  502    0 -0.53595411707E+02 -0.24378579908E+03  0.16683541600E+04  0.16869231124E+04  0.50400001928E-02 0. -1.
       -1    1    3    3    0  502  0.53595411707E+02  0.24378579908E+03 -0.59376376371E+03  0.64409579343E+03  0.50400001928E-02 0.  1.
</event>
<event>
 5   0  0.1650221E-04  0.1963928E+04  0.7818609E-02  0.8623674E-01
        1   -1    0    0  501    0  0.00000000000E+00  0.00000000000E+00  0.81569514961E+03  0.81569514963E+03  0.50400001928E-02 0.  1.
       -1   -1    0    0    0  501  0.00000000000E+00  0.00000000000E+00 -0.11821243951E+04  0.11821243951E+04  0.50400001928E-02 0. -1.
    10030    2    1    2    0    0  0.00000000000E+00  0.00000000000E+00 -0.36642924548E+03  0.19978195447E+04  0.19639278351E+04 0.  0.
        1    1    3    3  502    0  0.16125038464E+03  0.92984964710E+03  0.92818580287E+02  0.94828125660E+03  0.50400001928E-02 0.  1.
       -1    1    3    3    0  502 -0.16125038464E+03 -0.92984964710E+03 -0.45924782577E+03  0.10495382881E+04  0.50400001928E-02 0. -1.
</event>
<event>
 5   0  0.1643565E-04  0.1986369E+04  0.7818609E-02  0.8613020E-01
       -1   -1    0    0    0  501  0.00000000000E+00  0.00000000000E+00  0.95783115676E+03  0.95783115677E+03  0.50400001928E-02 0. -1.
        1   -1    0    0  501    0  0.00000000000E+00  0.00000000000E+00 -0.10298423596E+04  0.10298423597E+04  0.50400001928E-02 0.  1.
    10030    2    1    2    0    0  0.00000000000E+00  0.00000000000E+00 -0.72011202878E+02  0.19876735164E+04  0.19863686452E+04 0.  0.
        2    1    3    3  502    0  0.42101127608E+03  0.84939288505E+03  0.26032459684E+03  0.98310104440E+03  0.25500000920E-02 0. -1.
       -2    1    3    3    0  502 -0.42101127608E+03 -0.84939288505E+03 -0.33233579972E+03  0.10045724720E+04  0.25500000920E-02 0.  1.
</event>
<event>
 5   0  0.3387881E-04  0.2016177E+04  0.7818609E-02  0.8599094E-01
       -2   -1    0    0    0  501  0.00000000000E+00  0.00000000000E+00  0.10120365668E+04  0.10120365668E+04  0.25500000920E-02 0. -1.
        2   -1    0    0  501    0  0.00000000000E+00  0.00000000000E+00 -0.10041562245E+04  0.10041562245E+04  0.25500000920E-02 0.  1.
    10030    2    1    2    0    0  0.00000000000E+00  0.00000000000E+00  0.78803423405E+01  0.20161927913E+04  0.20161773909E+04 0.  0.
        1    1    3    3  502    0  0.30739678077E+03  0.82175000833E+02  0.96050239317E+03  0.10118351441E+04  0.50400001928E-02 0. -1.
       -1    1    3    3    0  502 -0.30739678077E+03 -0.82175000833E+02 -0.95262205083E+03  0.10043576471E+04  0.50400001928E-02 0.  1.
</event>
<event>
 5   0  0.1222488E-04  0.2185050E+04  0.7818609E-02  0.8524676E-01
        3   -1    0    0  501    0  0.00000000000E+00  0.00000000000E+00  0.10370071806E+04  0.10370071855E+04  0.10100000352E+00 0. -1.
       -3   -1    0    0    0  501  0.00000000000E+00  0.00000000000E+00 -0.11510155414E+04  0.11510155459E+04  0.10100000352E+00 0.  1.
    10030    2    1    2    0    0  0.00000000000E+00  0.00000000000E+00 -0.11400836086E+03  0.21880227314E+04  0.21850504723E+04 0.  0.
        3    1    3    3  502    0 -0.10031146322E+04 -0.35104683059E+03 -0.31060455311E+03  0.11072253796E+04  0.10100000352E+00 0. -1.
       -3    1    3    3    0  502  0.10031146322E+04  0.35104683059E+03  0.19659619224E+03  0.10807973518E+04  0.10100000352E+00 0.  1.
</event>
<event>
 5   0  0.3431030E-04  0.2056741E+04  0.7818609E-02  0.8580543E-01
        2   -1    0    0  501    0  0.00000000000E+00  0.00000000000E+00  0.17001325661E+04  0.17001325661E+04  0.25500000920E-02 0.  1.
       -2   -1    0    0    0  501  0.00000000000E+00  0.00000000000E+00 -0.62203702301E+03  0.62203702301E+03  0.25500000920E-02 0. -1.
    10030    2    1    2    0    0  0.00000000000E+00  0.00000000000E+00  0.10780955431E+04  0.23221695891E+04  0.20567405282E+04 0.  0.
        3    1    3    3  502    0  0.39874110660E+03  0.48192374039E+03  0.14606626419E+04  0.15889557342E+04  0.10100000352E+00 0.  1.
       -3    1    3    3    0  502 -0.39874110660E+03 -0.48192374039E+03 -0.38256709884E+03  0.73321385486E+03  0.10100000352E+00 0. -1.
</event>
<event>
 5   0  0.3371947E-04  0.1981342E+04  0.7818609E-02  0.8615394E-01
       -2   -1    0    0    0  501  0.00000000000E+00  0.00000000000E+00  0.13579813439E+04  0.13579813439E+04  0.25500000920E-02 0.  1.
        2   -1    0    0  501    0  0.00000000000E+00  0.00000000000E+00 -0.72271150322E+03  0.72271150322E+03  0.25500000920E-02 0. -1.
    10030    2    1    2    0    0  0.00000000000E+00  0.00000000000E+00  0.63526984065E+03  0.20806928471E+04  0.19813417054E+04 0.  0.
        2    1    3    3  502    0  0.59995611672E+02  0.30823639010E+03  0.13043336625E+04  0.13416018220E+04  0.25500000920E-02 0.  1.
       -2    1    3    3    0  502 -0.59995611672E+02 -0.30823639010E+03 -0.66906382188E+03  0.73909102508E+03  0.25500000920E-02 0. -1.
</event>
<event>
 5   0  0.3395569E-04  0.2008732E+04  0.7818609E-02  0.8602549E-01
        2   -1    0    0  501    0  0.00000000000E+00  0.00000000000E+00  0.16922366616E+04  0.16922366616E+04  0.25500000920E-02 0. -1.
       -2   -1    0    0    0  501  0.00000000000E+00  0.00000000000E+00 -0.59610515847E+03  0.59610515848E+03  0.25500000920E-02 0.  1.
    10030    2    1    2    0    0  0.00000000000E+00  0.00000000000E+00  0.10961315031E+04  0.22883418200E+04  0.20087319416E+04 0.  0.
        4    1    3    3  502    0  0.10674876779E+03  0.94805292822E+03  0.90568974234E+03  0.13154752664E+04  0.12699999809E+01 0. -1.
       -4    1    3    3    0  502 -0.10674876779E+03 -0.94805292822E+03  0.19044176075E+03  0.97286655368E+03  0.12699999809E+01 0.  1.
</event>
<event>
 5   0  0.3431030E-04  0.2014097E+04  0.7818609E-02  0.8600058E-01
       -2   -1    0    0    0  501  0.00000000000E+00  0.00000000000E+00  0.14708252193E+04  0.14708252193E+04  0.25500000920E-02 0.  1.
        2   -1    0    0  501    0  0.00000000000E+00  0.00000000000E+00 -0.68950892923E+03  0.68950892924E+03  0.25500000920E-02 0. -1.
    10030    2    1    2    0    0  0.00000000000E+00  0.00000000000E+00  0.78131629002E+03  0.21603341485E+04  0.20140974376E+04 0.  0.
        3    1    3    3  502    0  0.46156101255E+03  0.95958131213E+02  0.13451578189E+04  0.14253757747E+04  0.10100000352E+00 0.  1.
       -3    1    3    3    0  502 -0.46156101255E+03 -0.95958131213E+02 -0.56384152889E+03  0.73495837375E+03  0.10100000352E+00 0. -1.
</event>
<event>
 5   0  0.1650221E-04  0.2008899E+04  0.7818609E-02  0.8602472E-01
       -1   -1    0    0    0  501  0.00000000000E+00  0.00000000000E+00  0.44550588613E+03  0.44550588616E+03  0.50400001928E-02 0. -1.
        1   -1    0    0  501    0  0.00000000000E+00  0.00000000000E+00 -0.22646580146E+04  0.22646580146E+04  0.50400001928E-02 0.  1.
    10030    2    1    2    0    0  0.00000000000E+00  0.00000000000E+00 -0.18191521285E+04  0.27101639008E+04  0.20088986790E+04 0.  0.
        1    1    3    3  502    0  0.46362631134E+03 -0.23080185589E+02 -0.21112692260E+04  0.21616983593E+04  0.50400001928E-02 0. -1.
       -1    1    3    3    0  502 -0.46362631134E+03  0.23080185589E+02  0.29211709756E+03  0.54846554153E+03  0.50400001928E-02 0.  1.
</event>
<event>
 5   0  0.1222488E-04  0.1989479E+04  0.7818609E-02  0.8611555E-01
       -3   -1    0    0    0  501  0.00000000000E+00  0.00000000000E+00  0.12654809615E+04  0.12654809656E+04  0.10100000352E+00 0. -1.
        3   -1    0    0  501    0  0.00000000000E+00  0.00000000000E+00 -0.78192136319E+03  0.78192136972E+03  0.10100000352E+00 0.  1.
    10030    2    1    2    0    0  0.00000000000E+00  0.00000000000E+00  0.48355959834E+03  0.20474023353E+04  0.19894789361E+04 0.  0.
        1    1    3    3  502    0  0.36929860821E+03 -0.62124253750E+03  0.94518779055E+03  0.11898334807E+04  0.50400001928E-02 0. -1.
       -1    1    3    3    0  502 -0.36929860821E+03  0.62124253750E+03 -0.46162819221E+03  0.85756885455E+03  0.50400001928E-02 0.  1.
</event>
<event>
 5   0  0.3395569E-04  0.1649973E+04  0.7818609E-02  0.8790422E-01
        2   -1    0    0  501    0  0.00000000000E+00  0.00000000000E+00  0.38370989156E+03  0.38370989157E+03  0.25500000920E-02 0.  1.
       -2   -1    0    0    0  501  0.00000000000E+00  0.00000000000E+00 -0.17737435861E+04  0.17737435861E+04  0.25500000920E-02 0. -1.
    10030    2    1    2    0    0  0.00000000000E+00  0.00000000000E+00 -0.13900336945E+04  0.21574534776E+04  0.16499732835E+04 0.  0.
        4    1    3    3  502    0  0.10190186481E+03  0.27868550137E+03 -0.17015490381E+04  0.17272290933E+04  0.12699999809E+01 0. -1.
       -4    1    3    3    0  502 -0.10190186481E+03 -0.27868550137E+03  0.31151534357E+03  0.43022438437E+03  0.12699999809E+01 0.  1.
</event>
<event>
 5   0  0.3371947E-04  0.1927190E+04  0.7818609E-02  0.8641439E-01
       -2   -1    0    0    0  501  0.00000000000E+00  0.00000000000E+00  0.97507325099E+03  0.97507325099E+03  0.25500000920E-02 0. -1.
        2   -1    0    0  501    0  0.00000000000E+00  0.00000000000E+00 -0.95225151157E+03  0.95225151157E+03  0.25500000920E-02 0.  1.
    10030    2    1    2    0    0  0.00000000000E+00  0.00000000000E+00  0.22821739415E+02  0.19273247626E+04  0.19271896400E+04 0.  0.
        2    1    3    3  502    0  0.63096606143E+03 -0.12964294854E+03  0.72811271447E+03  0.97214895451E+03  0.25500000920E-02 0. -1.
       -2    1    3    3    0  502 -0.63096606143E+03  0.12964294854E+03 -0.70529097506E+03  0.95517580805E+03  0.25500000920E-02 0.  1.
</event>
<event>
 5   0  0.1643565E-04  0.1950409E+04  0.7818609E-02  0.8630164E-01
       -1   -1    0    0    0  501  0.00000000000E+00  0.00000000000E+00  0.62712479266E+03  0.62712479268E+03  0.50400001928E-02 0.  1.
        1   -1    0    0  501    0  0.00000000000E+00  0.00000000000E+00 -0.15164827780E+04  0.15164827780E+04  0.50400001928E-02 0. -1.
    10030    2    1    2    0    0  0.00000000000E+00  0.00000000000E+00 -0.88935798537E+03  0.21436075707E+04  0.19504091343E+04 0.  0.
        2    1    3    3  502    0  0.56120778625E+03 -0.78962644224E+03 -0.32150705077E+03  0.10207011714E+04  0.25500000920E-02 0. -1.
       -2    1    3    3    0  502 -0.56120778625E+03  0.78962644224E+03 -0.56785093460E+03  0.11229063993E+04  0.25500000920E-02 0.  1.
</event>
<event>
 5   0  0.1643565E-04  0.1949799E+04  0.7818609E-02  0.8630458E-01
        1   -1    0    0  501    0  0.00000000000E+00  0.00000000000E+00  0.71388501344E+03  0.71388501346E+03  0.50400001928E-02 0. -1.
       -1   -1    0    0    0  501  0.00000000000E+00  0.00000000000E+00 -0.13313478383E+04  0.13313478383E+04  0.50400001928E-02 0.  1.
    10030    2    1    2    0    0  0.00000000000E+00  0.00000000000E+00 -0.61746282484E+03  0.20452328518E+04  0.19497992404E+04 0.  0.
        2    1    3    3  502    0  0.51405682006E+03  0.12217864242E+03  0.55066615071E+03  0.76316134890E+03  0.25500000920E-02 0. -1.
       -2    1    3    3    0  502 -0.51405682006E+03 -0.12217864242E+03 -0.11681289756E+04  0.12820715029E+04  0.25500000920E-02 0.  1.
</event>
<event>
 5   0  0.3387881E-04  0.1911573E+04  0.7818609E-02  0.8649117E-01
        2   -1    0    0  501    0  0.00000000000E+00  0.00000000000E+00  0.12498493268E+04  0.12498493268E+04  0.25500000920E-02 0.  1.
       -2   -1    0    0    0  501  0.00000000000E+00  0.00000000000E+00 -0.73091012146E+03  0.73091012146E+03  0.25500000920E-02 0. -1.
    10030    2    1    2    0    0  0.00000000000E+00  0.00000000000E+00  0.51893920539E+03  0.19807594483E+04  0.19115726754E+04 0.  0.
        1    1    3    3  502    0  0.29496611398E+03 -0.65208865914E+03  0.91588244460E+03  0.11623533370E+04  0.50400001928E-02 0. -1.
       -1    1    3    3    0  502 -0.29496611398E+03  0.65208865914E+03 -0.39694323922E+03  0.81840611126E+03  0.50400001928E-02 0.  1.
</event>
<event>
 5   0  0.1650221E-04  0.2007129E+04  0.7818609E-02  0.8603295E-01
       -1   -1    0    0    0  501  0.00000000000E+00  0.00000000000E+00  0.38611251544E+03  0.38611251547E+03  0.50400001928E-02 0.  1.
        1   -1    0    0  501    0  0.00000000000E+00  0.00000000000E+00 -0.26084152009E+04  0.26084152009E+04  0.50400001928E-02 0. -1.
    10030    2    1    2    0    0  0.00000000000E+00  0.00000000000E+00 -0.22223026854E+04  0.29945277163E+04  0.20071290487E+04 0.  0.
        1    1    3    3  502    0 -0.34391983400E+03 -0.45759168264E+03  0.11865980382E+03  0.58459485912E+03  0.50400001928E-02 0.  1.
       -1    1    3    3    0  502  0.34391983400E+03  0.45759168264E+03 -0.23409624893E+04  0.24099328572E+04  0.50400001928E-02 0. -1.
</event>
<event>
 5   0  0.1664168E-04  0.1959430E+04  0.7818609E-02  0.8625827E-01
        1   -1    0    0  501    0  0.00000000000E+00  0.00000000000E+00  0.21075809145E+04  0.21075809145E+04  0.50400001928E-02 0. -1.
       -1   -1    0    0    0  501  0.00000000000E+00  0.00000000000E+00 -0.45542320466E+03  0.45542320469E+03  0.50400001928E-02 0.  1.
    10030    2    1    2    0    0  0.00000000000E+00  0.00000000000E+00  0.16521577098E+04  0.25630041192E+04  0.19594297683E+04 0.  0.
        5    1    3    3  502    0 -0.28521748975E+03  0.23752185851E+03  0.20120377797E+04  0.20459921228E+04  0.46999998093E+01 0. -1.
       -5    1    3    3    0  502  0.28521748975E+03 -0.23752185851E+03 -0.35988006985E+03  0.51701199638E+03  0.46999998093E+01 0.  1.
</event>
<event>
 5   0  0.1650221E-04  0.1980016E+04  0.7818609E-02  0.8616021E-01
       -1   -1    0    0    0  501  0.00000000000E+00  0.00000000000E+00  0.99545120375E+03  0.99545120377E+03  0.50400001928E-02 0. -1.
        1   -1    0    0  501    0  0.00000000000E+00  0.00000000000E+00 -0.98459498706E+03  0.98459498707E+03  0.50400001928E-02 0.  1.
    10030    2    1    2    0    0  0.00000000000E+00  0.00000000000E+00  0.10856216697E+02  0.19800461908E+04  0.19800164293E+04 0.  0.
        1    1    3    3  502    0  0.98325986370E+03  0.66901376936E+02  0.99453514693E+02  0.99053861884E+03  0.50400001928E-02 0. -1.
       -1    1    3    3    0  502 -0.98325986370E+03 -0.66901376936E+02 -0.88597297996E+02  0.98950757200E+03  0.50400001928E-02 0.  1.
</event>
<event>
 5   0  0.1708578E-04  0.2079550E+04  0.7818609E-02  0.8570306E-01
        1   -1    0    0  501    0  0.00000000000E+00  0.00000000000E+00  0.21517205599E+04  0.21517205599E+04  0.50400001928E-02 0.  1.
       -1   -1    0    0    0  501  0.00000000000E+00  0.00000000000E+00 -0.50244991756E+03  0.50244991759E+03  0.50400001928E-02 0. -1.
    10030    2    1    2    0    0  0.00000000000E+00  0.00000000000E+00  0.16492706423E+04  0.26541704775E+04  0.20795497762E+04 0.  0.
        3    1    3    3  502    0 -0.79964694072E+03 -0.65232345532E+03  0.98693727106E+03  0.14279377813E+04  0.10100000352E+00 0. -1.
       -3    1    3    3    0  502  0.79964694072E+03  0.65232345532E+03  0.66233337125E+03  0.12262326961E+04  0.10100000352E+00 0.  1.
</event>
<event>
 5   0  0.3431030E-04  0.1925215E+04  0.7818609E-02  0.8642406E-01
       -2   -1    0    0    0  501  0.00000000000E+00  0.00000000000E+00  0.83359644900E+03  0.83359644900E+03  0.25500000920E-02 0.  1.
        2   -1    0    0  501    0  0.00000000000E+00  0.00000000000E+00 -0.11115848392E+04  0.11115848392E+04  0.25500000920E-02 0. -1.
    10030    2    1    2    0    0  0.00000000000E+00  0.00000000000E+00 -0.27798839015E+03  0.19451812882E+04  0.19252149747E+04 0.  0.
        3    1    3    3  502    0  0.41367169293E+03  0.76680076533E+03 -0.55251309479E+03  0.10316871684E+04  0.10100000352E+00 0. -1.
       -3    1    3    3    0  502 -0.41367169293E+03 -0.76680076533E+03  0.27452470464E+03  0.91349411980E+03  0.10100000352E+00 0.  1.
</event>
<event>
 5   0  0.3387881E-04  0.2000136E+04  0.7818609E-02  0.8606557E-01
       -2   -1    0    0    0  501  0.00000000000E+00  0.00000000000E+00  0.46076703869E+03  0.46076703869E+03  0.25500000920E-02 0. -1.
        2   -1    0    0  501    0  0.00000000000E+00  0.00000000000E+00 -0.21705893669E+04  0.21705893669E+04  0.25500000920E-02 0.  1.
    10030    2    1    2    0    0  0.00000000000E+00  0.00000000000E+00 -0.17098223282E+04  0.26313564056E+04  0.20001360302E+04 0.  0.
        1    1    3    3  502    0 -0.85229901940E+02 -0.55281345450E+03 -0.19455565779E+04  0.20243658882E+04  0.50400001928E-02 0.  1.
       -1    1    3    3    0  502  0.85229901940E+02  0.55281345450E+03  0.23573424968E+03  0.60699051735E+03  0.50400001928E-02 0. -1.
</event>
<event>
 5   0  0.1222488E-04  0.1902772E+04  0.7818609E-02  0.8653478E-01
        3   -1    0    0  501    0  0.00000000000E+00  0.00000000000E+00  0.15567312856E+04  0.15567312889E+04  0.10100000352E+00 0.  1.
       -3   -1    0    0    0  501  0.00000000000E+00  0.00000000000E+00 -0.58143318049E+03  0.58143318926E+03  0.10100000352E+00 0. -1.
    10030    2    1    2    0    0  0.00000000000E+00  0.00000000000E+00  0.97529810513E+03  0.21381644782E+04  0.19027719101E+04 0.  0.
        5    1    3    3  502    0 -0.30907971931E+03 -0.27782067585E+03  0.14493235852E+04  0.15077385534E+04  0.46999998093E+01 0.  1.
       -5    1    3    3    0  502  0.30907971931E+03  0.27782067585E+03 -0.47402548008E+03  0.63042592474E+03  0.46999998093E+01 0. -1.
</event>
<event>
 5   0  0.3395569E-04  0.2021515E+04  0.7818609E-02  0.8596627E-01
       -2   -1    0    0    0  501  0.00000000000E+00  0.00000000000E+00  0.57813072604E+03  0.57813072604E+03  0.25500000920E-02 0. -1.
        2   -1    0    0  501    0  0.00000000000E+00  0.00000000000E+00 -0.17671275968E+04  0.17671275968E+04  0.25500000920E-02 0.  1.
    10030    2    1    2    0    0  0.00000000000E+00  0.00000000000E+00 -0.11889968708E+04  0.23452583229E+04  0.20215150364E+04 0.  0.
        4    1    3    3  502    0  0.57321145127E+03  0.82329669096E+03 -0.73772085802E+03  0.12452399313E+04  0.12699999809E+01 0. -1.
       -4    1    3    3    0  502 -0.57321145127E+03 -0.82329669096E+03 -0.45127601276E+03  0.11000183916E+04  0.12699999809E+01 0.  1.
</event>
<event>
 5   0  0.1643565E-04  0.1710891E+04  0.7818609E-02  0.8755177E-01
       -1   -1    0    0    0  501  0.00000000000E+00  0.00000000000E+00  0.42480837308E+03  0.42480837311E+03  0.50400001928E-02 0.  1.
        1   -1    0    0  501    0  0.00000000000E+00  0.00000000000E+00 -0.17226288051E+04  0.17226288051E+04  0.50400001928E-02 0. -1.
    10030    2    1    2    0    0  0.00000000000E+00  0.00000000000E+00 -0.12978204320E+04  0.21474371782E+04  0.17108911598E+04 0.  0.
        2    1    3    3  502    0 -0.72175239216E+02 -0.23781110827E+03 -0.16763187873E+04  0.16946409841E+04  0.25500000920E-02 0. -1.
       -2    1    3    3    0  502  0.72175239216E+02  0.23781110827E+03  0.37849835532E+03  0.45279619407E+03  0.25500000920E-02 0.  1.
</event>
<event>
 5   0  0.3460648E-04  0.2135358E+04  0.7818609E-02  0.8545826E-01
       -2   -1    0    0    0  501  0.00000000000E+00  0.00000000000E+00  0.60741775754E+03  0.60741775755E+03  0.25500000920E-02 0. -1.
        2   -1    0    0  501    0  0.00000000000E+00  0.00000000000E+00 -0.18766951137E+04  0.18766951137E+04  0.25500000920E-02 0.  1.
    10030    2    1    2    0    0  0.00000000000E+00  0.00000000000E+00 -0.12692773561E+04  0.24841128712E+04  0.21353575228E+04 0.  0.
        5    1    3    3  502    0 -0.20316626375E+02 -0.32258540093E+03 -0.18183984033E+04  0.18469079429E+04  0.46999998093E+01 0.  1.
       -5    1    3    3    0  502  0.20316626375E+02  0.32258540093E+03  0.54912104722E+03  0.63720492834E+03  0.46999998093E+01 0. -1.
</event>
<event>
 5   0  0.3460648E-04  0.1976605E+04  0.7818609E-02  0.8617638E-01
       -2   -1    0    0    0  501  0.00000000000E+00  0.00000000000E+00  0.70143042985E+03  0.70143042986E+03  0.25500000920E-02 0.  1.
        2   -1    0    0  501    0  0.00000000000E+00  0.00000000000E+00 -0.13924994700E+04  0.13924994700E+04  0.25500000920E-02 0. -1.
    10030    2    1    2    0    0  0.00000000000E+00  0.00000000000E+00 -0.69106904016E+03  0.20939298999E+04  0.19766046664E+04 0.  0.
        5    1    3    3  502    0  0.36431675300E+03 -0.91730315956E+03 -0.29206449401E+03  0.10293179983E+04  0.46999998093E+01 0.  1.
       -5    1    3    3    0  502 -0.36431675300E+03  0.91730315956E+03 -0.39900454615E+03  0.10646119015E+04  0.46999998093E+01 0. -1.
</event>
<event>
 5   0  0.3431030E-04  0.1960052E+04  0.7818609E-02  0.8625529E-01
        2   -1    0    0  501    0  0.00000000000E+00  0.00000000000E+00  0.21946831060E+04  0.21946831060E+04  0.25500000920E-02 0. -1.
       -2   -1    0    0    0  501  0.00000000000E+00  0.00000000000E+00 -0.43762615797E+03  0.43762615797E+03  0.25500000920E-02 0.  1.
    10030    2    1    2    0    0  0.00000000000E+00  0.00000000000E+00  0.17570569480E+04  0.26323092640E+04  0.19600517704E+04 0.  0.
        3    1    3    3  502    0 -0.95949884373E+03 -0.14888060696E+03  0.70012307136E+03  0.11970696686E+04  0.10100000352E+00 0.  1.
       -3    1    3    3    0  502  0.95949884373E+03  0.14888060696E+03  0.10569338767E+04  0.14352395954E+04  0.10100000352E+00 0. -1.
</event>
<event>
 5   0  0.3460648E-04  0.1968263E+04  0.7818609E-02  0.8621604E-01
        2   -1    0    0  501    0  0.00000000000E+00  0.00000000000E+00  0.13262818179E+04  0.13262818179E+04  0.25500000920E-02 0. -1.
       -2   -1    0    0    0  501  0.00000000000E+00  0.00000000000E+00 -0.73024818225E+03  0.73024818226E+03  0.25500000920E-02 0.  1.
    10030    2    1    2    0    0  0.00000000000E+00  0.00000000000E+00  0.59603363563E+03  0.20565300001E+04  0.19682630786E+04 0.  0.
        5    1    3    3  502    0  0.11186404057E+03 -0.44905224974E+02  0.13185276354E+04  0.13240344626E+04  0.46999998093E+01 0. -1.
       -5    1    3    3    0  502 -0.11186404057E+03  0.44905224974E+02 -0.72249399978E+03  0.73249553754E+03  0.46999998093E+01 0.  1.
</event>
<event>
 5   0  0.3371947E-04  0.1179499E+04  0.7818609E-02  0.9130993E-01
        2   -1    0    0  501    0  0.00000000000E+00  0.00000000000E+00  0.69505303726E+03  0.69505303726E+03  0.25500000920E-02 0. -1.
       -2   -1    0    0    0  501  0.00000000000E+00  0.00000000000E+00 -0.50039989566E+03  0.50039989567E+03  0.25500000920E-02 0.  1.
    10030    2    1    2    0    0  0.00000000000E+00  0.00000000000E+00  0.19465314159E+03  0.11954529329E+04  0.11794989908E+04 0.  0.
        2    1    3    3  502    0  0.33226819894E+03  0.78205214895E+00 -0.39650269075E+03  0.51731726379E+03  0.25500000920E-02 0.  1.
       -2    1    3    3    0  502 -0.33226819894E+03 -0.78205214895E+00  0.59115583235E+03  0.67813566914E+03  0.25500000920E-02 0. -1.
</event>
<event>
 5   0  0.3460648E-04  0.1924235E+04  0.7818609E-02  0.8642886E-01
        2   -1    0    0  501    0  0.00000000000E+00  0.00000000000E+00  0.13132739851E+04  0.13132739851E+04  0.25500000920E-02 0.  1.
       -2   -1    0    0    0  501  0.00000000000E+00  0.00000000000E+00 -0.70485643196E+03  0.70485643196E+03  0.25500000920E-02 0. -1.
    10030    2    1    2    0    0  0.00000000000E+00  0.00000000000E+00  0.60841755318E+03  0.20181304171E+04  0.19242345131E+04 0.  0.
        5    1    3    3  502    0  0.25469011979E+03 -0.53227133171E+03  0.11012028209E+04  0.12493396538E+04  0.46999998093E+01 0.  1.
       -5    1    3    3    0  502 -0.25469011979E+03  0.53227133171E+03 -0.49278526775E+03  0.76879076333E+03  0.46999998093E+01 0. -1.
</event>
<event>
 5   0  0.3371947E-04  0.1151783E+04  0.7818609E-02  0.9156141E-01
       -2   -1    0    0    0  501  0.00000000000E+00  0.00000000000E+00  0.35056176860E+03  0.35056176861E+03  0.25500000920E-02 0.  1.
        2   -1    0    0  501    0  0.00000000000E+00  0.00000000000E+00 -0.94605535720E+03  0.94605535721E+03  0.25500000920E-02 0. -1.
    10030    2    1    2    0    0  0.00000000000E+00  0.00000000000E+00 -0.59549358860E+03  0.12966171258E+04  0.11517826865E+04 0.  0.
        2    1    3    3  502    0 -0.32329792471E+03 -0.88185768346E+02  0.22949831814E+03  0.40616222855E+03  0.25500000920E-02 0.  1.
       -2    1    3    3    0  502  0.32329792471E+03  0.88185768346E+02 -0.82499190675E+03  0.89045489727E+03  0.25500000920E-02 0. -1.
</event>
<event>
 5   0  0.3395569E-04  0.1520767E+04  0.7818609E-02  0.8870760E-01
       -2   -1    0    0    0  501  0.00000000000E+00  0.00000000000E+00  0.97180565787E+03  0.97180565787E+03  0.25500000920E-02 0.  1.
        2   -1    0    0  501    0  0.00000000000E+00  0.00000000000E+00 -0.59495721994E+03  0.59495721995E+03  0.25500000920E-02 0. -1.
    10030    2    1    2    0    0  0.00000000000E+00  0.00000000000E+00  0.37684843793E+03  0.15667628778E+04  0.15207666390E+04 0.  0.
        4    1    3    3  502    0 -0.70658195228E+03 -0.26133684011E+02  0.47659871810E+03  0.85269512472E+03  0.12699999809E+01 0. -1.
       -4    1    3    3    0  502  0.70658195228E+03  0.26133684011E+02 -0.99750280173E+02  0.71406775310E+03  0.12699999809E+01 0.  1.
</event>
<event>
 5   0  0.3387881E-04  0.1978615E+04  0.7818609E-02  0.8616684E-01
       -2   -1    0    0    0  501  0.00000000000E+00  0.00000000000E+00  0.71094746142E+03  0.71094746143E+03  0.25500000920E-02 0.  1.
        2   -1    0    0  501    0  0.00000000000E+00  0.00000000000E+00 -0.13766555416E+04  0.13766555416E+04  0.25500000920E-02 0. -1.
    10030    2    1    2    0    0  0.00000000000E+00  0.00000000000E+00 -0.66570808019E+03  0.20876030030E+04  0.19786154377E+04 0.  0.
        1    1    3    3  502    0 -0.61085968681E+03 -0.50983590553E+03 -0.95315615841E+03  0.12416073735E+04  0.50400001928E-02 0. -1.
       -1    1    3    3    0  502  0.61085968681E+03  0.50983590553E+03  0.28744807823E+03  0.84599562956E+03  0.50400001928E-02 0.  1.
</event>
<event>
 5   0  0.1650221E-04  0.1964145E+04  0.7818609E-02  0.8623570E-01
        1   -1    0    0  501    0  0.00000000000E+00  0.00000000000E+00  0.18726921517E+04  0.18726921517E+04  0.50400001928E-02 0. -1.
       -1   -1    0    0    0  501  0.00000000000E+00  0.00000000000E+00 -0.51501577856E+03  0.51501577859E+03  0.50400001928E-02 0.  1.
    10030    2    1    2    0    0  0.00000000000E+00  0.00000000000E+00  0.13576763731E+04  0.23877079302E+04  0.19641446042E+04 0.  0.
        1    1    3    3  502    0  0.34418347991E+03 -0.79786260263E+03  0.12351468080E+04  0.15101770220E+04  0.50400001928E-02 0. -1.
       -1    1    3    3    0  502 -0.34418347991E+03  0.79786260263E+03  0.12252956508E+03  0.87753090821E+03  0.50400001928E-02 0.  1.
</event>
<event>
 5   0  0.1664168E-04  0.2150637E+04  0.7818609E-02  0.8539260E-01
        1   -1    0    0  501    0  0.00000000000E+00  0.00000000000E+00  0.57268537319E+03  0.57268537321E+03  0.50400001928E-02 0. -1.
       -1   -1    0    0    0  501  0.00000000000E+00  0.00000000000E+00 -0.20191010157E+04  0.20191010157E+04  0.50400001928E-02 0.  1.
    10030    2    1    2    0    0  0.00000000000E+00  0.00000000000E+00 -0.14464156425E+04  0.25917863889E+04  0.21506367603E+04 0.  0.
        5    1    3    3  502    0  0.25565741550E+03 -0.89944904758E+03 -0.83334922403E+02  0.93879502693E+03  0.46999998093E+01 0. -1.
       -5    1    3    3    0  502 -0.25565741550E+03  0.89944904758E+03 -0.13630807201E+04  0.16529913620E+04  0.46999998093E+01 0.  1.
</event>
<event>
 5   0  0.1643565E-04  0.1942792E+04  0.7818609E-02  0.8633844E-01
        1   -1    0    0  501    0  0.00000000000E+00  0.00000000000E+00  0.67608070739E+03  0.67608070741E+03  0.50400001928E-02 0. -1.
       -1   -1    0    0    0  501  0.00000000000E+00  0.00000000000E+00 -0.13957069431E+04  0.13957069431E+04  0.50400001928E-02 0.  1.
    10030    2    1    2    0    0  0.00000000000E+00  0.00000000000E+00 -0.71962623572E+03  0.20717876505E+04  0.19427923589E+04 0.  0.
        2    1    3    3  502    0 -0.39982106606E+03 -0.58478232203E+03 -0.10686127689E+04  0.12820922349E+04  0.25500000920E-02 0.  1.
       -2    1    3    3    0  502  0.39982106606E+03  0.58478232203E+03  0.34898653319E+03  0.78969541558E+03  0.25500000920E-02 0. -1.
</event>
<event>
 5   0  0.1664168E-04  0.2039317E+04  0.7818609E-02  0.8588456E-01
       -1   -1    0    0    0  501  0.00000000000E+00  0.00000000000E+00  0.11445138870E+04  0.11445138870E+04  0.50400001928E-02 0. -1.
        1   -1    0    0  501    0  0.00000000000E+00  0.00000000000E+00 -0.90842318544E+03  0.90842318545E+03  0.50400001928E-02 0.  1.
    10030    2    1    2    0    0  0.00000000000E+00  0.00000000000E+00  0.23609070159E+03  0.20529370725E+04  0.20393165042E+04 0.  0.
        5    1    3    3  502    0 -0.19655076467E+03 -0.91889945261E+03 -0.28041703073E+03  0.98064479208E+03  0.46999998093E+01 0.  1.
       -5    1    3    3    0  502  0.19655076467E+03  0.91889945261E+03  0.51650773232E+03  0.10722922804E+04  0.46999998093E+01 0. -1.
</event>
<event>
 5   0  0.3387881E-04  0.1961401E+04  0.7818609E-02  0.8624883E-01
       -2   -1    0    0    0  501  0.00000000000E+00  0.00000000000E+00  0.46290849849E+03  0.46290849850E+03  0.25500000920E-02 0.  1.
        2   -1    0    0  501    0  0.00000000000E+00  0.00000000000E+00 -0.20776743545E+04  0.20776743545E+04  0.25500000920E-02 0. -1.
    10030    2    1    2    0    0  0.00000000000E+00  0.00000000000E+00 -0.16147658560E+04  0.25405828530E+04  0.19614006381E+04 0.  0.
        1    1    3    3  502    0 -0.86968608873E+03  0.44723758109E+03 -0.90254725801E+03  0.13307768032E+04  0.50400001928E-02 0.  1.
       -1    1    3    3    0  502  0.86968608873E+03 -0.44723758109E+03 -0.71221859797E+03  0.12098060498E+04  0.50400001928E-02 0. -1.
</event>
<event>
 5   0  0.3395569E-04  0.1199377E+04  0.7818609E-02  0.9113402E-01
       -2   -1    0    0    0  501  0.00000000000E+00  0.00000000000E+00  0.18381958973E+03  0.18381958974E+03  0.25500000920E-02 0.  1.
        2   -1    0    0  501    0  0.00000000000E+00  0.00000000000E+00 -0.19564092983E+04  0.19564092983E+04  0.25500000920E-02 0. -1.
    10030    2    1    2    0    0  0.00000000000E+00  0.00000000000E+00 -0.17725897086E+04  0.21402288881E+04  0.11993770960E+04 0.  0.
        4    1    3    3  502    0  0.17488158029E+03 -0.15916351378E+03  0.97110784485E+02  0.25563393477E+03  0.12699999809E+01 0.  1.
       -4    1    3    3    0  502 -0.17488158029E+03  0.15916351378E+03 -0.18697004931E+04  0.18845949533E+04  0.12699999809E+01 0. -1.
</event>
<event>
 5   0  0.1696052E-04  0.1981562E+04  0.7818609E-02  0.8615290E-01
        1   -1    0    0  501    0  0.00000000000E+00  0.00000000000E+00  0.15112757064E+04  0.15112757064E+04  0.50400001928E-02 0.  1.
       -1   -1    0    0    0  501  0.00000000000E+00  0.00000000000E+00 -0.64954872550E+03  0.64954872552E+03  0.50400001928E-02 0. -1.
    10030    2    1    2    0    0  0.00000000000E+00  0.00000000000E+00  0.86172698091E+03  0.21608244319E+04  0.19815622211E+04 0.  0.
        4    1    3    3  502    0 -0.85288888678E+03 -0.17315050013E+03 -0.85521009554E+02  0.87448041994E+03  0.12699999809E+01 0. -1.
       -4    1    3    3    0  502  0.85288888678E+03  0.17315050013E+03  0.94724799047E+03  0.12863440120E+04  0.12699999809E+01 0.  1.
</event>
<event>
 5   0  0.1643565E-04  0.1980780E+04  0.7818609E-02  0.8615660E-01
        1   -1    0    0  501    0  0.00000000000E+00  0.00000000000E+00  0.82346351605E+03  0.82346351607E+03  0.50400001928E-02 0.  1.
       -1   -1    0    0    0  501  0.00000000000E+00  0.00000000000E+00 -0.11911545325E+04  0.11911545325E+04  0.50400001928E-02 0. -1.
    10030    2    1    2    0    0  0.00000000000E+00  0.00000000000E+00 -0.36769101646E+03  0.20146180486E+04  0.19807799469E+04 0.  0.
        2    1    3    3  502    0  0.98158774647E+03 -0.10524223633E+03 -0.10323329130E+03  0.99259636548E+03  0.25500000920E-02 0.  1.
       -2    1    3    3    0  502 -0.98158774647E+03  0.10524223633E+03 -0.26445772516E+03  0.10220216831E+04  0.25500000920E-02 0. -1.
</event>
<event>
 5   0  0.1643565E-04  0.1968313E+04  0.7818609E-02  0.8621580E-01
        1   -1    0    0  501    0  0.00000000000E+00  0.00000000000E+00  0.43575230642E+03  0.43575230644E+03  0.50400001928E-02 0.  1.
       -1   -1    0    0    0  501  0.00000000000E+00  0.00000000000E+00 -0.22227400705E+04  0.22227400705E+04  0.50400001928E-02 0. -1.
    10030    2    1    2    0    0  0.00000000000E+00  0.00000000000E+00 -0.17869877641E+04  0.26584923769E+04  0.19683130974E+04 0.  0.
        2    1    3    3  502    0  0.20769532460E+03 -0.94157812663E+03 -0.11597368115E+04  0.15082095970E+04  0.25500000920E-02 0.  1.
       -2    1    3    3    0  502 -0.20769532460E+03  0.94157812663E+03 -0.62725095259E+03  0.11502827800E+04  0.25500000920E-02 0. -1.
</event>
<event>
 5   0  0.3371947E-04  0.2028254E+04  0.7818609E-02  0.8593524E-01
       -2   -1    0    0    0  501  0.00000000000E+00  0.00000000000E+00  0.50964461452E+03  0.50964461452E+03  0.25500000920E-02 0. -1.
        2   -1    0    0  501    0  0.00000000000E+00  0.00000000000E+00 -0.20179826233E+04  0.20179826233E+04  0.25500000920E-02 0.  1.
    10030    2    1    2    0    0  0.00000000000E+00  0.00000000000E+00 -0.15083380087E+04  0.25276272378E+04  0.20282543984E+04 0.  0.
        2    1    3    3  502    0  0.31519830301E+03  0.81332956392E+03 -0.13988321823E+04  0.16485103651E+04  0.25500000920E-02 0.  1.
       -2    1    3    3    0  502 -0.31519830301E+03 -0.81332956392E+03 -0.10950582648E+03  0.87911687267E+03  0.25500000920E-02 0. -1.
</event>
<event>
 5   0  0.1650221E-04  0.1978629E+04  0.7818609E-02  0.8616678E-01
       -1   -1    0    0    0  501  0.00000000000E+00  0.00000000000E+00  0.14577688088E+04  0.14577688088E+04  0.50400001928E-02 0. -1.
        1   -1    0    0  501    0  0.00000000000E+00  0.00000000000E+00 -0.67139786673E+03  0.67139786675E+03  0.50400001928E-02 0.  1.
    10030    2    1    2    0    0  0.00000000000E+00  0.00000000000E+00  0.78637094207E+03  0.21291666756E+04  0.19786286852E+04 0.  0.
        1    1    3    3  502    0 -0.54235272495E+03 -0.32703488772E+03  0.12110393311E+04  0.13666435371E+04  0.50400001928E-02 0. -1.
       -1    1    3    3    0  502  0.54235272495E+03  0.32703488772E+03 -0.42466838900E+03  0.76252313846E+03  0.50400001928E-02 0.  1.
</event>
<event>
 5   0  0.1696052E-04  0.1989335E+04  0.7818609E-02  0.8611623E-01
        1   -1    0    0  501    0  0.00000000000E+00  0.00000000000E+00  0.83748006528E+03  0.83748006530E+03  0.50400001928E-02 0. -1.
       -1   -1    0    0    0  501  0.00000000000E+00  0.00000000000E+00 -0.11813577787E+04  0.11813577787E+04  0.50400001928E-02 0.  1.
    10030    2    1    2    0    0  0.00000000000E+00  0.00000000000E+00 -0.34387771345E+03  0.20188378440E+04  0.19893351550E+04 0.  0.
        4    1    3    3  502    0  0.78557447545E+03 -0.37833353499E+03 -0.65767963182E+03  0.10921573290E+04  0.12699999809E+01 0.  1.
       -4    1    3    3    0  502 -0.78557447545E+03  0.37833353499E+03  0.31380191837E+03  0.92668051509E+03  0.12699999809E+01 0. -1.
</event>
<event>
 5   0  0.1708578E-04  0.1990882E+04  0.7818609E-02  0.8610896E-01
        1   -1    0    0  501    0  0.00000000000E+00  0.00000000000E+00  0.61784584914E+03  0.61784584916E+03  0.50400001928E-02 0. -1.
       -1   -1    0    0    0  501  0.00000000000E+00  0.00000000000E+00 -0.16038021991E+04  0.16038021991E+04  0.50400001928E-02 0.  1.
    10030    2    1    2    0    0  0.00000000000E+00  0.00000000000E+00 -0.98595635000E+03  0.22216480483E+04  0.19908817460E+04 0.  0.
        3    1    3    3  502    0  0.22808798157E+03 -0.41187402488E+02 -0.15732716733E+04  0.15902529037E+04  0.10100000352E+00 0.  1.
       -3    1    3    3    0  502 -0.22808798157E+03  0.41187402488E+02  0.58731532331E+03  0.63139514462E+03  0.10100000352E+00 0. -1.
</event>
<event>
 5   0  0.1696052E-04  0.1085796E+04  0.7818609E-02  0.9219148E-01
        1   -1    0    0  501    0  0.00000000000E+00  0.00000000000E+00  0.11221072340E+04  0.11221072340E+04  0.50400001928E-02 0.  1.
       -1   -1    0    0    0  501  0.00000000000E+00  0.00000000000E+00 -0.26266501364E+03  0.26266501369E+03  0.50400001928E-02 0. -1.
    10030    2    1    2    0    0  0.00000000000E+00  0.00000000000E+00  0.85944222031E+03  0.13847722476E+04  0.10857961355E+04 0.  0.
        4    1    3    3  502    0  0.45396896968E+02 -0.13080851015E+02 -0.26003648765E+03  0.26429637668E+03  0.12699999809E+01 0. -1.
       -4    1    3    3    0  502 -0.45396896968E+02  0.13080851015E+02  0.11194787080E+04  0.11204758710E+04  0.12699999809E+01 0.  1.
</event>
<event>
 5   0  0.3395569E-04  0.2024161E+04  0.7818609E-02  0.8595407E-01
       -2   -1    0    0    0  501  0.00000000000E+00  0.00000000000E+00  0.68245586558E+03  0.68245586558E+03  0.25500000920E-02 0. -1.
        2   -1    0    0  501    0  0.00000000000E+00  0.00000000000E+00 -0.15009132425E+04  0.15009132425E+04  0.25500000920E-02 0.  1.
    10030    2    1    2    0    0  0.00000000000E+00  0.00000000000E+00 -0.81845737696E+03  0.21833691081E+04  0.20241611063E+04 0.  0.
        4    1    3    3  502    0 -0.19134127429E+03 -0.99146001921E+03 -0.48318517982E+03  0.11194078720E+04  0.12699999809E+01 0.  1.
       -4    1    3    3    0  502  0.19134127429E+03  0.99146001921E+03 -0.33527219714E+03  0.10639612361E+04  0.12699999809E+01 0. -1.
</event>
<event>
 5   0  0.3371947E-04  0.1267524E+04  0.7818609E-02  0.9055723E-01
        2   -1    0    0  501    0  0.00000000000E+00  0.00000000000E+00  0.10260664727E+04  0.10260664727E+04  0.25500000920E-02 0.  1.
       -2   -1    0    0    0  501  0.00000000000E+00  0.00000000000E+00 -0.39145079481E+03  0.39145079482E+03  0.25500000920E-02 0. -1.
    10030    2    1    2    0    0  0.00000000000E+00  0.00000000000E+00  0.63461567786E+03  0.14175172675E+04  0.12675244160E+04 0.  0.
        2    1    3    3  502    0 -0.54168023699E+02  0.12386320058E+03 -0.37513793692E+03  0.39875398301E+03  0.25500000920E-02 0. -1.
       -2    1    3    3    0  502  0.54168023699E+02 -0.12386320058E+03  0.10097536148E+04  0.10187632845E+04  0.25500000920E-02 0.  1.
</event>
<event>
 5   0  0.3460648E-04  0.1946340E+04  0.7818609E-02  0.8632128E-01
       -2   -1    0    0    0  501  0.00000000000E+00  0.00000000000E+00  0.61616465706E+03  0.61616465707E+03  0.25500000920E-02 0.  1.
        2   -1    0    0  501    0  0.00000000000E+00  0.00000000000E+00 -0.15370245652E+04  0.15370245652E+04  0.25500000920E-02 0. -1.
    10030    2    1    2    0    0  0.00000000000E+00  0.00000000000E+00 -0.92085990817E+03  0.21531892223E+04  0.19463403753E+04 0.  0.
        5    1    3    3  502    0  0.78331939014E+03 -0.49302087290E+03 -0.79301126026E+03  0.12188305038E+04  0.46999998093E+01 0. -1.
       -5    1    3    3    0  502 -0.78331939014E+03  0.49302087290E+03 -0.12784864791E+03  0.93435871851E+03  0.46999998093E+01 0.  1.
</event>
<event>
 5   0  0.3431030E-04  0.1972305E+04  0.7818609E-02  0.8619679E-01
        2   -1    0    0  501    0  0.00000000000E+00  0.00000000000E+00  0.89954580824E+03  0.89954580824E+03  0.25500000920E-02 0. -1.
       -2   -1    0    0    0  501  0.00000000000E+00  0.00000000000E+00 -0.10810977197E+04  0.10810977197E+04  0.25500000920E-02 0.  1.
    10030    2    1    2    0    0  0.00000000000E+00  0.00000000000E+00 -0.18155191144E+03  0.19806435279E+04  0.19723051711E+04 0.  0.
        3    1    3    3  502    0 -0.97795502338E+03 -0.31196929958E+02 -0.21429039569E+03  0.10016434795E+04  0.10100000352E+00 0.  1.
       -3    1    3    3    0  502  0.97795502338E+03  0.31196929958E+02  0.32738484253E+02  0.97900004839E+03  0.10100000352E+00 0. -1.
</event>
<event>
 5   0  0.3387881E-04  0.1964802E+04  0.7818609E-02  0.8623256E-01
        2   -1    0    0  501    0  0.00000000000E+00  0.00000000000E+00  0.68713782470E+03  0.68713782471E+03  0.25500000920E-02 0.  1.
       -2   -1    0    0    0  501  0.00000000000E+00  0.00000000000E+00 -0.14045384362E+04  0.14045384363E+04  0.25500000920E-02 0. -1.
    10030    2    1    2    0    0  0.00000000000E+00  0.00000000000E+00 -0.71740061155E+03  0.20916762610E+04  0.19648017567E+04 0.  0.
        1    1    3    3  502    0 -0.93274345245E+03  0.19131115431E+03 -0.10121168410E+03  0.95752499230E+03  0.50400001928E-02 0. -1.
       -1    1    3    3    0  502  0.93274345245E+03 -0.19131115431E+03 -0.61618892745E+03  0.11341512687E+04  0.50400001928E-02 0.  1.
</event>
<event>
 5   0  0.1708578E-04  0.1905852E+04  0.7818609E-02  0.8651949E-01
        1   -1    0    0  501    0  0.00000000000E+00  0.00000000000E+00  0.12059905895E+04  0.12059905895E+04  0.50400001928E-02 0.  1.
       -1   -1    0    0    0  501  0.00000000000E+00  0.00000000000E+00 -0.75296421878E+03  0.75296421880E+03  0.50400001928E-02 0. -1.
    10030    2    1    2    0    0  0.00000000000E+00  0.00000000000E+00  0.45302637070E+03  0.19589548083E+04  0.19058517908E+04 0.  0.
        3    1    3    3  502    0  0.25070199196E+03  0.78033713460E+02 -0.71504928794E+03  0.76173239632E+03  0.10100000352E+00 0. -1.
       -3    1    3    3    0  502 -0.25070199196E+03 -0.78033713460E+02  0.11680756586E+04  0.11972224120E+04  0.10100000352E+00 0.  1.
</event>
<event>
 5   0  0.1708578E-04  0.2013004E+04  0.7818609E-02  0.8600565E-01
       -1   -1    0    0    0  501  0.00000000000E+00  0.00000000000E+00  0.78051236738E+03  0.78051236739E+03  0.50400001928E-02 0. -1.
        1   -1    0    0  501    0  0.00000000000E+00  0.00000000000E+00 -0.12979247386E+04  0.12979247386E+04  0.50400001928E-02 0.  1.
    10030    2    1    2    0    0  0.00000000000E+00  0.00000000000E+00 -0.51741237120E+03  0.20784371060E+04  0.20130040342E+04 0.  0.
        3    1    3    3  502    0 -0.68969947351E+03  0.71279350840E+03 -0.43540143457E+03  0.10832055986E+04  0.10100000352E+00 0.  1.
       -3    1    3    3    0  502  0.68969947351E+03 -0.71279350840E+03 -0.82010936629E+02  0.99523150739E+03  0.10100000352E+00 0. -1.
</event>
<event>
 5   0  0.3460648E-04  0.1989346E+04  0.7818609E-02  0.8611618E-01
       -2   -1    0    0    0  501  0.00000000000E+00  0.00000000000E+00  0.10824704834E+04  0.10824704834E+04  0.25500000920E-02 0.  1.
        2   -1    0    0  501    0  0.00000000000E+00  0.00000000000E+00 -0.91399684316E+03  0.91399684316E+03  0.25500000920E-02 0. -1.
    10030    2    1    2    0    0  0.00000000000E+00  0.00000000000E+00  0.16847364023E+03  0.19964673265E+04  0.19893462289E+04 0.  0.
        5    1    3    3  502    0 -0.96762986361E+02 -0.80237836938E+03  0.66612124070E+03  0.10473364887E+04  0.46999998093E+01 0.  1.
       -5    1    3    3    0  502  0.96762986361E+02  0.80237836938E+03 -0.49764760047E+03  0.94913083789E+03  0.46999998093E+01 0. -1.
</event>
<event>
 5   0  0.1696052E-04  0.2117726E+04  0.7818609E-02  0.8553475E-01
       -1   -1    0    0    0  501  0.00000000000E+00  0.00000000000E+00  0.85587006931E+03  0.85587006932E+03  0.50400001928E-02 0. -1.
        1   -1    0    0  501    0  0.00000000000E+00  0.00000000000E+00 -0.13100008474E+04  0.13100008475E+04  0.50400001928E-02 0.  1.
    10030    2    1    2    0    0  0.00000000000E+00  0.00000000000E+00 -0.45413077814E+03  0.21658709168E+04  0.21177256821E+04 0.  0.
        4    1    3    3  502    0 -0.52569054775E+03  0.15345642176E+03  0.69978790042E+03  0.88859672734E+03  0.12699999809E+01 0. -1.
       -4    1    3    3    0  502  0.52569054775E+03 -0.15345642176E+03 -0.11539186786E+04  0.12772741894E+04  0.12699999809E+01 0.  1.
</event>
<event>
 5   0  0.3387881E-04  0.1969112E+04  0.7818609E-02  0.8621200E-01
       -2   -1    0    0    0  501  0.00000000000E+00  0.00000000000E+00  0.17161555688E+04  0.17161555688E+04  0.25500000920E-02 0. -1.
        2   -1    0    0  501    0  0.00000000000E+00  0.00000000000E+00 -0.56483827539E+03  0.56483827540E+03  0.25500000920E-02 0.  1.
    10030    2    1    2    0    0  0.00000000000E+00  0.00000000000E+00  0.11513172934E+04  0.22809938442E+04  0.19691118320E+04 0.  0.
        1    1    3    3  502    0  0.62567984638E+01  0.76001314044E+03 -0.14932073529E+03  0.77456813979E+03  0.50400001928E-02 0.  1.
       -1    1    3    3    0  502 -0.62567984638E+01 -0.76001314044E+03  0.13006380287E+04  0.15064257044E+04  0.50400001928E-02 0. -1.
</event>
<event>
 5   0  0.3431030E-04  0.1998708E+04  0.7818609E-02  0.8607225E-01
        2   -1    0    0  501    0  0.00000000000E+00  0.00000000000E+00  0.14033178104E+04  0.14033178104E+04  0.25500000920E-02 0. -1.
       -2   -1    0    0    0  501  0.00000000000E+00  0.00000000000E+00 -0.71167661470E+03  0.71167661471E+03  0.25500000920E-02 0.  1.
    10030    2    1    2    0    0  0.00000000000E+00  0.00000000000E+00  0.69164119572E+03  0.21149944251E+04  0.19987080514E+04 0.  0.
        3    1    3    3  502    0 -0.36348685011E+03  0.59513062312E+03 -0.41165156256E+03  0.80979019995E+03  0.10100000352E+00 0.  1.
       -3    1    3    3    0  502  0.36348685011E+03 -0.59513062312E+03  0.11032927583E+04  0.13052042252E+04  0.10100000352E+00 0. -1.
</event>
<event>
 5   0  0.1708578E-04  0.2081986E+04  0.7818609E-02  0.8569221E-01
        1   -1    0    0  501    0  0.00000000000E+00  0.00000000000E+00  0.15138463584E+04  0.15138463585E+04  0.50400001928E-02 0. -1.
       -1   -1    0    0    0  501  0.00000000000E+00  0.00000000000E+00 -0.71583631053E+03  0.71583631055E+03  0.50400001928E-02 0.  1.
    10030    2    1    2    0    0  0.00000000000E+00  0.00000000000E+00  0.79801004792E+03  0.22296826690E+04  0.20819857751E+04 0.  0.
        3    1    3    3  502    0 -0.23265115639E+03 -0.48998461126E+03 -0.55253904821E+03  0.77428088562E+03  0.10100000352E+00 0.  1.
       -3    1    3    3    0  502  0.23265115639E+03  0.48998461126E+03  0.13505490961E+04  0.14554017834E+04  0.10100000352E+00 0. -1.
</event>
<event>
 5   0  0.3431030E-04  0.2030668E+04  0.7818609E-02  0.8592415E-01
       -2   -1    0    0    0  501  0.00000000000E+00  0.00000000000E+00  0.95856344657E+03  0.95856344658E+03  0.25500000920E-02 0. -1.
        2   -1    0    0  501    0  0.00000000000E+00  0.00000000000E+00 -0.10754667074E+04  0.10754667074E+04  0.25500000920E-02 0.  1.
    10030    2    1    2    0    0  0.00000000000E+00  0.00000000000E+00 -0.11690326078E+03  0.20340301539E+04  0.20306679430E+04 0.  0.
        3    1    3    3  502    0  0.75529881629E+03  0.11168271943E+02  0.62112732215E+03  0.97795715280E+03  0.10100000352E+00 0. -1.
       -3    1    3    3    0  502 -0.75529881629E+03 -0.11168271943E+02 -0.73803058293E+03  0.10560730011E+04  0.10100000352E+00 0.  1.
</event>
<event>
 5   0  0.3387881E-04  0.2012543E+04  0.7818609E-02  0.8600779E-01
        2   -1    0    0  501    0  0.00000000000E+00  0.00000000000E+00  0.15524341846E+04  0.15524341846E+04  0.25500000920E-02 0. -1.
       -2   -1    0    0    0  501  0.00000000000E+00  0.00000000000E+00 -0.65225429723E+03  0.65225429723E+03  0.25500000920E-02 0.  1.
    10030    2    1    2    0    0  0.00000000000E+00  0.00000000000E+00  0.90017988736E+03  0.22046884818E+04  0.20125425392E+04 0.  0.
        1    1    3    3  502    0  0.97008511930E+03 -0.23419231459E+03  0.30864776378E+03  0.10445930409E+04  0.50400001928E-02 0.  1.
       -1    1    3    3    0  502 -0.97008511930E+03  0.23419231459E+03  0.59153212358E+03  0.11600954410E+04  0.50400001928E-02 0. -1.
</event>
<event>
 5   0  0.1643565E-04  0.2013533E+04  0.7818609E-02  0.8600320E-01
       -1   -1    0    0    0  501  0.00000000000E+00  0.00000000000E+00  0.49280861783E+03  0.49280861786E+03  0.50400001928E-02 0. -1.
        1   -1    0    0  501    0  0.00000000000E+00  0.00000000000E+00 -0.20567394619E+04  0.20567394619E+04  0.50400001928E-02 0.  1.
    10030    2    1    2    0    0  0.00000000000E+00  0.00000000000E+00 -0.15639308441E+04  0.25495480798E+04  0.20135331450E+04 0.  0.
        2    1    3    3  502    0  0.78446645213E+03 -0.44763792495E+03 -0.13451234856E+04  0.16202236012E+04  0.25500000920E-02 0.  1.
       -2    1    3    3    0  502 -0.78446645213E+03  0.44763792495E+03 -0.21880735849E+03  0.92932447858E+03  0.25500000920E-02 0. -1.
</event>
<event>
 5   0  0.3395569E-04  0.2189923E+04  0.7818609E-02  0.8522634E-01
        2   -1    0    0  501    0  0.00000000000E+00  0.00000000000E+00  0.10845885892E+04  0.10845885892E+04  0.25500000920E-02 0.  1.
       -2   -1    0    0    0  501  0.00000000000E+00  0.00000000000E+00 -0.11054332635E+04  0.11054332635E+04  0.25500000920E-02 0. -1.
    10030    2    1    2    0    0  0.00000000000E+00  0.00000000000E+00 -0.20844674342E+02  0.21900218527E+04  0.21899226505E+04 0.  0.
        4    1    3    3  502    0  0.77098723802E+03  0.12469943586E+03  0.75705455588E+03  0.10877060651E+04  0.12699999809E+01 0.  1.
       -4    1    3    3    0  502 -0.77098723802E+03 -0.12469943586E+03 -0.77789923022E+03  0.11023157877E+04  0.12699999809E+01 0. -1.
</event>
<event>
 5   0  0.3371947E-04  0.1988037E+04  0.7818609E-02  0.8612234E-01
        2   -1    0    0  501    0  0.00000000000E+00  0.00000000000E+00  0.87200812166E+03  0.87200812167E+03  0.25500000920E-02 0.  1.
       -2   -1    0    0    0  501  0.00000000000E+00  0.00000000000E+00 -0.11330999026E+04  0.11330999026E+04  0.25500000920E-02 0. -1.
    10030    2    1    2    0    0  0.00000000000E+00  0.00000000000E+00 -0.26109178097E+03  0.20051080243E+04  0.19880365366E+04 0.  0.
        2    1    3    3  502    0 -0.43424193051E+03  0.67846292346E+03  0.45685919495E+03  0.92606604340E+03  0.25500000920E-02 0.  1.
       -2    1    3    3    0  502  0.43424193051E+03 -0.67846292346E+03 -0.71795097592E+03  0.10790419809E+04  0.25500000920E-02 0. -1.
</event>
<event>
 5   0  0.1708578E-04  0.1884352E+04  0.7818609E-02  0.8662685E-01
       -1   -1    0    0    0  501  0.00000000000E+00  0.00000000000E+00  0.60271123486E+03  0.60271123489E+03  0.50400001928E-02 0. -1.
        1   -1    0    0  501    0  0.00000000000E+00  0.00000000000E+00 -0.14728375774E+04  0.14728375774E+04  0.50400001928E-02 0.  1.
    10030    2    1    2    0    0  0.00000000000E+00  0.00000000000E+00 -0.87012634256E+03  0.20755488123E+04  0.18843521487E+04 0.  0.
        3    1    3    3  502    0 -0.37444753114E+03 -0.86375489005E+03 -0.39366973560E+03  0.10204211555E+04  0.10100000352E+00 0.  1.
       -3    1    3    3    0  502  0.37444753114E+03  0.86375489005E+03 -0.47645660695E+03  0.10551276568E+04  0.10100000352E+00 0. -1.
</event>
<event>
 5   0  0.1696052E-04  0.1739505E+04  0.7818609E-02  0.8739149E-01
        1   -1    0    0  501    0  0.00000000000E+00  0.00000000000E+00  0.10719881889E+04  0.10719881890E+04  0.50400001928E-02 0. -1.
       -1   -1    0    0    0  501  0.00000000000E+00  0.00000000000E+00 -0.70566929543E+03  0.70566929545E+03  0.50400001928E-02 0.  1.
    10030    2    1    2    0    0  0.00000000000E+00  0.00000000000E+00  0.36631889351E+03  0.17776574844E+04  0.17395046997E+04 0.  0.
        4    1    3    3  502    0 -0.48661369576E+03  0.11413676395E+03  0.91056298410E+03  0.10387235680E+04  0.12699999809E+01 0. -1.
       -4    1    3    3    0  502  0.48661369576E+03 -0.11413676395E+03 -0.54424409059E+03  0.73893391641E+03  0.12699999809E+01 0.  1.
</event>
<event>
 5   0  0.1664168E-04  0.1501447E+04  0.7818609E-02  0.8883491E-01
        1   -1    0    0  501    0  0.00000000000E+00  0.00000000000E+00  0.12371122779E+04  0.12371122779E+04  0.50400001928E-02 0. -1.
       -1   -1    0    0    0  501  0.00000000000E+00  0.00000000000E+00 -0.45556575264E+03  0.45556575267E+03  0.50400001928E-02 0.  1.
    10030    2    1    2    0    0  0.00000000000E+00  0.00000000000E+00  0.78154652526E+03  0.16926780306E+04  0.15014472831E+04 0.  0.
        5    1    3    3  502    0 -0.68403309919E+03 -0.40241865062E+02  0.73649603395E+03  0.10059667920E+04  0.46999998093E+01 0. -1.
       -5    1    3    3    0  502  0.68403309919E+03  0.40241865062E+02  0.45050491310E+02  0.68671123863E+03  0.46999998093E+01 0.  1.
</event>
<event>
 5   0  0.1696052E-04  0.2009373E+04  0.7818609E-02  0.8602251E-01
       -1   -1    0    0    0  501  0.00000000000E+00  0.00000000000E+00  0.86919300177E+03  0.86919300179E+03  0.50400001928E-02 0. -1.
        1   -1    0    0  501    0  0.00000000000E+00  0.00000000000E+00 -0.11613011195E+04  0.11613011195E+04  0.50400001928E-02 0.  1.
    10030    2    1    2    0    0  0.00000000000E+00  0.00000000000E+00 -0.29210811769E+03  0.20304941213E+04  0.20093728435E+04 0.  0.
        4    1    3    3  502    0  0.89708414146E+03  0.29958119764E+03  0.19645465822E+03  0.96597354854E+03  0.12699999809E+01 0. -1.
       -4    1    3    3    0  502 -0.89708414146E+03 -0.29958119764E+03 -0.48856277591E+03  0.10645205727E+04  0.12699999809E+01 0.  1.
</event>
<event>
 5   0  0.1650221E-04  0.2024092E+04  0.7818609E-02  0.8595439E-01
       -1   -1    0    0    0  501  0.00000000000E+00  0.00000000000E+00  0.50214274820E+03  0.50214274823E+03  0.50400001928E-02 0. -1.
        1   -1    0    0  501    0  0.00000000000E+00  0.00000000000E+00 -0.20397333368E+04  0.20397333368E+04  0.50400001928E-02 0.  1.
    10030    2    1    2    0    0  0.00000000000E+00  0.00000000000E+00 -0.15375905886E+04  0.25418760850E+04  0.20240921949E+04 0.  0.
        1    1    3    3  502    0  0.62144201102E+03  0.66203444022E+03 -0.13300702508E+04  0.16104554155E+04  0.50400001928E-02 0.  1.
       -1    1    3    3    0  502 -0.62144201102E+03 -0.66203444022E+03 -0.20752033781E+03  0.93142066958E+03  0.50400001928E-02 0. -1.
</event>
<event>
 5   0  0.3460648E-04  0.1773980E+04  0.7818609E-02  0.8720260E-01
        2   -1    0    0  501    0  0.00000000000E+00  0.00000000000E+00  0.61562994693E+03  0.61562994693E+03  0.25500000920E-02 0.  1.
       -2   -1    0    0    0  501  0.00000000000E+00  0.00000000000E+00 -0.12779618251E+04  0.12779618251E+04  0.25500000920E-02 0. -1.
    10030    2    1    2    0    0  0.00000000000E+00  0.00000000000E+00 -0.66233187816E+03  0.18935917720E+04  0.17739803500E+04 0.  0.
        5    1    3    3  502    0 -0.71763687603E+03 -0.50994405507E+03 -0.44654596711E+03  0.98715298504E+03  0.46999998093E+01 0. -1.
       -5    1    3    3    0  502  0.71763687603E+03  0.50994405507E+03 -0.21578591105E+03  0.90643878698E+03  0.46999998093E+01 0.  1.
</event>
<event>
 5   0  0.1696052E-04  0.1993525E+04  0.7818609E-02  0.8609654E-01
       -1   -1    0    0    0  501  0.00000000000E+00  0.00000000000E+00  0.58384563173E+03  0.58384563175E+03  0.50400001928E-02 0.  1.
        1   -1    0    0  501    0  0.00000000000E+00  0.00000000000E+00 -0.17017096067E+04  0.17017096067E+04  0.50400001928E-02 0. -1.
    10030    2    1    2    0    0  0.00000000000E+00  0.00000000000E+00 -0.11178639750E+04  0.22855552385E+04  0.19935252398E+04 0.  0.
        4    1    3    3  502    0  0.89283300612E+03  0.81310285770E+02 -0.59488891299E+02  0.89850023955E+03  0.12699999809E+01 0.  1.
       -4    1    3    3    0  502 -0.89283300612E+03 -0.81310285770E+02 -0.10583750837E+04  0.13870549989E+04  0.12699999809E+01 0. -1.
</event>
<event>
 5   0  0.1222488E-04  0.2027077E+04  0.7818609E-02  0.8594065E-01
       -4   -1    0    0    0  501  0.00000000000E+00  0.00000000000E+00  0.56650772076E+03  0.56650914431E+03  0.12699999809E+01 0. -1.
        4   -1    0    0  501    0  0.00000000000E+00  0.00000000000E+00 -0.18133164536E+04  0.18133168984E+04  0.12699999809E+01 0.  1.
    10030    2    1    2    0    0  0.00000000000E+00  0.00000000000E+00 -0.12468087329E+04  0.23798260427E+04  0.20270767072E+04 0.  0.
        1    1    3    3  502    0  0.15728799766E+03  0.63993629814E+03  0.28066783100E+03  0.71626280880E+03  0.50400001928E-02 0. -1.
       -1    1    3    3    0  502 -0.15728799766E+03 -0.63993629814E+03 -0.15274765639E+04  0.16635632339E+04  0.50400001928E-02 0.  1.
</event>
<event>
 5   0  0.3431030E-04  0.2019883E+04  0.7818609E-02  0.8597381E-01
        2   -1    0    0  501    0  0.00000000000E+00  0.00000000000E+00  0.64442478452E+03  0.64442478453E+03  0.25500000920E-02 0.  1.
       -2   -1    0    0    0  501  0.00000000000E+00  0.00000000000E+00 -0.15827788321E+04  0.15827788321E+04  0.25500000920E-02 0. -1.
    10030    2    1    2    0    0  0.00000000000E+00  0.00000000000E+00 -0.93835404754E+03  0.22272036166E+04  0.20198830737E+04 0.  0.
        3    1    3    3  502    0  0.29132293379E+03  0.42514581825E+03 -0.14268652226E+04  0.15170901068E+04  0.10100000352E+00 0. -1.
       -3    1    3    3    0  502 -0.29132293379E+03 -0.42514581825E+03  0.48851117501E+03  0.71011350983E+03  0.10100000352E+00 0.  1.
</event>
<event>
 5   0  0.3431030E-04  0.1998714E+04  0.7818609E-02  0.8607222E-01
        2   -1    0    0  501    0  0.00000000000E+00  0.00000000000E+00  0.25739245486E+04  0.25739245486E+04  0.25500000920E-02 0.  1.
       -2   -1    0    0    0  501  0.00000000000E+00  0.00000000000E+00 -0.38801219720E+03  0.38801219721E+03  0.25500000920E-02 0. -1.
    10030    2    1    2    0    0  0.00000000000E+00  0.00000000000E+00  0.21859123514E+04  0.29619367458E+04  0.19987137059E+04 0.  0.
        3    1    3    3  502    0  0.24040907170E+03 -0.30531391859E+03 -0.27145898505E+03  0.47402858712E+03  0.10100000352E+00 0. -1.
       -3    1    3    3    0  502 -0.24040907170E+03  0.30531391859E+03  0.24573713365E+04  0.24879081587E+04  0.10100000352E+00 0.  1.
</event>
<event>
 5   0  0.1664168E-04  0.1818762E+04  0.7818609E-02  0.8696385E-01
       -1   -1    0    0    0  501  0.00000000000E+00  0.00000000000E+00  0.35104649827E+03  0.35104649831E+03  0.50400001928E-02 0.  1.
        1   -1    0    0  501    0  0.00000000000E+00  0.00000000000E+00 -0.23557397116E+04  0.23557397116E+04  0.50400001928E-02 0. -1.
    10030    2    1    2    0    0  0.00000000000E+00  0.00000000000E+00 -0.20046932134E+04  0.27067862099E+04  0.18187624107E+04 0.  0.
        5    1    3    3  502    0 -0.18448005700E+03 -0.29684811377E+03 -0.22517740879E+04  0.22787409522E+04  0.46999998093E+01 0. -1.
       -5    1    3    3    0  502  0.18448005700E+03  0.29684811377E+03  0.24708087459E+03  0.42804525774E+03  0.46999998093E+01 0.  1.
</event>
<event>
 5   0  0.3460648E-04  0.2027753E+04  0.7818609E-02  0.8593754E-01
       -2   -1    0    0    0  501  0.00000000000E+00  0.00000000000E+00  0.91732820678E+03  0.91732820679E+03  0.25500000920E-02 0.  1.
        2   -1    0    0  501    0  0.00000000000E+00  0.00000000000E+00 -0.11205867271E+04  0.11205867271E+04  0.25500000920E-02 0. -1.
    10030    2    1    2    0    0  0.00000000000E+00  0.00000000000E+00 -0.20325852032E+03  0.20379149339E+04  0.20277532522E+04 0.  0.
        5    1    3    3  502    0  0.71502797597E+03  0.44355181020E+03  0.46682036667E+03  0.96226117011E+03  0.46999998093E+01 0.  1.
       -5    1    3    3    0  502 -0.71502797597E+03 -0.44355181020E+03 -0.67007888699E+03  0.10756537638E+04  0.46999998093E+01 0. -1.
</event>
<event>
 5   0  0.3431030E-04  0.1972469E+04  0.7818609E-02  0.8619602E-01
       -2   -1    0    0    0  501  0.00000000000E+00  0.00000000000E+00  0.80455504793E+03  0.80455504794E+03  0.25500000920E-02 0. -1.
        2   -1    0    0  501    0  0.00000000000E+00  0.00000000000E+00 -0.12089392442E+04  0.12089392442E+04  0.25500000920E-02 0.  1.
    10030    2    1    2    0    0  0.00000000000E+00  0.00000000000E+00 -0.40438419630E+03  0.20134942922E+04  0.19724686782E+04 0.  0.
        3    1    3    3  502    0 -0.12121390609E+03 -0.40074579828E+03  0.70933530826E+03  0.82367869683E+03  0.10100000352E+00 0. -1.
       -3    1    3    3    0  502  0.12121390609E+03  0.40074579828E+03 -0.11137195046E+04  0.11898155953E+04  0.10100000352E+00 0.  1.
</event>
<event>
 5   0  0.1708578E-04  0.2069695E+04  0.7818609E-02  0.8574712E-01
       -1   -1    0    0    0  501  0.00000000000E+00  0.00000000000E+00  0.49209564267E+03  0.49209564269E+03  0.50400001928E-02 0.  1.
        1   -1    0    0  501    0  0.00000000000E+00  0.00000000000E+00 -0.21762222307E+04  0.21762222307E+04  0.50400001928E-02 0. -1.
    10030    2    1    2    0    0  0.00000000000E+00  0.00000000000E+00 -0.16841265880E+04  0.26683178734E+04  0.20696951246E+04 0.  0.
        3    1    3    3  502    0  0.22798307997E+03 -0.63949535477E+02  0.45670224188E+03  0.51443442320E+03  0.10100000352E+00 0.  1.
       -3    1    3    3    0  502 -0.22798307997E+03  0.63949535477E+02 -0.21408288299E+04  0.21538834502E+04  0.10100000352E+00 0. -1.
</event>
<event>
 5   0  0.1708578E-04  0.1297612E+04  0.7818609E-02  0.9031461E-01
        1   -1    0    0  501    0  0.00000000000E+00  0.00000000000E+00  0.61953892602E+03  0.61953892604E+03  0.50400001928E-02 0.  1.
       -1   -1    0    0    0  501  0.00000000000E+00  0.00000000000E+00 -0.67945560183E+03  0.67945560185E+03  0.50400001928E-02 0. -1.
    10030    2    1    2    0    0  0.00000000000E+00  0.00000000000E+00 -0.59916675812E+02  0.12989945279E+04  0.12976119510E+04 0.  0.
        3    1    3    3  502    0 -0.45804591427E+03  0.32943232125E+03 -0.35063926903E+03  0.66428880846E+03  0.10100000352E+00 0. -1.
       -3    1    3    3    0  502  0.45804591427E+03 -0.32943232125E+03  0.29072259322E+03  0.63470571943E+03  0.10100000352E+00 0.  1.
</event>
<event>
 5   0  0.1696052E-04  0.2028542E+04  0.7818609E-02  0.8593392E-01
        1   -1    0    0  501    0  0.00000000000E+00  0.00000000000E+00  0.24371836782E+04  0.24371836782E+04  0.50400001928E-02 0.  1.
       -1   -1    0    0    0  501  0.00000000000E+00  0.00000000000E+00 -0.42210411188E+03  0.42210411191E+03  0.50400001928E-02 0. -1.
    10030    2    1    2    0    0  0.00000000000E+00  0.00000000000E+00  0.20150795663E+04  0.28592877901E+04  0.20285415963E+04 0.  0.
        4    1    3    3  502    0  0.37011913589E+03 -0.87666312762E+03  0.15023169667E+04  0.17783375088E+04  0.12699999809E+01 0.  1.
       -4    1    3    3    0  502 -0.37011913589E+03  0.87666312762E+03  0.51276259961E+03  0.10809502812E+04  0.12699999809E+01 0. -1.
</event>
<event>
 5   0  0.3387881E-04  0.2020168E+04  0.7818609E-02  0.8597249E-01
        2   -1    0    0  501    0  0.00000000000E+00  0.00000000000E+00  0.11018621884E+04  0.11018621884E+04  0.25500000920E-02 0.  1.
       -2   -1    0    0    0  501  0.00000000000E+00  0.00000000000E+00 -0.92595046820E+03  0.92595046820E+03  0.25500000920E-02 0. -1.
    10030    2    1    2    0    0  0.00000000000E+00  0.00000000000E+00  0.17591172015E+03  0.20278126566E+04  0.20201681209E+04 0.  0.
        1    1    3    3  502    0 -0.20147491784E+03  0.14326360369E+03  0.10710255529E+04  0.10991871259E+04  0.50400001928E-02 0.  1.
       -1    1    3    3    0  502  0.20147491784E+03 -0.14326360369E+03 -0.89511383275E+03  0.92862553070E+03  0.50400001928E-02 0. -1.
</event>
<event>
 5   0  0.1222488E-04  0.2112341E+04  0.7818609E-02  0.8555826E-01
        4   -1    0    0  501    0  0.00000000000E+00  0.00000000000E+00  0.71182934268E+03  0.71183047561E+03  0.12699999809E+01 0. -1.
       -4   -1    0    0    0  501  0.00000000000E+00  0.00000000000E+00 -0.15670811866E+04  0.15670817012E+04  0.12699999809E+01 0.  1.
    10030    2    1    2    0    0  0.00000000000E+00  0.00000000000E+00 -0.85525184388E+03  0.22789121768E+04  0.21123411166E+04 0.  0.
        4    1    3    3  502    0  0.82705279729E+03  0.60762754284E+03 -0.69683690196E+03  0.12404881463E+04  0.12699999809E+01 0.  1.
       -4    1    3    3    0  502 -0.82705279729E+03 -0.60762754284E+03 -0.15841494192E+03  0.10384240305E+04  0.12699999809E+01 0. -1.
</event>
<event>
 5   0  0.3371947E-04  0.1973240E+04  0.7818609E-02  0.8619235E-01
       -2   -1    0    0    0  501  0.00000000000E+00  0.00000000000E+00  0.46406947100E+03  0.46406947101E+03  0.25500000920E-02 0. -1.
        2   -1    0    0  501    0  0.00000000000E+00  0.00000000000E+00 -0.20975709460E+04  0.20975709460E+04  0.25500000920E-02 0.  1.
    10030    2    1    2    0    0  0.00000000000E+00  0.00000000000E+00 -0.16335014750E+04  0.25616404170E+04  0.19732396097E+04 0.  0.
        2    1    3    3  502    0 -0.72456944202E+03 -0.43260198179E+03 -0.14803193692E+04  0.17039632583E+04  0.25500000920E-02 0.  1.
       -2    1    3    3    0  502  0.72456944202E+03  0.43260198179E+03 -0.15318210581E+03  0.85767715867E+03  0.25500000920E-02 0. -1.
</event>
<event>
 5   0  0.3431030E-04  0.1821478E+04  0.7818609E-02  0.8694960E-01
       -2   -1    0    0    0  501  0.00000000000E+00  0.00000000000E+00  0.72453121117E+03  0.72453121118E+03  0.25500000920E-02 0. -1.
        2   -1    0    0  501    0  0.00000000000E+00  0.00000000000E+00 -0.11448033409E+04  0.11448033409E+04  0.25500000920E-02 0.  1.
    10030    2    1    2    0    0  0.00000000000E+00  0.00000000000E+00 -0.42027212971E+03  0.18693345521E+04  0.18214782471E+04 0.  0.
        3    1    3    3  502    0 -0.82094150517E+03 -0.18137297643E+03  0.14921296676E+03  0.85387682434E+03  0.10100000352E+00 0. -1.
       -3    1    3    3    0  502  0.82094150517E+03  0.18137297643E+03 -0.56948509647E+03  0.10154577277E+04  0.10100000352E+00 0.  1.
</event>
<event>
 5   0  0.1643565E-04  0.2002562E+04  0.7818609E-02  0.8605424E-01
       -1   -1    0    0    0  501  0.00000000000E+00  0.00000000000E+00  0.45798367700E+03  0.45798367702E+03  0.50400001928E-02 0. -1.
        1   -1    0    0  501    0  0.00000000000E+00  0.00000000000E+00 -0.21890820454E+04  0.21890820454E+04  0.50400001928E-02 0.  1.
    10030    2    1    2    0    0  0.00000000000E+00  0.00000000000E+00 -0.17310983684E+04  0.26470657224E+04  0.20025622032E+04 0.  0.
        2    1    3    3  502    0  0.54704592569E+03 -0.43335070397E+02  0.24150747116E+03  0.59955235949E+03  0.25500000920E-02 0. -1.
       -2    1    3    3    0  502 -0.54704592569E+03  0.43335070397E+02 -0.19726058396E+04  0.20475133629E+04  0.25500000920E-02 0.  1.
</event>
<event>
 5   0  0.1650221E-04  0.2041435E+04  0.7818609E-02  0.8587490E-01
        1   -1    0    0  501    0  0.00000000000E+00  0.00000000000E+00  0.17186791366E+04  0.17186791366E+04  0.50400001928E-02 0.  1.
       -1   -1    0    0    0  501  0.00000000000E+00  0.00000000000E+00 -0.60620057905E+03  0.60620057907E+03  0.50400001928E-02 0. -1.
    10030    2    1    2    0    0  0.00000000000E+00  0.00000000000E+00  0.11124785576E+04  0.23248797157E+04  0.20414350716E+04 0.  0.
        1    1    3    3  502    0  0.22789328361E+03 -0.78508574129E+03  0.12523054322E+04  0.14955145821E+04  0.50400001928E-02 0.  1.
       -1    1    3    3    0  502 -0.22789328361E+03  0.78508574129E+03 -0.13982687460E+03  0.82936513357E+03  0.50400001928E-02 0. -1.
</event>
<event>
 5   0  0.3431030E-04  0.1885914E+04  0.7818609E-02  0.8661900E-01
        2   -1    0    0  501    0  0.00000000000E+00  0.00000000000E+00  0.12692276120E+04  0.12692276120E+04  0.25500000920E-02 0. -1.
       -2   -1    0    0    0  501  0.00000000000E+00  0.00000000000E+00 -0.70055829310E+03  0.70055829310E+03  0.25500000920E-02 0.  1.
    10030    2    1    2    0    0  0.00000000000E+00  0.00000000000E+00  0.56866931886E+03  0.19697859051E+04  0.18859140271E+04 0.  0.
        3    1    3    3  502    0  0.55320876136E+03  0.75469329285E+02 -0.50934947015E+03  0.75575951615E+03  0.10100000352E+00 0.  1.
       -3    1    3    3    0  502 -0.55320876136E+03 -0.75469329285E+02  0.10780187890E+04  0.12140263889E+04  0.10100000352E+00 0. -1.
</event>
<event>
 5   0  0.3460648E-04  0.1999485E+04  0.7818609E-02  0.8606861E-01
        2   -1    0    0  501    0  0.00000000000E+00  0.00000000000E+00  0.11939899358E+04  0.11939899358E+04  0.25500000920E-02 0. -1.
       -2   -1    0    0    0  501  0.00000000000E+00  0.00000000000E+00 -0.83709710944E+03  0.83709710944E+03  0.25500000920E-02 0.  1.
    10030    2    1    2    0    0  0.00000000000E+00  0.00000000000E+00  0.35689282637E+03  0.20310870452E+04  0.19994854578E+04 0.  0.
        5    1    3    3  502    0  0.94055988896E+03 -0.30336130377E+03  0.25122291336E+02  0.98860214691E+03  0.46999998093E+01 0.  1.
       -5    1    3    3    0  502 -0.94055988896E+03  0.30336130377E+03  0.33177053503E+03  0.10424848983E+04  0.46999998093E+01 0. -1.
</event>
<event>
 5   0  0.1708578E-04  0.2062591E+04  0.7818609E-02  0.8577904E-01
        1   -1    0    0  501    0  0.00000000000E+00  0.00000000000E+00  0.83257554327E+03  0.83257554329E+03  0.50400001928E-02 0. -1.
       -1   -1    0    0    0  501  0.00000000000E+00  0.00000000000E+00 -0.12774458090E+04  0.12774458090E+04  0.50400001928E-02 0.  1.
    10030    2    1    2    0    0  0.00000000000E+00  0.00000000000E+00 -0.44487026569E+03  0.21100213523E+04  0.20625907383E+04 0.  0.
        3    1    3    3  502    0 -0.17797924285E+03 -0.30089049697E+03 -0.12149826196E+04  0.12642762666E+04  0.10100000352E+00 0.  1.
       -3    1    3    3    0  502  0.17797924285E+03  0.30089049697E+03  0.77011235394E+03  0.84574508568E+03  0.10100000352E+00 0. -1.
</event>
<event>
 5   0  0.1696052E-04  0.1965513E+04  0.7818609E-02  0.8622916E-01
        1   -1    0    0  501    0  0.00000000000E+00  0.00000000000E+00  0.10025165987E+04  0.10025165987E+04  0.50400001928E-02 0. -1.
       -1   -1    0    0    0  501  0.00000000000E+00  0.00000000000E+00 -0.96338560247E+03  0.96338560249E+03  0.50400001928E-02 0.  1.
    10030    2    1    2    0    0  0.00000000000E+00  0.00000000000E+00  0.39130996237E+02  0.19659022012E+04  0.19655127142E+04 0.  0.
        4    1    3    3  502    0  0.73375243818E+03 -0.29218173024E+02 -0.63368114340E+03  0.96994832160E+03  0.12699999809E+01 0.  1.
       -4    1    3    3    0  502 -0.73375243818E+03  0.29218173024E+02  0.67281213964E+03  0.99595387961E+03  0.12699999809E+01 0. -1.
</event>
<event>
 5   0  0.1643565E-04  0.2051140E+04  0.7818609E-02  0.8583077E-01
       -1   -1    0    0    0  501  0.00000000000E+00  0.00000000000E+00  0.47195875204E+03  0.47195875206E+03  0.50400001928E-02 0. -1.
        1   -1    0    0  501    0  0.00000000000E+00  0.00000000000E+00 -0.22285717141E+04  0.22285717141E+04  0.50400001928E-02 0.  1.
    10030    2    1    2    0    0  0.00000000000E+00  0.00000000000E+00 -0.17566129621E+04  0.27005304662E+04  0.20511400977E+04 0.  0.
        2    1    3    3  502    0 -0.33733308029E+03 -0.67558779298E+03 -0.17919749392E+04  0.19445787862E+04  0.25500000920E-02 0.  1.
       -2    1    3    3    0  502  0.33733308029E+03  0.67558779298E+03  0.35361977073E+02  0.75595168001E+03  0.25500000920E-02 0. -1.
</event>
<event>
 5   0  0.3395569E-04  0.1974999E+04  0.7818609E-02  0.8618400E-01
       -2   -1    0    0    0  501  0.00000000000E+00  0.00000000000E+00  0.64987752184E+03  0.64987752185E+03  0.25500000920E-02 0.  1.
        2   -1    0    0  501    0  0.00000000000E+00  0.00000000000E+00 -0.15005212864E+04  0.15005212864E+04  0.25500000920E-02 0. -1.
    10030    2    1    2    0    0  0.00000000000E+00  0.00000000000E+00 -0.85064376458E+03  0.21503988083E+04  0.19749987900E+04 0.  0.
        4    1    3    3  502    0 -0.83578101333E+03 -0.48134518373E+03 -0.65611459789E+03  0.11664952064E+04  0.12699999809E+01 0.  1.
       -4    1    3    3    0  502  0.83578101333E+03  0.48134518373E+03 -0.19452916669E+03  0.98390360185E+03  0.12699999809E+01 0. -1.
</event>
<event>
 5   0  0.1664168E-04  0.2102585E+04  0.7818609E-02  0.8560105E-01
       -1   -1    0    0    0  501  0.00000000000E+00  0.00000000000E+00  0.13367853533E+04  0.13367853534E+04  0.50400001928E-02 0. -1.
        1   -1    0    0  501    0  0.00000000000E+00  0.00000000000E+00 -0.82677167321E+03  0.82677167323E+03  0.50400001928E-02 0.  1.
    10030    2    1    2    0    0  0.00000000000E+00  0.00000000000E+00  0.51001368013E+03  0.21635570266E+04  0.21025853261E+04 0.  0.
        5    1    3    3  502    0 -0.78200710086E+03 -0.38027186626E+03  0.86294585637E+03  0.12250875230E+04  0.46999998093E+01 0. -1.
       -5    1    3    3    0  502  0.78200710086E+03  0.38027186626E+03 -0.35293217624E+03  0.93846950355E+03  0.46999998093E+01 0.  1.
</event>
<event>
 5   0  0.3460648E-04  0.2062526E+04  0.7818609E-02  0.8577933E-01
       -2   -1    0    0    0  501  0.00000000000E+00  0.00000000000E+00  0.59561131595E+03  0.59561131595E+03  0.25500000920E-02 0. -1.
        2   -1    0    0  501    0  0.00000000000E+00  0.00000000000E+00 -0.17855661196E+04  0.17855661196E+04  0.25500000920E-02 0.  1.
    10030    2    1    2    0    0  0.00000000000E+00  0.00000000000E+00 -0.11899548036E+04  0.23811774355E+04  0.20625260107E+04 0.  0.
        5    1    3    3  502    0 -0.89064846095E+03  0.17999105959E+02 -0.11947628108E+04  0.14903217481E+04  0.46999998093E+01 0.  1.
       -5    1    3    3    0  502  0.89064846095E+03 -0.17999105959E+02  0.48080072199E+01  0.89085568738E+03  0.46999998093E+01 0. -1.
</event>
<event>
 5   0  0.1643565E-04  0.1893525E+04  0.7818609E-02  0.8658086E-01
       -1   -1    0    0    0  501  0.00000000000E+00  0.00000000000E+00  0.39149460894E+03  0.39149460897E+03  0.50400001928E-02 0. -1.
        1   -1    0    0  501    0  0.00000000000E+00  0.00000000000E+00 -0.22895837402E+04  0.22895837402E+04  0.50400001928E-02 0.  1.
    10030    2    1    2    0    0  0.00000000000E+00  0.00000000000E+00 -0.18980891312E+04  0.26810783492E+04  0.18935254855E+04 0.  0.
        2    1    3    3  502    0 -0.93136525401E+03  0.84443084557E+02 -0.74004506837E+03  0.11925764437E+04  0.25500000920E-02 0.  1.
       -2    1    3    3    0  502  0.93136525401E+03 -0.84443084557E+02 -0.11580440629E+04  0.14885019054E+04  0.25500000920E-02 0. -1.
</event>
<event>
 5   0  0.3387881E-04  0.1733066E+04  0.7818609E-02  0.8742727E-01
        2   -1    0    0  501    0  0.00000000000E+00  0.00000000000E+00  0.17570397754E+04  0.17570397754E+04  0.25500000920E-02 0.  1.
       -2   -1    0    0    0  501  0.00000000000E+00  0.00000000000E+00 -0.42735459173E+03  0.42735459173E+03  0.25500000920E-02 0. -1.
    10030    2    1    2    0    0  0.00000000000E+00  0.00000000000E+00  0.13296851837E+04  0.21843943671E+04  0.17330655104E+04 0.  0.
        1    1    3    3  502    0  0.76495373223E+03  0.40133913118E+03  0.57887749451E+03  0.10398684842E+04  0.50400001928E-02 0. -1.
       -1    1    3    3    0  502 -0.76495373223E+03 -0.40133913118E+03  0.75080768915E+03  0.11445258830E+04  0.50400001928E-02 0.  1.
</event>
<event>
 5   0  0.1664168E-04  0.2073910E+04  0.7818609E-02  0.8572824E-01
       -1   -1    0    0    0  501  0.00000000000E+00  0.00000000000E+00  0.10112661052E+04  0.10112661052E+04  0.50400001928E-02 0.  1.
        1   -1    0    0  501    0  0.00000000000E+00  0.00000000000E+00 -0.10632965016E+04  0.10632965016E+04  0.50400001928E-02 0. -1.
    10030    2    1    2    0    0  0.00000000000E+00  0.00000000000E+00 -0.52030396376E+02  0.20745626068E+04  0.20739100384E+04 0.  0.
        5    1    3    3  502    0 -0.10341874323E+04 -0.75140728600E+02 -0.18022218791E+02  0.10370808380E+04  0.46999998093E+01 0. -1.
       -5    1    3    3    0  502  0.10341874323E+04  0.75140728600E+02 -0.34008177585E+02  0.10374817687E+04  0.46999998093E+01 0.  1.
</event>
<event>
 5   0  0.1643565E-04  0.1872509E+04  0.7818609E-02  0.8668663E-01
       -1   -1    0    0    0  501  0.00000000000E+00  0.00000000000E+00  0.10996905464E+04  0.10996905464E+04  0.50400001928E-02 0.  1.
        1   -1    0    0  501    0  0.00000000000E+00  0.00000000000E+00 -0.79710847027E+03  0.79710847029E+03  0.50400001928E-02 0. -1.
    10030    2    1    2    0    0  0.00000000000E+00  0.00000000000E+00  0.30258207612E+03  0.18967990167E+04  0.18725091714E+04 0.  0.
        2    1    3    3  502    0  0.81742758227E+03  0.43550141681E+03  0.28989916989E+03  0.97051062076E+03  0.25500000920E-02 0. -1.
       -2    1    3    3    0  502 -0.81742758227E+03 -0.43550141681E+03  0.12682906227E+02  0.92628839592E+03  0.25500000920E-02 0.  1.
</event>
<event>
 5   0  0.3371947E-04  0.1998626E+04  0.7818609E-02  0.8607263E-01
       -2   -1    0    0    0  501  0.00000000000E+00  0.00000000000E+00  0.77614811732E+03  0.77614811733E+03  0.25500000920E-02 0. -1.
        2   -1    0    0  501    0  0.00000000000E+00  0.00000000000E+00 -0.12866439232E+04  0.12866439232E+04  0.25500000920E-02 0.  1.
    10030    2    1    2    0    0  0.00000000000E+00  0.00000000000E+00 -0.51049580584E+03  0.20627920405E+04  0.19986257865E+04 0.  0.
        2    1    3    3  502    0  0.47809411672E+03  0.87492575860E+03 -0.18557360806E+03  0.10141531598E+04  0.25500000920E-02 0. -1.
       -2    1    3    3    0  502 -0.47809411672E+03 -0.87492575860E+03 -0.32492219778E+03  0.10486388807E+04  0.25500000920E-02 0.  1.
</event>
<event>
 5   0  0.3371947E-04  0.2005560E+04  0.7818609E-02  0.8604025E-01
       -2   -1    0    0    0  501  0.00000000000E+00  0.00000000000E+00  0.10052272474E+04  0.10052272474E+04  0.25500000920E-02 0.  1.
        2   -1    0    0  501    0  0.00000000000E+00  0.00000000000E+00 -0.10003390986E+04  0.10003390986E+04  0.25500000920E-02 0. -1.
    10030    2    1    2    0    0  0.00000000000E+00  0.00000000000E+00  0.48881487283E+01  0.20055663460E+04  0.20055603891E+04 0.  0.
        2    1    3    3  502    0  0.56428971896E+03  0.11311047239E+03  0.82363543976E+03  0.10047846553E+04  0.25500000920E-02 0.  1.
       -2    1    3    3    0  502 -0.56428971896E+03 -0.11311047239E+03 -0.81874729103E+03  0.10007816907E+04  0.25500000920E-02 0. -1.
</event>
<event>
 5   0  0.3395569E-04  0.2073728E+04  0.7818609E-02  0.8572906E-01
        2   -1    0    0  501    0  0.00000000000E+00  0.00000000000E+00  0.23716167390E+04  0.23716167390E+04  0.25500000920E-02 0. -1.
       -2   -1    0    0    0  501  0.00000000000E+00  0.00000000000E+00 -0.45331376596E+03  0.45331376597E+03  0.25500000920E-02 0.  1.
    10030    2    1    2    0    0  0.00000000000E+00  0.00000000000E+00  0.19183029731E+04  0.28249305050E+04  0.20737275765E+04 0.  0.
        4    1    3    3  502    0 -0.78542481620E+03  0.59427035452E+03  0.51765817142E+03  0.11126639167E+04  0.12699999809E+01 0. -1.
       -4    1    3    3    0  502  0.78542481620E+03 -0.59427035452E+03  0.14006448017E+04  0.17122665883E+04  0.12699999809E+01 0.  1.
</event>
<event>
 5   0  0.3371947E-04  0.2021873E+04  0.7818609E-02  0.8596462E-01
       -2   -1    0    0    0  501  0.00000000000E+00  0.00000000000E+00  0.71875552146E+03  0.71875552147E+03  0.25500000920E-02 0.  1.
        2   -1    0    0  501    0  0.00000000000E+00  0.00000000000E+00 -0.14218917953E+04  0.14218917953E+04  0.25500000920E-02 0. -1.
    10030    2    1    2    0    0  0.00000000000E+00  0.00000000000E+00 -0.70313627386E+03  0.21406473168E+04  0.20218729721E+04 0.  0.
        2    1    3    3  502    0  0.39126613278E+03 -0.39070502939E+03 -0.12476021026E+04  0.13646430350E+04  0.25500000920E-02 0. -1.
       -2    1    3    3    0  502 -0.39126613278E+03  0.39070502939E+03  0.54446582873E+03  0.77600428176E+03  0.25500000920E-02 0.  1.
</event>
<event>
 5   0  0.3371947E-04  0.2015435E+04  0.7818609E-02  0.8599438E-01
       -2   -1    0    0    0  501  0.00000000000E+00  0.00000000000E+00  0.88719769415E+03  0.88719769416E+03  0.25500000920E-02 0.  1.
        2   -1    0    0  501    0  0.00000000000E+00  0.00000000000E+00 -0.11446091434E+04  0.11446091434E+04  0.25500000920E-02 0. -1.
    10030    2    1    2    0    0  0.00000000000E+00  0.00000000000E+00 -0.25741144927E+03  0.20318068376E+04  0.20154350327E+04 0.  0.
        2    1    3    3  502    0 -0.47690382202E+03  0.23807274010E+03 -0.99085957207E+03  0.11251304709E+04  0.25500000920E-02 0. -1.
       -2    1    3    3    0  502  0.47690382202E+03 -0.23807274010E+03  0.73344812279E+03  0.90667636667E+03  0.25500000920E-02 0.  1.
</event>
<event>
 5   0  0.3431030E-04  0.1920137E+04  0.7818609E-02  0.8644898E-01
        2   -1    0    0  501    0  0.00000000000E+00  0.00000000000E+00  0.13004686241E+04  0.13004686241E+04  0.25500000920E-02 0. -1.
       -2   -1    0    0    0  501  0.00000000000E+00  0.00000000000E+00 -0.70876850611E+03  0.70876850611E+03  0.25500000920E-02 0.  1.
    10030    2    1    2    0    0  0.00000000000E+00  0.00000000000E+00  0.59170011804E+03  0.20092371303E+04  0.19201366659E+04 0.  0.
        3    1    3    3  502    0  0.87346683120E+02  0.93572227325E+02  0.12914992505E+04  0.12978272338E+04  0.10100000352E+00 0. -1.
       -3    1    3    3    0  502 -0.87346683120E+02 -0.93572227325E+02 -0.69979913242E+03  0.71140989641E+03  0.10100000352E+00 0.  1.
</event>
<event>
 5   0  0.1696052E-04  0.1989993E+04  0.7818609E-02  0.8611313E-01
       -1   -1    0    0    0  501  0.00000000000E+00  0.00000000000E+00  0.11871214660E+04  0.11871214660E+04  0.50400001928E-02 0. -1.
        1   -1    0    0  501    0  0.00000000000E+00  0.00000000000E+00 -0.83396552724E+03  0.83396552726E+03  0.50400001928E-02 0.  1.
    10030    2    1    2    0    0  0.00000000000E+00  0.00000000000E+00  0.35315593878E+03  0.20210869933E+04  0.19899933461E+04 0.  0.
        4    1    3    3  502    0 -0.32423324963E+03  0.37675498804E+03  0.10519885406E+04  0.11635089272E+04  0.12699999809E+01 0. -1.
       -4    1    3    3    0  502  0.32423324963E+03 -0.37675498804E+03 -0.69883260183E+03  0.85757806610E+03  0.12699999809E+01 0.  1.
</event>
<event>
 5   0  0.1650221E-04  0.1968100E+04  0.7818609E-02  0.8621682E-01
       -1   -1    0    0    0  501  0.00000000000E+00  0.00000000000E+00  0.39684168567E+03  0.39684168570E+03  0.50400001928E-02 0.  1.
        1   -1    0    0  501    0  0.00000000000E+00  0.00000000000E+00 -0.24401523946E+04  0.24401523946E+04  0.50400001928E-02 0. -1.
    10030    2    1    2    0    0  0.00000000000E+00  0.00000000000E+00 -0.20433107089E+04  0.28369940803E+04  0.19680997836E+04 0.  0.
        1    1    3    3  502    0  0.48681724701E+03  0.78346789947E+03 -0.15158595079E+04  0.17744416105E+04  0.50400001928E-02 0. -1.
       -1    1    3    3    0  502 -0.48681724701E+03 -0.78346789947E+03 -0.52745120102E+03  0.10625524698E+04  0.50400001928E-02 0.  1.
</event>
<event>
 5   0  0.1708578E-04  0.1959182E+04  0.7818609E-02  0.8625946E-01
        1   -1    0    0  501    0  0.00000000000E+00  0.00000000000E+00  0.10970157329E+04  0.10970157329E+04  0.50400001928E-02 0.  1.
       -1   -1    0    0    0  501  0.00000000000E+00  0.00000000000E+00 -0.87473564992E+03  0.87473564994E+03  0.50400001928E-02 0. -1.
    10030    2    1    2    0    0  0.00000000000E+00  0.00000000000E+00  0.22228008297E+03  0.19717513828E+04  0.19591822479E+04 0.  0.
        3    1    3    3  502    0  0.21999108194E+02 -0.58206484886E+02  0.10950247261E+04  0.10967912821E+04  0.10100000352E+00 0.  1.
       -3    1    3    3    0  502 -0.21999108194E+02  0.58206484886E+02 -0.87274464308E+03  0.87496010073E+03  0.10100000352E+00 0. -1.
</event>
<event>
 5   0  0.1643565E-04  0.1998516E+04  0.7818609E-02  0.8607315E-01
       -1   -1    0    0    0  501  0.00000000000E+00  0.00000000000E+00  0.76998454560E+03  0.76998454562E+03  0.50400001928E-02 0.  1.
        1   -1    0    0  501    0  0.00000000000E+00  0.00000000000E+00 -0.12968010756E+04  0.12968010756E+04  0.50400001928E-02 0. -1.
    10030    2    1    2    0    0  0.00000000000E+00  0.00000000000E+00 -0.52681653001E+03  0.20667856212E+04  0.19985162366E+04 0.  0.
        2    1    3    3  502    0  0.24468302233E+03  0.20574299642E+03 -0.12424890444E+04  0.12829571261E+04  0.25500000920E-02 0. -1.
       -2    1    3    3    0  502 -0.24468302233E+03 -0.20574299642E+03  0.71567251436E+03  0.78382849515E+03  0.25500000920E-02 0.  1.
</event>
<event>
 5   0  0.1708578E-04  0.1992669E+04  0.7818609E-02  0.8610056E-01
        1   -1    0    0  501    0  0.00000000000E+00  0.00000000000E+00  0.14357606782E+04  0.14357606782E+04  0.50400001928E-02 0. -1.
       -1   -1    0    0    0  501  0.00000000000E+00  0.00000000000E+00 -0.69139850932E+03  0.69139850934E+03  0.50400001928E-02 0.  1.
    10030    2    1    2    0    0  0.00000000000E+00  0.00000000000E+00  0.74436216889E+03  0.21271591876E+04  0.19926693581E+04 0.  0.
        3    1    3    3  502    0  0.80967673015E+03  0.48340578357E+03  0.28877780226E+02  0.94344660438E+03  0.10100000352E+00 0.  1.
       -3    1    3    3    0  502 -0.80967673015E+03 -0.48340578357E+03  0.71548438866E+03  0.11837125832E+04  0.10100000352E+00 0. -1.
</event>
<event>
 5   0  0.3395569E-04  0.2069389E+04  0.7818609E-02  0.8574849E-01
       -2   -1    0    0    0  501  0.00000000000E+00  0.00000000000E+00  0.78324404167E+03  0.78324404167E+03  0.25500000920E-02 0.  1.
        2   -1    0    0  501    0  0.00000000000E+00  0.00000000000E+00 -0.13668700104E+04  0.13668700104E+04  0.25500000920E-02 0. -1.
    10030    2    1    2    0    0  0.00000000000E+00  0.00000000000E+00 -0.58362596869E+03  0.21501140520E+04  0.20693890802E+04 0.  0.
        4    1    3    3  502    0  0.25317025111E+03 -0.15815578264E+03  0.73753135410E+03  0.79565227254E+03  0.12699999809E+01 0.  1.
       -4    1    3    3    0  502 -0.25317025111E+03  0.15815578264E+03 -0.13211573228E+04  0.13544617795E+04  0.12699999809E+01 0. -1.
</event>
<event>
 5   0  0.3395569E-04  0.1991164E+04  0.7818609E-02  0.8610763E-01
       -2   -1    0    0    0  501  0.00000000000E+00  0.00000000000E+00  0.47491402938E+03  0.47491402939E+03  0.25500000920E-02 0. -1.
        2   -1    0    0  501    0  0.00000000000E+00  0.00000000000E+00 -0.20870803490E+04  0.20870803490E+04  0.25500000920E-02 0.  1.
    10030    2    1    2    0    0  0.00000000000E+00  0.00000000000E+00 -0.16121663196E+04  0.25619943783E+04  0.19911642204E+04 0.  0.
        4    1    3    3  502    0  0.94889169916E+03 -0.29949258023E+03 -0.84857995571E+03  0.13077388181E+04  0.12699999809E+01 0. -1.
       -4    1    3    3    0  502 -0.94889169916E+03  0.29949258023E+03 -0.76358636386E+03  0.12542555602E+04  0.12699999809E+01 0.  1.
</event>
<event>
 5   0  0.3371947E-04  0.2004118E+04  0.7818609E-02  0.8604698E-01
       -2   -1    0    0    0  501  0.00000000000E+00  0.00000000000E+00  0.57174608963E+03  0.57174608964E+03  0.25500000920E-02 0.  1.
        2   -1    0    0  501    0  0.00000000000E+00  0.00000000000E+00 -0.17562385706E+04  0.17562385706E+04  0.25500000920E-02 0. -1.
    10030    2    1    2    0    0  0.00000000000E+00  0.00000000000E+00 -0.11844924810E+04  0.23279846603E+04  0.20041182951E+04 0.  0.
        2    1    3    3  502    0 -0.18456873419E+03  0.41689881234E+02 -0.17352981660E+04  0.17455839679E+04  0.25500000920E-02 0. -1.
       -2    1    3    3    0  502  0.18456873419E+03 -0.41689881234E+02  0.55080568504E+03  0.58240069240E+03  0.25500000920E-02 0.  1.
</event>
<event>
 5   0  0.1222488E-04  0.1954449E+04  0.7818609E-02  0.8628218E-01
        3   -1    0    0  501    0  0.00000000000E+00  0.00000000000E+00  0.19372556247E+04  0.19372556273E+04  0.10100000352E+00 0. -1.
       -3   -1    0    0    0  501  0.00000000000E+00  0.00000000000E+00 -0.49294875991E+03  0.49294877026E+03  0.10100000352E+00 0.  1.
    10030    2    1    2    0    0  0.00000000000E+00  0.00000000000E+00  0.14443068648E+04  0.24302043976E+04  0.19544490514E+04 0.  0.
        1    1    3    3  502    0 -0.49439941656E+03 -0.37419919402E+03  0.16613377299E+04  0.17732734907E+04  0.50400001928E-02 0. -1.
       -1    1    3    3    0  502  0.49439941656E+03  0.37419919402E+03 -0.21703086518E+03  0.65693090685E+03  0.50400001928E-02 0.  1.
</event>
<event>
 5   0  0.1696052E-04  0.2019299E+04  0.7818609E-02  0.8597651E-01
        1   -1    0    0  501    0  0.00000000000E+00  0.00000000000E+00  0.18690603247E+04  0.18690603248E+04  0.50400001928E-02 0. -1.
       -1   -1    0    0    0  501  0.00000000000E+00  0.00000000000E+00 -0.54540333552E+03  0.54540333554E+03  0.50400001928E-02 0.  1.
    10030    2    1    2    0    0  0.00000000000E+00  0.00000000000E+00  0.13236569892E+04  0.24144636603E+04  0.20192986262E+04 0.  0.
        4    1    3    3  502    0 -0.19935029186E+03 -0.98692256541E+03  0.75157276105E+03  0.12564314215E+04  0.12699999809E+01 0. -1.
       -4    1    3    3    0  502  0.19935029186E+03  0.98692256541E+03  0.57208422818E+03  0.11580322388E+04  0.12699999809E+01 0.  1.
</event>
<event>
 5   0  0.1708578E-04  0.2000424E+04  0.7818609E-02  0.8606422E-01
       -1   -1    0    0    0  501  0.00000000000E+00  0.00000000000E+00  0.10807027749E+04  0.10807027749E+04  0.50400001928E-02 0.  1.
        1   -1    0    0  501    0  0.00000000000E+00  0.00000000000E+00 -0.92571660556E+03  0.92571660558E+03  0.50400001928E-02 0. -1.
    10030    2    1    2    0    0  0.00000000000E+00  0.00000000000E+00  0.15498616937E+03  0.20064193805E+04  0.20004244594E+04 0.  0.
        3    1    3    3  502    0  0.68675273798E+03 -0.59436176384E+02  0.80441499837E+03  0.10593608837E+04  0.10100000352E+00 0.  1.
       -3    1    3    3    0  502 -0.68675273798E+03  0.59436176384E+02 -0.64942882901E+03  0.94705849678E+03  0.10100000352E+00 0. -1.
</event>
<event>
 5   0  0.1696052E-04  0.1973791E+04  0.7818609E-02  0.8618973E-01
        1   -1    0    0  501    0  0.00000000000E+00  0.00000000000E+00  0.25943599237E+04  0.25943599237E+04  0.50400001928E-02 0.  1.
       -1   -1    0    0    0  501  0.00000000000E+00  0.00000000000E+00 -0.37541551391E+03  0.37541551395E+03  0.50400001928E-02 0. -1.
    10030    2    1    2    0    0  0.00000000000E+00  0.00000000000E+00  0.22189444098E+04  0.29697754376E+04  0.19737912393E+04 0.  0.
        4    1    3    3  502    0 -0.81972212443E+03 -0.42885228988E+02  0.28512207037E+03  0.86895322778E+03  0.12699999809E+01 0. -1.
       -4    1    3    3    0  502  0.81972212443E+03  0.42885228988E+02  0.19338223394E+04  0.21008222099E+04  0.12699999809E+01 0.  1.
</event>
<event>
 5   0  0.1696052E-04  0.2023318E+04  0.7818609E-02  0.8595796E-01
        1   -1    0    0  501    0  0.00000000000E+00  0.00000000000E+00  0.20387716520E+04  0.20387716520E+04  0.50400001928E-02 0. -1.
       -1   -1    0    0    0  501  0.00000000000E+00  0.00000000000E+00 -0.50199545365E+03  0.50199545368E+03  0.50400001928E-02 0.  1.
    10030    2    1    2    0    0  0.00000000000E+00  0.00000000000E+00  0.15367761984E+04  0.25407671057E+04  0.20233181662E+04 0.  0.
        4    1    3    3  502    0 -0.85320466522E+03  0.27988866260E+03  0.13535650576E+04  0.16243262733E+04  0.12699999809E+01 0. -1.
       -4    1    3    3    0  502  0.85320466522E+03 -0.27988866260E+03  0.18321114075E+03  0.91644083235E+03  0.12699999809E+01 0.  1.
</event>
<event>
 5   0  0.3387881E-04  0.1894733E+04  0.7818609E-02  0.8657483E-01
       -2   -1    0    0    0  501  0.00000000000E+00  0.00000000000E+00  0.81198992581E+03  0.81198992582E+03  0.25500000920E-02 0. -1.
        2   -1    0    0  501    0  0.00000000000E+00  0.00000000000E+00 -0.11053130576E+04  0.11053130576E+04  0.25500000920E-02 0.  1.
    10030    2    1    2    0    0  0.00000000000E+00  0.00000000000E+00 -0.29332313174E+03  0.19173029834E+04  0.18947327702E+04 0.  0.
        1    1    3    3  502    0 -0.23573817943E+03  0.82667523310E+03 -0.54957369557E+03  0.10202919568E+04  0.50400001928E-02 0.  1.
       -1    1    3    3    0  502  0.23573817943E+03 -0.82667523310E+03  0.25625056382E+03  0.89701102655E+03  0.50400001928E-02 0. -1.
</event>
<event>
 5   0  0.3371947E-04  0.1997748E+04  0.7818609E-02  0.8607674E-01
        2   -1    0    0  501    0  0.00000000000E+00  0.00000000000E+00  0.73418278261E+03  0.73418278262E+03  0.25500000920E-02 0.  1.
       -2   -1    0    0    0  501  0.00000000000E+00  0.00000000000E+00 -0.13589932544E+04  0.13589932544E+04  0.25500000920E-02 0. -1.
    10030    2    1    2    0    0  0.00000000000E+00  0.00000000000E+00 -0.62481047179E+03  0.20931760370E+04  0.19977481814E+04 0.  0.
        2    1    3    3  502    0  0.90397837144E+03  0.40445458099E+03 -0.44897340688E+03  0.10873534495E+04  0.25500000920E-02 0.  1.
       -2    1    3    3    0  502 -0.90397837144E+03 -0.40445458099E+03 -0.17583706491E+03  0.10058225875E+04  0.25500000920E-02 0. -1.
</event>
<event>
 5   0  0.3431030E-04  0.1239726E+04  0.7818609E-02  0.9078778E-01
       -2   -1    0    0    0  501  0.00000000000E+00  0.00000000000E+00  0.37794856789E+03  0.37794856790E+03  0.25500000920E-02 0.  1.
        2   -1    0    0  501    0  0.00000000000E+00  0.00000000000E+00 -0.10166196074E+04  0.10166196074E+04  0.25500000920E-02 0. -1.
    10030    2    1    2    0    0  0.00000000000E+00  0.00000000000E+00 -0.63867103952E+03  0.13945681753E+04  0.12397256547E+04 0.  0.
        3    1    3    3  502    0  0.35301635106E+03 -0.48366290048E+03 -0.13907192487E+03  0.61472868480E+03  0.10100000352E+00 0.  1.
       -3    1    3    3    0  502 -0.35301635106E+03  0.48366290048E+03 -0.49959911465E+03  0.77983949052E+03  0.10100000352E+00 0. -1.
</event>
<event>
 5   0  0.3460648E-04  0.1999842E+04  0.7818609E-02  0.8606694E-01
        2   -1    0    0  501    0  0.00000000000E+00  0.00000000000E+00  0.11034149815E+04  0.11034149815E+04  0.25500000920E-02 0. -1.
       -2   -1    0    0    0  501  0.00000000000E+00  0.00000000000E+00 -0.90613447749E+03  0.90613447749E+03  0.25500000920E-02 0.  1.
    10030    2    1    2    0    0  0.00000000000E+00  0.00000000000E+00  0.19728050404E+03  0.20095494590E+04  0.19998423515E+04 0.  0.
        5    1    3    3  502    0 -0.14091072242E+03  0.98388697893E+03 -0.11118360431E+02  0.99399956084E+03  0.46999998093E+01 0. -1.
       -5    1    3    3    0  502  0.14091072242E+03 -0.98388697893E+03  0.20839886447E+03  0.10155498982E+04  0.46999998093E+01 0.  1.
</event>
<event>
 5   0  0.1664168E-04  0.1326583E+04  0.7818609E-02  0.9008746E-01
        1   -1    0    0  501    0  0.00000000000E+00  0.00000000000E+00  0.11757842054E+04  0.11757842054E+04  0.50400001928E-02 0. -1.
       -1   -1    0    0    0  501  0.00000000000E+00  0.00000000000E+00 -0.37418045660E+03  0.37418045663E+03  0.50400001928E-02 0.  1.
    10030    2    1    2    0    0  0.00000000000E+00  0.00000000000E+00  0.80160374881E+03  0.15499646620E+04  0.13265827843E+04 0.  0.
        5    1    3    3  502    0  0.34482844901E+02  0.29827573215E+03  0.10918087717E+04  0.11323541685E+04  0.46999998093E+01 0. -1.
       -5    1    3    3    0  502 -0.34482844901E+02 -0.29827573215E+03 -0.29020502290E+03  0.41761049352E+03  0.46999998093E+01 0.  1.
</event>
<event>
 5   0  0.1643565E-04  0.1990642E+04  0.7818609E-02  0.8611008E-01
        1   -1    0    0  501    0  0.00000000000E+00  0.00000000000E+00  0.22626725092E+04  0.22626725092E+04  0.50400001928E-02 0.  1.
       -1   -1    0    0    0  501  0.00000000000E+00  0.00000000000E+00 -0.43782920448E+03  0.43782920451E+03  0.50400001928E-02 0. -1.
    10030    2    1    2    0    0  0.00000000000E+00  0.00000000000E+00  0.18248433048E+04  0.27005017138E+04  0.19906422127E+04 0.  0.
        2    1    3    3  502    0 -0.38519806886E+03 -0.91413133663E+03  0.80179065532E+03  0.12754928098E+04  0.25500000920E-02 0. -1.
       -2    1    3    3    0  502  0.38519806886E+03  0.91413133663E+03  0.10230526494E+04  0.14250089040E+04  0.25500000920E-02 0.  1.
</event>
<event>
 5   0  0.1664168E-04  0.1988101E+04  0.7818609E-02  0.8612204E-01
        1   -1    0    0  501    0  0.00000000000E+00  0.00000000000E+00  0.15072451909E+04  0.15072451909E+04  0.50400001928E-02 0. -1.
       -1   -1    0    0    0  501  0.00000000000E+00  0.00000000000E+00 -0.65559079783E+03  0.65559079785E+03  0.50400001928E-02 0.  1.
    10030    2    1    2    0    0  0.00000000000E+00  0.00000000000E+00  0.85165439311E+03  0.21628359888E+04  0.19881006788E+04 0.  0.
        5    1    3    3  502    0 -0.94706457945E+03 -0.14817178165E+03  0.71206398885E+03  0.11941287237E+04  0.46999998093E+01 0. -1.
       -5    1    3    3    0  502  0.94706457945E+03  0.14817178165E+03  0.13959040426E+03  0.96870726511E+03  0.46999998093E+01 0.  1.
</event>
<event>
 5   0  0.3371947E-04  0.2013322E+04  0.7818609E-02  0.8600418E-01
        2   -1    0    0  501    0  0.00000000000E+00  0.00000000000E+00  0.14451070195E+04  0.14451070195E+04  0.25500000920E-02 0. -1.
       -2   -1    0    0    0  501  0.00000000000E+00  0.00000000000E+00 -0.70123933053E+03  0.70123933053E+03  0.25500000920E-02 0.  1.
    10030    2    1    2    0    0  0.00000000000E+00  0.00000000000E+00  0.74386768898E+03  0.21463463500E+04  0.20133215132E+04 0.  0.
        2    1    3    3  502    0 -0.61005283094E+03  0.36563445270E+03 -0.38753541467E+03  0.80996092941E+03  0.25500000920E-02 0.  1.
       -2    1    3    3    0  502  0.61005283094E+03 -0.36563445270E+03  0.11314031036E+04  0.13363854206E+04  0.25500000920E-02 0. -1.
</event>
<event>
 5   0  0.3387881E-04  0.1930594E+04  0.7818609E-02  0.8639776E-01
       -2   -1    0    0    0  501  0.00000000000E+00  0.00000000000E+00  0.35542351755E+03  0.35542351756E+03  0.25500000920E-02 0.  1.
        2   -1    0    0  501    0  0.00000000000E+00  0.00000000000E+00 -0.26216571813E+04  0.26216571813E+04  0.25500000920E-02 0. -1.
    10030    2    1    2    0    0  0.00000000000E+00  0.00000000000E+00 -0.22662336637E+04  0.29770806988E+04  0.19305943304E+04 0.  0.
        1    1    3    3  502    0 -0.23637572145E+03  0.33703795732E+03  0.21327430162E+03  0.46363131270E+03  0.50400001928E-02 0.  1.
       -1    1    3    3    0  502  0.23637572145E+03 -0.33703795732E+03 -0.24795079653E+04  0.25134493861E+04  0.50400001928E-02 0. -1.
</event>
<event>
 5   0  0.3387881E-04  0.2007923E+04  0.7818609E-02  0.8602925E-01
        2   -1    0    0  501    0  0.00000000000E+00  0.00000000000E+00  0.16765957012E+04  0.16765957012E+04  0.25500000920E-02 0.  1.
       -2   -1    0    0    0  501  0.00000000000E+00  0.00000000000E+00 -0.60118191779E+03  0.60118191779E+03  0.25500000920E-02 0. -1.
    10030    2    1    2    0    0  0.00000000000E+00  0.00000000000E+00  0.10754137834E+04  0.22777776190E+04  0.20079233242E+04 0.  0.
        1    1    3    3  502    0 -0.83187372882E+02  0.30544263266E+03  0.16184961729E+04  0.16491650016E+04  0.50400001928E-02 0.  1.
       -1    1    3    3    0  502  0.83187372882E+02 -0.30544263266E+03 -0.54308238952E+03  0.62861261734E+03  0.50400001928E-02 0. -1.
</event>
<event>
 5   0  0.3431030E-04  0.1014787E+04  0.7818609E-02  0.9292474E-01
       -2   -1    0    0    0  501  0.00000000000E+00  0.00000000000E+00  0.90685578458E+03  0.90685578459E+03  0.25500000920E-02 0. -1.
        2   -1    0    0  501    0  0.00000000000E+00  0.00000000000E+00 -0.28389091722E+03  0.28389091724E+03  0.25500000920E-02 0.  1.
    10030    2    1    2    0    0  0.00000000000E+00  0.00000000000E+00  0.62296486736E+03  0.11907467018E+04  0.10147869145E+04 0.  0.
        3    1    3    3  502    0 -0.36901994448E+03 -0.20345352008E+03  0.64311791632E+03  0.76887561981E+03  0.10100000352E+00 0. -1.
       -3    1    3    3    0  502  0.36901994448E+03  0.20345352008E+03 -0.20153048959E+02  0.42187108201E+03  0.10100000352E+00 0.  1.
</event>
<event>
 5   0  0.1696052E-04  0.2008560E+04  0.7818609E-02  0.8602629E-01
        1   -1    0    0  501    0  0.00000000000E+00  0.00000000000E+00  0.10919340006E+04  0.10919340006E+04  0.50400001928E-02 0.  1.
       -1   -1    0    0    0  501  0.00000000000E+00  0.00000000000E+00 -0.92366267052E+03  0.92366267053E+03  0.50400001928E-02 0. -1.
    10030    2    1    2    0    0  0.00000000000E+00  0.00000000000E+00  0.16827133009E+03  0.20155966712E+04  0.20085603551E+04 0.  0.
        4    1    3    3  502    0  0.97977008769E+03 -0.30834494860E+02 -0.13497959285E+03  0.98950558067E+03  0.12699999809E+01 0. -1.
       -4    1    3    3    0  502 -0.97977008769E+03  0.30834494860E+02  0.30325092294E+03  0.10260910905E+04  0.12699999809E+01 0.  1.
</event>
<event>
 5   0  0.3431030E-04  0.2024372E+04  0.7818609E-02  0.8595310E-01
        2   -1    0    0  501    0  0.00000000000E+00  0.00000000000E+00  0.16111061383E+04  0.16111061383E+04  0.25500000920E-02 0. -1.
       -2   -1    0    0    0  501  0.00000000000E+00  0.00000000000E+00 -0.63591104895E+03  0.63591104896E+03  0.25500000920E-02 0.  1.
    10030    2    1    2    0    0  0.00000000000E+00  0.00000000000E+00  0.97519508938E+03  0.22470171873E+04  0.20243716995E+04 0.  0.
        3    1    3    3  502    0  0.12785175448E+03  0.51340163880E+02  0.16006495226E+04  0.16065680154E+04  0.10100000352E+00 0. -1.
       -3    1    3    3    0  502 -0.12785175448E+03 -0.51340163880E+02 -0.62545443324E+03  0.64044917192E+03  0.10100000352E+00 0.  1.
</event>
<event>
 5   0  0.1643565E-04  0.2010561E+04  0.7818609E-02  0.8601699E-01
       -1   -1    0    0    0  501  0.00000000000E+00  0.00000000000E+00  0.17912828591E+04  0.17912828591E+04  0.50400001928E-02 0. -1.
        1   -1    0    0  501    0  0.00000000000E+00  0.00000000000E+00 -0.56417056573E+03  0.56417056575E+03  0.50400001928E-02 0.  1.
    10030    2    1    2    0    0  0.00000000000E+00  0.00000000000E+00  0.12271122934E+04  0.23554534249E+04  0.20105611794E+04 0.  0.
        2    1    3    3  502    0 -0.16751318968E+03 -0.33184809512E+03  0.17078056557E+04  0.17477940338E+04  0.25500000920E-02 0. -1.
       -2    1    3    3    0  502  0.16751318968E+03  0.33184809512E+03 -0.48069336233E+03  0.60765939106E+03  0.25500000920E-02 0.  1.
</event>
<event>
 5   0  0.3460648E-04  0.1762608E+04  0.7818609E-02  0.8726441E-01
       -2   -1    0    0    0  501  0.00000000000E+00  0.00000000000E+00  0.44094695677E+03  0.44094695678E+03  0.25500000920E-02 0. -1.
        2   -1    0    0  501    0  0.00000000000E+00  0.00000000000E+00 -0.17614288224E+04  0.17614288224E+04  0.25500000920E-02 0.  1.
    10030    2    1    2    0    0  0.00000000000E+00  0.00000000000E+00 -0.13204818656E+04  0.22023757792E+04  0.17626079301E+04 0.  0.
        5    1    3    3  502    0 -0.39734854906E+03 -0.60522689157E+02 -0.16402219132E+04  0.16887566077E+04  0.46999998093E+01 0.  1.
       -5    1    3    3    0  502  0.39734854906E+03  0.60522689157E+02  0.31974004757E+03  0.51361917153E+03  0.46999998093E+01 0. -1.
</event>
<event>
 5   0  0.3431030E-04  0.1981705E+04  0.7818609E-02  0.8615222E-01
        2   -1    0    0  501    0  0.00000000000E+00  0.00000000000E+00  0.14649263949E+04  0.14649263949E+04  0.25500000920E-02 0.  1.
       -2   -1    0    0    0  501  0.00000000000E+00  0.00000000000E+00 -0.67019692667E+03  0.67019692668E+03  0.25500000920E-02 0. -1.
    10030    2    1    2    0    0  0.00000000000E+00  0.00000000000E+00  0.79472946818E+03  0.21351233215E+04  0.19817054954E+04 0.  0.
        3    1    3    3  502    0 -0.66802399749E+03  0.18917120221E+03 -0.36429167624E+03  0.78406010008E+03  0.10100000352E+00 0. -1.
       -3    1    3    3    0  502  0.66802399749E+03 -0.18917120221E+03  0.11590211444E+04  0.13510632215E+04  0.10100000352E+00 0.  1.
</event>
<event>
 5   0  0.1643565E-04  0.1231058E+04  0.7818609E-02  0.9086097E-01
       -1   -1    0    0    0  501  0.00000000000E+00  0.00000000000E+00  0.35360256724E+03  0.35360256728E+03  0.50400001928E-02 0. -1.
        1   -1    0    0  501    0  0.00000000000E+00  0.00000000000E+00 -0.10714743790E+04  0.10714743790E+04  0.50400001928E-02 0.  1.
    10030    2    1    2    0    0  0.00000000000E+00  0.00000000000E+00 -0.71787181175E+03  0.14250769463E+04  0.12310582296E+04 0.  0.
        2    1    3    3  502    0  0.61099881310E+03  0.64823424621E+02 -0.40153924532E+03  0.73399958551E+03  0.25500000920E-02 0.  1.
       -2    1    3    3    0  502 -0.61099881310E+03 -0.64823424621E+02 -0.31633256643E+03  0.69107736078E+03  0.25500000920E-02 0. -1.
</event>
<event>
 5   0  0.1643565E-04  0.2051841E+04  0.7818609E-02  0.8582760E-01
        1   -1    0    0  501    0  0.00000000000E+00  0.00000000000E+00  0.20256396960E+04  0.20256396960E+04  0.50400001928E-02 0. -1.
       -1   -1    0    0    0  501  0.00000000000E+00  0.00000000000E+00 -0.51959533701E+03  0.51959533703E+03  0.50400001928E-02 0.  1.
    10030    2    1    2    0    0  0.00000000000E+00  0.00000000000E+00  0.15060443590E+04  0.25452350331E+04  0.20518410665E+04 0.  0.
        2    1    3    3  502    0 -0.24066845999E+02 -0.10248910226E+04  0.80157678986E+03  0.13013478287E+04  0.25500000920E-02 0. -1.
       -2    1    3    3    0  502  0.24066845999E+02  0.10248910226E+04  0.70446756916E+03  0.12438872044E+04  0.25500000920E-02 0.  1.
</event>
<event>
 5   0  0.1222488E-04  0.2013961E+04  0.7818609E-02  0.8600121E-01
       -3   -1    0    0    0  501  0.00000000000E+00  0.00000000000E+00  0.66132909956E+03  0.66132910727E+03  0.10100000352E+00 0. -1.
        3   -1    0    0  501    0  0.00000000000E+00  0.00000000000E+00 -0.15332909636E+04  0.15332909669E+04  0.10100000352E+00 0.  1.
    10030    2    1    2    0    0  0.00000000000E+00  0.00000000000E+00 -0.87196186402E+03  0.21946200742E+04  0.20139612155E+04 0.  0.
        2    1    3    3  502    0  0.17972208352E+03  0.38576287271E+03  0.55851697509E+03  0.70217820583E+03  0.25500000920E-02 0. -1.
       -2    1    3    3    0  502 -0.17972208352E+03 -0.38576287271E+03 -0.14304788391E+04  0.14924418684E+04  0.25500000920E-02 0.  1.
</event>
<event>
 5   0  0.3371947E-04  0.1998471E+04  0.7818609E-02  0.8607336E-01
        2   -1    0    0  501    0  0.00000000000E+00  0.00000000000E+00  0.12056039750E+04  0.12056039750E+04  0.25500000920E-02 0.  1.
       -2   -1    0    0    0  501  0.00000000000E+00  0.00000000000E+00 -0.82819224990E+03  0.82819224991E+03  0.25500000920E-02 0. -1.
    10030    2    1    2    0    0  0.00000000000E+00  0.00000000000E+00  0.37741172511E+03  0.20337962249E+04  0.19984712843E+04 0.  0.
        2    1    3    3  502    0 -0.43595374317E+03  0.86907892246E+03  0.42325319612E+03  0.10604230796E+04  0.25500000920E-02 0. -1.
       -2    1    3    3    0  502  0.43595374317E+03 -0.86907892246E+03 -0.45841471001E+02  0.97337314536E+03  0.25500000920E-02 0.  1.
</event>
<event>
 5   0  0.3371947E-04  0.1131193E+04  0.7818609E-02  0.9175311E-01
        2   -1    0    0  501    0  0.00000000000E+00  0.00000000000E+00  0.22889511675E+03  0.22889511677E+03  0.25500000920E-02 0. -1.
       -2   -1    0    0    0  501  0.00000000000E+00  0.00000000000E+00 -0.13975817585E+04  0.13975817585E+04  0.25500000920E-02 0.  1.
    10030    2    1    2    0    0  0.00000000000E+00  0.00000000000E+00 -0.11686866418E+04  0.16264768753E+04  0.11311934226E+04 0.  0.
        2    1    3    3  502    0  0.45876067617E+02 -0.15021728603E+02  0.22592773999E+03  0.23102729192E+03  0.25500000920E-02 0. -1.
       -2    1    3    3    0  502 -0.45876067617E+02  0.15021728603E+02 -0.13946143818E+04  0.13954495834E+04  0.25500000920E-02 0.  1.
</event>
<event>
 5   0  0.1708578E-04  0.1984681E+04  0.7818609E-02  0.8613816E-01
        1   -1    0    0  501    0  0.00000000000E+00  0.00000000000E+00  0.15281191262E+04  0.15281191263E+04  0.50400001928E-02 0. -1.
       -1   -1    0    0    0  501  0.00000000000E+00  0.00000000000E+00 -0.64441311625E+03  0.64441311627E+03  0.50400001928E-02 0.  1.
    10030    2    1    2    0    0  0.00000000000E+00  0.00000000000E+00  0.88370600999E+03  0.21725322425E+04  0.19846813429E+04 0.  0.
        3    1    3    3  502    0 -0.63451938673E+03 -0.75578714763E+03  0.55619516563E+03  0.11327762962E+04  0.10100000352E+00 0. -1.
       -3    1    3    3    0  502  0.63451938673E+03  0.75578714763E+03  0.32751084436E+03  0.10397559464E+04  0.10100000352E+00 0.  1.
</event>
<event>
 5   0  0.3395569E-04  0.1702795E+04  0.7818609E-02  0.8759772E-01
       -2   -1    0    0    0  501  0.00000000000E+00  0.00000000000E+00  0.10955166402E+04  0.10955166402E+04  0.25500000920E-02 0.  1.
        2   -1    0    0  501    0  0.00000000000E+00  0.00000000000E+00 -0.66167635520E+03  0.66167635520E+03  0.25500000920E-02 0. -1.
    10030    2    1    2    0    0  0.00000000000E+00  0.00000000000E+00  0.43384028497E+03  0.17571929954E+04  0.17027947117E+04 0.  0.
        4    1    3    3  502    0 -0.32967621666E+03  0.77161697736E+03  0.68102594465E+02  0.84185434836E+03  0.12699999809E+01 0.  1.
       -4    1    3    3    0  502  0.32967621666E+03 -0.77161697736E+03  0.36573769051E+03  0.91533864702E+03  0.12699999809E+01 0. -1.
</event>
<event>
 5   0  0.1650221E-04  0.2021278E+04  0.7818609E-02  0.8596737E-01
        1   -1    0    0  501    0  0.00000000000E+00  0.00000000000E+00  0.16027873866E+04  0.16027873866E+04  0.50400001928E-02 0.  1.
       -1   -1    0    0    0  501  0.00000000000E+00  0.00000000000E+00 -0.63725905376E+03  0.63725905378E+03  0.50400001928E-02 0. -1.
    10030    2    1    2    0    0  0.00000000000E+00  0.00000000000E+00  0.96552833279E+03  0.22400464404E+04  0.20212775894E+04 0.  0.
        1    1    3    3  502    0  0.16579111748E+03  0.17615774350E+03 -0.60470126222E+03  0.65129245489E+03  0.50400001928E-02 0. -1.
       -1    1    3    3    0  502 -0.16579111748E+03 -0.17615774350E+03  0.15702295950E+04  0.15887539855E+04  0.50400001928E-02 0.  1.
</event>
<event>
 5   0  0.3371947E-04  0.1992025E+04  0.7818609E-02  0.8610358E-01
       -2   -1    0    0    0  501  0.00000000000E+00  0.00000000000E+00  0.61047751715E+03  0.61047751716E+03  0.25500000920E-02 0.  1.
        2   -1    0    0  501    0  0.00000000000E+00  0.00000000000E+00 -0.16250246535E+04  0.16250246535E+04  0.25500000920E-02 0. -1.
    10030    2    1    2    0    0  0.00000000000E+00  0.00000000000E+00 -0.10145471363E+04  0.22355021706E+04  0.19920251161E+04 0.  0.
        2    1    3    3  502    0  0.29006628570E+03 -0.76895528147E+03 -0.11387291893E+04  0.14043271847E+04  0.25500000920E-02 0. -1.
       -2    1    3    3    0  502 -0.29006628570E+03  0.76895528147E+03  0.12418205300E+03  0.83117498596E+03  0.25500000920E-02 0.  1.
</event>
<event>
 5   0  0.1664168E-04  0.2040946E+04  0.7818609E-02  0.8587713E-01
       -1   -1    0    0    0  501  0.00000000000E+00  0.00000000000E+00  0.76739019345E+03  0.76739019347E+03  0.50400001928E-02 0.  1.
        1   -1    0    0  501    0  0.00000000000E+00  0.00000000000E+00 -0.13570223625E+04  0.13570223625E+04  0.50400001928E-02 0. -1.
    10030    2    1    2    0    0  0.00000000000E+00  0.00000000000E+00 -0.58963216900E+03  0.21244125559E+04  0.20409464993E+04 0.  0.
        5    1    3    3  502    0  0.83700503682E+02 -0.97221930234E+03  0.15935176506E+02  0.97595705131E+03  0.46999998093E+01 0. -1.
       -5    1    3    3    0  502 -0.83700503682E+02  0.97221930234E+03 -0.60556734551E+03  0.11484555046E+04  0.46999998093E+01 0.  1.
</event>
<event>
 5   0  0.3387881E-04  0.2046393E+04  0.7818609E-02  0.8585232E-01
       -2   -1    0    0    0  501  0.00000000000E+00  0.00000000000E+00  0.98845301837E+03  0.98845301838E+03  0.25500000920E-02 0. -1.
        2   -1    0    0  501    0  0.00000000000E+00  0.00000000000E+00 -0.10591610520E+04  0.10591610520E+04  0.25500000920E-02 0.  1.
    10030    2    1    2    0    0  0.00000000000E+00  0.00000000000E+00 -0.70708033606E+02  0.20476140704E+04  0.20463928643E+04 0.  0.
        1    1    3    3  502    0 -0.44401967469E+02 -0.81204885421E+03  0.58593202437E+03  0.10023528388E+04  0.50400001928E-02 0. -1.
       -1    1    3    3    0  502  0.44401967469E+02  0.81204885421E+03 -0.65664005798E+03  0.10452612315E+04  0.50400001928E-02 0.  1.
</event>
<event>
 5   0  0.1222488E-04  0.1257459E+04  0.7818609E-02  0.9063998E-01
       -4   -1    0    0    0  501  0.00000000000E+00  0.00000000000E+00  0.63528143239E+03  0.63528270182E+03  0.12699999809E+01 0. -1.
        4   -1    0    0  501    0  0.00000000000E+00  0.00000000000E+00 -0.62224236938E+03  0.62224366541E+03  0.12699999809E+01 0.  1.
    10030    2    1    2    0    0  0.00000000000E+00  0.00000000000E+00  0.13039063012E+02  0.12575263672E+04  0.12574587656E+04 0.  0.
        2    1    3    3  502    0 -0.59220576184E+03  0.21084399835E+03  0.18258168100E+02  0.62888489941E+03  0.25500000920E-02 0. -1.
       -2    1    3    3    0  502  0.59220576184E+03 -0.21084399835E+03 -0.52191050882E+01  0.62864146782E+03  0.25500000920E-02 0.  1.
</event>
<event>
 5   0  0.1650221E-04  0.1259256E+04  0.7818609E-02  0.9062515E-01
       -1   -1    0    0    0  501  0.00000000000E+00  0.00000000000E+00  0.27933144911E+03  0.27933144916E+03  0.50400001928E-02 0. -1.
        1   -1    0    0  501    0  0.00000000000E+00  0.00000000000E+00 -0.14192141992E+04  0.14192141992E+04  0.50400001928E-02 0.  1.
    10030    2    1    2    0    0  0.00000000000E+00  0.00000000000E+00 -0.11398827501E+04  0.16985456484E+04  0.12592555879E+04 0.  0.
        1    1    3    3  502    0  0.61089625921E+03  0.15038338279E+03 -0.60357501493E+03  0.87184413745E+03  0.50400001928E-02 0.  1.
       -1    1    3    3    0  502 -0.61089625921E+03 -0.15038338279E+03 -0.53630773516E+03  0.82670151091E+03  0.50400001928E-02 0. -1.
</event>
<event>
 5   0  0.1696052E-04  0.2014900E+04  0.7818609E-02  0.8599686E-01
       -1   -1    0    0    0  501  0.00000000000E+00  0.00000000000E+00  0.12521010807E+04  0.12521010807E+04  0.50400001928E-02 0. -1.
        1   -1    0    0  501    0  0.00000000000E+00  0.00000000000E+00 -0.81060166680E+03  0.81060166682E+03  0.50400001928E-02 0.  1.
    10030    2    1    2    0    0  0.00000000000E+00  0.00000000000E+00  0.44149941388E+03  0.20627027475E+04  0.20148997226E+04 0.  0.
        4    1    3    3  502    0 -0.91016717666E+03 -0.35152260001E+03 -0.36164792189E+02  0.97636157897E+03  0.12699999809E+01 0.  1.
       -4    1    3    3    0  502  0.91016717666E+03  0.35152260001E+03  0.47766420607E+03  0.10863411685E+04  0.12699999809E+01 0. -1.
</event>
<event>
 5   0  0.1696052E-04  0.1953020E+04  0.7818609E-02  0.8628906E-01
       -1   -1    0    0    0  501  0.00000000000E+00  0.00000000000E+00  0.63518966850E+03  0.63518966852E+03  0.50400001928E-02 0. -1.
        1   -1    0    0  501    0  0.00000000000E+00  0.00000000000E+00 -0.15012393900E+04  0.15012393901E+04  0.50400001928E-02 0.  1.
    10030    2    1    2    0    0  0.00000000000E+00  0.00000000000E+00 -0.86604972155E+03  0.21364290586E+04  0.19530199697E+04 0.  0.
        4    1    3    3  502    0 -0.59666545768E+03 -0.53425323740E+03  0.17813144188E+03  0.82046853294E+03  0.12699999809E+01 0. -1.
       -4    1    3    3    0  502  0.59666545768E+03  0.53425323740E+03 -0.10441811634E+04  0.13159605256E+04  0.12699999809E+01 0.  1.
</event>
<event>
 5   0  0.3371947E-04  0.1953919E+04  0.7818609E-02  0.8628473E-01
        2   -1    0    0  501    0  0.00000000000E+00  0.00000000000E+00  0.17916997644E+04  0.17916997644E+04  0.25500000920E-02 0. -1.
       -2   -1    0    0    0  501  0.00000000000E+00  0.00000000000E+00 -0.53270661658E+03  0.53270661658E+03  0.25500000920E-02 0.  1.
    10030    2    1    2    0    0  0.00000000000E+00  0.00000000000E+00  0.12589931479E+04  0.23244063810E+04  0.19539194655E+04 0.  0.
        2    1    3    3  502    0 -0.82373707986E+03 -0.51788632790E+03  0.73389338991E+03  0.12187487572E+04  0.25500000920E-02 0. -1.
       -2    1    3    3    0  502  0.82373707986E+03  0.51788632790E+03  0.52509975796E+03  0.11056576238E+04  0.25500000920E-02 0.  1.
</event>
<event>
 5   0  0.3371947E-04  0.2001244E+04  0.7818609E-02  0.8606039E-01
       -2   -1    0    0    0  501  0.00000000000E+00  0.00000000000E+00  0.11609406920E+04  0.11609406921E+04  0.25500000920E-02 0. -1.
        2   -1    0    0  501    0  0.00000000000E+00  0.00000000000E+00 -0.86244209226E+03  0.86244209226E+03  0.25500000920E-02 0.  1.
    10030    2    1    2    0    0  0.00000000000E+00  0.00000000000E+00  0.29849859979E+03  0.20233827843E+04  0.20012437327E+04 0.  0.
        2    1    3    3  502    0  0.39303727350E+03  0.22059692324E+03 -0.75399969704E+03  0.87844000594E+03  0.25500000920E-02 0.  1.
       -2    1    3    3    0  502 -0.39303727350E+03 -0.22059692324E+03  0.10524982968E+04  0.11449427784E+04  0.25500000920E-02 0. -1.
</event>
<event>
 5   0  0.3395569E-04  0.1909271E+04  0.7818609E-02  0.8650255E-01
       -2   -1    0    0    0  501  0.00000000000E+00  0.00000000000E+00  0.48357792543E+03  0.48357792544E+03  0.25500000920E-02 0. -1.
        2   -1    0    0  501    0  0.00000000000E+00  0.00000000000E+00 -0.18845552825E+04  0.18845552825E+04  0.25500000920E-02 0.  1.
    10030    2    1    2    0    0  0.00000000000E+00  0.00000000000E+00 -0.14009773571E+04  0.23681332080E+04  0.19092714149E+04 0.  0.
        4    1    3    3  502    0  0.80377847583E+03  0.27771924324E+03 -0.12384845183E+04  0.15023426145E+04  0.12699999809E+01 0.  1.
       -4    1    3    3    0  502 -0.80377847583E+03 -0.27771924324E+03 -0.16249283883E+03  0.86579059353E+03  0.12699999809E+01 0. -1.
</event>
<event>
 5   0  0.3460648E-04  0.2001488E+04  0.7818609E-02  0.8605925E-01
       -2   -1    0    0    0  501  0.00000000000E+00  0.00000000000E+00  0.98111810053E+03  0.98111810054E+03  0.25500000920E-02 0.  1.
        2   -1    0    0  501    0  0.00000000000E+00  0.00000000000E+00 -0.10207628808E+04  0.10207628808E+04  0.25500000920E-02 0. -1.
    10030    2    1    2    0    0  0.00000000000E+00  0.00000000000E+00 -0.39644780218E+02  0.20018809813E+04  0.20014883848E+04 0.  0.
        5    1    3    3  502    0  0.50513602870E+03  0.27026494713E+03  0.80086357228E+03  0.98468781883E+03  0.46999998093E+01 0.  1.
       -5    1    3    3    0  502 -0.50513602870E+03 -0.27026494713E+03 -0.84050835250E+03  0.10171931625E+04  0.46999998093E+01 0. -1.
</event>
<event>
 5   0  0.3371947E-04  0.2008849E+04  0.7818609E-02  0.8602495E-01
       -2   -1    0    0    0  501  0.00000000000E+00  0.00000000000E+00  0.10322104774E+04  0.10322104774E+04  0.25500000920E-02 0.  1.
        2   -1    0    0  501    0  0.00000000000E+00  0.00000000000E+00 -0.97738632201E+03  0.97738632202E+03  0.25500000920E-02 0. -1.
    10030    2    1    2    0    0  0.00000000000E+00  0.00000000000E+00  0.54824155402E+02  0.20095967994E+04  0.20088488266E+04 0.  0.
        2    1    3    3  502    0  0.65488128646E+02  0.63110836746E+03  0.80634307881E+03  0.10260485501E+04  0.25500000920E-02 0.  1.
       -2    1    3    3    0  502 -0.65488128646E+02 -0.63110836746E+03 -0.75151892340E+03  0.98354824931E+03  0.25500000920E-02 0. -1.
</event>
<event>
 5   0  0.3387881E-04  0.1276375E+04  0.7818609E-02  0.9048513E-01
        2   -1    0    0  501    0  0.00000000000E+00  0.00000000000E+00  0.50607008543E+03  0.50607008543E+03  0.25500000920E-02 0. -1.
       -2   -1    0    0    0  501  0.00000000000E+00  0.00000000000E+00 -0.80479593276E+03  0.80479593277E+03  0.25500000920E-02 0.  1.
    10030    2    1    2    0    0  0.00000000000E+00  0.00000000000E+00 -0.29872584734E+03  0.13108660182E+04  0.12763747827E+04 0.  0.
        1    1    3    3  502    0  0.71180222945E+02 -0.43797872186E+03 -0.62044202259E+03  0.76278456222E+03  0.50400001928E-02 0.  1.
       -1    1    3    3    0  502 -0.71180222945E+02  0.43797872186E+03  0.32171617525E+03  0.54808145598E+03  0.50400001928E-02 0. -1.
</event>
<event>
 5   0  0.3395569E-04  0.1947773E+04  0.7818609E-02  0.8631435E-01
        2   -1    0    0  501    0  0.00000000000E+00  0.00000000000E+00  0.89341136243E+03  0.89341136243E+03  0.25500000920E-02 0. -1.
       -2   -1    0    0    0  501  0.00000000000E+00  0.00000000000E+00 -0.10616106256E+04  0.10616106256E+04  0.25500000920E-02 0.  1.
    10030    2    1    2    0    0  0.00000000000E+00  0.00000000000E+00 -0.16819926313E+03  0.19550219880E+04  0.19477730826E+04 0.  0.
        4    1    3    3  502    0  0.73275764164E+03 -0.82029958790E+02  0.55449983765E+03  0.92256943282E+03  0.12699999809E+01 0. -1.
       -4    1    3    3    0  502 -0.73275764164E+03  0.82029958790E+02 -0.72269910078E+03  0.10324525552E+04  0.12699999809E+01 0.  1.
</event>
<event>
 5   0  0.3395569E-04  0.2019260E+04  0.7818609E-02  0.8597668E-01
       -2   -1    0    0    0  501  0.00000000000E+00  0.00000000000E+00  0.85578578081E+03  0.85578578081E+03  0.25500000920E-02 0. -1.
        2   -1    0    0  501    0  0.00000000000E+00  0.00000000000E+00 -0.11911311563E+04  0.11911311563E+04  0.25500000920E-02 0.  1.
    10030    2    1    2    0    0  0.00000000000E+00  0.00000000000E+00 -0.33534537544E+03  0.20469169371E+04  0.20192603662E+04 0.  0.
        4    1    3    3  502    0  0.58066483763E+03  0.72017654036E+03  0.24224887326E+03  0.95630122474E+03  0.12699999809E+01 0.  1.
       -4    1    3    3    0  502 -0.58066483763E+03 -0.72017654036E+03 -0.57759424870E+03  0.10906157123E+04  0.12699999809E+01 0. -1.
</event>
<event>
 5   0  0.3460648E-04  0.2006282E+04  0.7818609E-02  0.8603689E-01
        2   -1    0    0  501    0  0.00000000000E+00  0.00000000000E+00  0.16015989001E+04  0.16015989001E+04  0.25500000920E-02 0.  1.
       -2   -1    0    0    0  501  0.00000000000E+00  0.00000000000E+00 -0.62830443700E+03  0.62830443700E+03  0.25500000920E-02 0. -1.
    10030    2    1    2    0    0  0.00000000000E+00  0.00000000000E+00  0.97329446305E+03  0.22299033371E+04  0.20062818299E+04 0.  0.
        5    1    3    3  502    0 -0.11137149558E+03  0.22527274526E+03  0.15660341666E+04  0.15860758244E+04  0.46999998093E+01 0.  1.
       -5    1    3    3    0  502  0.11137149558E+03 -0.22527274526E+03 -0.59273970359E+03  0.64382751261E+03  0.46999998093E+01 0. -1.
</event>
<event>
 5   0  0.1696052E-04  0.1999261E+04  0.7818609E-02  0.8606966E-01
        1   -1    0    0  501    0  0.00000000000E+00  0.00000000000E+00  0.14579675765E+04  0.14579675765E+04  0.50400001928E-02 0.  1.
       -1   -1    0    0    0  501  0.00000000000E+00  0.00000000000E+00 -0.68537946763E+03  0.68537946765E+03  0.50400001928E-02 0. -1.
    10030    2    1    2    0    0  0.00000000000E+00  0.00000000000E+00  0.77258810883E+03  0.21433470441E+04  0.19992609048E+04 0.  0.
        4    1    3    3  502    0 -0.56045316669E+03 -0.54589282854E+03 -0.28076482089E+03  0.83122634092E+03  0.12699999809E+01 0. -1.
       -4    1    3    3    0  502  0.56045316669E+03  0.54589282854E+03  0.10533529297E+04  0.13121207032E+04  0.12699999809E+01 0.  1.
</event>
<event>
 5   0  0.3460648E-04  0.1975497E+04  0.7818609E-02  0.8618163E-01
       -2   -1    0    0    0  501  0.00000000000E+00  0.00000000000E+00  0.50668718479E+03  0.50668718480E+03  0.25500000920E-02 0.  1.
        2   -1    0    0  501    0  0.00000000000E+00  0.00000000000E+00 -0.19255416147E+04  0.19255416147E+04  0.25500000920E-02 0. -1.
    10030    2    1    2    0    0  0.00000000000E+00  0.00000000000E+00 -0.14188544299E+04  0.24322287995E+04  0.19754971627E+04 0.  0.
        5    1    3    3  502    0  0.19125016957E+03 -0.95408547560E+03 -0.50059678636E+03  0.10942919878E+04  0.46999998093E+01 0. -1.
       -5    1    3    3    0  502 -0.19125016957E+03  0.95408547560E+03 -0.91825764359E+03  0.13379368117E+04  0.46999998093E+01 0.  1.
</event>
<event>
 5   0  0.3431030E-04  0.1935005E+04  0.7818609E-02  0.8637626E-01
       -2   -1    0    0    0  501  0.00000000000E+00  0.00000000000E+00  0.62697227073E+03  0.62697227073E+03  0.25500000920E-02 0.  1.
        2   -1    0    0  501    0  0.00000000000E+00  0.00000000000E+00 -0.14929861625E+04  0.14929861625E+04  0.25500000920E-02 0. -1.
    10030    2    1    2    0    0  0.00000000000E+00  0.00000000000E+00 -0.86601389173E+03  0.21199584332E+04  0.19350048315E+04 0.  0.
        3    1    3    3  502    0 -0.12175703687E+03 -0.26046332286E+03 -0.14450997517E+04  0.14734243181E+04  0.10100000352E+00 0. -1.
       -3    1    3    3    0  502  0.12175703687E+03  0.26046332286E+03  0.57908585997E+03  0.64653411511E+03  0.10100000352E+00 0.  1.
</event>
<event>
 5   0  0.1222488E-04  0.2000925E+04  0.7818609E-02  0.8606189E-01
        4   -1    0    0  501    0  0.00000000000E+00  0.00000000000E+00  0.10356164453E+04  0.10356172241E+04  0.12699999809E+01 0.  1.
       -4   -1    0    0    0  501  0.00000000000E+00  0.00000000000E+00 -0.96649983336E+03  0.96650066776E+03  0.12699999809E+01 0. -1.
    10030    2    1    2    0    0  0.00000000000E+00  0.00000000000E+00  0.69116611975E+02  0.20021178918E+04  0.20009245230E+04 0.  0.
        1    1    3    3  502    0 -0.37943436435E+02 -0.16221784596E+03 -0.95252404291E+03  0.96698313650E+03  0.50400001928E-02 0. -1.
       -1    1    3    3    0  502  0.37943436435E+02  0.16221784596E+03  0.10216406549E+04  0.10351347553E+04  0.50400001928E-02 0.  1.
</event>
<event>
 5   0  0.1650221E-04  0.1956259E+04  0.7818609E-02  0.8627349E-01
       -1   -1    0    0    0  501  0.00000000000E+00  0.00000000000E+00  0.11137266460E+04  0.11137266461E+04  0.50400001928E-02 0. -1.
        1   -1    0    0  501    0  0.00000000000E+00  0.00000000000E+00 -0.85904138036E+03  0.85904138038E+03  0.50400001928E-02 0.  1.
    10030    2    1    2    0    0  0.00000000000E+00  0.00000000000E+00  0.25468526569E+03  0.19727680264E+04  0.19562589557E+04 0.  0.
        1    1    3    3  502    0 -0.12123061119E+03  0.50195805619E+03  0.96506272804E+03  0.10945340654E+04  0.50400001928E-02 0. -1.
       -1    1    3    3    0  502  0.12123061119E+03 -0.50195805619E+03 -0.71037746235E+03  0.87823396103E+03  0.50400001928E-02 0.  1.
</event>
<event>
 5   0  0.1664168E-04  0.2040900E+04  0.7818609E-02  0.8587734E-01
        1   -1    0    0  501    0  0.00000000000E+00  0.00000000000E+00  0.19119483869E+04  0.19119483869E+04  0.50400001928E-02 0. -1.
       -1   -1    0    0    0  501  0.00000000000E+00  0.00000000000E+00 -0.54463696002E+03  0.54463696004E+03  0.50400001928E-02 0.  1.
    10030    2    1    2    0    0  0.00000000000E+00  0.00000000000E+00  0.13673114269E+04  0.24565853469E+04  0.20408995636E+04 0.  0.
        5    1    3    3  502    0 -0.56892292059E+03 -0.83685138799E+03  0.84198455529E+03  0.13164169615E+04  0.46999998093E+01 0. -1.
       -5    1    3    3    0  502  0.56892292059E+03  0.83685138799E+03  0.52532687157E+03  0.11401683854E+04  0.46999998093E+01 0.  1.
</event>
<event>
 5   0  0.1664168E-04  0.1190445E+04  0.7818609E-02  0.9121261E-01
       -1   -1    0    0    0  501  0.00000000000E+00  0.00000000000E+00  0.31252779102E+03  0.31252779106E+03  0.50400001928E-02 0.  1.
        1   -1    0    0  501    0  0.00000000000E+00  0.00000000000E+00 -0.11336268870E+04  0.11336268870E+04  0.50400001928E-02 0. -1.
    10030    2    1    2    0    0  0.00000000000E+00  0.00000000000E+00 -0.82109909595E+03  0.14461546780E+04  0.11904451384E+04 0.  0.
        5    1    3    3  502    0 -0.98348276354E+02  0.11347253134E+03  0.28911651385E+03  0.32582026857E+03  0.46999998093E+01 0.  1.
       -5    1    3    3    0  502  0.98348276354E+02 -0.11347253134E+03 -0.11102156098E+04  0.11203344095E+04  0.46999998093E+01 0. -1.
</event>
<event>
 5   0  0.3387881E-04  0.2003628E+04  0.7818609E-02  0.8604926E-01
       -2   -1    0    0    0  501  0.00000000000E+00  0.00000000000E+00  0.77017617648E+03  0.77017617649E+03  0.25500000920E-02 0.  1.
        2   -1    0    0  501    0  0.00000000000E+00  0.00000000000E+00 -0.13031190736E+04  0.13031190736E+04  0.25500000920E-02 0. -1.
    10030    2    1    2    0    0  0.00000000000E+00  0.00000000000E+00 -0.53294289708E+03  0.20732952501E+04  0.20036279750E+04 0.  0.
        1    1    3    3  502    0 -0.62081140744E+03 -0.18648420912E+03 -0.10568682635E+04  0.12398200234E+04  0.50400001928E-02 0. -1.
       -1    1    3    3    0  502  0.62081140744E+03  0.18648420912E+03  0.52392536646E+03  0.83347522668E+03  0.50400001928E-02 0.  1.
</event>
<event>
 5   0  0.3387881E-04  0.2004820E+04  0.7818609E-02  0.8604370E-01
        2   -1    0    0  501    0  0.00000000000E+00  0.00000000000E+00  0.13945298415E+04  0.13945298415E+04  0.25500000920E-02 0. -1.
       -2   -1    0    0    0  501  0.00000000000E+00  0.00000000000E+00 -0.72054821415E+03  0.72054821415E+03  0.25500000920E-02 0.  1.
    10030    2    1    2    0    0  0.00000000000E+00  0.00000000000E+00  0.67398162737E+03  0.21150780557E+04  0.20048201784E+04 0.  0.
        1    1    3    3  502    0  0.33134291602E+03  0.27224233687E+02  0.13346720138E+04  0.13754558050E+04  0.50400001928E-02 0. -1.
       -1    1    3    3    0  502 -0.33134291602E+03 -0.27224233687E+02 -0.66069038648E+03  0.73962225068E+03  0.50400001928E-02 0.  1.
</event>
<event>
 5   0  0.1696052E-04  0.1939095E+04  0.7818609E-02  0.8635637E-01
        1   -1    0    0  501    0  0.00000000000E+00  0.00000000000E+00  0.70001128684E+03  0.70001128686E+03  0.50400001928E-02 0.  1.
       -1   -1    0    0    0  501  0.00000000000E+00  0.00000000000E+00 -0.13428677561E+04  0.13428677561E+04  0.50400001928E-02 0. -1.
    10030    2    1    2    0    0  0.00000000000E+00  0.00000000000E+00 -0.64285646925E+03  0.20428790430E+04  0.19390952385E+04 0.  0.
        4    1    3    3  502    0 -0.70849586392E+03  0.47165487269E+02 -0.10169361457E+04  0.12403030717E+04  0.12699999809E+01 0. -1.
       -4    1    3    3    0  502  0.70849586392E+03 -0.47165487269E+02  0.37407967645E+03  0.80257597124E+03  0.12699999809E+01 0.  1.
</event>
<event>
 5   0  0.3371947E-04  0.1882688E+04  0.7818609E-02  0.8663522E-01
       -2   -1    0    0    0  501  0.00000000000E+00  0.00000000000E+00  0.76433826579E+03  0.76433826579E+03  0.25500000920E-02 0. -1.
        2   -1    0    0  501    0  0.00000000000E+00  0.00000000000E+00 -0.11593405982E+04  0.11593405982E+04  0.25500000920E-02 0.  1.
    10030    2    1    2    0    0  0.00000000000E+00  0.00000000000E+00 -0.39500233239E+03  0.19236788640E+04  0.18826878470E+04 0.  0.
        2    1    3    3  502    0 -0.31671994521E+03 -0.88479051204E+03 -0.14188623848E+03  0.95041963289E+03  0.25500000920E-02 0.  1.
       -2    1    3    3    0  502  0.31671994521E+03  0.88479051204E+03 -0.25311609391E+03  0.97325923109E+03  0.25500000920E-02 0. -1.
</event>
<event>
 5   0  0.1222488E-04  0.2023970E+04  0.7818609E-02  0.8595495E-01
       -3   -1    0    0    0  501  0.00000000000E+00  0.00000000000E+00  0.85586898043E+03  0.85586898639E+03  0.10100000352E+00 0.  1.
        3   -1    0    0  501    0  0.00000000000E+00  0.00000000000E+00 -0.11965780796E+04  0.11965780839E+04  0.10100000352E+00 0. -1.
    10030    2    1    2    0    0  0.00000000000E+00  0.00000000000E+00 -0.34070909920E+03  0.20524470703E+04  0.20239704262E+04 0.  0.
        5    1    3    3  502    0  0.28472542065E+03  0.25608113677E+03 -0.11202547301E+04  0.11839083006E+04  0.46999998093E+01 0. -1.
       -5    1    3    3    0  502 -0.28472542065E+03 -0.25608113677E+03  0.77954563094E+03  0.86853876971E+03  0.46999998093E+01 0.  1.
</event>
<event>
 5   0  0.3460648E-04  0.1990062E+04  0.7818609E-02  0.8611281E-01
        2   -1    0    0  501    0  0.00000000000E+00  0.00000000000E+00  0.14534002676E+04  0.14534002676E+04  0.25500000920E-02 0. -1.
       -2   -1    0    0    0  501  0.00000000000E+00  0.00000000000E+00 -0.68122115488E+03  0.68122115489E+03  0.25500000920E-02 0.  1.
    10030    2    1    2    0    0  0.00000000000E+00  0.00000000000E+00  0.77217911275E+03  0.21346214225E+04  0.19900623195E+04 0.  0.
        5    1    3    3  502    0  0.15253743633E+02 -0.61803964289E+03 -0.45019812372E+03  0.76479155166E+03  0.46999998093E+01 0.  1.
       -5    1    3    3    0  502 -0.15253743633E+02  0.61803964289E+03  0.12223772365E+04  0.13698298709E+04  0.46999998093E+01 0. -1.
</event>
<event>
 5   0  0.3460648E-04  0.1987901E+04  0.7818609E-02  0.8612298E-01
       -2   -1    0    0    0  501  0.00000000000E+00  0.00000000000E+00  0.50374809481E+03  0.50374809482E+03  0.25500000920E-02 0.  1.
        2   -1    0    0  501    0  0.00000000000E+00  0.00000000000E+00 -0.19611743409E+04  0.19611743409E+04  0.25500000920E-02 0. -1.
    10030    2    1    2    0    0  0.00000000000E+00  0.00000000000E+00 -0.14574262461E+04  0.24649224357E+04  0.19879012428E+04 0.  0.
        5    1    3    3  502    0 -0.45586471700E+03 -0.70746996371E+02 -0.18203715015E+04  0.18779223283E+04  0.46999998093E+01 0. -1.
       -5    1    3    3    0  502  0.45586471700E+03  0.70746996371E+02  0.36294525540E+03  0.58700010742E+03  0.46999998093E+01 0.  1.
</event>
<event>
 5   0  0.1650221E-04  0.2029627E+04  0.7818609E-02  0.8592893E-01
        1   -1    0    0  501    0  0.00000000000E+00  0.00000000000E+00  0.15567551326E+04  0.15567551326E+04  0.50400001928E-02 0.  1.
       -1   -1    0    0    0  501  0.00000000000E+00  0.00000000000E+00 -0.66153387863E+03  0.66153387865E+03  0.50400001928E-02 0. -1.
    10030    2    1    2    0    0  0.00000000000E+00  0.00000000000E+00  0.89522125393E+03  0.22182890112E+04  0.20296268238E+04 0.  0.
        1    1    3    3  502    0 -0.62177079730E+03  0.36432485665E+03 -0.33330852662E+03  0.79399376540E+03  0.50400001928E-02 0. -1.
       -1    1    3    3    0  502  0.62177079730E+03 -0.36432485665E+03  0.12285297806E+04  0.14242952458E+04  0.50400001928E-02 0.  1.
</event>
<event>
 5   0  0.1696052E-04  0.2062059E+04  0.7818609E-02  0.8578144E-01
       -1   -1    0    0    0  501  0.00000000000E+00  0.00000000000E+00  0.88686590526E+03  0.88686590527E+03  0.50400001928E-02 0. -1.
        1   -1    0    0  501    0  0.00000000000E+00  0.00000000000E+00 -0.11986269802E+04  0.11986269802E+04  0.50400001928E-02 0.  1.
    10030    2    1    2    0    0  0.00000000000E+00  0.00000000000E+00 -0.31176107492E+03  0.20854928855E+04  0.20620585849E+04 0.  0.
        4    1    3    3  502    0 -0.91505668510E+03  0.29244560861E+03  0.22276253034E+03  0.98614295554E+03  0.12699999809E+01 0. -1.
       -4    1    3    3    0  502  0.91505668510E+03 -0.29244560861E+03 -0.53452360526E+03  0.10993499299E+04  0.12699999809E+01 0.  1.
</event>
<event>
 5   0  0.3431030E-04  0.1988819E+04  0.7818609E-02  0.8611866E-01
        2   -1    0    0  501    0  0.00000000000E+00  0.00000000000E+00  0.12273382944E+04  0.12273382944E+04  0.25500000920E-02 0. -1.
       -2   -1    0    0    0  501  0.00000000000E+00  0.00000000000E+00 -0.80568640270E+03  0.80568640270E+03  0.25500000920E-02 0.  1.
    10030    2    1    2    0    0  0.00000000000E+00  0.00000000000E+00  0.42165189167E+03  0.20330246971E+04  0.19888185189E+04 0.  0.
        3    1    3    3  502    0  0.22629300790E+03  0.65593356634E+03  0.93897363653E+03  0.11675310999E+04  0.10100000352E+00 0. -1.
       -3    1    3    3    0  502 -0.22629300790E+03 -0.65593356634E+03 -0.51732174486E+03  0.86549359719E+03  0.10100000352E+00 0.  1.
</event>
<event>
 5   0  0.3387881E-04  0.1970522E+04  0.7818609E-02  0.8620528E-01
        2   -1    0    0  501    0  0.00000000000E+00  0.00000000000E+00  0.11557891801E+04  0.11557891801E+04  0.25500000920E-02 0.  1.
       -2   -1    0    0    0  501  0.00000000000E+00  0.00000000000E+00 -0.83989300775E+03  0.83989300776E+03  0.25500000920E-02 0. -1.
    10030    2    1    2    0    0  0.00000000000E+00  0.00000000000E+00  0.31589617234E+03  0.19956821879E+04  0.19705220129E+04 0.  0.
        1    1    3    3  502    0 -0.14831974951E+03  0.18419422967E+03 -0.81072280970E+03  0.84451035313E+03  0.50400001928E-02 0. -1.
       -1    1    3    3    0  502  0.14831974951E+03 -0.18419422967E+03  0.11266189820E+04  0.11511718347E+04  0.50400001928E-02 0.  1.
</event>
<event>
 5   0  0.3460648E-04  0.2018845E+04  0.7818609E-02  0.8597860E-01
        2   -1    0    0  501    0  0.00000000000E+00  0.00000000000E+00  0.32033613188E+04  0.32033613188E+04  0.25500000920E-02 0. -1.
       -2   -1    0    0    0  501  0.00000000000E+00  0.00000000000E+00 -0.31808272209E+03  0.31808272211E+03  0.25500000920E-02 0.  1.
    10030    2    1    2    0    0  0.00000000000E+00  0.00000000000E+00  0.28852785967E+04  0.35214440409E+04  0.20188451037E+04 0.  0.
        5    1    3    3  502    0  0.49860638124E+03 -0.81121748946E+03  0.20269873701E+04  0.22395048620E+04  0.46999998093E+01 0. -1.
       -5    1    3    3    0  502 -0.49860638124E+03  0.81121748946E+03  0.85829122662E+03  0.12819391789E+04  0.46999998093E+01 0.  1.
</event>
<event>
 5   0  0.1222488E-04  0.1979529E+04  0.7818609E-02  0.8616252E-01
       -4   -1    0    0    0  501  0.00000000000E+00  0.00000000000E+00  0.80277934364E+03  0.80278034821E+03  0.12699999809E+01 0. -1.
        4   -1    0    0  501    0  0.00000000000E+00  0.00000000000E+00 -0.12203005684E+04  0.12203012292E+04  0.12699999809E+01 0.  1.
    10030    2    1    2    0    0  0.00000000000E+00  0.00000000000E+00 -0.41752122474E+03  0.20230815775E+04  0.19795290086E+04 0.  0.
        5    1    3    3  502    0 -0.18508588390E+03  0.76644867450E+03  0.40265883413E+03  0.88535675395E+03  0.46999998093E+01 0.  1.
       -5    1    3    3    0  502  0.18508588390E+03 -0.76644867450E+03 -0.82018005886E+03  0.11377248235E+04  0.46999998093E+01 0. -1.
</event>
<event>
 5   0  0.3431030E-04  0.1983725E+04  0.7818609E-02  0.8614268E-01
       -2   -1    0    0    0  501  0.00000000000E+00  0.00000000000E+00  0.75937300888E+03  0.75937300888E+03  0.25500000920E-02 0. -1.
        2   -1    0    0  501    0  0.00000000000E+00  0.00000000000E+00 -0.12955312328E+04  0.12955312329E+04  0.25500000920E-02 0.  1.
    10030    2    1    2    0    0  0.00000000000E+00  0.00000000000E+00 -0.53615822397E+03  0.20549042417E+04  0.19837252334E+04 0.  0.
        3    1    3    3  502    0 -0.19766037974E+03  0.72164928862E+03  0.40639359189E+03  0.85147112882E+03  0.10100000352E+00 0. -1.
       -3    1    3    3    0  502  0.19766037974E+03 -0.72164928862E+03 -0.94255181586E+03  0.12034331129E+04  0.10100000352E+00 0.  1.
</event>
<event>
 5   0  0.3395569E-04  0.2019369E+04  0.7818609E-02  0.8597618E-01
        2   -1    0    0  501    0  0.00000000000E+00  0.00000000000E+00  0.95697512714E+03  0.95697512714E+03  0.25500000920E-02 0. -1.
       -2   -1    0    0    0  501  0.00000000000E+00  0.00000000000E+00 -0.10652966912E+04  0.10652966912E+04  0.25500000920E-02 0.  1.
    10030    2    1    2    0    0  0.00000000000E+00  0.00000000000E+00 -0.10832156409E+03  0.20222718184E+04  0.20193686504E+04 0.  0.
        4    1    3    3  502    0  0.92933487617E+03 -0.85415250616E+02 -0.44007404155E+03  0.10318070808E+04  0.12699999809E+01 0.  1.
       -4    1    3    3    0  502 -0.92933487617E+03  0.85415250616E+02  0.33175247745E+03  0.99046473754E+03  0.12699999809E+01 0. -1.
</event>
<event>
 5   0  0.1222488E-04  0.1929378E+04  0.7818609E-02  0.8640370E-01
       -3   -1    0    0    0  501  0.00000000000E+00  0.00000000000E+00  0.49960475545E+03  0.49960476566E+03  0.10100000352E+00 0.  1.
        3   -1    0    0  501    0  0.00000000000E+00  0.00000000000E+00 -0.18627224855E+04  0.18627224883E+04  0.10100000352E+00 0. -1.
    10030    2    1    2    0    0  0.00000000000E+00  0.00000000000E+00 -0.13631177301E+04  0.23623272539E+04  0.19293781663E+04 0.  0.
        4    1    3    3  502    0 -0.92577257529E+03 -0.13625265837E+03 -0.96871553902E+03  0.13468597019E+04  0.12699999809E+01 0.  1.
       -4    1    3    3    0  502  0.92577257529E+03  0.13625265837E+03 -0.39440219105E+03  0.10154675521E+04  0.12699999809E+01 0. -1.
</event>
<event>
 5   0  0.3431030E-04  0.2001445E+04  0.7818609E-02  0.8605945E-01
        2   -1    0    0  501    0  0.00000000000E+00  0.00000000000E+00  0.13454152078E+04  0.13454152078E+04  0.25500000920E-02 0. -1.
       -2   -1    0    0    0  501  0.00000000000E+00  0.00000000000E+00 -0.74433937831E+03  0.74433937831E+03  0.25500000920E-02 0.  1.
    10030    2    1    2    0    0  0.00000000000E+00  0.00000000000E+00  0.60107582946E+03  0.20897545861E+04  0.20014449973E+04 0.  0.
        3    1    3    3  502    0  0.29176037897E+03 -0.48749436116E+02 -0.69764844344E+03  0.75776908560E+03  0.10100000352E+00 0.  1.
       -3    1    3    3    0  502 -0.29176037897E+03  0.48749436116E+02  0.12987242729E+04  0.13319855005E+04  0.10100000352E+00 0. -1.
</event>
<event>
 5   0  0.3395569E-04  0.1982840E+04  0.7818609E-02  0.8614686E-01
        2   -1    0    0  501    0  0.00000000000E+00  0.00000000000E+00  0.25707695402E+04  0.25707695402E+04  0.25500000920E-02 0. -1.
       -2   -1    0    0    0  501  0.00000000000E+00  0.00000000000E+00 -0.38234211572E+03  0.38234211573E+03  0.25500000920E-02 0.  1.
    10030    2    1    2    0    0  0.00000000000E+00  0.00000000000E+00  0.21884274244E+04  0.29531116559E+04  0.19828398473E+04 0.  0.
        4    1    3    3  502    0  0.10799733956E+03  0.88444161375E+03  0.17417085296E+04  0.19563871316E+04  0.12699999809E+01 0. -1.
       -4    1    3    3    0  502 -0.10799733956E+03 -0.88444161375E+03  0.44671889479E+03  0.99672452430E+03  0.12699999809E+01 0.  1.
</event>
<event>
 5   0  0.3387881E-04  0.2006641E+04  0.7818609E-02  0.8603522E-01
        2   -1    0    0  501    0  0.00000000000E+00  0.00000000000E+00  0.19750136967E+04  0.19750136967E+04  0.25500000920E-02 0. -1.
       -2   -1    0    0    0  501  0.00000000000E+00  0.00000000000E+00 -0.50969367608E+03  0.50969367609E+03  0.25500000920E-02 0.  1.
    10030    2    1    2    0    0  0.00000000000E+00  0.00000000000E+00  0.14653200206E+04  0.24847073728E+04  0.20066409658E+04 0.  0.
        1    1    3    3  502    0  0.14794821783E+03 -0.53283992079E+02  0.19596599498E+04  0.19659590479E+04  0.50400001928E-02 0. -1.
       -1    1    3    3    0  502 -0.14794821783E+03  0.53283992079E+02 -0.49433992921E+03  0.51874832492E+03  0.50400001928E-02 0.  1.
</event>
<event>
 5   0  0.1696052E-04  0.2005783E+04  0.7818609E-02  0.8603922E-01
       -1   -1    0    0    0  501  0.00000000000E+00  0.00000000000E+00  0.99815079759E+03  0.99815079760E+03  0.50400001928E-02 0. -1.
        1   -1    0    0  501    0  0.00000000000E+00  0.00000000000E+00 -0.10076542639E+04  0.10076542639E+04  0.50400001928E-02 0.  1.
    10030    2    1    2    0    0  0.00000000000E+00  0.00000000000E+00 -0.95034662882E+01  0.20058050615E+04  0.20057825477E+04 0.  0.
        4    1    3    3  502    0  0.31492734779E+03 -0.86849425214E+03 -0.39504804816E+03  0.10047517473E+04  0.12699999809E+01 0.  1.
       -4    1    3    3    0  502 -0.31492734779E+03  0.86849425214E+03  0.38554458188E+03  0.10010533142E+04  0.12699999809E+01 0. -1.
</event>
<event>
 5   0  0.3431030E-04  0.2027013E+04  0.7818609E-02  0.8594094E-01
        2   -1    0    0  501    0  0.00000000000E+00  0.00000000000E+00  0.23280520901E+04  0.23280520901E+04  0.25500000920E-02 0.  1.
       -2   -1    0    0    0  501  0.00000000000E+00  0.00000000000E+00 -0.44122523521E+03  0.44122523522E+03  0.25500000920E-02 0. -1.
    10030    2    1    2    0    0  0.00000000000E+00  0.00000000000E+00  0.18868268549E+04  0.27692773253E+04  0.20270129068E+04 0.  0.
        3    1    3    3  502    0  0.26412586078E+02 -0.87438466717E+03  0.24418603683E+03  0.90822519326E+03  0.10100000352E+00 0. -1.
       -3    1    3    3    0  502 -0.26412586078E+02  0.87438466717E+03  0.16426408181E+04  0.18610521321E+04  0.10100000352E+00 0.  1.
</event>
<event>
 5   0  0.3460648E-04  0.1878424E+04  0.7818609E-02  0.8665671E-01
        2   -1    0    0  501    0  0.00000000000E+00  0.00000000000E+00  0.23622758068E+04  0.23622758068E+04  0.25500000920E-02 0. -1.
       -2   -1    0    0    0  501  0.00000000000E+00  0.00000000000E+00 -0.37341934397E+03  0.37341934398E+03  0.25500000920E-02 0.  1.
    10030    2    1    2    0    0  0.00000000000E+00  0.00000000000E+00  0.19888564629E+04  0.27356951508E+04  0.18784243206E+04 0.  0.
        5    1    3    3  502    0 -0.54801392429E+03 -0.58164876972E+03  0.17130334049E+04  0.18902751358E+04  0.46999998093E+01 0. -1.
       -5    1    3    3    0  502  0.54801392429E+03  0.58164876972E+03  0.27582305792E+03  0.84542001503E+03  0.46999998093E+01 0.  1.
</event>
<event>
 5   0  0.1708578E-04  0.1899503E+04  0.7818609E-02  0.8655104E-01
        1   -1    0    0  501    0  0.00000000000E+00  0.00000000000E+00  0.15363839823E+04  0.15363839823E+04  0.50400001928E-02 0.  1.
       -1   -1    0    0    0  501  0.00000000000E+00  0.00000000000E+00 -0.58711109029E+03  0.58711109031E+03  0.50400001928E-02 0. -1.
    10030    2    1    2    0    0  0.00000000000E+00  0.00000000000E+00  0.94927289198E+03  0.21234950726E+04  0.18995031719E+04 0.  0.
        3    1    3    3  502    0  0.15965784774E+03  0.11662693594E+03 -0.56384902773E+03  0.59751000561E+03  0.10100000352E+00 0. -1.
       -3    1    3    3    0  502 -0.15965784774E+03 -0.11662693594E+03  0.15131219197E+04  0.15259850670E+04  0.10100000352E+00 0.  1.
</event>
<event>
 5   0  0.1696052E-04  0.1908791E+04  0.7818609E-02  0.8650493E-01
        1   -1    0    0  501    0  0.00000000000E+00  0.00000000000E+00  0.53297095443E+03  0.53297095446E+03  0.50400001928E-02 0.  1.
       -1   -1    0    0    0  501  0.00000000000E+00  0.00000000000E+00 -0.17090442943E+04  0.17090442943E+04  0.50400001928E-02 0. -1.
    10030    2    1    2    0    0  0.00000000000E+00  0.00000000000E+00 -0.11760733399E+04  0.22420152488E+04  0.19087912078E+04 0.  0.
        4    1    3    3  502    0  0.18823700494E+03 -0.10857353917E+02 -0.16869492401E+04  0.16974540947E+04  0.12699999809E+01 0. -1.
       -4    1    3    3    0  502 -0.18823700494E+03  0.10857353917E+02  0.51087590022E+03  0.54456115404E+03  0.12699999809E+01 0.  1.
</event>
<event>
 5   0  0.3395569E-04  0.2020844E+04  0.7818609E-02  0.8596937E-01
        2   -1    0    0  501    0  0.00000000000E+00  0.00000000000E+00  0.14288361448E+04  0.14288361448E+04  0.25500000920E-02 0. -1.
       -2   -1    0    0    0  501  0.00000000000E+00  0.00000000000E+00 -0.71453426268E+03  0.71453426269E+03  0.25500000920E-02 0.  1.
    10030    2    1    2    0    0  0.00000000000E+00  0.00000000000E+00  0.71430188216E+03  0.21433704075E+04  0.20208437656E+04 0.  0.
        4    1    3    3  502    0 -0.82098878011E+03  0.51737008852E+03  0.65574531132E+03  0.11711950785E+04  0.12699999809E+01 0. -1.
       -4    1    3    3    0  502  0.82098878011E+03 -0.51737008852E+03  0.58556570837E+02  0.97217532907E+03  0.12699999809E+01 0.  1.
</event>
<event>
 5   0  0.1708578E-04  0.1987378E+04  0.7818609E-02  0.8612545E-01
       -1   -1    0    0    0  501  0.00000000000E+00  0.00000000000E+00  0.72674073604E+03  0.72674073605E+03  0.50400001928E-02 0.  1.
        1   -1    0    0  501    0  0.00000000000E+00  0.00000000000E+00 -0.13586934853E+04  0.13586934853E+04  0.50400001928E-02 0. -1.
    10030    2    1    2    0    0  0.00000000000E+00  0.00000000000E+00 -0.63195274926E+03  0.20854342214E+04  0.19873780753E+04 0.  0.
        3    1    3    3  502    0 -0.62892824185E+03  0.56038115848E+03  0.23713613160E+03  0.87510646855E+03  0.10100000352E+00 0.  1.
       -3    1    3    3    0  502  0.62892824185E+03 -0.56038115848E+03 -0.86908888086E+03  0.12103277528E+04  0.10100000352E+00 0. -1.
</event>
<event>
 5   0  0.3460648E-04  0.1981331E+04  0.7818609E-02  0.8615399E-01
       -2   -1    0    0    0  501  0.00000000000E+00  0.00000000000E+00  0.42320510184E+03  0.42320510185E+03  0.25500000920E-02 0.  1.
        2   -1    0    0  501    0  0.00000000000E+00  0.00000000000E+00 -0.23190130371E+04  0.23190130371E+04  0.25500000920E-02 0. -1.
    10030    2    1    2    0    0  0.00000000000E+00  0.00000000000E+00 -0.18958079352E+04  0.27422181389E+04  0.19813310158E+04 0.  0.
        5    1    3    3  502    0  0.57453830648E+03  0.46581605112E+02 -0.20629979006E+04  0.21420192668E+04  0.46999998093E+01 0. -1.
       -5    1    3    3    0  502 -0.57453830648E+03 -0.46581605112E+02  0.16718996537E+03  0.60019887210E+03  0.46999998093E+01 0.  1.
</event>
<event>
 5   0  0.3371947E-04  0.1563551E+04  0.7818609E-02  0.8843258E-01
        2   -1    0    0  501    0  0.00000000000E+00  0.00000000000E+00  0.58594802355E+03  0.58594802356E+03  0.25500000920E-02 0. -1.
       -2   -1    0    0    0  501  0.00000000000E+00  0.00000000000E+00 -0.10430494147E+04  0.10430494147E+04  0.25500000920E-02 0.  1.
    10030    2    1    2    0    0  0.00000000000E+00  0.00000000000E+00 -0.45710139112E+03  0.16289974382E+04  0.15635507577E+04 0.  0.
        2    1    3    3  502    0  0.27392930575E+03  0.72290341568E+03 -0.34981026931E+03  0.84852450611E+03  0.25500000920E-02 0. -1.
       -2    1    3    3    0  502 -0.27392930575E+03 -0.72290341568E+03 -0.10729112181E+03  0.78047293212E+03  0.25500000920E-02 0.  1.
</event>
<event>
 5   0  0.3460648E-04  0.1989849E+04  0.7818609E-02  0.8611381E-01
        2   -1    0    0  501    0  0.00000000000E+00  0.00000000000E+00  0.61119059497E+03  0.61119059498E+03  0.25500000920E-02 0.  1.
       -2   -1    0    0    0  501  0.00000000000E+00  0.00000000000E+00 -0.16195847740E+04  0.16195847740E+04  0.25500000920E-02 0. -1.
    10030    2    1    2    0    0  0.00000000000E+00  0.00000000000E+00 -0.10083941791E+04  0.22307753690E+04  0.19898492221E+04 0.  0.
        5    1    3    3  502    0 -0.25095998738E+03  0.65208788879E+03 -0.12982282289E+04  0.14743195564E+04  0.46999998093E+01 0. -1.
       -5    1    3    3    0  502  0.25095998738E+03 -0.65208788879E+03  0.28983404988E+03  0.75645581262E+03  0.46999998093E+01 0.  1.
</event>
<event>
 5   0  0.1664168E-04  0.2016587E+04  0.7818609E-02  0.8598905E-01
       -1   -1    0    0    0  501  0.00000000000E+00  0.00000000000E+00  0.10647524112E+04  0.10647524113E+04  0.50400001928E-02 0.  1.
        1   -1    0    0  501    0  0.00000000000E+00  0.00000000000E+00 -0.95482827260E+03  0.95482827261E+03  0.50400001928E-02 0. -1.
    10030    2    1    2    0    0  0.00000000000E+00  0.00000000000E+00  0.10992413865E+03  0.20195806839E+04  0.20165869241E+04 0.  0.
        5    1    3    3  502    0 -0.30098369254E+03 -0.26323959973E+03 -0.87201853060E+03  0.95933553971E+03  0.46999998093E+01 0. -1.
       -5    1    3    3    0  502  0.30098369254E+03  0.26323959973E+03  0.98194266925E+03  0.10602451442E+04  0.46999998093E+01 0.  1.
</event>
<event>
 5   0  0.1696052E-04  0.1922454E+04  0.7818609E-02  0.8643760E-01
        1   -1    0    0  501    0  0.00000000000E+00  0.00000000000E+00  0.14647964870E+04  0.14647964870E+04  0.50400001928E-02 0. -1.
       -1   -1    0    0    0  501  0.00000000000E+00  0.00000000000E+00 -0.63077500436E+03  0.63077500438E+03  0.50400001928E-02 0.  1.
    10030    2    1    2    0    0  0.00000000000E+00  0.00000000000E+00  0.83402148265E+03  0.20955714914E+04  0.19224536515E+04 0.  0.
        4    1    3    3  502    0 -0.31404705016E+03  0.27160897935E+03 -0.52798091276E+03  0.67168626941E+03  0.12699999809E+01 0.  1.
       -4    1    3    3    0  502  0.31404705016E+03 -0.27160897935E+03  0.13620023954E+04  0.14238852220E+04  0.12699999809E+01 0. -1.
</event>
<event>
 5   0  0.3431030E-04  0.1086311E+04  0.7818609E-02  0.9218637E-01
       -2   -1    0    0    0  501  0.00000000000E+00  0.00000000000E+00  0.38313416096E+03  0.38313416097E+03  0.25500000920E-02 0.  1.
        2   -1    0    0  501    0  0.00000000000E+00  0.00000000000E+00 -0.77001261212E+03  0.77001261212E+03  0.25500000920E-02 0. -1.
    10030    2    1    2    0    0  0.00000000000E+00  0.00000000000E+00 -0.38687845115E+03  0.11531467731E+04  0.10863114398E+04 0.  0.
        3    1    3    3  502    0  0.20344806197E+01  0.54305590223E+03 -0.18259951022E+03  0.57293668358E+03  0.10100000352E+00 0.  1.
       -3    1    3    3    0  502 -0.20344806197E+01 -0.54305590223E+03 -0.20427894093E+03  0.58021008951E+03  0.10100000352E+00 0. -1.
</event>
<event>
 5   0  0.1643565E-04  0.2015405E+04  0.7818609E-02  0.8599452E-01
        1   -1    0    0  501    0  0.00000000000E+00  0.00000000000E+00  0.10492308114E+04  0.10492308114E+04  0.50400001928E-02 0. -1.
       -1   -1    0    0    0  501  0.00000000000E+00  0.00000000000E+00 -0.96781748507E+03  0.96781748508E+03  0.50400001928E-02 0.  1.
    10030    2    1    2    0    0  0.00000000000E+00  0.00000000000E+00  0.81413326302E+02  0.20170482965E+04  0.20154045997E+04 0.  0.
        2    1    3    3  502    0  0.69468238746E+02  0.12865469567E+03  0.10385584589E+04  0.10488000474E+04  0.25500000920E-02 0. -1.
       -2    1    3    3    0  502 -0.69468238746E+02 -0.12865469567E+03 -0.95714513260E+03  0.96824824904E+03  0.25500000920E-02 0.  1.
</event>
<event>
 5   0  0.3395569E-04  0.2007261E+04  0.7818609E-02  0.8603234E-01
       -2   -1    0    0    0  501  0.00000000000E+00  0.00000000000E+00  0.85731106977E+03  0.85731106977E+03  0.25500000920E-02 0. -1.
        2   -1    0    0  501    0  0.00000000000E+00  0.00000000000E+00 -0.11749222708E+04  0.11749222708E+04  0.25500000920E-02 0.  1.
    10030    2    1    2    0    0  0.00000000000E+00  0.00000000000E+00 -0.31761120107E+03  0.20322333406E+04  0.20072606895E+04 0.  0.
        4    1    3    3  502    0  0.63754550964E+03  0.70232435300E+03  0.17322027899E+03  0.96422541536E+03  0.12699999809E+01 0. -1.
       -4    1    3    3    0  502 -0.63754550964E+03 -0.70232435300E+03 -0.49083148006E+03  0.10680079252E+04  0.12699999809E+01 0.  1.
</event>
<event>
 5   0  0.1696052E-04  0.1879851E+04  0.7818609E-02  0.8664951E-01
       -1   -1    0    0    0  501  0.00000000000E+00  0.00000000000E+00  0.16034660619E+04  0.16034660619E+04  0.50400001928E-02 0. -1.
        1   -1    0    0  501    0  0.00000000000E+00  0.00000000000E+00 -0.55096890449E+03  0.55096890451E+03  0.50400001928E-02 0.  1.
    10030    2    1    2    0    0  0.00000000000E+00  0.00000000000E+00  0.10524971574E+04  0.21544349664E+04  0.18798509936E+04 0.  0.
        4    1    3    3  502    0 -0.34895240219E+03 -0.29250382386E+03 -0.41613069883E+03  0.61684085255E+03  0.12699999809E+01 0.  1.
       -4    1    3    3    0  502  0.34895240219E+03  0.29250382386E+03  0.14686278563E+04  0.15375941139E+04  0.12699999809E+01 0. -1.
</event>
<event>
 5   0  0.1650221E-04  0.1946480E+04  0.7818609E-02  0.8632060E-01
       -1   -1    0    0    0  501  0.00000000000E+00  0.00000000000E+00  0.66924224014E+03  0.66924224016E+03  0.50400001928E-02 0.  1.
        1   -1    0    0  501    0  0.00000000000E+00  0.00000000000E+00 -0.14153268085E+04  0.14153268086E+04  0.50400001928E-02 0. -1.
    10030    2    1    2    0    0  0.00000000000E+00  0.00000000000E+00 -0.74608456840E+03  0.20845690487E+04  0.19464803969E+04 0.  0.
        1    1    3    3  502    0  0.43125710104E+03 -0.49547252159E+03 -0.11421259099E+04  0.13175459389E+04  0.50400001928E-02 0. -1.
       -1    1    3    3    0  502 -0.43125710104E+03  0.49547252159E+03  0.39604134152E+03  0.76702310987E+03  0.50400001928E-02 0.  1.
</event>
<event>
 5   0  0.1664168E-04  0.1885784E+04  0.7818609E-02  0.8661965E-01
        1   -1    0    0  501    0  0.00000000000E+00  0.00000000000E+00  0.56661586847E+03  0.56661586850E+03  0.50400001928E-02 0. -1.
       -1   -1    0    0    0  501  0.00000000000E+00  0.00000000000E+00 -0.15690440930E+04  0.15690440930E+04  0.50400001928E-02 0.  1.
    10030    2    1    2    0    0  0.00000000000E+00  0.00000000000E+00 -0.10024282245E+04  0.21356599615E+04  0.18857839552E+04 0.  0.
        5    1    3    3  502    0  0.14850264589E+03  0.84431168866E+03 -0.56631308779E+02  0.85915333822E+03  0.46999998093E+01 0. -1.
       -5    1    3    3    0  502 -0.14850264589E+03 -0.84431168866E+03 -0.94579691572E+03  0.12765066233E+04  0.46999998093E+01 0.  1.
</event>
<event>
 5   0  0.1708578E-04  0.2050209E+04  0.7818609E-02  0.8583500E-01
       -1   -1    0    0    0  501  0.00000000000E+00  0.00000000000E+00  0.17238286829E+04  0.17238286829E+04  0.50400001928E-02 0.  1.
        1   -1    0    0  501    0  0.00000000000E+00  0.00000000000E+00 -0.60959611551E+03  0.60959611553E+03  0.50400001928E-02 0. -1.
    10030    2    1    2    0    0  0.00000000000E+00  0.00000000000E+00  0.11142325674E+04  0.23334247985E+04  0.20502090322E+04 0.  0.
        3    1    3    3  502    0  0.12544797626E+03  0.37465403627E+03  0.16336886390E+04  0.16807859534E+04  0.10100000352E+00 0.  1.
       -3    1    3    3    0  502 -0.12544797626E+03 -0.37465403627E+03 -0.51945607157E+03  0.65263884510E+03  0.10100000352E+00 0. -1.
</event>
<event>
 5   0  0.3371947E-04  0.1979547E+04  0.7818609E-02  0.8616243E-01
       -2   -1    0    0    0  501  0.00000000000E+00  0.00000000000E+00  0.50611095561E+03  0.50611095561E+03  0.25500000920E-02 0.  1.
        2   -1    0    0  501    0  0.00000000000E+00  0.00000000000E+00 -0.19356463631E+04  0.19356463631E+04  0.25500000920E-02 0. -1.
    10030    2    1    2    0    0  0.00000000000E+00  0.00000000000E+00 -0.14295354075E+04  0.24417573187E+04  0.19795472518E+04 0.  0.
        2    1    3    3  502    0  0.53095962370E+03 -0.17941550093E+03 -0.17210618397E+04  0.18100170994E+04  0.25500000920E-02 0. -1.
       -2    1    3    3    0  502 -0.53095962370E+03  0.17941550093E+03  0.29152643224E+03  0.63174021930E+03  0.25500000920E-02 0.  1.
</event>
<event>
 5   0  0.1696052E-04  0.1953337E+04  0.7818609E-02  0.8628753E-01
       -1   -1    0    0    0  501  0.00000000000E+00  0.00000000000E+00  0.61711255216E+03  0.61711255218E+03  0.50400001928E-02 0. -1.
        1   -1    0    0  501    0  0.00000000000E+00  0.00000000000E+00 -0.15457166643E+04  0.15457166643E+04  0.50400001928E-02 0.  1.
    10030    2    1    2    0    0  0.00000000000E+00  0.00000000000E+00 -0.92860411217E+03  0.21628292165E+04  0.19533367919E+04 0.  0.
        4    1    3    3  502    0  0.21816930612E+03  0.87552111032E+03 -0.87821826290E+03  0.12591282663E+04  0.12699999809E+01 0.  1.
       -4    1    3    3    0  502 -0.21816930612E+03 -0.87552111032E+03 -0.50385849267E+02  0.90370095024E+03  0.12699999809E+01 0. -1.
</event>
<event>
 5   0  0.3460648E-04  0.1992101E+04  0.7818609E-02  0.8610323E-01
        2   -1    0    0  501    0  0.00000000000E+00  0.00000000000E+00  0.13515261878E+04  0.13515261878E+04  0.25500000920E-02 0. -1.
       -2   -1    0    0    0  501  0.00000000000E+00  0.00000000000E+00 -0.73407111507E+03  0.73407111507E+03  0.25500000920E-02 0.  1.
    10030    2    1    2    0    0  0.00000000000E+00  0.00000000000E+00  0.61745507270E+03  0.20855973028E+04  0.19921007361E+04 0.  0.
        5    1    3    3  502    0  0.72761570987E+03 -0.52473915235E+03  0.76184357426E+03  0.11769466942E+04  0.46999998093E+01 0. -1.
       -5    1    3    3    0  502 -0.72761570987E+03  0.52473915235E+03 -0.14438850157E+03  0.90865060867E+03  0.46999998093E+01 0.  1.
</event>
<event>
 5   0  0.3395569E-04  0.1973078E+04  0.7818609E-02  0.8619312E-01
        2   -1    0    0  501    0  0.00000000000E+00  0.00000000000E+00  0.18443661520E+04  0.18443661520E+04  0.25500000920E-02 0. -1.
       -2   -1    0    0    0  501  0.00000000000E+00  0.00000000000E+00 -0.52769303276E+03  0.52769303277E+03  0.25500000920E-02 0.  1.
    10030    2    1    2    0    0  0.00000000000E+00  0.00000000000E+00  0.13166731192E+04  0.23720591848E+04  0.19730779693E+04 0.  0.
        4    1    3    3  502    0 -0.44968882101E+02  0.49273281175E+03  0.16844161923E+04  0.17555817685E+04  0.12699999809E+01 0. -1.
       -4    1    3    3    0  502  0.44968882101E+02 -0.49273281175E+03 -0.36774307303E+03  0.61647741629E+03  0.12699999809E+01 0.  1.
</event>
<event>
 5   0  0.1650221E-04  0.2032964E+04  0.7818609E-02  0.8591362E-01
       -1   -1    0    0    0  501  0.00000000000E+00  0.00000000000E+00  0.46919660218E+03  0.46919660221E+03  0.50400001928E-02 0.  1.
        1   -1    0    0  501    0  0.00000000000E+00  0.00000000000E+00 -0.22021375680E+04  0.22021375680E+04  0.50400001928E-02 0. -1.
    10030    2    1    2    0    0  0.00000000000E+00  0.00000000000E+00 -0.17329409658E+04  0.26713341702E+04  0.20329638113E+04 0.  0.
        1    1    3    3  502    0  0.84703270577E+03  0.11542529136E+03 -0.15891137730E+04  0.18044583637E+04  0.50400001928E-02 0. -1.
       -1    1    3    3    0  502 -0.84703270577E+03 -0.11542529136E+03 -0.14382719275E+03  0.86687580652E+03  0.50400001928E-02 0.  1.
</event>
<event>
 5   0  0.3460648E-04  0.1976475E+04  0.7818609E-02  0.8617699E-01
       -2   -1    0    0    0  501  0.00000000000E+00  0.00000000000E+00  0.37264448833E+03  0.37264448834E+03  0.25500000920E-02 0. -1.
        2   -1    0    0  501    0  0.00000000000E+00  0.00000000000E+00 -0.26207651046E+04  0.26207651046E+04  0.25500000920E-02 0.  1.
    10030    2    1    2    0    0  0.00000000000E+00  0.00000000000E+00 -0.22481206163E+04  0.29934095930E+04  0.19764753188E+04 0.  0.
        5    1    3    3  502    0 -0.22720232522E+03  0.62461567089E+03 -0.22316553060E+04  0.23285345451E+04  0.46999998093E+01 0.  1.
       -5    1    3    3    0  502  0.22720232522E+03 -0.62461567089E+03 -0.16465310341E+02  0.66487504792E+03  0.46999998093E+01 0. -1.
</event>
<event>
 5   0  0.3387881E-04  0.2015884E+04  0.7818609E-02  0.8599230E-01
        2   -1    0    0  501    0  0.00000000000E+00  0.00000000000E+00  0.10935658378E+04  0.10935658378E+04  0.25500000920E-02 0. -1.
       -2   -1    0    0    0  501  0.00000000000E+00  0.00000000000E+00 -0.92902244412E+03  0.92902244412E+03  0.25500000920E-02 0.  1.
    10030    2    1    2    0    0  0.00000000000E+00  0.00000000000E+00  0.16454339369E+03  0.20225882819E+04  0.20158841310E+04 0.  0.
        1    1    3    3  502    0  0.10066810193E+04 -0.20245334428E+02  0.12858427031E+03  0.10150618025E+04  0.50400001928E-02 0. -1.
       -1    1    3    3    0  502 -0.10066810193E+04  0.20245334428E+02  0.35959123378E+02  0.10075264795E+04  0.50400001928E-02 0.  1.
</event>
<event>
 5   0  0.3431030E-04  0.2061988E+04  0.7818609E-02  0.8578175E-01
        2   -1    0    0  501    0  0.00000000000E+00  0.00000000000E+00  0.75950049718E+03  0.75950049718E+03  0.25500000920E-02 0.  1.
       -2   -1    0    0    0  501  0.00000000000E+00  0.00000000000E+00 -0.13995370421E+04  0.13995370421E+04  0.25500000920E-02 0. -1.
    10030    2    1    2    0    0  0.00000000000E+00  0.00000000000E+00 -0.64003654494E+03  0.21590375393E+04  0.20619884377E+04 0.  0.
        3    1    3    3  502    0 -0.30848861858E+03 -0.98183381372E+03 -0.38444646488E+03  0.10986182049E+04  0.10100000352E+00 0.  1.
       -3    1    3    3    0  502  0.30848861858E+03  0.98183381372E+03 -0.25559008006E+03  0.10604193344E+04  0.10100000352E+00 0. -1.
</event>
<event>
 5   0  0.1650221E-04  0.2005936E+04  0.7818609E-02  0.8603851E-01
       -1   -1    0    0    0  501  0.00000000000E+00  0.00000000000E+00  0.11609035545E+04  0.11609035545E+04  0.50400001928E-02 0.  1.
        1   -1    0    0  501    0  0.00000000000E+00  0.00000000000E+00 -0.86651843581E+03  0.86651843583E+03  0.50400001928E-02 0. -1.
    10030    2    1    2    0    0  0.00000000000E+00  0.00000000000E+00  0.29438511870E+03  0.20274219904E+04  0.20059355246E+04 0.  0.
        1    1    3    3  502    0 -0.79562905187E+03  0.27746658228E+03 -0.40262985818E+03  0.93387584570E+03  0.50400001928E-02 0. -1.
       -1    1    3    3    0  502  0.79562905187E+03 -0.27746658228E+03  0.69701497688E+03  0.10935461447E+04  0.50400001928E-02 0.  1.
</event>
<event>
 5   0  0.1643565E-04  0.1951180E+04  0.7818609E-02  0.8629792E-01
       -1   -1    0    0    0  501  0.00000000000E+00  0.00000000000E+00  0.12390829312E+04  0.12390829312E+04  0.50400001928E-02 0. -1.
        1   -1    0    0  501    0  0.00000000000E+00  0.00000000000E+00 -0.76812910474E+03  0.76812910475E+03  0.50400001928E-02 0.  1.
    10030    2    1    2    0    0  0.00000000000E+00  0.00000000000E+00  0.47095382649E+03  0.20072120360E+04  0.19511798099E+04 0.  0.
        2    1    3    3  502    0 -0.36454262069E+02  0.80407722975E+03  0.80258520217E+03  0.11366671067E+04  0.25500000920E-02 0. -1.
       -2    1    3    3    0  502  0.36454262069E+02 -0.80407722975E+03 -0.33163137568E+03  0.87054492932E+03  0.25500000920E-02 0.  1.
</event>
<event>
 5   0  0.3387881E-04  0.1993709E+04  0.7818609E-02  0.8609568E-01
       -2   -1    0    0    0  501  0.00000000000E+00  0.00000000000E+00  0.47712259735E+03  0.47712259735E+03  0.25500000920E-02 0.  1.
        2   -1    0    0  501    0  0.00000000000E+00  0.00000000000E+00 -0.20827327947E+04  0.20827327947E+04  0.25500000920E-02 0. -1.
    10030    2    1    2    0    0  0.00000000000E+00  0.00000000000E+00 -0.16056101974E+04  0.25598553921E+04  0.19937089864E+04 0.  0.
        1    1    3    3  502    0 -0.89058894445E+03 -0.10969744286E+03 -0.13603137329E+04  0.16296121161E+04  0.50400001928E-02 0. -1.
       -1    1    3    3    0  502  0.89058894445E+03  0.10969744286E+03 -0.24529646442E+03  0.93024327594E+03  0.50400001928E-02 0.  1.
</event>
<event>
 5   0  0.3431030E-04  0.1997517E+04  0.7818609E-02  0.8607782E-01
       -2   -1    0    0    0  501  0.00000000000E+00  0.00000000000E+00  0.90341504025E+03  0.90341504025E+03  0.25500000920E-02 0. -1.
        2   -1    0    0  501    0  0.00000000000E+00  0.00000000000E+00 -0.11041645029E+04  0.11041645029E+04  0.25500000920E-02 0.  1.
    10030    2    1    2    0    0  0.00000000000E+00  0.00000000000E+00 -0.20074946264E+03  0.20075795431E+04  0.19975172778E+04 0.  0.
        3    1    3    3  502    0 -0.88087641887E+03  0.28554299003E+03  0.27573054149E+03  0.96618083514E+03  0.10100000352E+00 0.  1.
       -3    1    3    3    0  502  0.88087641887E+03 -0.28554299003E+03 -0.47648000413E+03  0.10413987080E+04  0.10100000352E+00 0. -1.
</event>
<event>
 5   0  0.1664168E-04  0.1908584E+04  0.7818609E-02  0.8650595E-01
        1   -1    0    0  501    0  0.00000000000E+00  0.00000000000E+00  0.14244243903E+04  0.14244243903E+04  0.50400001928E-02 0.  1.
       -1   -1    0    0    0  501  0.00000000000E+00  0.00000000000E+00 -0.63932708057E+03  0.63932708059E+03  0.50400001928E-02 0. -1.
    10030    2    1    2    0    0  0.00000000000E+00  0.00000000000E+00  0.78509730973E+03  0.20637514709E+04  0.19085838593E+04 0.  0.
        5    1    3    3  502    0 -0.89629412589E+03  0.17033498023E+03  0.89989762069E+02  0.91677555207E+03  0.46999998093E+01 0. -1.
       -5    1    3    3    0  502  0.89629412589E+03 -0.17033498023E+03  0.69510754767E+03  0.11469759188E+04  0.46999998093E+01 0.  1.
</event>
<event>
 5   0  0.3431030E-04  0.2035657E+04  0.7818609E-02  0.8590129E-01
        2   -1    0    0  501    0  0.00000000000E+00  0.00000000000E+00  0.13855887970E+04  0.13855887970E+04  0.25500000920E-02 0. -1.
       -2   -1    0    0    0  501  0.00000000000E+00  0.00000000000E+00 -0.74767852029E+03  0.74767852030E+03  0.25500000920E-02 0.  1.
    10030    2    1    2    0    0  0.00000000000E+00  0.00000000000E+00  0.63791027672E+03  0.21332673173E+04  0.20356571239E+04 0.  0.
        3    1    3    3  502    0 -0.73382484463E+03 -0.29574220919E+03  0.98998100188E+03  0.12672903184E+04  0.10100000352E+00 0. -1.
       -3    1    3    3    0  502  0.73382484463E+03  0.29574220919E+03 -0.35207072516E+03  0.86597699889E+03  0.10100000352E+00 0.  1.
</event>
<event>
 5   0  0.1696052E-04  0.2008242E+04  0.7818609E-02  0.8602777E-01
        1   -1    0    0  501    0  0.00000000000E+00  0.00000000000E+00  0.61141381131E+03  0.61141381133E+03  0.50400001928E-02 0. -1.
       -1   -1    0    0    0  501  0.00000000000E+00  0.00000000000E+00 -0.16490610063E+04  0.16490610063E+04  0.50400001928E-02 0.  1.
    10030    2    1    2    0    0  0.00000000000E+00  0.00000000000E+00 -0.10376471950E+04  0.22604748176E+04  0.20082416936E+04 0.  0.
        4    1    3    3  502    0  0.27314839916E+03 -0.31576241551E+03 -0.15467248278E+04  0.16020846597E+04  0.12699999809E+01 0.  1.
       -4    1    3    3    0  502 -0.27314839916E+03  0.31576241551E+03  0.50907763278E+03  0.65839015797E+03  0.12699999809E+01 0. -1.
</event>
<event>
 5   0  0.1696052E-04  0.1994135E+04  0.7818609E-02  0.8609368E-01
        1   -1    0    0  501    0  0.00000000000E+00  0.00000000000E+00  0.91046552434E+03  0.91046552435E+03  0.50400001928E-02 0. -1.
       -1   -1    0    0    0  501  0.00000000000E+00  0.00000000000E+00 -0.10919065561E+04  0.10919065561E+04  0.50400001928E-02 0.  1.
    10030    2    1    2    0    0  0.00000000000E+00  0.00000000000E+00 -0.18144103177E+03  0.20023720805E+04  0.19941346747E+04 0.  0.
        4    1    3    3  502    0  0.22402754013E+03 -0.84568322376E+03  0.38955768776E+03  0.95766656968E+03  0.12699999809E+01 0. -1.
       -4    1    3    3    0  502 -0.22402754013E+03  0.84568322376E+03 -0.57099871954E+03  0.10447055108E+04  0.12699999809E+01 0.  1.
</event>
<event>
 5   0  0.3431030E-04  0.2008816E+04  0.7818609E-02  0.8602510E-01
       -2   -1    0    0    0  501  0.00000000000E+00  0.00000000000E+00  0.61647353984E+03  0.61647353985E+03  0.25500000920E-02 0. -1.
        2   -1    0    0  501    0  0.00000000000E+00  0.00000000000E+00 -0.16364621178E+04  0.16364621178E+04  0.25500000920E-02 0.  1.
    10030    2    1    2    0    0  0.00000000000E+00  0.00000000000E+00 -0.10199885780E+04  0.22529356577E+04  0.20088161634E+04 0.  0.
        3    1    3    3  502    0 -0.12786349160E+03 -0.63148409359E+03  0.35417209458E+03  0.73522725447E+03  0.10100000352E+00 0. -1.
       -3    1    3    3    0  502  0.12786349160E+03  0.63148409359E+03 -0.13741606726E+04  0.15177084032E+04  0.10100000352E+00 0.  1.
</event>
<event>
 5   0  0.1664168E-04  0.2032564E+04  0.7818609E-02  0.8591546E-01
        1   -1    0    0  501    0  0.00000000000E+00  0.00000000000E+00  0.64291081417E+03  0.64291081419E+03  0.50400001928E-02 0.  1.
       -1   -1    0    0    0  501  0.00000000000E+00  0.00000000000E+00 -0.16064882938E+04  0.16064882938E+04  0.50400001928E-02 0. -1.
    10030    2    1    2    0    0  0.00000000000E+00  0.00000000000E+00 -0.96357747965E+03  0.22493991080E+04  0.20325636000E+04 0.  0.
        5    1    3    3  502    0  0.83320366870E+03 -0.51266255697E+03 -0.17718933749E+03  0.99421798524E+03  0.46999998093E+01 0.  1.
       -5    1    3    3    0  502 -0.83320366870E+03  0.51266255697E+03 -0.78638814216E+03  0.12551811228E+04  0.46999998093E+01 0. -1.
</event>
<event>
 5   0  0.1650221E-04  0.1476359E+04  0.7818609E-02  0.8900328E-01
       -1   -1    0    0    0  501  0.00000000000E+00  0.00000000000E+00  0.36264193944E+03  0.36264193947E+03  0.50400001928E-02 0. -1.
        1   -1    0    0  501    0  0.00000000000E+00  0.00000000000E+00 -0.15026080623E+04  0.15026080623E+04  0.50400001928E-02 0.  1.
    10030    2    1    2    0    0  0.00000000000E+00  0.00000000000E+00 -0.11399661228E+04  0.18652500018E+04  0.14763586312E+04 0.  0.
        1    1    3    3  502    0 -0.27306204345E+03 -0.62069903921E+03 -0.93849805110E+03  0.11578466085E+04  0.50400001928E-02 0.  1.
       -1    1    3    3    0  502  0.27306204345E+03  0.62069903921E+03 -0.20146807174E+03  0.70740339327E+03  0.50400001928E-02 0. -1.
</event>
<event>
 5   0  0.1696052E-04  0.1958883E+04  0.7818609E-02  0.8626089E-01
       -1   -1    0    0    0  501  0.00000000000E+00  0.00000000000E+00  0.14034960185E+04  0.14034960185E+04  0.50400001928E-02 0.  1.
        1   -1    0    0  501    0  0.00000000000E+00  0.00000000000E+00 -0.68351137621E+03  0.68351137622E+03  0.50400001928E-02 0. -1.
    10030    2    1    2    0    0  0.00000000000E+00  0.00000000000E+00  0.71998464231E+03  0.20870073947E+04  0.19588828399E+04 0.  0.
        4    1    3    3  502    0  0.22069537909E+02 -0.70845803579E+03 -0.36016606121E+03  0.79506041124E+03  0.12699999809E+01 0. -1.
       -4    1    3    3    0  502 -0.22069537909E+02  0.70845803579E+03  0.10801507035E+04  0.12919469835E+04  0.12699999809E+01 0.  1.
</event>
<event>
 5   0  0.3371947E-04  0.1971038E+04  0.7818609E-02  0.8620282E-01
       -2   -1    0    0    0  501  0.00000000000E+00  0.00000000000E+00  0.46160579152E+03  0.46160579152E+03  0.25500000920E-02 0.  1.
        2   -1    0    0  501    0  0.00000000000E+00  0.00000000000E+00 -0.21040630984E+04  0.21040630984E+04  0.25500000920E-02 0. -1.
    10030    2    1    2    0    0  0.00000000000E+00  0.00000000000E+00 -0.16424573069E+04  0.25656688899E+04  0.19710380128E+04 0.  0.
        2    1    3    3  502    0 -0.51587250686E+03  0.43427264733E+03 -0.17567498002E+04  0.18817244846E+04  0.25500000920E-02 0. -1.
       -2    1    3    3    0  502  0.51587250686E+03 -0.43427264733E+03  0.11429249328E+03  0.68394440533E+03  0.25500000920E-02 0.  1.
</event>
<event>
 5   0  0.3371947E-04  0.1949125E+04  0.7818609E-02  0.8630783E-01
        2   -1    0    0  501    0  0.00000000000E+00  0.00000000000E+00  0.23079338359E+04  0.23079338359E+04  0.25500000920E-02 0. -1.
       -2   -1    0    0    0  501  0.00000000000E+00  0.00000000000E+00 -0.41152469759E+03  0.41152469760E+03  0.25500000920E-02 0.  1.
    10030    2    1    2    0    0  0.00000000000E+00  0.00000000000E+00  0.18964091383E+04  0.27194585335E+04  0.19491246999E+04 0.  0.
        2    1    3    3  502    0  0.34859989683E+03 -0.88154311853E+03  0.63271313275E+03  0.11397219250E+04  0.25500000920E-02 0.  1.
       -2    1    3    3    0  502 -0.34859989683E+03  0.88154311853E+03  0.12636960056E+04  0.15797366086E+04  0.25500000920E-02 0. -1.
</event>
<event>
 5   0  0.3371947E-04  0.1963322E+04  0.7818609E-02  0.8623963E-01
       -2   -1    0    0    0  501  0.00000000000E+00  0.00000000000E+00  0.59856416281E+03  0.59856416282E+03  0.25500000920E-02 0. -1.
        2   -1    0    0  501    0  0.00000000000E+00  0.00000000000E+00 -0.16099497233E+04  0.16099497233E+04  0.25500000920E-02 0.  1.
    10030    2    1    2    0    0  0.00000000000E+00  0.00000000000E+00 -0.10113855605E+04  0.22085138861E+04  0.19633218873E+04 0.  0.
        2    1    3    3  502    0  0.37400702152E+03  0.64043898070E+03  0.21775418140E+03  0.77295551209E+03  0.25500000920E-02 0. -1.
       -2    1    3    3    0  502 -0.37400702152E+03 -0.64043898070E+03 -0.12291397419E+04  0.14355583741E+04  0.25500000920E-02 0.  1.
</event>
<event>
 5   0  0.1643565E-04  0.1795355E+04  0.7818609E-02  0.8708774E-01
       -1   -1    0    0    0  501  0.00000000000E+00  0.00000000000E+00  0.62264044624E+03  0.62264044626E+03  0.50400001928E-02 0.  1.
        1   -1    0    0  501    0  0.00000000000E+00  0.00000000000E+00 -0.12942054663E+04  0.12942054663E+04  0.50400001928E-02 0. -1.
    10030    2    1    2    0    0  0.00000000000E+00  0.00000000000E+00 -0.67156502006E+03  0.19168459126E+04  0.17953547494E+04 0.  0.
        2    1    3    3  502    0  0.72660821731E+03  0.21133964933E+03  0.17980438712E+03  0.77778761013E+03  0.25500000920E-02 0.  1.
       -2    1    3    3    0  502 -0.72660821731E+03 -0.21133964933E+03 -0.85136940718E+03  0.11390583024E+04  0.25500000920E-02 0. -1.
</event>
<event>
 5   0  0.1696052E-04  0.1944884E+04  0.7818609E-02  0.8632832E-01
        1   -1    0    0  501    0  0.00000000000E+00  0.00000000000E+00  0.11587913592E+04  0.11587913592E+04  0.50400001928E-02 0.  1.
       -1   -1    0    0    0  501  0.00000000000E+00  0.00000000000E+00 -0.81606020950E+03  0.81606020952E+03  0.50400001928E-02 0. -1.
    10030    2    1    2    0    0  0.00000000000E+00  0.00000000000E+00  0.34273114971E+03  0.19748515687E+04  0.19448840782E+04 0.  0.
        4    1    3    3  502    0 -0.92962372823E+02 -0.65504141902E+03  0.89503241076E+03  0.11130165734E+04  0.12699999809E+01 0.  1.
       -4    1    3    3    0  502  0.92962372823E+02  0.65504141902E+03 -0.55230126105E+03  0.86183499537E+03  0.12699999809E+01 0. -1.
</event>
<event>
 5   0  0.1708578E-04  0.1820312E+04  0.7818609E-02  0.8695572E-01
        1   -1    0    0  501    0  0.00000000000E+00  0.00000000000E+00  0.17967869838E+04  0.17967869838E+04  0.50400001928E-02 0. -1.
       -1   -1    0    0    0  501  0.00000000000E+00  0.00000000000E+00 -0.46103611572E+03  0.46103611574E+03  0.50400001928E-02 0.  1.
    10030    2    1    2    0    0  0.00000000000E+00  0.00000000000E+00  0.13357508681E+04  0.22578230995E+04  0.18203117226E+04 0.  0.
        3    1    3    3  502    0 -0.12729802618E+03 -0.27535284706E+03  0.17322369250E+04  0.17585985194E+04  0.10100000352E+00 0. -1.
       -3    1    3    3    0  502  0.12729802618E+03  0.27535284706E+03 -0.39648605695E+03  0.49922458013E+03  0.10100000352E+00 0.  1.
</event>
<event>
 5   0  0.3460648E-04  0.2014321E+04  0.7818609E-02  0.8599954E-01
       -2   -1    0    0    0  501  0.00000000000E+00  0.00000000000E+00  0.19314114025E+04  0.19314114025E+04  0.25500000920E-02 0.  1.
        2   -1    0    0  501    0  0.00000000000E+00  0.00000000000E+00 -0.52519754278E+03  0.52519754279E+03  0.25500000920E-02 0. -1.
    10030    2    1    2    0    0  0.00000000000E+00  0.00000000000E+00  0.14062138597E+04  0.24566089453E+04  0.20143212482E+04 0.  0.
        5    1    3    3  502    0  0.73048728661E+03  0.52060938959E+02  0.15463138295E+04  0.17109735727E+04  0.46999998093E+01 0.  1.
       -5    1    3    3    0  502 -0.73048728661E+03 -0.52060938959E+02 -0.14009996979E+03  0.74563537255E+03  0.46999998093E+01 0. -1.
</event>
<event>
 5   0  0.1696052E-04  0.1496318E+04  0.7818609E-02  0.8886905E-01
        1   -1    0    0  501    0  0.00000000000E+00  0.00000000000E+00  0.11601508192E+04  0.11601508192E+04  0.50400001928E-02 0.  1.
       -1   -1    0    0    0  501  0.00000000000E+00  0.00000000000E+00 -0.48247359474E+03  0.48247359477E+03  0.50400001928E-02 0. -1.
    10030    2    1    2    0    0  0.00000000000E+00  0.00000000000E+00  0.67767722441E+03  0.16426244139E+04  0.14963183300E+04 0.  0.
        4    1    3    3  502    0  0.23719279471E+03 -0.43238822459E+02  0.11163335841E+04  0.11420736848E+04  0.12699999809E+01 0.  1.
       -4    1    3    3    0  502 -0.23719279471E+03  0.43238822459E+02 -0.43865635970E+03  0.50055072913E+03  0.12699999809E+01 0. -1.
</event>
<event>
 5   0  0.3460648E-04  0.1927225E+04  0.7818609E-02  0.8641422E-01
       -2   -1    0    0    0  501  0.00000000000E+00  0.00000000000E+00  0.90346191842E+03  0.90346191843E+03  0.25500000920E-02 0.  1.
        2   -1    0    0  501    0  0.00000000000E+00  0.00000000000E+00 -0.10277674710E+04  0.10277674710E+04  0.25500000920E-02 0. -1.
    10030    2    1    2    0    0  0.00000000000E+00  0.00000000000E+00 -0.12430555258E+03  0.19312293894E+04  0.19272247104E+04 0.  0.
        5    1    3    3  502    0  0.66230938687E+03 -0.39588702055E+03 -0.64054052396E+03  0.10028432130E+04  0.46999998093E+01 0. -1.
       -5    1    3    3    0  502 -0.66230938687E+03  0.39588702055E+03  0.51623497138E+03  0.92838617646E+03  0.46999998093E+01 0.  1.
</event>
<event>
 5   0  0.1696052E-04  0.1977408E+04  0.7818609E-02  0.8617257E-01
        1   -1    0    0  501    0  0.00000000000E+00  0.00000000000E+00  0.11042490240E+04  0.11042490240E+04  0.50400001928E-02 0.  1.
       -1   -1    0    0    0  501  0.00000000000E+00  0.00000000000E+00 -0.88524919457E+03  0.88524919459E+03  0.50400001928E-02 0. -1.
    10030    2    1    2    0    0  0.00000000000E+00  0.00000000000E+00  0.21899982939E+03  0.19894982186E+04  0.19774079590E+04 0.  0.
        4    1    3    3  502    0  0.51260139807E+03 -0.34245738984E+03 -0.66820533091E+03  0.90914093204E+03  0.12699999809E+01 0. -1.
       -4    1    3    3    0  502 -0.51260139807E+03  0.34245738984E+03  0.88720516030E+03  0.10803572865E+04  0.12699999809E+01 0.  1.
</event>
<event>
 5   0  0.1222488E-04  0.2213822E+04  0.7818609E-02  0.8512697E-01
        3   -1    0    0  501    0  0.00000000000E+00  0.00000000000E+00  0.82401314755E+03  0.82401315374E+03  0.10100000352E+00 0.  1.
       -3   -1    0    0    0  501  0.00000000000E+00  0.00000000000E+00 -0.14869326923E+04  0.14869326957E+04  0.10100000352E+00 0. -1.
    10030    2    1    2    0    0  0.00000000000E+00  0.00000000000E+00 -0.66291954472E+03  0.23109458494E+04  0.22138221239E+04 0.  0.
        2    1    3    3  502    0 -0.10826406504E+04  0.22923948747E+03 -0.30609179295E+03  0.11481958484E+04  0.25500000920E-02 0.  1.
       -2    1    3    3    0  502  0.10826406504E+04 -0.22923948747E+03 -0.35682775177E+03  0.11627500011E+04  0.25500000920E-02 0. -1.
</event>
<event>
 5   0  0.1708578E-04  0.2007406E+04  0.7818609E-02  0.8603166E-01
       -1   -1    0    0    0  501  0.00000000000E+00  0.00000000000E+00  0.59892285752E+03  0.59892285754E+03  0.50400001928E-02 0. -1.
        1   -1    0    0  501    0  0.00000000000E+00  0.00000000000E+00 -0.16820529957E+04  0.16820529957E+04  0.50400001928E-02 0.  1.
    10030    2    1    2    0    0  0.00000000000E+00  0.00000000000E+00 -0.10831301382E+04  0.22809758532E+04  0.20074062735E+04 0.  0.
        3    1    3    3  502    0  0.32466598846E+03  0.75796124281E+03  0.10870763298E+03  0.83170343833E+03  0.10100000352E+00 0. -1.
       -3    1    3    3    0  502 -0.32466598846E+03 -0.75796124281E+03 -0.11918377711E+04  0.14492724149E+04  0.10100000352E+00 0.  1.
</event>
<event>
 5   0  0.1708578E-04  0.2092665E+04  0.7818609E-02  0.8564481E-01
        1   -1    0    0  501    0  0.00000000000E+00  0.00000000000E+00  0.12277859179E+04  0.12277859179E+04  0.50400001928E-02 0.  1.
       -1   -1    0    0    0  501  0.00000000000E+00  0.00000000000E+00 -0.89169596651E+03  0.89169596652E+03  0.50400001928E-02 0. -1.
    10030    2    1    2    0    0  0.00000000000E+00  0.00000000000E+00  0.33608995137E+03  0.21194818844E+04  0.20926650480E+04 0.  0.
        3    1    3    3  502    0 -0.57314846474E+02  0.64906021092E+03 -0.66113273506E+03  0.92825678160E+03  0.10100000352E+00 0. -1.
       -3    1    3    3    0  502  0.57314846474E+02 -0.64906021092E+03  0.99722268644E+03  0.11912251028E+04  0.10100000352E+00 0.  1.
</event>
<event>
 5   0  0.3395569E-04  0.1162239E+04  0.7818609E-02  0.9146567E-01
       -2   -1    0    0    0  501  0.00000000000E+00  0.00000000000E+00  0.13977666822E+04  0.13977666822E+04  0.25500000920E-02 0. -1.
        2   -1    0    0  501    0  0.00000000000E+00  0.00000000000E+00 -0.24159943897E+03  0.24159943898E+03  0.25500000920E-02 0.  1.
    10030    2    1    2    0    0  0.00000000000E+00  0.00000000000E+00  0.11561672432E+04  0.16393661212E+04  0.11622386093E+04 0.  0.
        4    1    3    3  502    0 -0.56917774750E+03 -0.11333942550E+03  0.53602964764E+03  0.79002438549E+03  0.12699999809E+01 0.  1.
       -4    1    3    3    0  502  0.56917774750E+03  0.11333942550E+03  0.62013759558E+03  0.84934173568E+03  0.12699999809E+01 0. -1.
</event>
<event>
 5   0  0.3371947E-04  0.2008927E+04  0.7818609E-02  0.8602458E-01
        2   -1    0    0  501    0  0.00000000000E+00  0.00000000000E+00  0.13745564276E+04  0.13745564276E+04  0.25500000920E-02 0.  1.
       -2   -1    0    0    0  501  0.00000000000E+00  0.00000000000E+00 -0.73401637569E+03  0.73401637570E+03  0.25500000920E-02 0. -1.
    10030    2    1    2    0    0  0.00000000000E+00  0.00000000000E+00  0.64054005190E+03  0.21085728033E+04  0.20089270043E+04 0.  0.
        2    1    3    3  502    0 -0.53632131909E+02  0.71414945446E+03 -0.41898114386E+03  0.82971745058E+03  0.25500000920E-02 0. -1.
       -2    1    3    3    0  502  0.53632131909E+02 -0.71414945446E+03  0.10595211958E+04  0.12788553527E+04  0.25500000920E-02 0.  1.
</event>
<event>
 5   0  0.1708578E-04  0.1986717E+04  0.7818609E-02  0.8612856E-01
       -1   -1    0    0    0  501  0.00000000000E+00  0.00000000000E+00  0.39321041115E+03  0.39321041118E+03  0.50400001928E-02 0.  1.
        1   -1    0    0  501    0  0.00000000000E+00  0.00000000000E+00 -0.25094983680E+04  0.25094983680E+04  0.50400001928E-02 0. -1.
    10030    2    1    2    0    0  0.00000000000E+00  0.00000000000E+00 -0.21162879568E+04  0.29027087791E+04  0.19867167741E+04 0.  0.
        3    1    3    3  502    0 -0.81926999725E+03 -0.54053497722E+03 -0.12815449086E+04  0.16142300805E+04  0.10100000352E+00 0.  1.
       -3    1    3    3    0  502  0.81926999725E+03  0.54053497722E+03 -0.83474304825E+03  0.12884786986E+04  0.10100000352E+00 0. -1.
</event>
<event>
 5   0  0.3431030E-04  0.2043953E+04  0.7818609E-02  0.8586343E-01
        2   -1    0    0  501    0  0.00000000000E+00  0.00000000000E+00  0.66659667266E+03  0.66659667267E+03  0.25500000920E-02 0.  1.
       -2   -1    0    0    0  501  0.00000000000E+00  0.00000000000E+00 -0.15668181912E+04  0.15668181912E+04  0.25500000920E-02 0. -1.
    10030    2    1    2    0    0  0.00000000000E+00  0.00000000000E+00 -0.90022151856E+03  0.22334148639E+04  0.20439528301E+04 0.  0.
        3    1    3    3  502    0 -0.62033108119E+03  0.79755315557E+02 -0.13332780374E+04  0.14726852671E+04  0.10100000352E+00 0. -1.
       -3    1    3    3    0  502  0.62033108119E+03 -0.79755315557E+02  0.43305651889E+03  0.76072959677E+03  0.10100000352E+00 0.  1.
</event>
<event>
 5   0  0.1650221E-04  0.1610233E+04  0.7818609E-02  0.8814286E-01
        1   -1    0    0  501    0  0.00000000000E+00  0.00000000000E+00  0.86816763635E+03  0.86816763636E+03  0.50400001928E-02 0. -1.
       -1   -1    0    0    0  501  0.00000000000E+00  0.00000000000E+00 -0.74664493961E+03  0.74664493962E+03  0.50400001928E-02 0.  1.
    10030    2    1    2    0    0  0.00000000000E+00  0.00000000000E+00  0.12152269674E+03  0.16148125760E+04  0.16102334892E+04 0.  0.
        1    1    3    3  502    0 -0.55140544575E+02  0.39648413060E+02  0.86528988539E+03  0.86795107125E+03  0.50400001928E-02 0. -1.
       -1    1    3    3    0  502  0.55140544575E+02 -0.39648413060E+02 -0.74376718865E+03  0.74686150473E+03  0.50400001928E-02 0.  1.
</event>
<event>
 5   0  0.1696052E-04  0.1909179E+04  0.7818609E-02  0.8650301E-01
        1   -1    0    0  501    0  0.00000000000E+00  0.00000000000E+00  0.81722113941E+03  0.81722113943E+03  0.50400001928E-02 0.  1.
       -1   -1    0    0    0  501  0.00000000000E+00  0.00000000000E+00 -0.11150478186E+04  0.11150478186E+04  0.50400001928E-02 0. -1.
    10030    2    1    2    0    0  0.00000000000E+00  0.00000000000E+00 -0.29782667917E+03  0.19322689580E+04  0.19091785132E+04 0.  0.
        4    1    3    3  502    0 -0.21408309638E+03  0.82697456058E+02  0.78888301070E+03  0.82158898415E+03  0.12699999809E+01 0.  1.
       -4    1    3    3    0  502  0.21408309638E+03 -0.82697456058E+02 -0.10867096899E+04  0.11106799739E+04  0.12699999809E+01 0. -1.
</event>
<event>
 5   0  0.1664168E-04  0.2024534E+04  0.7818609E-02  0.8595235E-01
       -1   -1    0    0    0  501  0.00000000000E+00  0.00000000000E+00  0.71354098878E+03  0.71354098880E+03  0.50400001928E-02 0. -1.
        1   -1    0    0  501    0  0.00000000000E+00  0.00000000000E+00 -0.14360557805E+04  0.14360557805E+04  0.50400001928E-02 0.  1.
    10030    2    1    2    0    0  0.00000000000E+00  0.00000000000E+00 -0.72251479172E+03  0.21495967693E+04  0.20245341801E+04 0.  0.
        5    1    3    3  502    0 -0.99589146887E+03 -0.97892787150E+02 -0.19925512591E+03  0.10203467600E+04  0.46999998093E+01 0. -1.
       -5    1    3    3    0  502  0.99589146887E+03  0.97892787150E+02 -0.52325966581E+03  0.11292500093E+04  0.46999998093E+01 0.  1.
</event>
<event>
 5   0  0.3431030E-04  0.1956652E+04  0.7818609E-02  0.8627160E-01
        2   -1    0    0  501    0  0.00000000000E+00  0.00000000000E+00  0.10345824433E+04  0.10345824433E+04  0.25500000920E-02 0. -1.
       -2   -1    0    0    0  501  0.00000000000E+00  0.00000000000E+00 -0.92512848852E+03  0.92512848853E+03  0.25500000920E-02 0.  1.
    10030    2    1    2    0    0  0.00000000000E+00  0.00000000000E+00  0.10945395479E+03  0.19597109318E+04  0.19566519282E+04 0.  0.
        3    1    3    3  502    0 -0.29031909192E+03  0.22852470980E+03  0.96202011649E+03  0.10305296856E+04  0.10100000352E+00 0. -1.
       -3    1    3    3    0  502  0.29031909192E+03 -0.22852470980E+03 -0.85256616170E+03  0.92918124626E+03  0.10100000352E+00 0.  1.
</event>
<event>
 5   0  0.1650221E-04  0.1988439E+04  0.7818609E-02  0.8612045E-01
       -1   -1    0    0    0  501  0.00000000000E+00  0.00000000000E+00  0.38596974783E+03  0.38596974786E+03  0.50400001928E-02 0. -1.
        1   -1    0    0  501    0  0.00000000000E+00  0.00000000000E+00 -0.25610098373E+04  0.25610098373E+04  0.50400001928E-02 0.  1.
    10030    2    1    2    0    0  0.00000000000E+00  0.00000000000E+00 -0.21750400895E+04  0.29469795852E+04  0.19884389064E+04 0.  0.
        1    1    3    3  502    0 -0.34004926951E+03 -0.91683990002E+03 -0.82139522551E+03  0.12770744005E+04  0.50400001928E-02 0. -1.
       -1    1    3    3    0  502  0.34004926951E+03  0.91683990002E+03 -0.13536448640E+04  0.16699051847E+04  0.50400001928E-02 0.  1.
</event>
<event>
 5   0  0.3387881E-04  0.1954054E+04  0.7818609E-02  0.8628408E-01
       -2   -1    0    0    0  501  0.00000000000E+00  0.00000000000E+00  0.11232978378E+04  0.11232978378E+04  0.25500000920E-02 0. -1.
        2   -1    0    0  501    0  0.00000000000E+00  0.00000000000E+00 -0.84980275065E+03  0.84980275066E+03  0.25500000920E-02 0.  1.
    10030    2    1    2    0    0  0.00000000000E+00  0.00000000000E+00  0.27349508714E+03  0.19731005885E+04  0.19540538297E+04 0.  0.
        1    1    3    3  502    0  0.30919082148E+03 -0.90740695152E+03 -0.53758493233E+02  0.96014390348E+03  0.50400001928E-02 0.  1.
       -1    1    3    3    0  502 -0.30919082148E+03  0.90740695152E+03  0.32725358038E+03  0.10129566850E+04  0.50400001928E-02 0. -1.
</event>
<event>
 5   0  0.1696052E-04  0.2019073E+04  0.7818609E-02  0.8597755E-01
        1   -1    0    0  501    0  0.00000000000E+00  0.00000000000E+00  0.12845391410E+04  0.12845391410E+04  0.50400001928E-02 0. -1.
       -1   -1    0    0    0  501  0.00000000000E+00  0.00000000000E+00 -0.79340831587E+03  0.79340831588E+03  0.50400001928E-02 0.  1.
    10030    2    1    2    0    0  0.00000000000E+00  0.00000000000E+00  0.49113082510E+03  0.20779474569E+04  0.20190730908E+04 0.  0.
        4    1    3    3  502    0 -0.52151613825E+03  0.85089349021E+03  0.88931556974E+02  0.10019527179E+04  0.12699999809E+01 0.  1.
       -4    1    3    3    0  502  0.52151613825E+03 -0.85089349021E+03  0.40219926812E+03  0.10759947390E+04  0.12699999809E+01 0. -1.
</event>
<event>
 5   0  0.1664168E-04  0.1296704E+04  0.7818609E-02  0.9032183E-01
        1   -1    0    0  501    0  0.00000000000E+00  0.00000000000E+00  0.70033751642E+03  0.70033751644E+03  0.50400001928E-02 0. -1.
       -1   -1    0    0    0  501  0.00000000000E+00  0.00000000000E+00 -0.60022577831E+03  0.60022577834E+03  0.50400001928E-02 0.  1.
    10030    2    1    2    0    0  0.00000000000E+00  0.00000000000E+00  0.10011173811E+03  0.13005632948E+04  0.12967044858E+04 0.  0.
        5    1    3    3  502    0 -0.64464244021E+03 -0.60726904777E+02  0.16989469023E+02  0.64773633891E+03  0.46999998093E+01 0.  1.
       -5    1    3    3    0  502  0.64464244021E+03  0.60726904777E+02  0.83122269087E+02  0.65282695587E+03  0.46999998093E+01 0. -1.
</event>
<event>
 5   0  0.1643565E-04  0.2072607E+04  0.7818609E-02  0.8573407E-01
        1   -1    0    0  501    0  0.00000000000E+00  0.00000000000E+00  0.11547279676E+04  0.11547279676E+04  0.50400001928E-02 0.  1.
       -1   -1    0    0    0  501  0.00000000000E+00  0.00000000000E+00 -0.93002462578E+03  0.93002462579E+03  0.50400001928E-02 0. -1.
    10030    2    1    2    0    0  0.00000000000E+00  0.00000000000E+00  0.22470334180E+03  0.20847525934E+04  0.20726074843E+04 0.  0.
        2    1    3    3  502    0  0.94788552974E+03  0.39903573928E+03  0.24041207409E+03  0.10561791818E+04  0.25500000920E-02 0.  1.
       -2    1    3    3    0  502 -0.94788552974E+03 -0.39903573928E+03 -0.15708732292E+02  0.10285734116E+04  0.25500000920E-02 0. -1.
</event>
<event>
 5   0  0.1696052E-04  0.1933543E+04  0.7818609E-02  0.8638338E-01
       -1   -1    0    0    0  501  0.00000000000E+00  0.00000000000E+00  0.65613213557E+03  0.65613213559E+03  0.50400001928E-02 0.  1.
        1   -1    0    0  501    0  0.00000000000E+00  0.00000000000E+00 -0.14244804647E+04  0.14244804647E+04  0.50400001928E-02 0. -1.
    10030    2    1    2    0    0  0.00000000000E+00  0.00000000000E+00 -0.76834832913E+03  0.20806126003E+04  0.19335432857E+04 0.  0.
        4    1    3    3  502    0  0.61099533591E+03  0.51664766777E+03  0.19968811714E+03  0.82469210627E+03  0.12699999809E+01 0.  1.
       -4    1    3    3    0  502 -0.61099533591E+03 -0.51664766777E+03 -0.96803644627E+03  0.12559204940E+04  0.12699999809E+01 0. -1.
</event>
<event>
 5   0  0.1664168E-04  0.2031143E+04  0.7818609E-02  0.8592197E-01
        1   -1    0    0  501    0  0.00000000000E+00  0.00000000000E+00  0.11598661955E+04  0.11598661955E+04  0.50400001928E-02 0. -1.
       -1   -1    0    0    0  501  0.00000000000E+00  0.00000000000E+00 -0.88922802668E+03  0.88922802669E+03  0.50400001928E-02 0.  1.
    10030    2    1    2    0    0  0.00000000000E+00  0.00000000000E+00  0.27063816882E+03  0.20490942222E+04  0.20311430558E+04 0.  0.
        5    1    3    3  502    0  0.60351954986E+03 -0.15618971029E+03  0.94411044095E+03  0.11313698278E+04  0.46999998093E+01 0. -1.
       -5    1    3    3    0  502 -0.60351954986E+03  0.15618971029E+03 -0.67347227213E+03  0.91772439435E+03  0.46999998093E+01 0.  1.
</event>
<event>
 5   0  0.3371947E-04  0.2010445E+04  0.7818609E-02  0.8601753E-01
       -2   -1    0    0    0  501  0.00000000000E+00  0.00000000000E+00  0.61010689946E+03  0.61010689946E+03  0.25500000920E-02 0.  1.
        2   -1    0    0  501    0  0.00000000000E+00  0.00000000000E+00 -0.16562221694E+04  0.16562221694E+04  0.25500000920E-02 0. -1.
    10030    2    1    2    0    0  0.00000000000E+00  0.00000000000E+00 -0.10461152699E+04  0.22663290688E+04  0.20104452965E+04 0.  0.
        2    1    3    3  502    0  0.88276506848E+03 -0.61519308906E+02 -0.10606326777E+04  0.13813039016E+04  0.25500000920E-02 0. -1.
       -2    1    3    3    0  502 -0.88276506848E+03  0.61519308906E+02  0.14517407821E+02  0.88502516723E+03  0.25500000920E-02 0.  1.
</event>
<event>
 5   0  0.1650221E-04  0.1975387E+04  0.7818609E-02  0.8618215E-01
        1   -1    0    0  501    0  0.00000000000E+00  0.00000000000E+00  0.82738032958E+03  0.82738032960E+03  0.50400001928E-02 0. -1.
       -1   -1    0    0    0  501  0.00000000000E+00  0.00000000000E+00 -0.11790687838E+04  0.11790687838E+04  0.50400001928E-02 0.  1.
    10030    2    1    2    0    0  0.00000000000E+00  0.00000000000E+00 -0.35168845423E+03  0.20064491134E+04  0.19753868674E+04 0.  0.
        1    1    3    3  502    0  0.28389742823E+03  0.56858239118E+03  0.59212329126E+03  0.86861595506E+03  0.50400001928E-02 0. -1.
       -1    1    3    3    0  502 -0.28389742823E+03 -0.56858239118E+03 -0.94381174548E+03  0.11378331584E+04  0.50400001928E-02 0.  1.
</event>
<event>
 5   0  0.1650221E-04  0.1139456E+04  0.7818609E-02  0.9167566E-01
        1   -1    0    0  501    0  0.00000000000E+00  0.00000000000E+00  0.61645206560E+03  0.61645206562E+03  0.50400001928E-02 0.  1.
       -1   -1    0    0    0  501  0.00000000000E+00  0.00000000000E+00 -0.52654536561E+03  0.52654536564E+03  0.50400001928E-02 0. -1.
    10030    2    1    2    0    0  0.00000000000E+00  0.00000000000E+00  0.89906699983E+02  0.11429974313E+04  0.11394559724E+04 0.  0.
        1    1    3    3  502    0 -0.11487350930E+03  0.22651342936E+03  0.55652440097E+03  0.61173823301E+03  0.50400001928E-02 0.  1.
       -1    1    3    3    0  502  0.11487350930E+03 -0.22651342936E+03 -0.46661770099E+03  0.53125919825E+03  0.50400001928E-02 0. -1.
</event>
<event>
 5   0  0.1650221E-04  0.1146008E+04  0.7818609E-02  0.9161475E-01
        1   -1    0    0  501    0  0.00000000000E+00  0.00000000000E+00  0.97103765381E+03  0.97103765382E+03  0.50400001928E-02 0. -1.
       -1   -1    0    0    0  501  0.00000000000E+00  0.00000000000E+00 -0.33812626240E+03  0.33812626244E+03  0.50400001928E-02 0.  1.
    10030    2    1    2    0    0  0.00000000000E+00  0.00000000000E+00  0.63291139141E+03  0.13091639163E+04  0.11460075612E+04 0.  0.
        1    1    3    3  502    0  0.20123785716E+03 -0.11782816089E+03  0.91437795021E+03  0.94364568907E+03  0.50400001928E-02 0. -1.
       -1    1    3    3    0  502 -0.20123785716E+03  0.11782816089E+03 -0.28146655880E+03  0.36551822718E+03  0.50400001928E-02 0.  1.
</event>
<event>
 5   0  0.3395569E-04  0.2033590E+04  0.7818609E-02  0.8591075E-01
        2   -1    0    0  501    0  0.00000000000E+00  0.00000000000E+00  0.19276688738E+04  0.19276688738E+04  0.25500000920E-02 0. -1.
       -2   -1    0    0    0  501  0.00000000000E+00  0.00000000000E+00 -0.53633301848E+03  0.53633301848E+03  0.25500000920E-02 0.  1.
    10030    2    1    2    0    0  0.00000000000E+00  0.00000000000E+00  0.13913358553E+04  0.24640018923E+04  0.20335903872E+04 0.  0.
        4    1    3    3  502    0  0.15355305753E+03 -0.10824309616E+03  0.19064558017E+04  0.19156905925E+04  0.12699999809E+01 0. -1.
       -4    1    3    3    0  502 -0.15355305753E+03  0.10824309616E+03 -0.51511994643E+03  0.54831129977E+03  0.12699999809E+01 0.  1.
</event>
<event>
 5   0  0.1708578E-04  0.1970179E+04  0.7818609E-02  0.8620691E-01
        1   -1    0    0  501    0  0.00000000000E+00  0.00000000000E+00  0.14947753232E+04  0.14947753232E+04  0.50400001928E-02 0. -1.
       -1   -1    0    0    0  501  0.00000000000E+00  0.00000000000E+00 -0.64919526084E+03  0.64919526086E+03  0.50400001928E-02 0.  1.
    10030    2    1    2    0    0  0.00000000000E+00  0.00000000000E+00  0.84558006232E+03  0.21439705840E+04  0.19701787288E+04 0.  0.
        3    1    3    3  502    0 -0.10489300569E+03 -0.38943704420E+03 -0.55523115673E+03  0.68625461867E+03  0.10100000352E+00 0.  1.
       -3    1    3    3    0  502  0.10489300569E+03  0.38943704420E+03  0.14008112190E+04  0.14577159654E+04  0.10100000352E+00 0. -1.
</event>
<event>
 5   0  0.3395569E-04  0.1928471E+04  0.7818609E-02  0.8640813E-01
        2   -1    0    0  501    0  0.00000000000E+00  0.00000000000E+00  0.10853414924E+04  0.10853414924E+04  0.25500000920E-02 0. -1.
       -2   -1    0    0    0  501  0.00000000000E+00  0.00000000000E+00 -0.85664312813E+03  0.85664312813E+03  0.25500000920E-02 0.  1.
    10030    2    1    2    0    0  0.00000000000E+00  0.00000000000E+00  0.22869836424E+03  0.19419846205E+04  0.19284712402E+04 0.  0.
        4    1    3    3  502    0 -0.92775827340E+03 -0.25774944542E+03  0.16548421308E+03  0.97701424153E+03  0.12699999809E+01 0.  1.
       -4    1    3    3    0  502  0.92775827340E+03  0.25774944542E+03  0.63214151154E+02  0.96497037897E+03  0.12699999809E+01 0. -1.
</event>
<event>
 5   0  0.3431030E-04  0.1500667E+04  0.7818609E-02  0.8884009E-01
        2   -1    0    0  501    0  0.00000000000E+00  0.00000000000E+00  0.10757567482E+04  0.10757567482E+04  0.25500000920E-02 0.  1.
       -2   -1    0    0    0  501  0.00000000000E+00  0.00000000000E+00 -0.52335309101E+03  0.52335309102E+03  0.25500000920E-02 0. -1.
    10030    2    1    2    0    0  0.00000000000E+00  0.00000000000E+00  0.55240365723E+03  0.15991098393E+04  0.15006673441E+04 0.  0.
        3    1    3    3  502    0  0.62752139719E+03  0.33313143644E+03  0.53336459771E+03  0.88839037713E+03  0.10100000352E+00 0.  1.
       -3    1    3    3    0  502 -0.62752139719E+03 -0.33313143644E+03  0.19039059512E+02  0.71071946214E+03  0.10100000352E+00 0. -1.
</event>
<event>
 5   0  0.3387881E-04  0.1889770E+04  0.7818609E-02  0.8659965E-01
       -2   -1    0    0    0  501  0.00000000000E+00  0.00000000000E+00  0.10373732552E+04  0.10373732552E+04  0.25500000920E-02 0. -1.
        2   -1    0    0  501    0  0.00000000000E+00  0.00000000000E+00 -0.86064297484E+03  0.86064297484E+03  0.25500000920E-02 0.  1.
    10030    2    1    2    0    0  0.00000000000E+00  0.00000000000E+00  0.17673028034E+03  0.18980162300E+04  0.18897703610E+04 0.  0.
        1    1    3    3  502    0 -0.66983161862E+03 -0.37111974372E+03  0.64431793978E+03  0.10007746345E+04  0.50400001928E-02 0. -1.
       -1    1    3    3    0  502  0.66983161862E+03  0.37111974372E+03 -0.46758765944E+03  0.89724159554E+03  0.50400001928E-02 0.  1.
</event>
<event>
 5   0  0.3395569E-04  0.2015666E+04  0.7818609E-02  0.8599331E-01
        2   -1    0    0  501    0  0.00000000000E+00  0.00000000000E+00  0.10621141146E+04  0.10621141146E+04  0.25500000920E-02 0. -1.
       -2   -1    0    0    0  501  0.00000000000E+00  0.00000000000E+00 -0.95632615509E+03  0.95632615510E+03  0.25500000920E-02 0.  1.
    10030    2    1    2    0    0  0.00000000000E+00  0.00000000000E+00  0.10578795947E+03  0.20184402697E+04  0.20156661504E+04 0.  0.
        4    1    3    3  502    0  0.46281747710E+03  0.32093307586E+03 -0.78403606511E+03  0.96535600717E+03  0.12699999809E+01 0.  1.
       -4    1    3    3    0  502 -0.46281747710E+03 -0.32093307586E+03  0.88982402457E+03  0.10530842625E+04  0.12699999809E+01 0. -1.
</event>
<event>
 5   0  0.1708578E-04  0.2086018E+04  0.7818609E-02  0.8567428E-01
        1   -1    0    0  501    0  0.00000000000E+00  0.00000000000E+00  0.11851571801E+04  0.11851571801E+04  0.50400001928E-02 0.  1.
       -1   -1    0    0    0  501  0.00000000000E+00  0.00000000000E+00 -0.91791007059E+03  0.91791007060E+03  0.50400001928E-02 0. -1.
    10030    2    1    2    0    0  0.00000000000E+00  0.00000000000E+00  0.26724710951E+03  0.21030672507E+04  0.20860179394E+04 0.  0.
        3    1    3    3  502    0  0.81193494664E+03  0.63225965751E+03  0.30494497803E+03  0.10733042821E+04  0.10100000352E+00 0. -1.
       -3    1    3    3    0  502 -0.81193494664E+03 -0.63225965751E+03 -0.37697868521E+02  0.10297629686E+04  0.10100000352E+00 0.  1.
</event>
<event>
 5   0  0.3431030E-04  0.2021726E+04  0.7818609E-02  0.8596530E-01
       -2   -1    0    0    0  501  0.00000000000E+00  0.00000000000E+00  0.98336133839E+03  0.98336133840E+03  0.25500000920E-02 0.  1.
        2   -1    0    0  501    0  0.00000000000E+00  0.00000000000E+00 -0.10391342685E+04  0.10391342685E+04  0.25500000920E-02 0. -1.
    10030    2    1    2    0    0  0.00000000000E+00  0.00000000000E+00 -0.55772930095E+02  0.20224956069E+04  0.20217264553E+04 0.  0.
        3    1    3    3  502    0 -0.40345309736E+03  0.72297554755E+03  0.55231384817E+03  0.99524802999E+03  0.10100000352E+00 0.  1.
       -3    1    3    3    0  502  0.40345309736E+03 -0.72297554755E+03 -0.60808677827E+03  0.10272475769E+04  0.10100000352E+00 0. -1.
</event>
<event>
 5   0  0.1708578E-04  0.1997946E+04  0.7818609E-02  0.8607581E-01
        1   -1    0    0  501    0  0.00000000000E+00  0.00000000000E+00  0.17561096215E+04  0.17561096215E+04  0.50400001928E-02 0. -1.
       -1   -1    0    0    0  501  0.00000000000E+00  0.00000000000E+00 -0.56827163080E+03  0.56827163083E+03  0.50400001928E-02 0.  1.
    10030    2    1    2    0    0  0.00000000000E+00  0.00000000000E+00  0.11878379907E+04  0.23243812523E+04  0.19979462240E+04 0.  0.
        3    1    3    3  502    0  0.35755810167E+03  0.90930459156E+03  0.83590490365E+03  0.12858536676E+04  0.10100000352E+00 0. -1.
       -3    1    3    3    0  502 -0.35755810167E+03 -0.90930459156E+03  0.35193308703E+03  0.10385275847E+04  0.10100000352E+00 0.  1.
</event>
<event>
 5   0  0.3395569E-04  0.1867825E+04  0.7818609E-02  0.8671040E-01
       -2   -1    0    0    0  501  0.00000000000E+00  0.00000000000E+00  0.59732922480E+03  0.59732922481E+03  0.25500000920E-02 0. -1.
        2   -1    0    0  501    0  0.00000000000E+00  0.00000000000E+00 -0.14601538592E+04  0.14601538592E+04  0.25500000920E-02 0.  1.
    10030    2    1    2    0    0  0.00000000000E+00  0.00000000000E+00 -0.86282463442E+03  0.20574830840E+04  0.18678250163E+04 0.  0.
        4    1    3    3  502    0  0.36548331409E+03  0.47699525990E+03 -0.12189078701E+04  0.13589851138E+04  0.12699999809E+01 0.  1.
       -4    1    3    3    0  502 -0.36548331409E+03 -0.47699525990E+03  0.35608323565E+03  0.69849797026E+03  0.12699999809E+01 0. -1.
</event>
<event>
 5   0  0.3371947E-04  0.1920319E+04  0.7818609E-02  0.8644808E-01
        2   -1    0    0  501    0  0.00000000000E+00  0.00000000000E+00  0.14862071322E+04  0.14862071322E+04  0.25500000920E-02 0.  1.
       -2   -1    0    0    0  501  0.00000000000E+00  0.00000000000E+00 -0.62030819534E+03  0.62030819535E+03  0.25500000920E-02 0. -1.
    10030    2    1    2    0    0  0.00000000000E+00  0.00000000000E+00  0.86589893687E+03  0.21065153276E+04  0.19203192069E+04 0.  0.
        2    1    3    3  502    0  0.19650760785E+03 -0.18857469617E+03  0.14429466946E+04  0.14684246046E+04  0.25500000920E-02 0.  1.
       -2    1    3    3    0  502 -0.19650760785E+03  0.18857469617E+03 -0.57704775774E+03  0.63809072294E+03  0.25500000920E-02 0. -1.
</event>
<event>
 5   0  0.3387881E-04  0.2119672E+04  0.7818609E-02  0.8552627E-01
       -2   -1    0    0    0  501  0.00000000000E+00  0.00000000000E+00  0.11931024542E+04  0.11931024542E+04  0.25500000920E-02 0.  1.
        2   -1    0    0  501    0  0.00000000000E+00  0.00000000000E+00 -0.94145486283E+03  0.94145486283E+03  0.25500000920E-02 0. -1.
    10030    2    1    2    0    0  0.00000000000E+00  0.00000000000E+00  0.25164759133E+03  0.21345573170E+04  0.21196717740E+04 0.  0.
        1    1    3    3  502    0  0.56791687675E+03  0.33848398897E+03 -0.70833568816E+03  0.96893778790E+03  0.50400001928E-02 0. -1.
       -1    1    3    3    0  502 -0.56791687675E+03 -0.33848398897E+03  0.95998327949E+03  0.11656195291E+04  0.50400001928E-02 0.  1.
</event>
<event>
 5   0  0.3431030E-04  0.1198457E+04  0.7818609E-02  0.9114208E-01
       -2   -1    0    0    0  501  0.00000000000E+00  0.00000000000E+00  0.42349654917E+03  0.42349654918E+03  0.25500000920E-02 0. -1.
        2   -1    0    0  501    0  0.00000000000E+00  0.00000000000E+00 -0.84788194089E+03  0.84788194090E+03  0.25500000920E-02 0.  1.
    10030    2    1    2    0    0  0.00000000000E+00  0.00000000000E+00 -0.42438539172E+03  0.12713784901E+04  0.11984574687E+04 0.  0.
        3    1    3    3  502    0 -0.17570252151E+03  0.89881034070E+01  0.39548109626E+03  0.43284809087E+03  0.10100000352E+00 0. -1.
       -3    1    3    3    0  502  0.17570252151E+03 -0.89881034070E+01 -0.81986648799E+03  0.83853039920E+03  0.10100000352E+00 0.  1.
</event>
<event>
 5   0  0.3371947E-04  0.2004553E+04  0.7818609E-02  0.8604495E-01
        2   -1    0    0  501    0  0.00000000000E+00  0.00000000000E+00  0.88891004851E+03  0.88891004851E+03  0.25500000920E-02 0. -1.
       -2   -1    0    0    0  501  0.00000000000E+00  0.00000000000E+00 -0.11301013780E+04  0.11301013780E+04  0.25500000920E-02 0.  1.
    10030    2    1    2    0    0  0.00000000000E+00  0.00000000000E+00 -0.24119132946E+03  0.20190114265E+04  0.20045532876E+04 0.  0.
        2    1    3    3  502    0 -0.29425342475E+03 -0.56838850554E+03  0.65627019980E+03  0.91670123070E+03  0.25500000920E-02 0. -1.
       -2    1    3    3    0  502  0.29425342475E+03  0.56838850554E+03 -0.89746152926E+03  0.11023101958E+04  0.25500000920E-02 0.  1.
</event>
<event>
 5   0  0.1643565E-04  0.1980385E+04  0.7818609E-02  0.8615847E-01
        1   -1    0    0  501    0  0.00000000000E+00  0.00000000000E+00  0.11406052979E+04  0.11406052980E+04  0.50400001928E-02 0. -1.
       -1   -1    0    0    0  501  0.00000000000E+00  0.00000000000E+00 -0.85961477457E+03  0.85961477458E+03  0.50400001928E-02 0.  1.
    10030    2    1    2    0    0  0.00000000000E+00  0.00000000000E+00  0.28099052338E+03  0.20002200725E+04  0.19803849788E+04 0.  0.
        2    1    3    3  502    0  0.37778934725E+03  0.88578978142E+03 -0.92319045586E+02  0.96740432806E+03  0.25500000920E-02 0.  1.
       -2    1    3    3    0  502 -0.37778934725E+03 -0.88578978142E+03  0.37330956896E+03  0.10328157445E+04  0.25500000920E-02 0. -1.
</event>
<event>
 5   0  0.1643565E-04  0.2010475E+04  0.7818609E-02  0.8601739E-01
        1   -1    0    0  501    0  0.00000000000E+00  0.00000000000E+00  0.10727929151E+04  0.10727929151E+04  0.50400001928E-02 0.  1.
       -1   -1    0    0    0  501  0.00000000000E+00  0.00000000000E+00 -0.94193588994E+03  0.94193588995E+03  0.50400001928E-02 0. -1.
    10030    2    1    2    0    0  0.00000000000E+00  0.00000000000E+00  0.13085702520E+03  0.20147288051E+04  0.20104747193E+04 0.  0.
        2    1    3    3  502    0  0.96303158244E+03  0.22477462736E+03  0.24622280620E+03  0.10191070269E+04  0.25500000920E-02 0.  1.
       -2    1    3    3    0  502 -0.96303158244E+03 -0.22477462736E+03 -0.11536578101E+03  0.99562177825E+03  0.25500000920E-02 0. -1.
</event>
<event>
 5   0  0.1696052E-04  0.2008391E+04  0.7818609E-02  0.8602708E-01
        1   -1    0    0  501    0  0.00000000000E+00  0.00000000000E+00  0.15586260029E+04  0.15586260029E+04  0.50400001928E-02 0. -1.
       -1   -1    0    0    0  501  0.00000000000E+00  0.00000000000E+00 -0.64698534465E+03  0.64698534467E+03  0.50400001928E-02 0.  1.
    10030    2    1    2    0    0  0.00000000000E+00  0.00000000000E+00  0.91164065823E+03  0.22056113476E+04  0.20083905812E+04 0.  0.
        4    1    3    3  502    0  0.48265395803E+03  0.65588326228E+03  0.11011171483E+04  0.13695248388E+04  0.12699999809E+01 0. -1.
       -4    1    3    3    0  502 -0.48265395803E+03 -0.65588326228E+03 -0.18947649007E+03  0.83608650875E+03  0.12699999809E+01 0.  1.
</event>
<event>
 5   0  0.1664168E-04  0.1931409E+04  0.7818609E-02  0.8639378E-01
        1   -1    0    0  501    0  0.00000000000E+00  0.00000000000E+00  0.80889684883E+03  0.80889684885E+03  0.50400001928E-02 0.  1.
       -1   -1    0    0    0  501  0.00000000000E+00  0.00000000000E+00 -0.11529099099E+04  0.11529099099E+04  0.50400001928E-02 0. -1.
    10030    2    1    2    0    0  0.00000000000E+00  0.00000000000E+00 -0.34401306110E+03  0.19618067588E+04  0.19314090123E+04 0.  0.
        5    1    3    3  502    0  0.13187004029E+02 -0.63413805371E+03 -0.91165547675E+03  0.11106046851E+04  0.46999998093E+01 0. -1.
       -5    1    3    3    0  502 -0.13187004029E+02  0.63413805371E+03  0.56764241565E+03  0.85120207371E+03  0.46999998093E+01 0.  1.
</event>
<event>
 5   0  0.1664168E-04  0.1046193E+04  0.7818609E-02  0.9259283E-01
       -1   -1    0    0    0  501  0.00000000000E+00  0.00000000000E+00  0.21016365737E+03  0.21016365743E+03  0.50400001928E-02 0. -1.
        1   -1    0    0  501    0  0.00000000000E+00  0.00000000000E+00 -0.13019847897E+04  0.13019847897E+04  0.50400001928E-02 0.  1.
    10030    2    1    2    0    0  0.00000000000E+00  0.00000000000E+00 -0.10918211323E+04  0.15121484472E+04  0.10461928795E+04 0.  0.
        5    1    3    3  502    0  0.33120901701E+03 -0.68143049927E+02  0.30912626848E+02  0.33958882299E+03  0.46999998093E+01 0. -1.
       -5    1    3    3    0  502 -0.33120901701E+03  0.68143049927E+02 -0.11227337592E+04  0.11725596242E+04  0.46999998093E+01 0.  1.
</event>
<event>
 5   0  0.3431030E-04  0.1971573E+04  0.7818609E-02  0.8620028E-01
       -2   -1    0    0    0  501  0.00000000000E+00  0.00000000000E+00  0.11380497474E+04  0.11380497474E+04  0.25500000920E-02 0.  1.
        2   -1    0    0  501    0  0.00000000000E+00  0.00000000000E+00 -0.85389524436E+03  0.85389524437E+03  0.25500000920E-02 0. -1.
    10030    2    1    2    0    0  0.00000000000E+00  0.00000000000E+00  0.28415450305E+03  0.19919449918E+04  0.19715732471E+04 0.  0.
        3    1    3    3  502    0  0.23175356389E+03  0.13900693476E+03  0.10998932613E+04  0.11326066567E+04  0.10100000352E+00 0.  1.
       -3    1    3    3    0  502 -0.23175356389E+03 -0.13900693476E+03 -0.81573875825E+03  0.85933833511E+03  0.10100000352E+00 0. -1.
</event>
<event>
 5   0  0.3431030E-04  0.2055488E+04  0.7818609E-02  0.8581109E-01
        2   -1    0    0  501    0  0.00000000000E+00  0.00000000000E+00  0.71635049551E+03  0.71635049552E+03  0.25500000920E-02 0.  1.
       -2   -1    0    0    0  501  0.00000000000E+00  0.00000000000E+00 -0.14744991662E+04  0.14744991662E+04  0.25500000920E-02 0. -1.
    10030    2    1    2    0    0  0.00000000000E+00  0.00000000000E+00 -0.75814867070E+03  0.21908496617E+04  0.20554884659E+04 0.  0.
        3    1    3    3  502    0 -0.27077962561E+03 -0.29401845346E+03 -0.13882579600E+04  0.14446551943E+04  0.10100000352E+00 0. -1.
       -3    1    3    3    0  502  0.27077962561E+03  0.29401845346E+03  0.63010928930E+03  0.74619446746E+03  0.10100000352E+00 0.  1.
</event>
<event>
 5   0  0.1222488E-04  0.2001867E+04  0.7818609E-02  0.8605748E-01
        3   -1    0    0  501    0  0.00000000000E+00  0.00000000000E+00  0.51258201178E+03  0.51258202173E+03  0.10100000352E+00 0.  1.
       -3   -1    0    0    0  501  0.00000000000E+00  0.00000000000E+00 -0.19545523092E+04  0.19545523119E+04  0.10100000352E+00 0. -1.
    10030    2    1    2    0    0  0.00000000000E+00  0.00000000000E+00 -0.14419702975E+04  0.24671343336E+04  0.20018674984E+04 0.  0.
        2    1    3    3  502    0 -0.46872256670E+03  0.76690954549E+03 -0.12638324319E+04  0.15508460631E+04  0.25500000920E-02 0. -1.
       -2    1    3    3    0  502  0.46872256670E+03 -0.76690954549E+03 -0.17813786560E+03  0.91628827051E+03  0.25500000920E-02 0.  1.
</event>
<event>
 5   0  0.3387881E-04  0.1988583E+04  0.7818609E-02  0.8611977E-01
        2   -1    0    0  501    0  0.00000000000E+00  0.00000000000E+00  0.12641249808E+04  0.12641249808E+04  0.25500000920E-02 0. -1.
       -2   -1    0    0    0  501  0.00000000000E+00  0.00000000000E+00 -0.78205512135E+03  0.78205512135E+03  0.25500000920E-02 0.  1.
    10030    2    1    2    0    0  0.00000000000E+00  0.00000000000E+00  0.48206985948E+03  0.20461801022E+04  0.19885828273E+04 0.  0.
        1    1    3    3  502    0 -0.59516814574E+03  0.73572564671E+03 -0.72922310419E+02  0.94912328615E+03  0.50400001928E-02 0.  1.
       -1    1    3    3    0  502  0.59516814574E+03 -0.73572564671E+03  0.55499216990E+03  0.10970568160E+04  0.50400001928E-02 0. -1.
</event>
<event>
 5   0  0.1643565E-04  0.1951389E+04  0.7818609E-02  0.8629691E-01
       -1   -1    0    0    0  501  0.00000000000E+00  0.00000000000E+00  0.11288843935E+04  0.11288843936E+04  0.50400001928E-02 0. -1.
        1   -1    0    0  501    0  0.00000000000E+00  0.00000000000E+00 -0.84329250265E+03  0.84329250267E+03  0.50400001928E-02 0.  1.
    10030    2    1    2    0    0  0.00000000000E+00  0.00000000000E+00  0.28559189089E+03  0.19721768962E+04  0.19513889878E+04 0.  0.
        2    1    3    3  502    0  0.13221518284E+03  0.96414507899E+03  0.71883268026E+02  0.97581954897E+03  0.25500000920E-02 0.  1.
       -2    1    3    3    0  502 -0.13221518284E+03 -0.96414507899E+03  0.21370862286E+03  0.99635734725E+03  0.25500000920E-02 0. -1.
</event>
<event>
 5   0  0.3431030E-04  0.1824941E+04  0.7818609E-02  0.8693148E-01
        2   -1    0    0  501    0  0.00000000000E+00  0.00000000000E+00  0.65014220837E+03  0.65014220837E+03  0.25500000920E-02 0.  1.
       -2   -1    0    0    0  501  0.00000000000E+00  0.00000000000E+00 -0.12806461928E+04  0.12806461928E+04  0.25500000920E-02 0. -1.
    10030    2    1    2    0    0  0.00000000000E+00  0.00000000000E+00 -0.63050398443E+03  0.19307884012E+04  0.18249407047E+04 0.  0.
        3    1    3    3  502    0 -0.76003181460E+03 -0.14144553117E+03  0.19757492955E+03  0.79792923275E+03  0.10100000352E+00 0.  1.
       -3    1    3    3    0  502  0.76003181460E+03  0.14144553117E+03 -0.82807891398E+03  0.11328591684E+04  0.10100000352E+00 0. -1.
</event>
<event>
 5   0  0.3395569E-04  0.2021388E+04  0.7818609E-02  0.8596686E-01
       -2   -1    0    0    0  501  0.00000000000E+00  0.00000000000E+00  0.46012631745E+03  0.46012631746E+03  0.25500000920E-02 0. -1.
        2   -1    0    0  501    0  0.00000000000E+00  0.00000000000E+00 -0.22200483833E+04  0.22200483833E+04  0.25500000920E-02 0.  1.
    10030    2    1    2    0    0  0.00000000000E+00  0.00000000000E+00 -0.17599220659E+04  0.26801747008E+04  0.20213883221E+04 0.  0.
        4    1    3    3  502    0 -0.28122333018E+03  0.27948118063E+03 -0.21126309835E+04  0.21495133349E+04  0.12699999809E+01 0.  1.
       -4    1    3    3    0  502  0.28122333018E+03 -0.27948118063E+03  0.35270891760E+03  0.53066136586E+03  0.12699999809E+01 0. -1.
</event>
<event>
 5   0  0.3460648E-04  0.1755152E+04  0.7818609E-02  0.8730520E-01
        2   -1    0    0  501    0  0.00000000000E+00  0.00000000000E+00  0.61059259797E+03  0.61059259798E+03  0.25500000920E-02 0. -1.
       -2   -1    0    0    0  501  0.00000000000E+00  0.00000000000E+00 -0.12612982867E+04  0.12612982867E+04  0.25500000920E-02 0.  1.
    10030    2    1    2    0    0  0.00000000000E+00  0.00000000000E+00 -0.65070568873E+03  0.18718908847E+04  0.17551517287E+04 0.  0.
        5    1    3    3  502    0  0.44158216943E+03  0.64573766850E+03  0.98772366711E+02  0.78851126771E+03  0.46999998093E+01 0. -1.
       -5    1    3    3    0  502 -0.44158216943E+03 -0.64573766850E+03 -0.74947805544E+03  0.10833796170E+04  0.46999998093E+01 0.  1.
</event>
<event>
 5   0  0.1650221E-04  0.1265898E+04  0.7818609E-02  0.9057054E-01
       -1   -1    0    0    0  501  0.00000000000E+00  0.00000000000E+00  0.18704526558E+03  0.18704526565E+03  0.50400001928E-02 0. -1.
        1   -1    0    0  501    0  0.00000000000E+00  0.00000000000E+00 -0.21418598171E+04  0.21418598171E+04  0.50400001928E-02 0.  1.
    10030    2    1    2    0    0  0.00000000000E+00  0.00000000000E+00 -0.19548145515E+04  0.23289050828E+04  0.12658984768E+04 0.  0.
        1    1    3    3  502    0  0.47007300409E+01 -0.41653454474E+03 -0.18541315321E+04  0.19003491421E+04  0.50400001928E-02 0.  1.
       -1    1    3    3    0  502 -0.47007300409E+01  0.41653454474E+03 -0.10068301950E+03  0.42855594065E+03  0.50400001928E-02 0. -1.
</event>
<event>
 5   0  0.1708578E-04  0.2002168E+04  0.7818609E-02  0.8605608E-01
       -1   -1    0    0    0  501  0.00000000000E+00  0.00000000000E+00  0.10681379926E+04  0.10681379926E+04  0.50400001928E-02 0. -1.
        1   -1    0    0  501    0  0.00000000000E+00  0.00000000000E+00 -0.93823924031E+03  0.93823924033E+03  0.50400001928E-02 0.  1.
    10030    2    1    2    0    0  0.00000000000E+00  0.00000000000E+00  0.12989875228E+03  0.20063772329E+04  0.20021678039E+04 0.  0.
        3    1    3    3  502    0  0.27262460619E+03 -0.53476485219E+03  0.86780251911E+03  0.10551676859E+04  0.10100000352E+00 0. -1.
       -3    1    3    3    0  502 -0.27262460619E+03  0.53476485219E+03 -0.73790376683E+03  0.95120954701E+03  0.10100000352E+00 0.  1.
</event>
<event>
 5   0  0.1696052E-04  0.1965659E+04  0.7818609E-02  0.8622847E-01
        1   -1    0    0  501    0  0.00000000000E+00  0.00000000000E+00  0.13698267884E+04  0.13698267884E+04  0.50400001928E-02 0.  1.
       -1   -1    0    0    0  501  0.00000000000E+00  0.00000000000E+00 -0.70516502679E+03  0.70516502681E+03  0.50400001928E-02 0. -1.
    10030    2    1    2    0    0  0.00000000000E+00  0.00000000000E+00  0.66466176159E+03  0.20749918152E+04  0.19656591199E+04 0.  0.
        4    1    3    3  502    0  0.40922895761E+03  0.74691025799E+03 -0.18547164976E+03  0.87163330535E+03  0.12699999809E+01 0. -1.
       -4    1    3    3    0  502 -0.40922895761E+03 -0.74691025799E+03  0.85013341135E+03  0.12033585099E+04  0.12699999809E+01 0.  1.
</event>
<event>
 5   0  0.1664168E-04  0.1998697E+04  0.7818609E-02  0.8607230E-01
       -1   -1    0    0    0  501  0.00000000000E+00  0.00000000000E+00  0.73579210219E+03  0.73579210221E+03  0.50400001928E-02 0.  1.
        1   -1    0    0  501    0  0.00000000000E+00  0.00000000000E+00 -0.13573086093E+04  0.13573086093E+04  0.50400001928E-02 0. -1.
    10030    2    1    2    0    0  0.00000000000E+00  0.00000000000E+00 -0.62151650711E+03  0.20931007115E+04  0.19986965302E+04 0.  0.
        5    1    3    3  502    0  0.70036236896E+03  0.45271344515E+03 -0.88741944254E+03  0.12177816998E+04  0.46999998093E+01 0. -1.
       -5    1    3    3    0  502 -0.70036236896E+03 -0.45271344515E+03  0.26590293543E+03  0.87531901176E+03  0.46999998093E+01 0.  1.
</event>
<event>
 5   0  0.3431030E-04  0.1987124E+04  0.7818609E-02  0.8612665E-01
        2   -1    0    0  501    0  0.00000000000E+00  0.00000000000E+00  0.90559542735E+03  0.90559542735E+03  0.25500000920E-02 0. -1.
       -2   -1    0    0    0  501  0.00000000000E+00  0.00000000000E+00 -0.10900729805E+04  0.10900729805E+04  0.25500000920E-02 0.  1.
    10030    2    1    2    0    0  0.00000000000E+00  0.00000000000E+00 -0.18447755319E+03  0.19956684079E+04  0.19871236566E+04 0.  0.
        3    1    3    3  502    0 -0.79657681291E+03  0.23923986373E+03 -0.63807818313E+03  0.10482910422E+04  0.10100000352E+00 0.  1.
       -3    1    3    3    0  502  0.79657681291E+03 -0.23923986373E+03  0.45360062994E+03  0.94737736565E+03  0.10100000352E+00 0. -1.
</event>
<event>
 5   0  0.1643565E-04  0.1689889E+04  0.7818609E-02  0.8767152E-01
       -1   -1    0    0    0  501  0.00000000000E+00  0.00000000000E+00  0.83346273035E+03  0.83346273036E+03  0.50400001928E-02 0. -1.
        1   -1    0    0  501    0  0.00000000000E+00  0.00000000000E+00 -0.85658455090E+03  0.85658455092E+03  0.50400001928E-02 0.  1.
    10030    2    1    2    0    0  0.00000000000E+00  0.00000000000E+00 -0.23121820556E+02  0.16900472813E+04  0.16898891071E+04 0.  0.
        2    1    3    3  502    0  0.76481593846E+03  0.31420547952E+03 -0.18553924506E+03  0.84740386744E+03  0.25500000920E-02 0. -1.
       -2    1    3    3    0  502 -0.76481593846E+03 -0.31420547952E+03  0.16241742451E+03  0.84264341384E+03  0.25500000920E-02 0.  1.
</event>
<event>
 5   0  0.1696052E-04  0.2004533E+04  0.7818609E-02  0.8604504E-01
        1   -1    0    0  501    0  0.00000000000E+00  0.00000000000E+00  0.14309850062E+04  0.14309850062E+04  0.50400001928E-02 0. -1.
       -1   -1    0    0    0  501  0.00000000000E+00  0.00000000000E+00 -0.70199046182E+03  0.70199046183E+03  0.50400001928E-02 0.  1.
    10030    2    1    2    0    0  0.00000000000E+00  0.00000000000E+00  0.72899454441E+03  0.21329754681E+04  0.20045326891E+04 0.  0.
        4    1    3    3  502    0 -0.84477033741E+03  0.39353719260E+03 -0.27954688288E+02  0.93235804411E+03  0.12699999809E+01 0.  1.
       -4    1    3    3    0  502  0.84477033741E+03 -0.39353719260E+03  0.75694923270E+03  0.12006174240E+04  0.12699999809E+01 0. -1.
</event>
<event>
 5   0  0.1708578E-04  0.2006365E+04  0.7818609E-02  0.8603651E-01
        1   -1    0    0  501    0  0.00000000000E+00  0.00000000000E+00  0.14844218732E+04  0.14844218732E+04  0.50400001928E-02 0.  1.
       -1   -1    0    0    0  501  0.00000000000E+00  0.00000000000E+00 -0.67795730424E+03  0.67795730426E+03  0.50400001928E-02 0. -1.
    10030    2    1    2    0    0  0.00000000000E+00  0.00000000000E+00  0.80646456893E+03  0.21623791774E+04  0.20063645247E+04 0.  0.
        3    1    3    3  502    0 -0.70870355228E+02  0.53790885318E+03 -0.50618638901E+03  0.74201968451E+03  0.10100000352E+00 0. -1.
       -3    1    3    3    0  502  0.70870355228E+02 -0.53790885318E+03  0.13126509579E+04  0.14203594929E+04  0.10100000352E+00 0.  1.
</event>
<event>
 5   0  0.1696052E-04  0.1650538E+04  0.7818609E-02  0.8790088E-01
       -1   -1    0    0    0  501  0.00000000000E+00  0.00000000000E+00  0.10664164545E+04  0.10664164545E+04  0.50400001928E-02 0. -1.
        1   -1    0    0  501    0  0.00000000000E+00  0.00000000000E+00 -0.63865194234E+03  0.63865194236E+03  0.50400001928E-02 0.  1.
    10030    2    1    2    0    0  0.00000000000E+00  0.00000000000E+00  0.42776451212E+03  0.17050683968E+04  0.16505380214E+04 0.  0.
        4    1    3    3  502    0  0.72616743461E+03 -0.26960740844E+03  0.50799893274E+03  0.92632166462E+03  0.12699999809E+01 0. -1.
       -4    1    3    3    0  502 -0.72616743461E+03  0.26960740844E+03 -0.80234420621E+02  0.77874673221E+03  0.12699999809E+01 0.  1.
</event>
<event>
 5   0  0.3371947E-04  0.1991791E+04  0.7818609E-02  0.8610468E-01
        2   -1    0    0  501    0  0.00000000000E+00  0.00000000000E+00  0.15009801008E+04  0.15009801008E+04  0.25500000920E-02 0.  1.
       -2   -1    0    0    0  501  0.00000000000E+00  0.00000000000E+00 -0.66077378960E+03  0.66077378960E+03  0.25500000920E-02 0. -1.
    10030    2    1    2    0    0  0.00000000000E+00  0.00000000000E+00  0.84020631119E+03  0.21617538904E+04  0.19917914643E+04 0.  0.
        2    1    3    3  502    0 -0.25488823368E+03 -0.42226075516E+03  0.13591100318E+04  0.14458396300E+04  0.25500000920E-02 0.  1.
       -2    1    3    3    0  502  0.25488823368E+03  0.42226075516E+03 -0.51890372061E+03  0.71591426043E+03  0.25500000920E-02 0. -1.
</event>
<event>
 5   0  0.3460648E-04  0.1975981E+04  0.7818609E-02  0.8617933E-01
        2   -1    0    0  501    0  0.00000000000E+00  0.00000000000E+00  0.13045894630E+04  0.13045894630E+04  0.25500000920E-02 0. -1.
       -2   -1    0    0    0  501  0.00000000000E+00  0.00000000000E+00 -0.74822397443E+03  0.74822397443E+03  0.25500000920E-02 0.  1.
    10030    2    1    2    0    0  0.00000000000E+00  0.00000000000E+00  0.55636548860E+03  0.20528134375E+04  0.19759808835E+04 0.  0.
        5    1    3    3  502    0  0.39258920402E+03  0.24598103792E+03  0.11847356657E+04  0.12721059868E+04  0.46999998093E+01 0. -1.
       -5    1    3    3    0  502 -0.39258920402E+03 -0.24598103792E+03 -0.62837017706E+03  0.78070745068E+03  0.46999998093E+01 0.  1.
</event>
<event>
 5   0  0.3431030E-04  0.2009177E+04  0.7818609E-02  0.8602342E-01
       -2   -1    0    0    0  501  0.00000000000E+00  0.00000000000E+00  0.52243587471E+03  0.52243587472E+03  0.25500000920E-02 0.  1.
        2   -1    0    0  501    0  0.00000000000E+00  0.00000000000E+00 -0.19317170646E+04  0.19317170646E+04  0.25500000920E-02 0. -1.
    10030    2    1    2    0    0  0.00000000000E+00  0.00000000000E+00 -0.14092811899E+04  0.24541529393E+04  0.20091772389E+04 0.  0.
        3    1    3    3  502    0 -0.54508616247E+03  0.44729480278E+03 -0.15786602604E+04  0.17289765160E+04  0.10100000352E+00 0. -1.
       -3    1    3    3    0  502  0.54508616247E+03 -0.44729480278E+03  0.16937907052E+03  0.72517642325E+03  0.10100000352E+00 0.  1.
</event>
<event>
 5   0  0.3460648E-04  0.2036343E+04  0.7818609E-02  0.8589815E-01
       -2   -1    0    0    0  501  0.00000000000E+00  0.00000000000E+00  0.86329156577E+03  0.86329156577E+03  0.25500000920E-02 0.  1.
        2   -1    0    0  501    0  0.00000000000E+00  0.00000000000E+00 -0.12008377956E+04  0.12008377956E+04  0.25500000920E-02 0. -1.
    10030    2    1    2    0    0  0.00000000000E+00  0.00000000000E+00 -0.33754622985E+03  0.20641293614E+04  0.20363429385E+04 0.  0.
        5    1    3    3  502    0  0.25655489408E+02 -0.97633771098E+03  0.12282836821E+03  0.98437920948E+03  0.46999998093E+01 0. -1.
       -5    1    3    3    0  502 -0.25655489408E+02  0.97633771098E+03 -0.46037459806E+03  0.10797501519E+04  0.46999998093E+01 0.  1.
</event>
<event>
 5   0  0.1696052E-04  0.2000410E+04  0.7818609E-02  0.8606429E-01
       -1   -1    0    0    0  501  0.00000000000E+00  0.00000000000E+00  0.12643541168E+04  0.12643541168E+04  0.50400001928E-02 0.  1.
        1   -1    0    0  501    0  0.00000000000E+00  0.00000000000E+00 -0.79124181277E+03  0.79124181278E+03  0.50400001928E-02 0. -1.
    10030    2    1    2    0    0  0.00000000000E+00  0.00000000000E+00  0.47311230400E+03  0.20555959296E+04  0.20004098014E+04 0.  0.
        4    1    3    3  502    0 -0.30442339807E+02 -0.54191291451E+03 -0.62674686679E+03  0.82910167706E+03  0.12699999809E+01 0. -1.
       -4    1    3    3    0  502  0.30442339807E+02  0.54191291451E+03  0.10998591708E+04  0.12264942525E+04  0.12699999809E+01 0.  1.
</event>
<event>
 5   0  0.1664168E-04  0.1966603E+04  0.7818609E-02  0.8622396E-01
        1   -1    0    0  501    0  0.00000000000E+00  0.00000000000E+00  0.12150482079E+04  0.12150482079E+04  0.50400001928E-02 0. -1.
       -1   -1    0    0    0  501  0.00000000000E+00  0.00000000000E+00 -0.79575617520E+03  0.79575617522E+03  0.50400001928E-02 0.  1.
    10030    2    1    2    0    0  0.00000000000E+00  0.00000000000E+00  0.41929203270E+03  0.20108043831E+04  0.19666032794E+04 0.  0.
        5    1    3    3  502    0 -0.37122345017E+03 -0.76230877328E+03 -0.29947972641E+03  0.89923951887E+03  0.46999998093E+01 0.  1.
       -5    1    3    3    0  502  0.37122345017E+03  0.76230877328E+03  0.71877175911E+03  0.11115648643E+04  0.46999998093E+01 0. -1.
</event>
<event>
 5   0  0.1708578E-04  0.2116073E+04  0.7818609E-02  0.8554196E-01
       -1   -1    0    0    0  501  0.00000000000E+00  0.00000000000E+00  0.10403648670E+04  0.10403648671E+04  0.50400001928E-02 0. -1.
        1   -1    0    0  501    0  0.00000000000E+00  0.00000000000E+00 -0.10760082226E+04  0.10760082226E+04  0.50400001928E-02 0.  1.
    10030    2    1    2    0    0  0.00000000000E+00  0.00000000000E+00 -0.35643355524E+02  0.21163730896E+04  0.21160729207E+04 0.  0.
        3    1    3    3  502    0 -0.10104100629E+04 -0.18399356198E+03  0.23649576265E+03  0.10539034026E+04  0.10100000352E+00 0. -1.
       -3    1    3    3    0  502  0.10104100629E+04  0.18399356198E+03 -0.27213911818E+03  0.10624696870E+04  0.10100000352E+00 0.  1.
</event>
<event>
 5   0  0.1664168E-04  0.1718013E+04  0.7818609E-02  0.8751157E-01
        1   -1    0    0  501    0  0.00000000000E+00  0.00000000000E+00  0.10785798401E+04  0.10785798401E+04  0.50400001928E-02 0. -1.
       -1   -1    0    0    0  501  0.00000000000E+00  0.00000000000E+00 -0.68413327963E+03  0.68413327965E+03  0.50400001928E-02 0.  1.
    10030    2    1    2    0    0  0.00000000000E+00  0.00000000000E+00  0.39444656049E+03  0.17627131198E+04  0.17180132286E+04 0.  0.
        5    1    3    3  502    0  0.35046304890E+03  0.78298009335E+03  0.15147507662E+03  0.87111937418E+03  0.46999998093E+01 0.  1.
       -5    1    3    3    0  502 -0.35046304890E+03 -0.78298009335E+03  0.24297148387E+03  0.89159374561E+03  0.46999998093E+01 0. -1.
</event>
<event>
 5   0  0.3371947E-04  0.1943952E+04  0.7818609E-02  0.8633283E-01
       -2   -1    0    0    0  501  0.00000000000E+00  0.00000000000E+00  0.75292996847E+03  0.75292996847E+03  0.25500000920E-02 0.  1.
        2   -1    0    0  501    0  0.00000000000E+00  0.00000000000E+00 -0.12547475364E+04  0.12547475364E+04  0.25500000920E-02 0. -1.
    10030    2    1    2    0    0  0.00000000000E+00  0.00000000000E+00 -0.50181756795E+03  0.20076775049E+04  0.19439516692E+04 0.  0.
        2    1    3    3  502    0  0.97152107601E+03 -0.15667134669E+00 -0.28161206850E+03  0.10115130166E+04  0.25500000920E-02 0.  1.
       -2    1    3    3    0  502 -0.97152107601E+03  0.15667134669E+00 -0.22020549946E+03  0.99616448826E+03  0.25500000920E-02 0. -1.
</event>
<event>
 5   0  0.3431030E-04  0.1955861E+04  0.7818609E-02  0.8627540E-01
        2   -1    0    0  501    0  0.00000000000E+00  0.00000000000E+00  0.81769409667E+03  0.81769409668E+03  0.25500000920E-02 0.  1.
       -2   -1    0    0    0  501  0.00000000000E+00  0.00000000000E+00 -0.11695668017E+04  0.11695668017E+04  0.25500000920E-02 0. -1.
    10030    2    1    2    0    0  0.00000000000E+00  0.00000000000E+00 -0.35187270503E+03  0.19872608984E+04  0.19558608022E+04 0.  0.
        3    1    3    3  502    0  0.34927139290E+03  0.75959340150E+03  0.33952998371E+03  0.90235982930E+03  0.10100000352E+00 0. -1.
       -3    1    3    3    0  502 -0.34927139290E+03 -0.75959340150E+03 -0.69140268874E+03  0.10849010691E+04  0.10100000352E+00 0.  1.
</event>
<event>
 5   0  0.3431030E-04  0.2023389E+04  0.7818609E-02  0.8595763E-01
       -2   -1    0    0    0  501  0.00000000000E+00  0.00000000000E+00  0.61737282410E+03  0.61737282411E+03  0.25500000920E-02 0.  1.
        2   -1    0    0  501    0  0.00000000000E+00  0.00000000000E+00 -0.16578727600E+04  0.16578727600E+04  0.25500000920E-02 0. -1.
    10030    2    1    2    0    0  0.00000000000E+00  0.00000000000E+00 -0.10404999359E+04  0.22752455841E+04  0.20233888285E+04 0.  0.
        3    1    3    3  502    0 -0.10265552888E+02  0.39448001345E+03  0.52726487441E+03  0.65858038277E+03  0.10100000352E+00 0.  1.
       -3    1    3    3    0  502  0.10265552888E+02 -0.39448001345E+03 -0.15677648103E+04  0.16166652014E+04  0.10100000352E+00 0. -1.
</event>
<event>
 5   0  0.1643565E-04  0.1842832E+04  0.7818609E-02  0.8683848E-01
       -1   -1    0    0    0  501  0.00000000000E+00  0.00000000000E+00  0.13478461573E+04  0.13478461573E+04  0.50400001928E-02 0.  1.
        1   -1    0    0  501    0  0.00000000000E+00  0.00000000000E+00 -0.62989918104E+03  0.62989918106E+03  0.50400001928E-02 0. -1.
    10030    2    1    2    0    0  0.00000000000E+00  0.00000000000E+00  0.71794697629E+03  0.19777453384E+04  0.18428317239E+04 0.  0.
        2    1    3    3  502    0  0.31401680756E+02  0.30573272003E+03  0.12912147189E+04  0.13272882173E+04  0.25500000920E-02 0.  1.
       -2    1    3    3    0  502 -0.31401680756E+02 -0.30573272003E+03 -0.57326774258E+03  0.65045712106E+03  0.25500000920E-02 0. -1.
</event>
<event>
 5   0  0.3395569E-04  0.1999261E+04  0.7818609E-02  0.8606966E-01
       -2   -1    0    0    0  501  0.00000000000E+00  0.00000000000E+00  0.92640753643E+03  0.92640753643E+03  0.25500000920E-02 0.  1.
        2   -1    0    0  501    0  0.00000000000E+00  0.00000000000E+00 -0.10786405048E+04  0.10786405048E+04  0.25500000920E-02 0. -1.
    10030    2    1    2    0    0  0.00000000000E+00  0.00000000000E+00 -0.15223296838E+03  0.20050480412E+04  0.19992605561E+04 0.  0.
        4    1    3    3  502    0  0.24959524101E+03  0.55933178708E+03 -0.86840925612E+03  0.10626787291E+04  0.12699999809E+01 0. -1.
       -4    1    3    3    0  502 -0.24959524101E+03 -0.55933178708E+03  0.71617628773E+03  0.94236931210E+03  0.12699999809E+01 0.  1.
</event>
<event>
 5   0  0.3431030E-04  0.2073286E+04  0.7818609E-02  0.8573103E-01
        2   -1    0    0  501    0  0.00000000000E+00  0.00000000000E+00  0.17376762898E+04  0.17376762898E+04  0.25500000920E-02 0.  1.
       -2   -1    0    0    0  501  0.00000000000E+00  0.00000000000E+00 -0.61842858786E+03  0.61842858786E+03  0.25500000920E-02 0. -1.
    10030    2    1    2    0    0  0.00000000000E+00  0.00000000000E+00  0.11192477019E+04  0.23561048776E+04  0.20732859851E+04 0.  0.
        3    1    3    3  502    0 -0.81240448863E+03 -0.52566188926E+03  0.13699629051E+03  0.97728678943E+03  0.10100000352E+00 0. -1.
       -3    1    3    3    0  502  0.81240448863E+03  0.52566188926E+03  0.98225141140E+03  0.13788180882E+04  0.10100000352E+00 0.  1.
</event>
<event>
 5   0  0.3431030E-04  0.2065335E+04  0.7818609E-02  0.8576669E-01
       -2   -1    0    0    0  501  0.00000000000E+00  0.00000000000E+00  0.11279859938E+04  0.11279859938E+04  0.25500000920E-02 0. -1.
        2   -1    0    0  501    0  0.00000000000E+00  0.00000000000E+00 -0.94540377181E+03  0.94540377181E+03  0.25500000920E-02 0.  1.
    10030    2    1    2    0    0  0.00000000000E+00  0.00000000000E+00  0.18258222195E+03  0.20733897656E+04  0.20653350460E+04 0.  0.
        3    1    3    3  502    0  0.81712183949E+03 -0.17568206899E+03 -0.51758055538E+03  0.98307778504E+03  0.10100000352E+00 0.  1.
       -3    1    3    3    0  502 -0.81712183949E+03  0.17568206899E+03  0.70016277733E+03  0.10903119805E+04  0.10100000352E+00 0. -1.
</event>
<event>
 5   0  0.3431030E-04  0.2026495E+04  0.7818609E-02  0.8594332E-01
        2   -1    0    0  501    0  0.00000000000E+00  0.00000000000E+00  0.16743095830E+04  0.16743095830E+04  0.25500000920E-02 0. -1.
       -2   -1    0    0    0  501  0.00000000000E+00  0.00000000000E+00 -0.61319056872E+03  0.61319056873E+03  0.25500000920E-02 0.  1.
    10030    2    1    2    0    0  0.00000000000E+00  0.00000000000E+00  0.10611190143E+04  0.22875001518E+04  0.20264953446E+04 0.  0.
        3    1    3    3  502    0  0.39364591530E+03  0.89095515556E+03  0.21548049180E+03  0.99759212527E+03  0.10100000352E+00 0.  1.
       -3    1    3    3    0  502 -0.39364591530E+03 -0.89095515556E+03  0.84563852253E+03  0.12899080265E+04  0.10100000352E+00 0. -1.
</event>
<event>
 5   0  0.3460648E-04  0.1991040E+04  0.7818609E-02  0.8610821E-01
        2   -1    0    0  501    0  0.00000000000E+00  0.00000000000E+00  0.11964926537E+04  0.11964926537E+04  0.25500000920E-02 0. -1.
       -2   -1    0    0    0  501  0.00000000000E+00  0.00000000000E+00 -0.82830443931E+03  0.82830443931E+03  0.25500000920E-02 0.  1.
    10030    2    1    2    0    0  0.00000000000E+00  0.00000000000E+00  0.36818821441E+03  0.20247970930E+04  0.19910401068E+04 0.  0.
        5    1    3    3  502    0 -0.51485010450E+03 -0.70192421853E+03  0.67526294305E+03  0.11017124720E+04  0.46999998093E+01 0. -1.
       -5    1    3    3    0  502  0.51485010450E+03  0.70192421853E+03 -0.30707472864E+03  0.92308462105E+03  0.46999998093E+01 0.  1.
</event>
<event>
 5   0  0.1708578E-04  0.1916120E+04  0.7818609E-02  0.8646874E-01
        1   -1    0    0  501    0  0.00000000000E+00  0.00000000000E+00  0.58047323836E+03  0.58047323838E+03  0.50400001928E-02 0.  1.
       -1   -1    0    0    0  501  0.00000000000E+00  0.00000000000E+00 -0.15812590221E+04  0.15812590221E+04  0.50400001928E-02 0. -1.
    10030    2    1    2    0    0  0.00000000000E+00  0.00000000000E+00 -0.10007857837E+04  0.21617322605E+04  0.19161195634E+04 0.  0.
        3    1    3    3  502    0 -0.69713071085E+03  0.65701166980E+03 -0.51723922021E+03  0.10886652302E+04  0.10100000352E+00 0. -1.
       -3    1    3    3    0  502  0.69713071085E+03 -0.65701166980E+03 -0.48354656354E+03  0.10730670303E+04  0.10100000352E+00 0.  1.
</event>
<event>
 5   0  0.1643565E-04  0.1352831E+04  0.7818609E-02  0.8988688E-01
        1   -1    0    0  501    0  0.00000000000E+00  0.00000000000E+00  0.63954191623E+03  0.63954191625E+03  0.50400001928E-02 0.  1.
       -1   -1    0    0    0  501  0.00000000000E+00  0.00000000000E+00 -0.71541542642E+03  0.71541542644E+03  0.50400001928E-02 0. -1.
    10030    2    1    2    0    0  0.00000000000E+00  0.00000000000E+00 -0.75873510190E+02  0.13549573427E+04  0.13528313313E+04 0.  0.
        2    1    3    3  502    0 -0.52690186062E+03  0.12393075672E+03 -0.44422650068E+03  0.70022966740E+03  0.25500000920E-02 0. -1.
       -2    1    3    3    0  502  0.52690186062E+03 -0.12393075672E+03  0.36835299049E+03  0.65472767530E+03  0.25500000920E-02 0.  1.
</event>
<event>
 5   0  0.1696052E-04  0.2008406E+04  0.7818609E-02  0.8602701E-01
        1   -1    0    0  501    0  0.00000000000E+00  0.00000000000E+00  0.12007452767E+04  0.12007452767E+04  0.50400001928E-02 0.  1.
       -1   -1    0    0    0  501  0.00000000000E+00  0.00000000000E+00 -0.83983159455E+03  0.83983159457E+03  0.50400001928E-02 0. -1.
    10030    2    1    2    0    0  0.00000000000E+00  0.00000000000E+00  0.36091368217E+03  0.20405768713E+04  0.20084061546E+04 0.  0.
        4    1    3    3  502    0 -0.75546667475E+03 -0.42927883090E+03 -0.33100707710E+03  0.92982660174E+03  0.12699999809E+01 0. -1.
       -4    1    3    3    0  502  0.75546667475E+03  0.42927883090E+03  0.69192075927E+03  0.11107502696E+04  0.12699999809E+01 0.  1.
</event>
<event>
 5   0  0.3431030E-04  0.1154147E+04  0.7818609E-02  0.9153967E-01
        2   -1    0    0  501    0  0.00000000000E+00  0.00000000000E+00  0.14186971203E+04  0.14186971203E+04  0.25500000920E-02 0. -1.
       -2   -1    0    0    0  501  0.00000000000E+00  0.00000000000E+00 -0.23473198199E+03  0.23473198200E+03  0.25500000920E-02 0.  1.
    10030    2    1    2    0    0  0.00000000000E+00  0.00000000000E+00  0.11839651383E+04  0.16534291023E+04  0.11541465885E+04 0.  0.
        3    1    3    3  502    0 -0.37630035396E+03 -0.28334810260E+03  0.10695463883E+04  0.11686819887E+04  0.10100000352E+00 0. -1.
       -3    1    3    3    0  502  0.37630035396E+03  0.28334810260E+03  0.11441874998E+03  0.48474711365E+03  0.10100000352E+00 0.  1.
</event>
<event>
 5   0  0.3431030E-04  0.2055408E+04  0.7818609E-02  0.8581145E-01
        2   -1    0    0  501    0  0.00000000000E+00  0.00000000000E+00  0.15684142100E+04  0.15684142100E+04  0.25500000920E-02 0.  1.
       -2   -1    0    0    0  501  0.00000000000E+00  0.00000000000E+00 -0.67340339699E+03  0.67340339699E+03  0.25500000920E-02 0. -1.
    10030    2    1    2    0    0  0.00000000000E+00  0.00000000000E+00  0.89501081300E+03  0.22418176070E+04  0.20554079468E+04 0.  0.
        3    1    3    3  502    0  0.69672927458E+03  0.16401636401E+03  0.12518437551E+04  0.14420283794E+04  0.10100000352E+00 0.  1.
       -3    1    3    3    0  502 -0.69672927458E+03 -0.16401636401E+03 -0.35683294211E+03  0.79978922754E+03  0.10100000352E+00 0. -1.
</event>
<event>
 5   0  0.3387881E-04  0.2062380E+04  0.7818609E-02  0.8577999E-01
        2   -1    0    0  501    0  0.00000000000E+00  0.00000000000E+00  0.11842773142E+04  0.11842773142E+04  0.25500000920E-02 0. -1.
       -2   -1    0    0    0  501  0.00000000000E+00  0.00000000000E+00 -0.89789145426E+03  0.89789145427E+03  0.25500000920E-02 0.  1.
    10030    2    1    2    0    0  0.00000000000E+00  0.00000000000E+00  0.28638585991E+03  0.20821687684E+04  0.20623796740E+04 0.  0.
        1    1    3    3  502    0  0.10020082446E+04  0.17143410364E+03  0.31789173243E+03  0.10651128240E+04  0.50400001928E-02 0.  1.
       -1    1    3    3    0  502 -0.10020082446E+04 -0.17143410364E+03 -0.31505872522E+02  0.10170559445E+04  0.50400001928E-02 0. -1.
</event>
<event>
 5   0  0.1650221E-04  0.1989045E+04  0.7818609E-02  0.8611760E-01
       -1   -1    0    0    0  501  0.00000000000E+00  0.00000000000E+00  0.10765865947E+04  0.10765865947E+04  0.50400001928E-02 0. -1.
        1   -1    0    0  501    0  0.00000000000E+00  0.00000000000E+00 -0.91871386532E+03  0.91871386534E+03  0.50400001928E-02 0.  1.
    10030    2    1    2    0    0  0.00000000000E+00  0.00000000000E+00  0.15787272941E+03  0.19953004601E+04  0.19890450290E+04 0.  0.
        1    1    3    3  502    0  0.51809324213E+03  0.37876556688E+03  0.84105659353E+03  0.10579509231E+04  0.50400001928E-02 0. -1.
       -1    1    3    3    0  502 -0.51809324213E+03 -0.37876556688E+03 -0.68318386412E+03  0.93734953695E+03  0.50400001928E-02 0.  1.
</event>
<event>
 5   0  0.3371947E-04  0.2157490E+04  0.7818609E-02  0.8536333E-01
       -2   -1    0    0    0  501  0.00000000000E+00  0.00000000000E+00  0.11524876849E+04  0.11524876849E+04  0.25500000920E-02 0.  1.
        2   -1    0    0  501    0  0.00000000000E+00  0.00000000000E+00 -0.10097207787E+04  0.10097207787E+04  0.25500000920E-02 0. -1.
    10030    2    1    2    0    0  0.00000000000E+00  0.00000000000E+00  0.14276690621E+03  0.21622084637E+04  0.21574899886E+04 0.  0.
        2    1    3    3  502    0 -0.41299991792E+03  0.49948563294E+02  0.10688626524E+04  0.11469660679E+04  0.25500000920E-02 0.  1.
       -2    1    3    3    0  502  0.41299991792E+03 -0.49948563294E+02 -0.92609574615E+03  0.10152423958E+04  0.25500000920E-02 0. -1.
</event>
<event>
 5   0  0.3431030E-04  0.1908425E+04  0.7818609E-02  0.8650674E-01
        2   -1    0    0  501    0  0.00000000000E+00  0.00000000000E+00  0.17401149637E+04  0.17401149637E+04  0.25500000920E-02 0.  1.
       -2   -1    0    0    0  501  0.00000000000E+00  0.00000000000E+00 -0.52325382119E+03  0.52325382120E+03  0.25500000920E-02 0. -1.
    10030    2    1    2    0    0  0.00000000000E+00  0.00000000000E+00  0.12168611426E+04  0.22633687849E+04  0.19084253238E+04 0.  0.
        3    1    3    3  502    0  0.16590343102E+02 -0.87984077385E+03  0.10460049819E+04  0.13669387182E+04  0.10100000352E+00 0.  1.
       -3    1    3    3    0  502 -0.16590343102E+02  0.87984077385E+03  0.17085616064E+03  0.89643006679E+03  0.10100000352E+00 0. -1.
</event>
<event>
 5   0  0.1650221E-04  0.2122389E+04  0.7818609E-02  0.8551445E-01
       -1   -1    0    0    0  501  0.00000000000E+00  0.00000000000E+00  0.11334081680E+04  0.11334081681E+04  0.50400001928E-02 0. -1.
        1   -1    0    0  501    0  0.00000000000E+00  0.00000000000E+00 -0.99358158100E+03  0.99358158101E+03  0.50400001928E-02 0.  1.
    10030    2    1    2    0    0  0.00000000000E+00  0.00000000000E+00  0.13982658704E+03  0.21269897491E+04  0.21223887293E+04 0.  0.
        1    1    3    3  502    0 -0.60982420352E+03  0.40284898012E+01 -0.80043454388E+03  0.10062789111E+04  0.50400001928E-02 0.  1.
       -1    1    3    3    0  502  0.60982420352E+03 -0.40284898012E+01  0.94026113092E+03  0.11207108379E+04  0.50400001928E-02 0. -1.
</event>
<event>
 5   0  0.3395569E-04  0.2018244E+04  0.7818609E-02  0.8598138E-01
        2   -1    0    0  501    0  0.00000000000E+00  0.00000000000E+00  0.10168267638E+04  0.10168267638E+04  0.25500000920E-02 0.  1.
       -2   -1    0    0    0  501  0.00000000000E+00  0.00000000000E+00 -0.10014756760E+04  0.10014756760E+04  0.25500000920E-02 0. -1.
    10030    2    1    2    0    0  0.00000000000E+00  0.00000000000E+00  0.15351087796E+02  0.20183024397E+04  0.20182440591E+04 0.  0.
        4    1    3    3  502    0 -0.86477102957E+03  0.31821162972E+02 -0.51145808854E+03  0.10052027205E+04  0.12699999809E+01 0. -1.
       -4    1    3    3    0  502  0.86477102957E+03 -0.31821162972E+02  0.52680917633E+03  0.10130997193E+04  0.12699999809E+01 0.  1.
</event>
<event>
 5   0  0.1222488E-04  0.1994934E+04  0.7818609E-02  0.8608993E-01
       -3   -1    0    0    0  501  0.00000000000E+00  0.00000000000E+00  0.48081742185E+03  0.48081743246E+03  0.10100000352E+00 0. -1.
        3   -1    0    0  501    0  0.00000000000E+00  0.00000000000E+00 -0.20692690144E+04  0.20692690168E+04  0.10100000352E+00 0.  1.
    10030    2    1    2    0    0  0.00000000000E+00  0.00000000000E+00 -0.15884515925E+04  0.25500864493E+04  0.19949341937E+04 0.  0.
        4    1    3    3  502    0 -0.57398347384E+03 -0.53465906451E+03 -0.66328515371E+01  0.78445073213E+03  0.12699999809E+01 0. -1.
       -4    1    3    3    0  502  0.57398347384E+03  0.53465906451E+03 -0.15818187410E+04  0.17656357172E+04  0.12699999809E+01 0.  1.
</event>
<event>
 5   0  0.3460648E-04  0.1967928E+04  0.7818609E-02  0.8621764E-01
        2   -1    0    0  501    0  0.00000000000E+00  0.00000000000E+00  0.11911409937E+04  0.11911409938E+04  0.25500000920E-02 0.  1.
       -2   -1    0    0    0  501  0.00000000000E+00  0.00000000000E+00 -0.81282201847E+03  0.81282201848E+03  0.25500000920E-02 0. -1.
    10030    2    1    2    0    0  0.00000000000E+00  0.00000000000E+00  0.37831897527E+03  0.20039630122E+04  0.19679284813E+04 0.  0.
        5    1    3    3  502    0  0.45953654558E+03 -0.63967177940E+03  0.78971235418E+03  0.11153571242E+04  0.46999998093E+01 0.  1.
       -5    1    3    3    0  502 -0.45953654558E+03  0.63967177940E+03 -0.41139337891E+03  0.88860588806E+03  0.46999998093E+01 0. -1.
</event>
<event>
 5   0  0.3395569E-04  0.2055971E+04  0.7818609E-02  0.8580891E-01
        2   -1    0    0  501    0  0.00000000000E+00  0.00000000000E+00  0.21817607502E+04  0.21817607503E+04  0.25500000920E-02 0. -1.
       -2   -1    0    0    0  501  0.00000000000E+00  0.00000000000E+00 -0.48435829002E+03  0.48435829003E+03  0.25500000920E-02 0.  1.
    10030    2    1    2    0    0  0.00000000000E+00  0.00000000000E+00  0.16974024602E+04  0.26661190403E+04  0.20559707257E+04 0.  0.
        4    1    3    3  502    0  0.33531968693E+03  0.52498236663E+03  0.19091272786E+04  0.20081868330E+04  0.12699999809E+01 0. -1.
       -4    1    3    3    0  502 -0.33531968693E+03 -0.52498236663E+03 -0.21172481834E+03  0.65793220724E+03  0.12699999809E+01 0.  1.
</event>
<event>
 5   0  0.3431030E-04  0.1994662E+04  0.7818609E-02  0.8609120E-01
        2   -1    0    0  501    0  0.00000000000E+00  0.00000000000E+00  0.14378463559E+04  0.14378463559E+04  0.25500000920E-02 0.  1.
       -2   -1    0    0    0  501  0.00000000000E+00  0.00000000000E+00 -0.69177739028E+03  0.69177739029E+03  0.25500000920E-02 0. -1.
    10030    2    1    2    0    0  0.00000000000E+00  0.00000000000E+00  0.74606896566E+03  0.21296237462E+04  0.19946624775E+04 0.  0.
        3    1    3    3  502    0  0.38416253173E+03 -0.77952732793E+03  0.89545354148E+03  0.12478304215E+04  0.10100000352E+00 0.  1.
       -3    1    3    3    0  502 -0.38416253173E+03  0.77952732793E+03 -0.14938457582E+03  0.88179332469E+03  0.10100000352E+00 0. -1.
</event>
<event>
 5   0  0.3431030E-04  0.1965101E+04  0.7818609E-02  0.8623113E-01
        2   -1    0    0  501    0  0.00000000000E+00  0.00000000000E+00  0.10512677807E+04  0.10512677807E+04  0.25500000920E-02 0. -1.
       -2   -1    0    0    0  501  0.00000000000E+00  0.00000000000E+00 -0.91832535786E+03  0.91832535786E+03  0.25500000920E-02 0.  1.
    10030    2    1    2    0    0  0.00000000000E+00  0.00000000000E+00  0.13294242287E+03  0.19695931386E+04  0.19651013826E+04 0.  0.
        3    1    3    3  502    0  0.76954639457E+03  0.46896448467E+03 -0.32592911711E+03  0.95831056597E+03  0.10100000352E+00 0.  1.
       -3    1    3    3    0  502 -0.76954639457E+03 -0.46896448467E+03  0.45887153998E+03  0.10112825726E+04  0.10100000352E+00 0. -1.
</event>
<event>
 5   0  0.3395569E-04  0.2097238E+04  0.7818609E-02  0.8562461E-01
        2   -1    0    0  501    0  0.00000000000E+00  0.00000000000E+00  0.13618104896E+04  0.13618104896E+04  0.25500000920E-02 0. -1.
       -2   -1    0    0    0  501  0.00000000000E+00  0.00000000000E+00 -0.80745619854E+03  0.80745619854E+03  0.25500000920E-02 0.  1.
    10030    2    1    2    0    0  0.00000000000E+00  0.00000000000E+00  0.55435429108E+03  0.21692666882E+04  0.20972384901E+04 0.  0.
        4    1    3    3  502    0  0.75419229302E+03  0.67874477912E+03  0.55103475465E+03  0.11546174275E+04  0.12699999809E+01 0. -1.
       -4    1    3    3    0  502 -0.75419229302E+03 -0.67874477912E+03  0.33195364276E+01  0.10146492607E+04  0.12699999809E+01 0.  1.
</event>
<event>
 5   0  0.3431030E-04  0.1991705E+04  0.7818609E-02  0.8610509E-01
        2   -1    0    0  501    0  0.00000000000E+00  0.00000000000E+00  0.13816185511E+04  0.13816185511E+04  0.25500000920E-02 0. -1.
       -2   -1    0    0    0  501  0.00000000000E+00  0.00000000000E+00 -0.71779704594E+03  0.71779704594E+03  0.25500000920E-02 0.  1.
    10030    2    1    2    0    0  0.00000000000E+00  0.00000000000E+00  0.66382150519E+03  0.20994155971E+04  0.19917045108E+04 0.  0.
        3    1    3    3  502    0  0.71011934226E+03  0.68198142299E+03  0.48950736912E+03  0.10995388198E+04  0.10100000352E+00 0.  1.
       -3    1    3    3    0  502 -0.71011934226E+03 -0.68198142299E+03  0.17431413607E+03  0.99987677730E+03  0.10100000352E+00 0. -1.
</event>
<event>
 5   0  0.1664168E-04  0.2027696E+04  0.7818609E-02  0.8593780E-01
       -1   -1    0    0    0  501  0.00000000000E+00  0.00000000000E+00  0.84828244423E+03  0.84828244425E+03  0.50400001928E-02 0.  1.
        1   -1    0    0  501    0  0.00000000000E+00  0.00000000000E+00 -0.12117288031E+04  0.12117288031E+04  0.50400001928E-02 0. -1.
    10030    2    1    2    0    0  0.00000000000E+00  0.00000000000E+00 -0.36344635888E+03  0.20600112474E+04  0.20276964969E+04 0.  0.
        5    1    3    3  502    0  0.81184318653E+02 -0.62963383993E+02 -0.12064155190E+04  0.12107913841E+04  0.46999998093E+01 0. -1.
       -5    1    3    3    0  502 -0.81184318653E+02  0.62963383993E+02  0.84296916011E+03  0.84921986329E+03  0.46999998093E+01 0.  1.
</event>
<event>
 5   0  0.3387881E-04  0.2088527E+04  0.7818609E-02  0.8566314E-01
       -2   -1    0    0    0  501  0.00000000000E+00  0.00000000000E+00  0.12892718852E+04  0.12892718852E+04  0.25500000920E-02 0. -1.
        2   -1    0    0  501    0  0.00000000000E+00  0.00000000000E+00 -0.84581530815E+03  0.84581530815E+03  0.25500000920E-02 0.  1.
    10030    2    1    2    0    0  0.00000000000E+00  0.00000000000E+00  0.44345657708E+03  0.21350871934E+04  0.20885266547E+04 0.  0.
        1    1    3    3  502    0  0.15615445888E+03 -0.94127674057E+03 -0.21211430117E+03  0.97743470071E+03  0.50400001928E-02 0.  1.
       -1    1    3    3    0  502 -0.15615445888E+03  0.94127674057E+03  0.65557087825E+03  0.11576524927E+04  0.50400001928E-02 0. -1.
</event>
<event>
 5   0  0.1708578E-04  0.1914627E+04  0.7818609E-02  0.8647610E-01
       -1   -1    0    0    0  501  0.00000000000E+00  0.00000000000E+00  0.63301744906E+03  0.63301744908E+03  0.50400001928E-02 0. -1.
        1   -1    0    0  501    0  0.00000000000E+00  0.00000000000E+00 -0.14477466826E+04  0.14477466826E+04  0.50400001928E-02 0.  1.
    10030    2    1    2    0    0  0.00000000000E+00  0.00000000000E+00 -0.81472923353E+03  0.20807641317E+04  0.19146267646E+04 0.  0.
        3    1    3    3  502    0  0.61176062449E+03 -0.60501738200E+03  0.48758705777E+02  0.86178565536E+03  0.10100000352E+00 0. -1.
       -3    1    3    3    0  502 -0.61176062449E+03  0.60501738200E+03 -0.86348793931E+03  0.12189784763E+04  0.10100000352E+00 0.  1.
</event>
<event>
 5   0  0.3395569E-04  0.2009969E+04  0.7818609E-02  0.8601974E-01
       -2   -1    0    0    0  501  0.00000000000E+00  0.00000000000E+00  0.64271069332E+03  0.64271069332E+03  0.25500000920E-02 0.  1.
        2   -1    0    0  501    0  0.00000000000E+00  0.00000000000E+00 -0.15714602422E+04  0.15714602422E+04  0.25500000920E-02 0. -1.
    10030    2    1    2    0    0  0.00000000000E+00  0.00000000000E+00 -0.92874954888E+03  0.22141709355E+04  0.20099694543E+04 0.  0.
        4    1    3    3  502    0 -0.89365444112E+03  0.22633135381E+03 -0.23532545415E+02  0.92217109879E+03  0.12699999809E+01 0. -1.
       -4    1    3    3    0  502  0.89365444112E+03 -0.22633135381E+03 -0.90521700347E+03  0.12919998367E+04  0.12699999809E+01 0.  1.
</event>
<event>
 5   0  0.3395569E-04  0.1988100E+04  0.7818609E-02  0.8612205E-01
        2   -1    0    0  501    0  0.00000000000E+00  0.00000000000E+00  0.80878611466E+03  0.80878611467E+03  0.25500000920E-02 0.  1.
       -2   -1    0    0    0  501  0.00000000000E+00  0.00000000000E+00 -0.12217506334E+04  0.12217506335E+04  0.25500000920E-02 0. -1.
    10030    2    1    2    0    0  0.00000000000E+00  0.00000000000E+00 -0.41296451879E+03  0.20305367481E+04  0.19880995427E+04 0.  0.
        4    1    3    3  502    0 -0.13767103689E+03  0.97689501996E+03 -0.81994764197E+02  0.98995047789E+03  0.12699999809E+01 0.  1.
       -4    1    3    3    0  502  0.13767103689E+03 -0.97689501996E+03 -0.33096975459E+03  0.10405862702E+04  0.12699999809E+01 0. -1.
</event>
<event>
 5   0  0.1222488E-04  0.1979753E+04  0.7818609E-02  0.8616146E-01
       -3   -1    0    0    0  501  0.00000000000E+00  0.00000000000E+00  0.16873435826E+04  0.16873435856E+04  0.10100000352E+00 0. -1.
        3   -1    0    0  501    0  0.00000000000E+00  0.00000000000E+00 -0.58070914404E+03  0.58070915282E+03  0.10100000352E+00 0.  1.
    10030    2    1    2    0    0  0.00000000000E+00  0.00000000000E+00  0.11066344385E+04  0.22680527384E+04  0.19797533795E+04 0.  0.
        5    1    3    3  502    0 -0.57593154549E+03 -0.27324811996E+03  0.14208745809E+04  0.15573273081E+04  0.46999998093E+01 0. -1.
       -5    1    3    3    0  502  0.57593154549E+03  0.27324811996E+03 -0.31424014235E+03  0.71072543026E+03  0.46999998093E+01 0.  1.
</event>
<event>
 5   0  0.3395569E-04  0.2022444E+04  0.7818609E-02  0.8596199E-01
        2   -1    0    0  501    0  0.00000000000E+00  0.00000000000E+00  0.11392256136E+04  0.11392256136E+04  0.25500000920E-02 0.  1.
       -2   -1    0    0    0  501  0.00000000000E+00  0.00000000000E+00 -0.89760056591E+03  0.89760056592E+03  0.25500000920E-02 0. -1.
    10030    2    1    2    0    0  0.00000000000E+00  0.00000000000E+00  0.24162504768E+03  0.20368261795E+04  0.20224436264E+04 0.  0.
        4    1    3    3  502    0 -0.70945423428E+03 -0.55774373069E+02  0.84434474088E+03  0.11042444229E+04  0.12699999809E+01 0.  1.
       -4    1    3    3    0  502  0.70945423428E+03  0.55774373069E+02 -0.60271969320E+03  0.93258175658E+03  0.12699999809E+01 0. -1.
</event>
<event>
 5   0  0.3387881E-04  0.2052584E+04  0.7818609E-02  0.8582423E-01
        2   -1    0    0  501    0  0.00000000000E+00  0.00000000000E+00  0.11006718665E+04  0.11006718665E+04  0.25500000920E-02 0.  1.
       -2   -1    0    0    0  501  0.00000000000E+00  0.00000000000E+00 -0.95693811982E+03  0.95693811982E+03  0.25500000920E-02 0. -1.
    10030    2    1    2    0    0  0.00000000000E+00  0.00000000000E+00  0.14373374666E+03  0.20576099863E+04  0.20525836075E+04 0.  0.
        1    1    3    3  502    0  0.12749464541E+03 -0.44892257275E+03 -0.84442206251E+03  0.96479789625E+03  0.50400001928E-02 0. -1.
       -1    1    3    3    0  502 -0.12749464541E+03  0.44892257275E+03  0.98815580917E+03  0.10928120900E+04  0.50400001928E-02 0.  1.
</event>
<event>
 5   0  0.1696052E-04  0.2024533E+04  0.7818609E-02  0.8595236E-01
        1   -1    0    0  501    0  0.00000000000E+00  0.00000000000E+00  0.11311410685E+04  0.11311410685E+04  0.50400001928E-02 0. -1.
       -1   -1    0    0    0  501  0.00000000000E+00  0.00000000000E+00 -0.90588452135E+03  0.90588452136E+03  0.50400001928E-02 0.  1.
    10030    2    1    2    0    0  0.00000000000E+00  0.00000000000E+00  0.22525654712E+03  0.20370255898E+04  0.20245327218E+04 0.  0.
        4    1    3    3  502    0 -0.34253017983E+03  0.14195925830E+03  0.10603547063E+04  0.11233134341E+04  0.12699999809E+01 0. -1.
       -4    1    3    3    0  502  0.34253017983E+03 -0.14195925830E+03 -0.83509815921E+03  0.91371215573E+03  0.12699999809E+01 0.  1.
</event>
<event>
 5   0  0.1664168E-04  0.2687299E+04  0.7818609E-02  0.8339138E-01
       -1   -1    0    0    0  501  0.00000000000E+00  0.00000000000E+00  0.11275748379E+04  0.11275748379E+04  0.50400001928E-02 0.  1.
        1   -1    0    0  501    0  0.00000000000E+00  0.00000000000E+00 -0.16011304805E+04  0.16011304805E+04  0.50400001928E-02 0. -1.
    10030    2    1    2    0    0  0.00000000000E+00  0.00000000000E+00 -0.47355564256E+03  0.27287053184E+04  0.26872993447E+04 0.  0.
        5    1    3    3  502    0 -0.29612087070E+02 -0.96041571863E+03  0.71689365667E+03  0.11988468765E+04  0.46999998093E+01 0.  1.
       -5    1    3    3    0  502  0.29612087070E+02  0.96041571863E+03 -0.11904492992E+04  0.15298584419E+04  0.46999998093E+01 0. -1.
</event>
<event>
 5   0  0.3395569E-04  0.2008464E+04  0.7818609E-02  0.8602674E-01
       -2   -1    0    0    0  501  0.00000000000E+00  0.00000000000E+00  0.60678302027E+03  0.60678302027E+03  0.25500000920E-02 0. -1.
        2   -1    0    0  501    0  0.00000000000E+00  0.00000000000E+00 -0.16620141205E+04  0.16620141205E+04  0.25500000920E-02 0.  1.
    10030    2    1    2    0    0  0.00000000000E+00  0.00000000000E+00 -0.10552311003E+04  0.22687971408E+04  0.20084640378E+04 0.  0.
        4    1    3    3  502    0  0.31013146506E+02  0.15532338198E+03  0.59258349805E+03  0.61338730286E+03  0.12699999809E+01 0. -1.
       -4    1    3    3    0  502 -0.31013146506E+02 -0.15532338198E+03 -0.16478145983E+04  0.16554098379E+04  0.12699999809E+01 0.  1.
</event>
<event>
 5   0  0.3387881E-04  0.1973374E+04  0.7818609E-02  0.8619171E-01
       -2   -1    0    0    0  501  0.00000000000E+00  0.00000000000E+00  0.67165717137E+03  0.67165717137E+03  0.25500000920E-02 0. -1.
        2   -1    0    0  501    0  0.00000000000E+00  0.00000000000E+00 -0.14494760280E+04  0.14494760280E+04  0.25500000920E-02 0.  1.
    10030    2    1    2    0    0  0.00000000000E+00  0.00000000000E+00 -0.77781885665E+03  0.21211331994E+04  0.19733737294E+04 0.  0.
        1    1    3    3  502    0 -0.56263368696E+03 -0.56976055072E+03 -0.10085897287E+04  0.12878031650E+04  0.50400001928E-02 0.  1.
       -1    1    3    3    0  502  0.56263368696E+03  0.56976055072E+03  0.23077087203E+03  0.83333003442E+03  0.50400001928E-02 0. -1.
</event>
<event>
 5   0  0.3371947E-04  0.2051336E+04  0.7818609E-02  0.8582988E-01
        2   -1    0    0  501    0  0.00000000000E+00  0.00000000000E+00  0.14816845278E+04  0.14816845278E+04  0.25500000920E-02 0.  1.
       -2   -1    0    0    0  501  0.00000000000E+00  0.00000000000E+00 -0.70999929600E+03  0.70999929601E+03  0.25500000920E-02 0. -1.
    10030    2    1    2    0    0  0.00000000000E+00  0.00000000000E+00  0.77168523177E+03  0.21916838238E+04  0.20513361223E+04 0.  0.
        2    1    3    3  502    0 -0.54160779226E+02  0.82625232852E+03 -0.26085348024E+03  0.86814217646E+03  0.25500000920E-02 0. -1.
       -2    1    3    3    0  502  0.54160779226E+02 -0.82625232852E+03  0.10325387120E+04  0.13235416473E+04  0.25500000920E-02 0.  1.
</event>
<event>
 5   0  0.3460648E-04  0.1932805E+04  0.7818609E-02  0.8638698E-01
       -2   -1    0    0    0  501  0.00000000000E+00  0.00000000000E+00  0.36842833173E+03  0.36842833174E+03  0.25500000920E-02 0. -1.
        2   -1    0    0  501    0  0.00000000000E+00  0.00000000000E+00 -0.25349120245E+04  0.25349120245E+04  0.25500000920E-02 0.  1.
    10030    2    1    2    0    0  0.00000000000E+00  0.00000000000E+00 -0.21664836928E+04  0.29033403562E+04  0.19328046029E+04 0.  0.
        5    1    3    3  502    0 -0.38490907948E+03  0.69403381140E+03 -0.19115638645E+04  0.20697672403E+04  0.46999998093E+01 0.  1.
       -5    1    3    3    0  502  0.38490907948E+03 -0.69403381140E+03 -0.25491982827E+03  0.83357311598E+03  0.46999998093E+01 0. -1.
</event>
<event>
 5   0  0.3371947E-04  0.1981244E+04  0.7818609E-02  0.8615440E-01
        2   -1    0    0  501    0  0.00000000000E+00  0.00000000000E+00  0.69377721564E+03  0.69377721565E+03  0.25500000920E-02 0.  1.
       -2   -1    0    0    0  501  0.00000000000E+00  0.00000000000E+00 -0.14144766854E+04  0.14144766854E+04  0.25500000920E-02 0. -1.
    10030    2    1    2    0    0  0.00000000000E+00  0.00000000000E+00 -0.72069946975E+03  0.21082539010E+04  0.19812437471E+04 0.  0.
        2    1    3    3  502    0  0.40388020531E+03 -0.67429927707E+02  0.59951050642E+03  0.72600197156E+03  0.25500000920E-02 0.  1.
       -2    1    3    3    0  502 -0.40388020531E+03  0.67429927707E+02 -0.13202099762E+04  0.13822519295E+04  0.25500000920E-02 0. -1.
</event>
<event>
 5   0  0.1708578E-04  0.2011187E+04  0.7818609E-02  0.8601408E-01
       -1   -1    0    0    0  501  0.00000000000E+00  0.00000000000E+00  0.58617479397E+03  0.58617479400E+03  0.50400001928E-02 0.  1.
        1   -1    0    0  501    0  0.00000000000E+00  0.00000000000E+00 -0.17251143476E+04  0.17251143476E+04  0.50400001928E-02 0. -1.
    10030    2    1    2    0    0  0.00000000000E+00  0.00000000000E+00 -0.11389395536E+04  0.23112891416E+04  0.20111872586E+04 0.  0.
        3    1    3    3  502    0  0.66706878274E+03 -0.54430595942E+03  0.27646015012E+02  0.86140237446E+03  0.10100000352E+00 0.  1.
       -3    1    3    3    0  502 -0.66706878274E+03  0.54430595942E+03 -0.11665855686E+04  0.14498867671E+04  0.10100000352E+00 0. -1.
</event>
<event>
 5   0  0.3387881E-04  0.2010702E+04  0.7818609E-02  0.8601633E-01
        2   -1    0    0  501    0  0.00000000000E+00  0.00000000000E+00  0.10694310629E+04  0.10694310629E+04  0.25500000920E-02 0.  1.
       -2   -1    0    0    0  501  0.00000000000E+00  0.00000000000E+00 -0.94511100432E+03  0.94511100433E+03  0.25500000920E-02 0. -1.
    10030    2    1    2    0    0  0.00000000000E+00  0.00000000000E+00  0.12432005856E+03  0.20145420672E+04  0.20107024304E+04 0.  0.
        1    1    3    3  502    0  0.78413020703E+03  0.23561973909E+03 -0.52235288301E+03  0.97119996779E+03  0.50400001928E-02 0. -1.
       -1    1    3    3    0  502 -0.78413020703E+03 -0.23561973909E+03  0.64667294157E+03  0.10433420994E+04  0.50400001928E-02 0.  1.
</event>
<event>
 5   0  0.1643565E-04  0.1818307E+04  0.7818609E-02  0.8696624E-01
        1   -1    0    0  501    0  0.00000000000E+00  0.00000000000E+00  0.10412051607E+04  0.10412051607E+04  0.50400001928E-02 0.  1.
       -1   -1    0    0    0  501  0.00000000000E+00  0.00000000000E+00 -0.79384946676E+03  0.79384946677E+03  0.50400001928E-02 0. -1.
    10030    2    1    2    0    0  0.00000000000E+00  0.00000000000E+00  0.24735569390E+03  0.18350546274E+04  0.18183070825E+04 0.  0.
        2    1    3    3  502    0 -0.50657281493E+03 -0.43657680037E+03  0.74526046105E+03  0.10013133747E+04  0.25500000920E-02 0.  1.
       -2    1    3    3    0  502  0.50657281493E+03  0.43657680037E+03 -0.49790476715E+03  0.83374125279E+03  0.25500000920E-02 0. -1.
</event>
<event>
 5   0  0.1696052E-04  0.2016360E+04  0.7818609E-02  0.8599010E-01
        1   -1    0    0  501    0  0.00000000000E+00  0.00000000000E+00  0.95774119830E+03  0.95774119831E+03  0.50400001928E-02 0.  1.
       -1   -1    0    0    0  501  0.00000000000E+00  0.00000000000E+00 -0.10612749418E+04  0.10612749418E+04  0.50400001928E-02 0. -1.
    10030    2    1    2    0    0  0.00000000000E+00  0.00000000000E+00 -0.10353374347E+03  0.20190161401E+04  0.20163598235E+04 0.  0.
        4    1    3    3  502    0 -0.82621738919E+03 -0.41931582265E+03  0.34620380660E+03  0.98910041044E+03  0.12699999809E+01 0.  1.
       -4    1    3    3    0  502  0.82621738919E+03  0.41931582265E+03 -0.44973755006E+03  0.10299157296E+04  0.12699999809E+01 0. -1.
</event>
<event>
 5   0  0.3431030E-04  0.1968938E+04  0.7818609E-02  0.8621283E-01
       -2   -1    0    0    0  501  0.00000000000E+00  0.00000000000E+00  0.74670205266E+03  0.74670205267E+03  0.25500000920E-02 0.  1.
        2   -1    0    0  501    0  0.00000000000E+00  0.00000000000E+00 -0.12979459895E+04  0.12979459895E+04  0.25500000920E-02 0. -1.
    10030    2    1    2    0    0  0.00000000000E+00  0.00000000000E+00 -0.55124393682E+03  0.20446480422E+04  0.19689377183E+04 0.  0.
        3    1    3    3  502    0 -0.23969939066E+03  0.56664581703E+02 -0.12654322860E+04  0.12891801865E+04  0.10100000352E+00 0. -1.
       -3    1    3    3    0  502  0.23969939066E+03 -0.56664581703E+02  0.71418834913E+03  0.75546785566E+03  0.10100000352E+00 0.  1.
</event>
<event>
 5   0  0.3460648E-04  0.1944193E+04  0.7818609E-02  0.8633166E-01
       -2   -1    0    0    0  501  0.00000000000E+00  0.00000000000E+00  0.72543443372E+03  0.72543443372E+03  0.25500000920E-02 0.  1.
        2   -1    0    0  501    0  0.00000000000E+00  0.00000000000E+00 -0.13026282939E+04  0.13026282939E+04  0.25500000920E-02 0. -1.
    10030    2    1    2    0    0  0.00000000000E+00  0.00000000000E+00 -0.57719386016E+03  0.20280627276E+04  0.19441928080E+04 0.  0.
        5    1    3    3  502    0 -0.98305933588E+02 -0.59907127152E+03  0.50336374436E+03  0.78863654117E+03  0.46999998093E+01 0.  1.
       -5    1    3    3    0  502  0.98305933588E+02  0.59907127152E+03 -0.10805576045E+04  0.12394261864E+04  0.46999998093E+01 0. -1.
</event>
<event>
 5   0  0.3460648E-04  0.1843902E+04  0.7818609E-02  0.8683295E-01
        2   -1    0    0  501    0  0.00000000000E+00  0.00000000000E+00  0.14664902909E+04  0.14664902909E+04  0.25500000920E-02 0. -1.
       -2   -1    0    0    0  501  0.00000000000E+00  0.00000000000E+00 -0.57961112989E+03  0.57961112990E+03  0.25500000920E-02 0.  1.
    10030    2    1    2    0    0  0.00000000000E+00  0.00000000000E+00  0.88687916106E+03  0.20461014208E+04  0.18439024861E+04 0.  0.
        5    1    3    3  502    0  0.24646391231E+03 -0.30055915845E+03  0.13711109642E+04  0.14251482849E+04  0.46999998093E+01 0. -1.
       -5    1    3    3    0  502 -0.24646391231E+03  0.30055915845E+03 -0.48423180318E+03  0.62095313592E+03  0.46999998093E+01 0.  1.
</event>
<event>
 5   0  0.3387881E-04  0.1893256E+04  0.7818609E-02  0.8658220E-01
       -2   -1    0    0    0  501  0.00000000000E+00  0.00000000000E+00  0.17035718304E+04  0.17035718304E+04  0.25500000920E-02 0.  1.
        2   -1    0    0  501    0  0.00000000000E+00  0.00000000000E+00 -0.52601526689E+03  0.52601526689E+03  0.25500000920E-02 0. -1.
    10030    2    1    2    0    0  0.00000000000E+00  0.00000000000E+00  0.11775565635E+04  0.22295870973E+04  0.18932562331E+04 0.  0.
        1    1    3    3  502    0  0.45412147478E+03 -0.66156230125E+03 -0.26464325722E+01  0.80243254914E+03  0.50400001928E-02 0. -1.
       -1    1    3    3    0  502 -0.45412147478E+03  0.66156230125E+03  0.11802029960E+04  0.14271545481E+04  0.50400001928E-02 0.  1.
</event>
<event>
 5   0  0.1696052E-04  0.2110228E+04  0.7818609E-02  0.8556751E-01
        1   -1    0    0  501    0  0.00000000000E+00  0.00000000000E+00  0.12842289127E+04  0.12842289127E+04  0.50400001928E-02 0.  1.
       -1   -1    0    0    0  501  0.00000000000E+00  0.00000000000E+00 -0.86687494683E+03  0.86687494684E+03  0.50400001928E-02 0. -1.
    10030    2    1    2    0    0  0.00000000000E+00  0.00000000000E+00  0.41735396589E+03  0.21511038596E+04  0.21102283009E+04 0.  0.
        4    1    3    3  502    0 -0.35828996653E+03  0.36430014268E+03  0.11496931527E+04  0.12581264850E+04  0.12699999809E+01 0.  1.
       -4    1    3    3    0  502  0.35828996653E+03 -0.36430014268E+03 -0.73233918678E+03  0.89297737456E+03  0.12699999809E+01 0. -1.
</event>
<event>
 5   0  0.1222488E-04  0.2034531E+04  0.7818609E-02  0.8590645E-01
        3   -1    0    0  501    0  0.00000000000E+00  0.00000000000E+00  0.82008837098E+03  0.82008837720E+03  0.10100000352E+00 0.  1.
       -3   -1    0    0    0  501  0.00000000000E+00  0.00000000000E+00 -0.12618501734E+04  0.12618501775E+04  0.10100000352E+00 0. -1.
    10030    2    1    2    0    0  0.00000000000E+00  0.00000000000E+00 -0.44176180244E+03  0.20819385547E+04  0.20345305737E+04 0.  0.
        4    1    3    3  502    0  0.46090483194E+03 -0.70263842007E+02 -0.11460818878E+04  0.12372855685E+04  0.12699999809E+01 0. -1.
       -4    1    3    3    0  502 -0.46090483194E+03  0.70263842007E+02  0.70432008532E+03  0.84465298619E+03  0.12699999809E+01 0.  1.
</event>
<event>
 5   0  0.3460648E-04  0.2022713E+04  0.7818609E-02  0.8596075E-01
        2   -1    0    0  501    0  0.00000000000E+00  0.00000000000E+00  0.12687461729E+04  0.12687461729E+04  0.25500000920E-02 0.  1.
       -2   -1    0    0    0  501  0.00000000000E+00  0.00000000000E+00 -0.80618330177E+03  0.80618330178E+03  0.25500000920E-02 0. -1.
    10030    2    1    2    0    0  0.00000000000E+00  0.00000000000E+00  0.46256287113E+03  0.20749294747E+04  0.20227130086E+04 0.  0.
        5    1    3    3  502    0  0.62918242853E+03 -0.31348356617E+03 -0.51459081676E+03  0.87118785191E+03  0.46999998093E+01 0. -1.
       -5    1    3    3    0  502 -0.62918242853E+03  0.31348356617E+03  0.97715368789E+03  0.12037416228E+04  0.46999998093E+01 0.  1.
</event>
<event>
 5   0  0.3371947E-04  0.2062840E+04  0.7818609E-02  0.8577791E-01
        2   -1    0    0  501    0  0.00000000000E+00  0.00000000000E+00  0.16870863965E+04  0.16870863965E+04  0.25500000920E-02 0. -1.
       -2   -1    0    0    0  501  0.00000000000E+00  0.00000000000E+00 -0.63057091321E+03  0.63057091321E+03  0.25500000920E-02 0.  1.
    10030    2    1    2    0    0  0.00000000000E+00  0.00000000000E+00  0.10565154833E+04  0.23176573098E+04  0.20628403814E+04 0.  0.
        2    1    3    3  502    0 -0.10275988383E+04  0.86102537800E+02  0.55221260462E+03  0.11697485970E+04  0.25500000920E-02 0. -1.
       -2    1    3    3    0  502  0.10275988383E+04 -0.86102537800E+02  0.50430287872E+03  0.11479087128E+04  0.25500000920E-02 0.  1.
</event>
<event>
 5   0  0.3431030E-04  0.1952617E+04  0.7818609E-02  0.8629100E-01
       -2   -1    0    0    0  501  0.00000000000E+00  0.00000000000E+00  0.15246417203E+04  0.15246417203E+04  0.25500000920E-02 0.  1.
        2   -1    0    0  501    0  0.00000000000E+00  0.00000000000E+00 -0.62518184875E+03  0.62518184876E+03  0.25500000920E-02 0. -1.
    10030    2    1    2    0    0  0.00000000000E+00  0.00000000000E+00  0.89945987155E+03  0.21498235691E+04  0.19526170432E+04 0.  0.
        3    1    3    3  502    0  0.77046485215E+03  0.59736054804E+03  0.50717836751E+03  0.10989475053E+04  0.10100000352E+00 0.  1.
       -3    1    3    3    0  502 -0.77046485215E+03 -0.59736054804E+03  0.39228150404E+03  0.10508760638E+04  0.10100000352E+00 0. -1.
</event>
<event>
 5   0  0.1650221E-04  0.2006157E+04  0.7818609E-02  0.8603747E-01
        1   -1    0    0  501    0  0.00000000000E+00  0.00000000000E+00  0.17790340905E+04  0.17790340905E+04  0.50400001928E-02 0. -1.
       -1   -1    0    0    0  501  0.00000000000E+00  0.00000000000E+00 -0.56556916630E+03  0.56556916632E+03  0.50400001928E-02 0.  1.
    10030    2    1    2    0    0  0.00000000000E+00  0.00000000000E+00  0.12134649242E+04  0.23446032568E+04  0.20061573492E+04 0.  0.
        1    1    3    3  502    0 -0.72795689185E+03  0.11503673196E+03  0.14019767540E+04  0.15838855719E+04  0.50400001928E-02 0. -1.
       -1    1    3    3    0  502  0.72795689185E+03 -0.11503673196E+03 -0.18851182983E+03  0.76071768489E+03  0.50400001928E-02 0.  1.
</event>
<event>
 5   0  0.3431030E-04  0.1979261E+04  0.7818609E-02  0.8616378E-01
        2   -1    0    0  501    0  0.00000000000E+00  0.00000000000E+00  0.10994195135E+04  0.10994195135E+04  0.25500000920E-02 0.  1.
       -2   -1    0    0    0  501  0.00000000000E+00  0.00000000000E+00 -0.89080545377E+03  0.89080545377E+03  0.25500000920E-02 0. -1.
    10030    2    1    2    0    0  0.00000000000E+00  0.00000000000E+00  0.20861405977E+03  0.19902249673E+04  0.19792613760E+04 0.  0.
        3    1    3    3  502    0 -0.79032434481E+03 -0.30396148426E+03 -0.41074478570E+03  0.94112509429E+03  0.10100000352E+00 0. -1.
       -3    1    3    3    0  502  0.79032434481E+03  0.30396148426E+03  0.61935884547E+03  0.10490998730E+04  0.10100000352E+00 0.  1.
</event>
<event>
 5   0  0.3460648E-04  0.2008820E+04  0.7818609E-02  0.8602508E-01
       -2   -1    0    0    0  501  0.00000000000E+00  0.00000000000E+00  0.53758006404E+03  0.53758006404E+03  0.25500000920E-02 0. -1.
        2   -1    0    0  501    0  0.00000000000E+00  0.00000000000E+00 -0.18766318279E+04  0.18766318279E+04  0.25500000920E-02 0.  1.
    10030    2    1    2    0    0  0.00000000000E+00  0.00000000000E+00 -0.13390517638E+04  0.24142118919E+04  0.20088204083E+04 0.  0.
        5    1    3    3  502    0  0.98943329658E+03  0.17124715547E+03 -0.64228087501E+03  0.11919943997E+04  0.46999998093E+01 0. -1.
       -5    1    3    3    0  502 -0.98943329658E+03 -0.17124715547E+03 -0.69677088882E+03  0.12222174922E+04  0.46999998093E+01 0.  1.
</event>
<event>
 5   0  0.1650221E-04  0.2015093E+04  0.7818609E-02  0.8599597E-01
        1   -1    0    0  501    0  0.00000000000E+00  0.00000000000E+00  0.10724383868E+04  0.10724383868E+04  0.50400001928E-02 0. -1.
       -1   -1    0    0    0  501  0.00000000000E+00  0.00000000000E+00 -0.94658116048E+03  0.94658116049E+03  0.50400001928E-02 0.  1.
    10030    2    1    2    0    0  0.00000000000E+00  0.00000000000E+00  0.12585722627E+03  0.20190195473E+04  0.20150930229E+04 0.  0.
        1    1    3    3  502    0 -0.18913723077E+03 -0.78206767066E+02  0.10513907452E+04  0.10711263649E+04  0.50400001928E-02 0. -1.
       -1    1    3    3    0  502  0.18913723077E+03  0.78206767066E+02 -0.92553351892E+03  0.94789318235E+03  0.50400001928E-02 0.  1.
</event>
<event>
 5   0  0.1643565E-04  0.2033810E+04  0.7818609E-02  0.8590975E-01
       -1   -1    0    0    0  501  0.00000000000E+00  0.00000000000E+00  0.59792761242E+03  0.59792761244E+03  0.50400001928E-02 0.  1.
        1   -1    0    0  501    0  0.00000000000E+00  0.00000000000E+00 -0.17294658142E+04  0.17294658142E+04  0.50400001928E-02 0. -1.
    10030    2    1    2    0    0  0.00000000000E+00  0.00000000000E+00 -0.11315382018E+04  0.23273934267E+04  0.20338095929E+04 0.  0.
        2    1    3    3  502    0  0.76333920515E+03 -0.56309323499E+03 -0.98519332168E+03  0.13676134741E+04  0.25500000920E-02 0. -1.
       -2    1    3    3    0  502 -0.76333920515E+03  0.56309323499E+03 -0.14634488011E+03  0.95977995257E+03  0.25500000920E-02 0.  1.
</event>
<event>
 5   0  0.3395569E-04  0.2000051E+04  0.7818609E-02  0.8606597E-01
        2   -1    0    0  501    0  0.00000000000E+00  0.00000000000E+00  0.92095747046E+03  0.92095747046E+03  0.25500000920E-02 0. -1.
       -2   -1    0    0    0  501  0.00000000000E+00  0.00000000000E+00 -0.10858819597E+04  0.10858819597E+04  0.25500000920E-02 0.  1.
    10030    2    1    2    0    0  0.00000000000E+00  0.00000000000E+00 -0.16492448921E+03  0.20068394301E+04  0.20000511021E+04 0.  0.
        4    1    3    3  502    0 -0.55730797409E+03  0.29829564152E+03  0.69507236577E+03  0.93952098130E+03  0.12699999809E+01 0. -1.
       -4    1    3    3    0  502  0.55730797409E+03 -0.29829564152E+03 -0.85999685498E+03  0.10673184488E+04  0.12699999809E+01 0.  1.
</event>
<event>
 5   0  0.3395569E-04  0.1990713E+04  0.7818609E-02  0.8610975E-01
       -2   -1    0    0    0  501  0.00000000000E+00  0.00000000000E+00  0.11395906482E+04  0.11395906482E+04  0.25500000920E-02 0.  1.
        2   -1    0    0  501    0  0.00000000000E+00  0.00000000000E+00 -0.86937793276E+03  0.86937793276E+03  0.25500000920E-02 0. -1.
    10030    2    1    2    0    0  0.00000000000E+00  0.00000000000E+00  0.27021271541E+03  0.20089685809E+04  0.19907134017E+04 0.  0.
        4    1    3    3  502    0 -0.56974073297E+03  0.72023085918E+03  0.52254932082E+03  0.10565966113E+04  0.12699999809E+01 0.  1.
       -4    1    3    3    0  502  0.56974073297E+03 -0.72023085918E+03 -0.25233660541E+03  0.95237196969E+03  0.12699999809E+01 0. -1.
</event>
<event>
 5   0  0.3371947E-04  0.1981285E+04  0.7818609E-02  0.8615421E-01
       -2   -1    0    0    0  501  0.00000000000E+00  0.00000000000E+00  0.91573691307E+03  0.91573691307E+03  0.25500000920E-02 0.  1.
        2   -1    0    0  501    0  0.00000000000E+00  0.00000000000E+00 -0.10716755124E+04  0.10716755124E+04  0.25500000920E-02 0. -1.
    10030    2    1    2    0    0  0.00000000000E+00  0.00000000000E+00 -0.15593859930E+03  0.19874124254E+04  0.19812852652E+04 0.  0.
        2    1    3    3  502    0  0.15056970767E+03 -0.61737307971E+03 -0.84028798163E+03  0.10535201225E+04  0.25500000920E-02 0. -1.
       -2    1    3    3    0  502 -0.15056970767E+03  0.61737307971E+03  0.68434938233E+03  0.93389230295E+03  0.25500000920E-02 0.  1.
</event>
<event>
 5   0  0.3387881E-04  0.1946123E+04  0.7818609E-02  0.8632233E-01
       -2   -1    0    0    0  501  0.00000000000E+00  0.00000000000E+00  0.67149743041E+03  0.67149743042E+03  0.25500000920E-02 0. -1.
        2   -1    0    0  501    0  0.00000000000E+00  0.00000000000E+00 -0.14100552763E+04  0.14100552763E+04  0.25500000920E-02 0.  1.
    10030    2    1    2    0    0  0.00000000000E+00  0.00000000000E+00 -0.73855784589E+03  0.20815527067E+04  0.19461228068E+04 0.  0.
        1    1    3    3  502    0  0.66725550561E+02  0.15524282382E+03 -0.13942426197E+04  0.14044447714E+04  0.50400001928E-02 0.  1.
       -1    1    3    3    0  502 -0.66725550561E+02 -0.15524282382E+03  0.65568477378E+03  0.67710793530E+03  0.50400001928E-02 0. -1.
</event>
<event>
 5   0  0.3395569E-04  0.1854546E+04  0.7818609E-02  0.8677819E-01
        2   -1    0    0  501    0  0.00000000000E+00  0.00000000000E+00  0.87548677059E+03  0.87548677060E+03  0.25500000920E-02 0. -1.
       -2   -1    0    0    0  501  0.00000000000E+00  0.00000000000E+00 -0.98212224238E+03  0.98212224239E+03  0.25500000920E-02 0.  1.
    10030    2    1    2    0    0  0.00000000000E+00  0.00000000000E+00 -0.10663547179E+03  0.18576090130E+04  0.18545457992E+04 0.  0.
        4    1    3    3  502    0  0.41328697587E+03 -0.60961708366E+03 -0.61762587094E+03  0.96119844073E+03  0.12699999809E+01 0.  1.
       -4    1    3    3    0  502 -0.41328697587E+03  0.60961708366E+03  0.51099039915E+03  0.89641057225E+03  0.12699999809E+01 0. -1.
</event>
<event>
 5   0  0.3431030E-04  0.1823682E+04  0.7818609E-02  0.8693806E-01
       -2   -1    0    0    0  501  0.00000000000E+00  0.00000000000E+00  0.71136643165E+03  0.71136643165E+03  0.25500000920E-02 0. -1.
        2   -1    0    0  501    0  0.00000000000E+00  0.00000000000E+00 -0.11688130356E+04  0.11688130356E+04  0.25500000920E-02 0.  1.
    10030    2    1    2    0    0  0.00000000000E+00  0.00000000000E+00 -0.45744660399E+03  0.18801794673E+04  0.18236823829E+04 0.  0.
        3    1    3    3  502    0 -0.28940826256E+03 -0.96638137391E+02  0.65717460668E+03  0.72455127210E+03  0.10100000352E+00 0. -1.
       -3    1    3    3    0  502  0.28940826256E+03  0.96638137391E+02 -0.11146212107E+04  0.11556281952E+04  0.10100000352E+00 0.  1.
</event>
<event>
 5   0  0.1708578E-04  0.1978164E+04  0.7818609E-02  0.8616898E-01
       -1   -1    0    0    0  501  0.00000000000E+00  0.00000000000E+00  0.59108533834E+03  0.59108533836E+03  0.50400001928E-02 0.  1.
        1   -1    0    0  501    0  0.00000000000E+00  0.00000000000E+00 -0.16550620907E+04  0.16550620907E+04  0.50400001928E-02 0. -1.
    10030    2    1    2    0    0  0.00000000000E+00  0.00000000000E+00 -0.10639767524E+04  0.22461474291E+04  0.19781637302E+04 0.  0.
        3    1    3    3  502    0 -0.76341874817E+03 -0.18780067709E+03 -0.12134654999E+04  0.14458823635E+04  0.10100000352E+00 0. -1.
       -3    1    3    3    0  502  0.76341874817E+03  0.18780067709E+03  0.14948874755E+03  0.80026506559E+03  0.10100000352E+00 0.  1.
</event>
<event>
 5   0  0.1708578E-04  0.2003279E+04  0.7818609E-02  0.8605089E-01
        1   -1    0    0  501    0  0.00000000000E+00  0.00000000000E+00  0.57012685084E+03  0.57012685087E+03  0.50400001928E-02 0.  1.
       -1   -1    0    0    0  501  0.00000000000E+00  0.00000000000E+00 -0.17597520955E+04  0.17597520955E+04  0.50400001928E-02 0. -1.
    10030    2    1    2    0    0  0.00000000000E+00  0.00000000000E+00 -0.11896252447E+04  0.23298789464E+04  0.20032792322E+04 0.  0.
        3    1    3    3  502    0 -0.46495703352E+03 -0.70722322426E+03  0.28177980647E+02  0.84684339801E+03  0.10100000352E+00 0.  1.
       -3    1    3    3    0  502  0.46495703352E+03  0.70722322426E+03 -0.12178032253E+04  0.14830355484E+04  0.10100000352E+00 0. -1.
</event>
<event>
 5   0  0.1696052E-04  0.2000420E+04  0.7818609E-02  0.8606424E-01
       -1   -1    0    0    0  501  0.00000000000E+00  0.00000000000E+00  0.94495432680E+03  0.94495432681E+03  0.50400001928E-02 0.  1.
        1   -1    0    0  501    0  0.00000000000E+00  0.00000000000E+00 -0.10586967267E+04  0.10586967267E+04  0.50400001928E-02 0. -1.
    10030    2    1    2    0    0  0.00000000000E+00  0.00000000000E+00 -0.11374239989E+03  0.20036510535E+04  0.20004200086E+04 0.  0.
        4    1    3    3  502    0 -0.90347202370E+03 -0.13704725572E+03 -0.46419103066E+03  0.10249480834E+04  0.12699999809E+01 0. -1.
       -4    1    3    3    0  502  0.90347202370E+03  0.13704725572E+03  0.35044863078E+03  0.97870297007E+03  0.12699999809E+01 0.  1.
</event>
<event>
 5   0  0.1650221E-04  0.1913895E+04  0.7818609E-02  0.8647971E-01
       -1   -1    0    0    0  501  0.00000000000E+00  0.00000000000E+00  0.10099847355E+04  0.10099847355E+04  0.50400001928E-02 0.  1.
        1   -1    0    0  501    0  0.00000000000E+00  0.00000000000E+00 -0.90669496155E+03  0.90669496157E+03  0.50400001928E-02 0. -1.
    10030    2    1    2    0    0  0.00000000000E+00  0.00000000000E+00  0.10328977391E+03  0.19166796970E+04  0.19138945331E+04 0.  0.
        1    1    3    3  502    0  0.52246588875E+03  0.76601481105E+03 -0.18534008395E+03  0.94556874018E+03  0.50400001928E-02 0. -1.
       -1    1    3    3    0  502 -0.52246588875E+03 -0.76601481105E+03  0.28862985786E+03  0.97111095686E+03  0.50400001928E-02 0.  1.
</event>
<event>
 5   0  0.3387881E-04  0.1410773E+04  0.7818609E-02  0.8946057E-01
        2   -1    0    0  501    0  0.00000000000E+00  0.00000000000E+00  0.83134151368E+03  0.83134151369E+03  0.25500000920E-02 0.  1.
       -2   -1    0    0    0  501  0.00000000000E+00  0.00000000000E+00 -0.59851488653E+03  0.59851488654E+03  0.25500000920E-02 0. -1.
    10030    2    1    2    0    0  0.00000000000E+00  0.00000000000E+00  0.23282662715E+03  0.14298564002E+04  0.14107732231E+04 0.  0.
        1    1    3    3  502    0  0.77689634499E+02 -0.69606879407E+03  0.31477435735E+02  0.70109790641E+03  0.50400001928E-02 0. -1.
       -1    1    3    3    0  502 -0.77689634499E+02  0.69606879407E+03  0.20134919142E+03  0.72875849381E+03  0.50400001928E-02 0.  1.
</event>
<event>
 5   0  0.3395569E-04  0.1897536E+04  0.7818609E-02  0.8656084E-01
        2   -1    0    0  501    0  0.00000000000E+00  0.00000000000E+00  0.21814969237E+04  0.21814969237E+04  0.25500000920E-02 0. -1.
       -2   -1    0    0    0  501  0.00000000000E+00  0.00000000000E+00 -0.41263447775E+03  0.41263447776E+03  0.25500000920E-02 0.  1.
    10030    2    1    2    0    0  0.00000000000E+00  0.00000000000E+00  0.17688624460E+04  0.25941314015E+04  0.18975361328E+04 0.  0.
        4    1    3    3  502    0 -0.41080819282E+03  0.59552817570E+03  0.45311429449E+02  0.72489441844E+03  0.12699999809E+01 0.  1.
       -4    1    3    3    0  502  0.41080819282E+03 -0.59552817570E+03  0.17235510165E+04  0.18692369830E+04  0.12699999809E+01 0. -1.
</event>
<event>
 5   0  0.3371947E-04  0.1994534E+04  0.7818609E-02  0.8609180E-01
       -2   -1    0    0    0  501  0.00000000000E+00  0.00000000000E+00  0.11917142007E+04  0.11917142007E+04  0.25500000920E-02 0. -1.
        2   -1    0    0  501    0  0.00000000000E+00  0.00000000000E+00 -0.83454697536E+03  0.83454697536E+03  0.25500000920E-02 0.  1.
    10030    2    1    2    0    0  0.00000000000E+00  0.00000000000E+00  0.35716722535E+03  0.20262611761E+04  0.19945340124E+04 0.  0.
        2    1    3    3  502    0 -0.35336574523E+03 -0.78130336034E+03 -0.33867092027E+03  0.92195459922E+03  0.25500000920E-02 0.  1.
       -2    1    3    3    0  502  0.35336574523E+03  0.78130336034E+03  0.69583814562E+03  0.11043065769E+04  0.25500000920E-02 0. -1.
</event>
<event>
 5   0  0.1664168E-04  0.2027464E+04  0.7818609E-02  0.8593887E-01
       -1   -1    0    0    0  501  0.00000000000E+00  0.00000000000E+00  0.12312833284E+04  0.12312833284E+04  0.50400001928E-02 0. -1.
        1   -1    0    0  501    0  0.00000000000E+00  0.00000000000E+00 -0.83461887731E+03  0.83461887733E+03  0.50400001928E-02 0.  1.
    10030    2    1    2    0    0  0.00000000000E+00  0.00000000000E+00  0.39666445109E+03  0.20659022057E+04  0.20274637449E+04 0.  0.
        5    1    3    3  502    0 -0.60341851748E+03  0.61423182281E+03 -0.34682085534E+03  0.92827874859E+03  0.46999998093E+01 0.  1.
       -5    1    3    3    0  502  0.60341851748E+03 -0.61423182281E+03  0.74348530643E+03  0.11376234571E+04  0.46999998093E+01 0. -1.
</event>
<event>
 5   0  0.1708578E-04  0.1559071E+04  0.7818609E-02  0.8846095E-01
        1   -1    0    0  501    0  0.00000000000E+00  0.00000000000E+00  0.21450120700E+04  0.21450120700E+04  0.50400001928E-02 0. -1.
       -1   -1    0    0    0  501  0.00000000000E+00  0.00000000000E+00 -0.28329699399E+03  0.28329699403E+03  0.50400001928E-02 0.  1.
    10030    2    1    2    0    0  0.00000000000E+00  0.00000000000E+00  0.18617150760E+04  0.24283090640E+04  0.15590708407E+04 0.  0.
        3    1    3    3  502    0  0.16799566614E+03  0.51783385569E+03  0.17998747545E+04  0.18804051660E+04  0.10100000352E+00 0. -1.
       -3    1    3    3    0  502 -0.16799566614E+03 -0.51783385569E+03  0.61840321445E+02  0.54790389805E+03  0.10100000352E+00 0.  1.
</event>
<event>
 5   0  0.3387881E-04  0.1986345E+04  0.7818609E-02  0.8613031E-01
        2   -1    0    0  501    0  0.00000000000E+00  0.00000000000E+00  0.17704104916E+04  0.17704104916E+04  0.25500000920E-02 0. -1.
       -2   -1    0    0    0  501  0.00000000000E+00  0.00000000000E+00 -0.55715440718E+03  0.55715440719E+03  0.25500000920E-02 0.  1.
    10030    2    1    2    0    0  0.00000000000E+00  0.00000000000E+00  0.12132560844E+04  0.23275648988E+04  0.19863453959E+04 0.  0.
        1    1    3    3  502    0  0.19346947903E+03  0.52209634761E+01  0.17480996295E+04  0.17587808313E+04  0.50400001928E-02 0. -1.
       -1    1    3    3    0  502 -0.19346947903E+03 -0.52209634761E+01 -0.53484354505E+03  0.56878406754E+03  0.50400001928E-02 0.  1.
</event>
<event>
 5   0  0.1696052E-04  0.1967034E+04  0.7818609E-02  0.8622191E-01
       -1   -1    0    0    0  501  0.00000000000E+00  0.00000000000E+00  0.39330675034E+03  0.39330675037E+03  0.50400001928E-02 0.  1.
        1   -1    0    0  501    0  0.00000000000E+00  0.00000000000E+00 -0.24594167304E+04  0.24594167304E+04  0.50400001928E-02 0. -1.
    10030    2    1    2    0    0  0.00000000000E+00  0.00000000000E+00 -0.20661099800E+04  0.28527234807E+04  0.19670335045E+04 0.  0.
        4    1    3    3  502    0 -0.20370671883E+03  0.41048058245E+03  0.22902122860E+03  0.51229197916E+03  0.12699999809E+01 0.  1.
       -4    1    3    3    0  502  0.20370671883E+03 -0.41048058245E+03 -0.22951312086E+04  0.23404315016E+04  0.12699999809E+01 0. -1.
</event>
<event>
 5   0  0.1708578E-04  0.1960272E+04  0.7818609E-02  0.8625423E-01
       -1   -1    0    0    0  501  0.00000000000E+00  0.00000000000E+00  0.47254988230E+03  0.47254988233E+03  0.50400001928E-02 0.  1.
        1   -1    0    0  501    0  0.00000000000E+00  0.00000000000E+00 -0.20329422708E+04  0.20329422708E+04  0.50400001928E-02 0. -1.
    10030    2    1    2    0    0  0.00000000000E+00  0.00000000000E+00 -0.15603923885E+04  0.25054921532E+04  0.19602720534E+04 0.  0.
        3    1    3    3  502    0  0.75921858761E+03  0.57549636414E+03 -0.10746050536E+04  0.14361006094E+04  0.10100000352E+00 0.  1.
       -3    1    3    3    0  502 -0.75921858761E+03 -0.57549636414E+03 -0.48578733498E+03  0.10693915438E+04  0.10100000352E+00 0. -1.
</event>
<event>
 5   0  0.1650221E-04  0.2067040E+04  0.7818609E-02  0.8575903E-01
        1   -1    0    0  501    0  0.00000000000E+00  0.00000000000E+00  0.14650349528E+04  0.14650349528E+04  0.50400001928E-02 0.  1.
       -1   -1    0    0    0  501  0.00000000000E+00  0.00000000000E+00 -0.72910426539E+03  0.72910426540E+03  0.50400001928E-02 0. -1.
    10030    2    1    2    0    0  0.00000000000E+00  0.00000000000E+00  0.73593068739E+03  0.21941392182E+04  0.20670396542E+04 0.  0.
        1    1    3    3  502    0 -0.14657498684E+03 -0.10067907334E+04  0.17498615811E+03  0.10323429484E+04  0.50400001928E-02 0. -1.
       -1    1    3    3    0  502  0.14657498684E+03  0.10067907334E+04  0.56094452928E+03  0.11617962698E+04  0.50400001928E-02 0.  1.
</event>
<event>
 5   0  0.1664168E-04  0.1856910E+04  0.7818609E-02  0.8676607E-01
       -1   -1    0    0    0  501  0.00000000000E+00  0.00000000000E+00  0.98274638522E+03  0.98274638523E+03  0.50400001928E-02 0. -1.
        1   -1    0    0  501    0  0.00000000000E+00  0.00000000000E+00 -0.87716277489E+03  0.87716277491E+03  0.50400001928E-02 0.  1.
    10030    2    1    2    0    0  0.00000000000E+00  0.00000000000E+00  0.10558361033E+03  0.18599091601E+04  0.18569098484E+04 0.  0.
        5    1    3    3  502    0 -0.45149320916E+03 -0.80000501440E+03  0.18773995270E+03  0.93761533734E+03  0.46999998093E+01 0. -1.
       -5    1    3    3    0  502  0.45149320916E+03  0.80000501440E+03 -0.82156342368E+02  0.92229382280E+03  0.46999998093E+01 0.  1.
</event>
<event>
 5   0  0.1708578E-04  0.2024236E+04  0.7818609E-02  0.8595373E-01
        1   -1    0    0  501    0  0.00000000000E+00  0.00000000000E+00  0.15026182069E+04  0.15026182069E+04  0.50400001928E-02 0.  1.
       -1   -1    0    0    0  501  0.00000000000E+00  0.00000000000E+00 -0.68173189451E+03  0.68173189453E+03  0.50400001928E-02 0. -1.
    10030    2    1    2    0    0  0.00000000000E+00  0.00000000000E+00  0.82088631240E+03  0.21843501014E+04  0.20242359121E+04 0.  0.
        3    1    3    3  502    0  0.14937760605E+03 -0.13043164393E+02 -0.66967951837E+03  0.68626121911E+03  0.10100000352E+00 0. -1.
       -3    1    3    3    0  502 -0.14937760605E+03  0.13043164393E+02  0.14905658308E+04  0.14980888823E+04  0.10100000352E+00 0.  1.
</event>
<event>
 5   0  0.3395569E-04  0.1871543E+04  0.7818609E-02  0.8669152E-01
        2   -1    0    0  501    0  0.00000000000E+00  0.00000000000E+00  0.71425329730E+03  0.71425329730E+03  0.25500000920E-02 0. -1.
       -2   -1    0    0    0  501  0.00000000000E+00  0.00000000000E+00 -0.12259909066E+04  0.12259909066E+04  0.25500000920E-02 0.  1.
    10030    2    1    2    0    0  0.00000000000E+00  0.00000000000E+00 -0.51173760928E+03  0.19402442039E+04  0.18715427299E+04 0.  0.
        4    1    3    3  502    0 -0.88788734451E+03  0.28065402091E+03 -0.15997568858E+03  0.94483038152E+03  0.12699999809E+01 0. -1.
       -4    1    3    3    0  502  0.88788734451E+03 -0.28065402091E+03 -0.35176192071E+03  0.99541382237E+03  0.12699999809E+01 0.  1.
</event>
<event>
 5   0  0.3387881E-04  0.2038997E+04  0.7818609E-02  0.8588602E-01
       -2   -1    0    0    0  501  0.00000000000E+00  0.00000000000E+00  0.11259693902E+04  0.11259693902E+04  0.25500000920E-02 0. -1.
        2   -1    0    0  501    0  0.00000000000E+00  0.00000000000E+00 -0.92309517734E+03  0.92309517735E+03  0.25500000920E-02 0.  1.
    10030    2    1    2    0    0  0.00000000000E+00  0.00000000000E+00  0.20287421282E+03  0.20490645675E+04  0.20389967277E+04 0.  0.
        1    1    3    3  502    0  0.87137249836E+03  0.62074476219E+02  0.62961156980E+03  0.10768258914E+04  0.50400001928E-02 0. -1.
       -1    1    3    3    0  502 -0.87137249836E+03 -0.62074476219E+02 -0.42673735698E+03  0.97223867613E+03  0.50400001928E-02 0.  1.
</event>
<event>
 5   0  0.1696052E-04  0.2005425E+04  0.7818609E-02  0.8604088E-01
        1   -1    0    0  501    0  0.00000000000E+00  0.00000000000E+00  0.14880784296E+04  0.14880784296E+04  0.50400001928E-02 0. -1.
       -1   -1    0    0    0  501  0.00000000000E+00  0.00000000000E+00 -0.67565843187E+03  0.67565843189E+03  0.50400001928E-02 0.  1.
    10030    2    1    2    0    0  0.00000000000E+00  0.00000000000E+00  0.81241999774E+03  0.21637368615E+04  0.20054253796E+04 0.  0.
        4    1    3    3  502    0  0.24470907016E+03 -0.56872326176E+03 -0.44478869217E+03  0.76234327640E+03  0.12699999809E+01 0.  1.
       -4    1    3    3    0  502 -0.24470907016E+03  0.56872326176E+03  0.12572086899E+04  0.14013935851E+04  0.12699999809E+01 0. -1.
</event>
<event>
 5   0  0.3460648E-04  0.1985204E+04  0.7818609E-02  0.8613570E-01
        2   -1    0    0  501    0  0.00000000000E+00  0.00000000000E+00  0.14548329675E+04  0.14548329675E+04  0.25500000920E-02 0.  1.
       -2   -1    0    0    0  501  0.00000000000E+00  0.00000000000E+00 -0.67723158349E+03  0.67723158350E+03  0.25500000920E-02 0. -1.
    10030    2    1    2    0    0  0.00000000000E+00  0.00000000000E+00  0.77760138402E+03  0.21320645510E+04  0.19852041047E+04 0.  0.
        5    1    3    3  502    0  0.21977678335E+03 -0.38051462490E+03  0.13446669352E+04  0.14146534808E+04  0.46999998093E+01 0.  1.
       -5    1    3    3    0  502 -0.21977678335E+03  0.38051462490E+03 -0.56706555118E+03  0.71741107016E+03  0.46999998093E+01 0. -1.
</event>
<event>
 5   0  0.1696052E-04  0.1431996E+04  0.7818609E-02  0.8930978E-01
        1   -1    0    0  501    0  0.00000000000E+00  0.00000000000E+00  0.13038863135E+04  0.13038863135E+04  0.50400001928E-02 0. -1.
       -1   -1    0    0    0  501  0.00000000000E+00  0.00000000000E+00 -0.39317319050E+03  0.39317319054E+03  0.50400001928E-02 0.  1.
    10030    2    1    2    0    0  0.00000000000E+00  0.00000000000E+00  0.91071312302E+03  0.16970595041E+04  0.14319960083E+04 0.  0.
        4    1    3    3  502    0 -0.72236555034E+02 -0.33286059928E+03 -0.29100970340E+03  0.44799839152E+03  0.12699999809E+01 0.  1.
       -4    1    3    3    0  502  0.72236555034E+02  0.33286059928E+03  0.12017228264E+04  0.12490611125E+04  0.12699999809E+01 0. -1.
</event>
<event>
 5   0  0.1650221E-04  0.1933855E+04  0.7818609E-02  0.8638186E-01
        1   -1    0    0  501    0  0.00000000000E+00  0.00000000000E+00  0.10707485962E+04  0.10707485962E+04  0.50400001928E-02 0.  1.
       -1   -1    0    0    0  501  0.00000000000E+00  0.00000000000E+00 -0.87317319199E+03  0.87317319200E+03  0.50400001928E-02 0. -1.
    10030    2    1    2    0    0  0.00000000000E+00  0.00000000000E+00  0.19757540420E+03  0.19439217882E+04  0.19338551855E+04 0.  0.
        1    1    3    3  502    0 -0.38136159214E+03 -0.86499226192E+03 -0.10549589883E+03  0.95119801400E+03  0.50400001928E-02 0. -1.
       -1    1    3    3    0  502  0.38136159214E+03  0.86499226192E+03  0.30307130303E+03  0.99272377421E+03  0.50400001928E-02 0.  1.
</event>
<event>
 5   0  0.1650221E-04  0.2026049E+04  0.7818609E-02  0.8594538E-01
       -1   -1    0    0    0  501  0.00000000000E+00  0.00000000000E+00  0.91541799939E+03  0.91541799940E+03  0.50400001928E-02 0. -1.
        1   -1    0    0  501    0  0.00000000000E+00  0.00000000000E+00 -0.11210387266E+04  0.11210387266E+04  0.50400001928E-02 0.  1.
    10030    2    1    2    0    0  0.00000000000E+00  0.00000000000E+00 -0.20562072719E+03  0.20364567260E+04  0.20260493857E+04 0.  0.
        1    1    3    3  502    0 -0.69690010919E+03 -0.56659544364E+02 -0.83960986746E+03  0.10926228973E+04  0.50400001928E-02 0.  1.
       -1    1    3    3    0  502  0.69690010919E+03  0.56659544364E+02  0.63398914027E+03  0.94383382869E+03  0.50400001928E-02 0. -1.
</event>
<event>
 5   0  0.1708578E-04  0.1992302E+04  0.7818609E-02  0.8610228E-01
       -1   -1    0    0    0  501  0.00000000000E+00  0.00000000000E+00  0.81063218293E+03  0.81063218294E+03  0.50400001928E-02 0. -1.
        1   -1    0    0  501    0  0.00000000000E+00  0.00000000000E+00 -0.12241270840E+04  0.12241270840E+04  0.50400001928E-02 0.  1.
    10030    2    1    2    0    0  0.00000000000E+00  0.00000000000E+00 -0.41349490111E+03  0.20347592670E+04  0.19923019955E+04 0.  0.
        3    1    3    3  502    0 -0.94219275480E+03  0.29763251415E+03 -0.33595232945E+03  0.10436360853E+04  0.10100000352E+00 0.  1.
       -3    1    3    3    0  502  0.94219275480E+03 -0.29763251415E+03 -0.77542571661E+02  0.99112318169E+03  0.10100000352E+00 0. -1.
</event>
<event>
 5   0  0.3460648E-04  0.2047550E+04  0.7818609E-02  0.8584706E-01
       -2   -1    0    0    0  501  0.00000000000E+00  0.00000000000E+00  0.45010918612E+03  0.45010918612E+03  0.25500000920E-02 0.  1.
        2   -1    0    0  501    0  0.00000000000E+00  0.00000000000E+00 -0.23285809798E+04  0.23285809798E+04  0.25500000920E-02 0. -1.
    10030    2    1    2    0    0  0.00000000000E+00  0.00000000000E+00 -0.18784717936E+04  0.27786901659E+04  0.20475504288E+04 0.  0.
        5    1    3    3  502    0 -0.17018739190E+03 -0.91622468756E+03 -0.15144557164E+04  0.17782096709E+04  0.46999998093E+01 0. -1.
       -5    1    3    3    0  502  0.17018739190E+03  0.91622468756E+03 -0.36401607719E+03  0.10004804950E+04  0.46999998093E+01 0.  1.
</event>
<event>
 5   0  0.3387881E-04  0.1797856E+04  0.7818609E-02  0.8707441E-01
       -2   -1    0    0    0  501  0.00000000000E+00  0.00000000000E+00  0.13045961153E+04  0.13045961153E+04  0.25500000920E-02 0. -1.
        2   -1    0    0  501    0  0.00000000000E+00  0.00000000000E+00 -0.61940346758E+03  0.61940346759E+03  0.25500000920E-02 0.  1.
    10030    2    1    2    0    0  0.00000000000E+00  0.00000000000E+00  0.68519264770E+03  0.19239995829E+04  0.17978557869E+04 0.  0.
        1    1    3    3  502    0  0.59919718071E+03 -0.63112900569E+03  0.58358581325E+03  0.10478232125E+04  0.50400001928E-02 0. -1.
       -1    1    3    3    0  502 -0.59919718071E+03  0.63112900569E+03  0.10160683445E+03  0.87617637039E+03  0.50400001928E-02 0.  1.
</event>
<event>
 5   0  0.1696052E-04  0.1917266E+04  0.7818609E-02  0.8646309E-01
       -1   -1    0    0    0  501  0.00000000000E+00  0.00000000000E+00  0.39584437335E+03  0.39584437338E+03  0.50400001928E-02 0. -1.
        1   -1    0    0  501    0  0.00000000000E+00  0.00000000000E+00 -0.23215622565E+04  0.23215622565E+04  0.50400001928E-02 0.  1.
    10030    2    1    2    0    0  0.00000000000E+00  0.00000000000E+00 -0.19257178832E+04  0.27174066299E+04  0.19172661335E+04 0.  0.
        4    1    3    3  502    0 -0.42859038231E+03  0.56167145811E+03 -0.44527950776E+02  0.70791870576E+03  0.12699999809E+01 0. -1.
       -4    1    3    3    0  502  0.42859038231E+03 -0.56167145811E+03 -0.18811899324E+04  0.20094879242E+04  0.12699999809E+01 0.  1.
</event>
<event>
 5   0  0.1708578E-04  0.1969786E+04  0.7818609E-02  0.8620878E-01
        1   -1    0    0  501    0  0.00000000000E+00  0.00000000000E+00  0.17675269791E+04  0.17675269791E+04  0.50400001928E-02 0.  1.
       -1   -1    0    0    0  501  0.00000000000E+00  0.00000000000E+00 -0.54879750595E+03  0.54879750598E+03  0.50400001928E-02 0. -1.
    10030    2    1    2    0    0  0.00000000000E+00  0.00000000000E+00  0.12187294732E+04  0.23163244851E+04  0.19697861791E+04 0.  0.
        3    1    3    3  502    0 -0.74035599814E+03  0.64705383660E+03  0.54275373448E+03  0.11231149976E+04  0.10100000352E+00 0.  1.
       -3    1    3    3    0  502  0.74035599814E+03 -0.64705383660E+03  0.67597573867E+03  0.11932094874E+04  0.10100000352E+00 0. -1.
</event>
<event>
 5   0  0.3460648E-04  0.1996855E+04  0.7818609E-02  0.8608093E-01
        2   -1    0    0  501    0  0.00000000000E+00  0.00000000000E+00  0.99921561381E+03  0.99921561381E+03  0.25500000920E-02 0. -1.
       -2   -1    0    0    0  501  0.00000000000E+00  0.00000000000E+00 -0.99763982909E+03  0.99763982909E+03  0.25500000920E-02 0.  1.
    10030    2    1    2    0    0  0.00000000000E+00  0.00000000000E+00  0.15757847214E+01  0.19968554429E+04  0.19968548211E+04 0.  0.
        5    1    3    3  502    0  0.12688348892E+03 -0.45313088835E+03 -0.87978502644E+03  0.99773283221E+03  0.46999998093E+01 0.  1.
       -5    1    3    3    0  502 -0.12688348892E+03  0.45313088835E+03  0.88136081116E+03  0.99912261068E+03  0.46999998093E+01 0. -1.
</event>
<event>
 5   0  0.1708578E-04  0.1998399E+04  0.7818609E-02  0.8607369E-01
       -1   -1    0    0    0  501  0.00000000000E+00  0.00000000000E+00  0.60152587914E+03  0.60152587916E+03  0.50400001928E-02 0.  1.
        1   -1    0    0  501    0  0.00000000000E+00  0.00000000000E+00 -0.16597786166E+04  0.16597786166E+04  0.50400001928E-02 0. -1.
    10030    2    1    2    0    0  0.00000000000E+00  0.00000000000E+00 -0.10582527374E+04  0.22613044957E+04  0.19983991509E+04 0.  0.
        3    1    3    3  502    0 -0.42501047226E+03  0.73240598001E+03  0.71076728304E+02  0.84976722259E+03  0.10100000352E+00 0.  1.
       -3    1    3    3    0  502  0.42501047226E+03 -0.73240598001E+03 -0.11293294657E+04  0.14115372731E+04  0.10100000352E+00 0. -1.
</event>
<event>
 5   0  0.1708578E-04  0.2023137E+04  0.7818609E-02  0.8595879E-01
        1   -1    0    0  501    0  0.00000000000E+00  0.00000000000E+00  0.14551890045E+04  0.14551890046E+04  0.50400001928E-02 0. -1.
       -1   -1    0    0    0  501  0.00000000000E+00  0.00000000000E+00 -0.70318780914E+03  0.70318780916E+03  0.50400001928E-02 0.  1.
    10030    2    1    2    0    0  0.00000000000E+00  0.00000000000E+00  0.75200119541E+03  0.21583768137E+04  0.20231373340E+04 0.  0.
        3    1    3    3  502    0 -0.53274814709E+03  0.58175766628E+03 -0.29958244317E+03  0.84380816597E+03  0.10100000352E+00 0.  1.
       -3    1    3    3    0  502  0.53274814709E+03 -0.58175766628E+03  0.10515836386E+04  0.13145686477E+04  0.10100000352E+00 0. -1.
</event>
<event>
 5   0  0.3395569E-04  0.1862320E+04  0.7818609E-02  0.8673843E-01
       -2   -1    0    0    0  501  0.00000000000E+00  0.00000000000E+00  0.75522123277E+03  0.75522123277E+03  0.25500000920E-02 0. -1.
        2   -1    0    0  501    0  0.00000000000E+00  0.00000000000E+00 -0.11480864196E+04  0.11480864196E+04  0.25500000920E-02 0.  1.
    10030    2    1    2    0    0  0.00000000000E+00  0.00000000000E+00 -0.39286518682E+03  0.19033076524E+04  0.18623203174E+04 0.  0.
        4    1    3    3  502    0  0.73506119455E+03  0.99544132292E+02 -0.77170064021E+03  0.10703959478E+04  0.12699999809E+01 0.  1.
       -4    1    3    3    0  502 -0.73506119455E+03 -0.99544132292E+02  0.37883545339E+03  0.83291170460E+03  0.12699999809E+01 0. -1.
</event>
<event>
 5   0  0.3371947E-04  0.2049944E+04  0.7818609E-02  0.8583620E-01
       -2   -1    0    0    0  501  0.00000000000E+00  0.00000000000E+00  0.49141652524E+03  0.49141652525E+03  0.25500000920E-02 0. -1.
        2   -1    0    0  501    0  0.00000000000E+00  0.00000000000E+00 -0.21378351165E+04  0.21378351165E+04  0.25500000920E-02 0.  1.
    10030    2    1    2    0    0  0.00000000000E+00  0.00000000000E+00 -0.16464185913E+04  0.26292516417E+04  0.20499439061E+04 0.  0.
        2    1    3    3  502    0  0.68986763248E+03 -0.71834228921E+03 -0.51263405860E+03  0.11201458266E+04  0.25500000920E-02 0.  1.
       -2    1    3    3    0  502 -0.68986763248E+03  0.71834228921E+03 -0.11337845327E+04  0.15091058151E+04  0.25500000920E-02 0. -1.
</event>
<event>
 5   0  0.1643565E-04  0.2013682E+04  0.7818609E-02  0.8600250E-01
       -1   -1    0    0    0  501  0.00000000000E+00  0.00000000000E+00  0.95924648248E+03  0.95924648249E+03  0.50400001928E-02 0.  1.
        1   -1    0    0  501    0  0.00000000000E+00  0.00000000000E+00 -0.10567970951E+04  0.10567970951E+04  0.50400001928E-02 0. -1.
    10030    2    1    2    0    0  0.00000000000E+00  0.00000000000E+00 -0.97550612605E+02  0.20160435776E+04  0.20136820962E+04 0.  0.
        2    1    3    3  502    0  0.10471742263E+03 -0.51821593166E+03 -0.90664386897E+03  0.10495316077E+04  0.25500000920E-02 0. -1.
       -2    1    3    3    0  502 -0.10471742263E+03  0.51821593166E+03  0.80909325636E+03  0.96651196988E+03  0.25500000920E-02 0.  1.
</event>
<event>
 5   0  0.3371947E-04  0.1884196E+04  0.7818609E-02  0.8662763E-01
       -2   -1    0    0    0  501  0.00000000000E+00  0.00000000000E+00  0.10434457328E+04  0.10434457328E+04  0.25500000920E-02 0. -1.
        2   -1    0    0  501    0  0.00000000000E+00  0.00000000000E+00 -0.85059382667E+03  0.85059382667E+03  0.25500000920E-02 0.  1.
    10030    2    1    2    0    0  0.00000000000E+00  0.00000000000E+00  0.19285190618E+03  0.18940395595E+04  0.18841958484E+04 0.  0.
        2    1    3    3  502    0 -0.41926425378E+03  0.83843145268E+03  0.19071730239E+03  0.95662056468E+03  0.25500000920E-02 0. -1.
       -2    1    3    3    0  502  0.41926425378E+03 -0.83843145268E+03  0.21346037828E+01  0.93741899484E+03  0.25500000920E-02 0.  1.
</event>
<event>
 5   0  0.1643565E-04  0.2031670E+04  0.7818609E-02  0.8591955E-01
       -1   -1    0    0    0  501  0.00000000000E+00  0.00000000000E+00  0.10923536499E+04  0.10923536499E+04  0.50400001928E-02 0. -1.
        1   -1    0    0  501    0  0.00000000000E+00  0.00000000000E+00 -0.94467686032E+03  0.94467686033E+03  0.50400001928E-02 0.  1.
    10030    2    1    2    0    0  0.00000000000E+00  0.00000000000E+00  0.14767678958E+03  0.20370305102E+04  0.20316704618E+04 0.  0.
        2    1    3    3  502    0  0.66612536306E+03  0.51869569305E+03  0.64026511143E+03  0.10595789891E+04  0.25500000920E-02 0.  1.
       -2    1    3    3    0  502 -0.66612536306E+03 -0.51869569305E+03 -0.49258832184E+03  0.97745152111E+03  0.25500000920E-02 0. -1.
</event>
<event>
 5   0  0.1222488E-04  0.1735331E+04  0.7818609E-02  0.8741466E-01
        3   -1    0    0  501    0  0.00000000000E+00  0.00000000000E+00  0.50069635135E+03  0.50069636154E+03  0.10100000352E+00 0.  1.
       -3   -1    0    0    0  501  0.00000000000E+00  0.00000000000E+00 -0.15035925866E+04  0.15035925899E+04  0.10100000352E+00 0. -1.
    10030    2    1    2    0    0  0.00000000000E+00  0.00000000000E+00 -0.10028962352E+04  0.20042889515E+04  0.17353309029E+04 0.  0.
        5    1    3    3  502    0  0.20651075686E+03 -0.58387696297E+03 -0.12033000251E+04  0.13533336769E+04  0.46999998093E+01 0. -1.
       -5    1    3    3    0  502 -0.20651075686E+03  0.58387696297E+03  0.20040378986E+03  0.65095527464E+03  0.46999998093E+01 0.  1.
</event>
<event>
 5   0  0.1650221E-04  0.1956935E+04  0.7818609E-02  0.8627024E-01
       -1   -1    0    0    0  501  0.00000000000E+00  0.00000000000E+00  0.69164653810E+03  0.69164653812E+03  0.50400001928E-02 0.  1.
        1   -1    0    0  501    0  0.00000000000E+00  0.00000000000E+00 -0.13842309298E+04  0.13842309298E+04  0.50400001928E-02 0. -1.
    10030    2    1    2    0    0  0.00000000000E+00  0.00000000000E+00 -0.69258439170E+03  0.20758774679E+04  0.19569348794E+04 0.  0.
        1    1    3    3  502    0  0.48470036000E+02  0.69418095376E+03  0.38338414639E+03  0.79449351456E+03  0.50400001928E-02 0.  1.
       -1    1    3    3    0  502 -0.48470036000E+02 -0.69418095376E+03 -0.10759685381E+04  0.12813839534E+04  0.50400001928E-02 0. -1.
</event>
<event>
 5   0  0.3371947E-04  0.1480587E+04  0.7818609E-02  0.8897466E-01
        2   -1    0    0  501    0  0.00000000000E+00  0.00000000000E+00  0.11957776601E+04  0.11957776601E+04  0.25500000920E-02 0.  1.
       -2   -1    0    0    0  501  0.00000000000E+00  0.00000000000E+00 -0.45830802726E+03  0.45830802726E+03  0.25500000920E-02 0. -1.
    10030    2    1    2    0    0  0.00000000000E+00  0.00000000000E+00  0.73746963282E+03  0.16540856873E+04  0.14805870463E+04 0.  0.
        2    1    3    3  502    0 -0.56858608857E+02  0.40184913555E+03 -0.32294349614E+03  0.51865993758E+03  0.25500000920E-02 0. -1.
       -2    1    3    3    0  502  0.56858608857E+02 -0.40184913555E+03  0.10604131290E+04  0.11354257498E+04  0.25500000920E-02 0.  1.
</event>
<event>
 5   0  0.3395569E-04  0.2114656E+04  0.7818609E-02  0.8554815E-01
        2   -1    0    0  501    0  0.00000000000E+00  0.00000000000E+00  0.12263292511E+04  0.12263292511E+04  0.25500000920E-02 0. -1.
       -2   -1    0    0    0  501  0.00000000000E+00  0.00000000000E+00 -0.91161654101E+03  0.91161654101E+03  0.25500000920E-02 0.  1.
    10030    2    1    2    0    0  0.00000000000E+00  0.00000000000E+00  0.31471271007E+03  0.21379457921E+04  0.21146555559E+04 0.  0.
        4    1    3    3  502    0  0.84397559448E+03 -0.59616471360E+03  0.38395258428E+03  0.11023286124E+04  0.12699999809E+01 0. -1.
       -4    1    3    3    0  502 -0.84397559448E+03  0.59616471360E+03 -0.69239874216E+02  0.10356171797E+04  0.12699999809E+01 0.  1.
</event>
<event>
 5   0  0.3387881E-04  0.1975298E+04  0.7818609E-02  0.8618258E-01
       -2   -1    0    0    0  501  0.00000000000E+00  0.00000000000E+00  0.11109960423E+04  0.11109960423E+04  0.25500000920E-02 0. -1.
        2   -1    0    0  501    0  0.00000000000E+00  0.00000000000E+00 -0.87799617328E+03  0.87799617328E+03  0.25500000920E-02 0.  1.
    10030    2    1    2    0    0  0.00000000000E+00  0.00000000000E+00  0.23299986900E+03  0.19889922156E+04  0.19752977230E+04 0.  0.
        1    1    3    3  502    0  0.29981515375E+03 -0.93959931706E+03  0.16895979006E+03  0.10006415011E+04  0.50400001928E-02 0. -1.
       -1    1    3    3    0  502 -0.29981515375E+03  0.93959931706E+03  0.64040078937E+02  0.98835071446E+03  0.50400001928E-02 0.  1.
</event>
<event>
 5   0  0.3387881E-04  0.1996852E+04  0.7818609E-02  0.8608094E-01
       -2   -1    0    0    0  501  0.00000000000E+00  0.00000000000E+00  0.13626560874E+04  0.13626560874E+04  0.25500000920E-02 0.  1.
        2   -1    0    0  501    0  0.00000000000E+00  0.00000000000E+00 -0.73155224581E+03  0.73155224581E+03  0.25500000920E-02 0. -1.
    10030    2    1    2    0    0  0.00000000000E+00  0.00000000000E+00  0.63110384154E+03  0.20942083332E+04  0.19968516429E+04 0.  0.
        1    1    3    3  502    0  0.99614068568E+02  0.69842956407E+03  0.10564863004E+04  0.12703897518E+04  0.50400001928E-02 0.  1.
       -1    1    3    3    0  502 -0.99614068568E+02 -0.69842956407E+03 -0.42538245885E+03  0.82381858133E+03  0.50400001928E-02 0. -1.
</event>
<event>
 5   0  0.1643565E-04  0.1994805E+04  0.7818609E-02  0.8609053E-01
        1   -1    0    0  501    0  0.00000000000E+00  0.00000000000E+00  0.20566588863E+04  0.20566588863E+04  0.50400001928E-02 0.  1.
       -1   -1    0    0    0  501  0.00000000000E+00  0.00000000000E+00 -0.48370286001E+03  0.48370286004E+03  0.50400001928E-02 0. -1.
    10030    2    1    2    0    0  0.00000000000E+00  0.00000000000E+00  0.15729560263E+04  0.25403617463E+04  0.19948050385E+04 0.  0.
        2    1    3    3  502    0  0.47147442783E+03  0.87360300542E+03  0.90956212061E+03  0.13463928099E+04  0.25500000920E-02 0. -1.
       -2    1    3    3    0  502 -0.47147442783E+03 -0.87360300542E+03  0.66339390566E+03  0.11939689365E+04  0.25500000920E-02 0.  1.
</event>
<event>
 5   0  0.1222488E-04  0.9954058E+03  0.7818609E-02  0.9313598E-01
       -4   -1    0    0    0  501  0.00000000000E+00  0.00000000000E+00  0.34230694202E+03  0.34230929794E+03  0.12699999809E+01 0. -1.
        4   -1    0    0  501    0  0.00000000000E+00  0.00000000000E+00 -0.72363807758E+03  0.72363919202E+03  0.12699999809E+01 0.  1.
    10030    2    1    2    0    0  0.00000000000E+00  0.00000000000E+00 -0.38133113556E+03  0.10659484900E+04  0.99540582091E+03 0.  0.
        5    1    3    3  502    0 -0.21295886671E+01  0.25347897543E+03  0.26797365338E+03  0.36890119956E+03  0.46999998093E+01 0. -1.
       -5    1    3    3    0  502  0.21295886671E+01 -0.25347897543E+03 -0.64930478893E+03  0.69704729041E+03  0.46999998093E+01 0.  1.
</event>
<event>
 5   0  0.3387881E-04  0.2063649E+04  0.7818609E-02  0.8577427E-01
        2   -1    0    0  501    0  0.00000000000E+00  0.00000000000E+00  0.10189168992E+04  0.10189168992E+04  0.25500000920E-02 0.  1.
       -2   -1    0    0    0  501  0.00000000000E+00  0.00000000000E+00 -0.10448958548E+04  0.10448958548E+04  0.25500000920E-02 0. -1.
    10030    2    1    2    0    0  0.00000000000E+00  0.00000000000E+00 -0.25978955571E+02  0.20638127540E+04  0.20636492380E+04 0.  0.
        1    1    3    3  502    0  0.47306656010E+03 -0.22505747096E+01  0.90407009954E+03  0.10203625730E+04  0.50400001928E-02 0.  1.
       -1    1    3    3    0  502 -0.47306656010E+03  0.22505747096E+01 -0.93004905511E+03  0.10434501810E+04  0.50400001928E-02 0. -1.
</event>
<event>
 5   0  0.3460648E-04  0.1984837E+04  0.7818609E-02  0.8613743E-01
        2   -1    0    0  501    0  0.00000000000E+00  0.00000000000E+00  0.93824953530E+03  0.93824953531E+03  0.25500000920E-02 0.  1.
       -2   -1    0    0    0  501  0.00000000000E+00  0.00000000000E+00 -0.10497151588E+04  0.10497151588E+04  0.25500000920E-02 0. -1.
    10030    2    1    2    0    0  0.00000000000E+00  0.00000000000E+00 -0.11146562353E+03  0.19879646941E+04  0.19848372830E+04 0.  0.
        5    1    3    3  502    0  0.57295395628E+03 -0.53004782833E+03 -0.66959797572E+03  0.10284019036E+04  0.46999998093E+01 0. -1.
       -5    1    3    3    0  502 -0.57295395628E+03  0.53004782833E+03  0.55813235219E+03  0.95956279049E+03  0.46999998093E+01 0.  1.
</event>
<event>
 5   0  0.3395569E-04  0.2221260E+04  0.7818609E-02  0.8509631E-01
        2   -1    0    0  501    0  0.00000000000E+00  0.00000000000E+00  0.22641007337E+04  0.22641007337E+04  0.25500000920E-02 0. -1.
       -2   -1    0    0    0  501  0.00000000000E+00  0.00000000000E+00 -0.54480758711E+03  0.54480758712E+03  0.25500000920E-02 0.  1.
    10030    2    1    2    0    0  0.00000000000E+00  0.00000000000E+00  0.17192931466E+04  0.28089083208E+04  0.22212602348E+04 0.  0.
        4    1    3    3  502    0 -0.52454616883E+03  0.43497539681E+01 -0.37828224705E+03  0.64673539792E+03  0.12699999809E+01 0.  1.
       -4    1    3    3    0  502  0.52454616883E+03 -0.43497539681E+01  0.20975753937E+04  0.21621729229E+04  0.12699999809E+01 0. -1.
</event>
<event>
 5   0  0.1650221E-04  0.1993713E+04  0.7818609E-02  0.8609566E-01
        1   -1    0    0  501    0  0.00000000000E+00  0.00000000000E+00  0.50096876265E+03  0.50096876268E+03  0.50400001928E-02 0.  1.
       -1   -1    0    0    0  501  0.00000000000E+00  0.00000000000E+00 -0.19836018761E+04  0.19836018761E+04  0.50400001928E-02 0. -1.
    10030    2    1    2    0    0  0.00000000000E+00  0.00000000000E+00 -0.14826331135E+04  0.24845706388E+04  0.19937126950E+04 0.  0.
        1    1    3    3  502    0 -0.20220021614E+03 -0.84048035248E+03 -0.13599536255E+04  0.16114484211E+04  0.50400001928E-02 0. -1.
       -1    1    3    3    0  502  0.20220021614E+03  0.84048035248E+03 -0.12267948800E+03  0.87312221774E+03  0.50400001928E-02 0.  1.
</event>
<event>
 5   0  0.3431030E-04  0.1808211E+04  0.7818609E-02  0.8701945E-01
       -2   -1    0    0    0  501  0.00000000000E+00  0.00000000000E+00  0.47753117796E+03  0.47753117796E+03  0.25500000920E-02 0.  1.
        2   -1    0    0  501    0  0.00000000000E+00  0.00000000000E+00 -0.17117355450E+04  0.17117355450E+04  0.25500000920E-02 0. -1.
    10030    2    1    2    0    0  0.00000000000E+00  0.00000000000E+00 -0.12342043670E+04  0.21892667230E+04  0.18082113717E+04 0.  0.
        3    1    3    3  502    0 -0.48029950334E+03  0.76426655258E+03 -0.55517561197E+03  0.10597221082E+04  0.10100000352E+00 0.  1.
       -3    1    3    3    0  502  0.48029950334E+03 -0.76426655258E+03 -0.67902875507E+03  0.11295446147E+04  0.10100000352E+00 0. -1.
</event>
<event>
 5   0  0.3387881E-04  0.2008447E+04  0.7818609E-02  0.8602681E-01
       -2   -1    0    0    0  501  0.00000000000E+00  0.00000000000E+00  0.91775819721E+03  0.91775819721E+03  0.25500000920E-02 0.  1.
        2   -1    0    0  501    0  0.00000000000E+00  0.00000000000E+00 -0.10988354245E+04  0.10988354245E+04  0.25500000920E-02 0. -1.
    10030    2    1    2    0    0  0.00000000000E+00  0.00000000000E+00 -0.18107722725E+03  0.20165936217E+04  0.20084473786E+04 0.  0.
        1    1    3    3  502    0 -0.62300373603E+03  0.90092044897E+01 -0.88129272220E+03  0.10793014792E+04  0.50400001928E-02 0. -1.
       -1    1    3    3    0  502  0.62300373603E+03 -0.90092044897E+01  0.70021549495E+03  0.93729214243E+03  0.50400001928E-02 0.  1.
</event>
<event>
 5   0  0.1696052E-04  0.1961276E+04  0.7818609E-02  0.8624942E-01
       -1   -1    0    0    0  501  0.00000000000E+00  0.00000000000E+00  0.48297061934E+03  0.48297061937E+03  0.50400001928E-02 0. -1.
        1   -1    0    0  501    0  0.00000000000E+00  0.00000000000E+00 -0.19911170408E+04  0.19911170408E+04  0.50400001928E-02 0.  1.
    10030    2    1    2    0    0  0.00000000000E+00  0.00000000000E+00 -0.15081464215E+04  0.24740876602E+04  0.19612761462E+04 0.  0.
        4    1    3    3  502    0 -0.68345928473E+03 -0.29457881324E+03  0.51447284756E+02  0.74601722976E+03  0.12699999809E+01 0. -1.
       -4    1    3    3    0  502  0.68345928473E+03  0.29457881324E+03 -0.15595937062E+04  0.17280704304E+04  0.12699999809E+01 0.  1.
</event>
<event>
 5   0  0.3431030E-04  0.2012574E+04  0.7818609E-02  0.8600764E-01
       -2   -1    0    0    0  501  0.00000000000E+00  0.00000000000E+00  0.61689484623E+03  0.61689484624E+03  0.25500000920E-02 0.  1.
        2   -1    0    0  501    0  0.00000000000E+00  0.00000000000E+00 -0.16414685142E+04  0.16414685142E+04  0.25500000920E-02 0. -1.
    10030    2    1    2    0    0  0.00000000000E+00  0.00000000000E+00 -0.10245736680E+04  0.22583633605E+04  0.20125739407E+04 0.  0.
        3    1    3    3  502    0 -0.40367144039E+03 -0.90336158628E+03 -0.30659552722E+03  0.10358637048E+04  0.10100000352E+00 0.  1.
       -3    1    3    3    0  502  0.40367144039E+03  0.90336158628E+03 -0.71797814077E+03  0.12224996557E+04  0.10100000352E+00 0. -1.
</event>
<event>
 5   0  0.3387881E-04  0.1802787E+04  0.7818609E-02  0.8704819E-01
       -2   -1    0    0    0  501  0.00000000000E+00  0.00000000000E+00  0.14274221361E+04  0.14274221361E+04  0.25500000920E-02 0.  1.
        2   -1    0    0  501    0  0.00000000000E+00  0.00000000000E+00 -0.56921500656E+03  0.56921500657E+03  0.25500000920E-02 0. -1.
    10030    2    1    2    0    0  0.00000000000E+00  0.00000000000E+00  0.85820712951E+03  0.19966371426E+04  0.18027868433E+04 0.  0.
        1    1    3    3  502    0 -0.15000937936E+03 -0.48230152381E+02 -0.55384318091E+03  0.57582222131E+03  0.50400001928E-02 0. -1.
       -1    1    3    3    0  502  0.15000937936E+03  0.48230152381E+02  0.14120503104E+04  0.14208149213E+04  0.50400001928E-02 0.  1.
</event>
<event>
 5   0  0.1643565E-04  0.1786898E+04  0.7818609E-02  0.8713298E-01
       -1   -1    0    0    0  501  0.00000000000E+00  0.00000000000E+00  0.87934570849E+03  0.87934570851E+03  0.50400001928E-02 0.  1.
        1   -1    0    0  501    0  0.00000000000E+00  0.00000000000E+00 -0.90777824682E+03  0.90777824683E+03  0.50400001928E-02 0. -1.
    10030    2    1    2    0    0  0.00000000000E+00  0.00000000000E+00 -0.28432538328E+02  0.17871239553E+04  0.17868977650E+04 0.  0.
        2    1    3    3  502    0  0.81107879494E+03  0.36498272252E+03 -0.99019138149E+02  0.89491116266E+03  0.25500000920E-02 0. -1.
       -2    1    3    3    0  502 -0.81107879494E+03 -0.36498272252E+03  0.70586599821E+02  0.89221279268E+03  0.25500000920E-02 0.  1.
</event>
<event>
 5   0  0.3460648E-04  0.1971138E+04  0.7818609E-02  0.8620235E-01
        2   -1    0    0  501    0  0.00000000000E+00  0.00000000000E+00  0.18541640429E+04  0.18541640429E+04  0.25500000920E-02 0. -1.
       -2   -1    0    0    0  501  0.00000000000E+00  0.00000000000E+00 -0.52387285987E+03  0.52387285987E+03  0.25500000920E-02 0.  1.
    10030    2    1    2    0    0  0.00000000000E+00  0.00000000000E+00  0.13302911830E+04  0.23780369028E+04  0.19711379656E+04 0.  0.
        5    1    3    3  502    0 -0.80530630205E+03 -0.54233088590E+03  0.86946734631E+03  0.13033175308E+04  0.46999998093E+01 0. -1.
       -5    1    3    3    0  502  0.80530630205E+03  0.54233088590E+03  0.46082383674E+03  0.10747193719E+04  0.46999998093E+01 0.  1.
</event>
<event>
 5   0  0.1650221E-04  0.1930175E+04  0.7818609E-02  0.8639981E-01
       -1   -1    0    0    0  501  0.00000000000E+00  0.00000000000E+00  0.11087808505E+04  0.11087808506E+04  0.50400001928E-02 0. -1.
        1   -1    0    0  501    0  0.00000000000E+00  0.00000000000E+00 -0.84001577338E+03  0.84001577340E+03  0.50400001928E-02 0.  1.
    10030    2    1    2    0    0  0.00000000000E+00  0.00000000000E+00  0.26876507716E+03  0.19487966239E+04  0.19301745037E+04 0.  0.
        1    1    3    3  502    0 -0.68950076393E+03 -0.30352406276E+03 -0.47464125896E+03  0.89040579786E+03  0.50400001928E-02 0.  1.
       -1    1    3    3    0  502  0.68950076393E+03  0.30352406276E+03  0.74340633612E+03  0.10583908261E+04  0.50400001928E-02 0. -1.
</event>
<event>
 5   0  0.3387881E-04  0.2039584E+04  0.7818609E-02  0.8588334E-01
        2   -1    0    0  501    0  0.00000000000E+00  0.00000000000E+00  0.18009494559E+04  0.18009494559E+04  0.25500000920E-02 0.  1.
       -2   -1    0    0    0  501  0.00000000000E+00  0.00000000000E+00 -0.57745967451E+03  0.57745967452E+03  0.25500000920E-02 0. -1.
    10030    2    1    2    0    0  0.00000000000E+00  0.00000000000E+00  0.12234897813E+04  0.23784091304E+04  0.20395839640E+04 0.  0.
        1    1    3    3  502    0  0.77353734247E+03 -0.34385722448E+03 -0.51387324311E+02  0.84807928176E+03  0.50400001928E-02 0. -1.
       -1    1    3    3    0  502 -0.77353734247E+03  0.34385722448E+03  0.12748771057E+04  0.15303298486E+04  0.50400001928E-02 0.  1.
</event>
<event>
 5   0  0.3371947E-04  0.2051303E+04  0.7818609E-02  0.8583003E-01
       -2   -1    0    0    0  501  0.00000000000E+00  0.00000000000E+00  0.69604675338E+03  0.69604675339E+03  0.25500000920E-02 0.  1.
        2   -1    0    0  501    0  0.00000000000E+00  0.00000000000E+00 -0.15113367931E+04  0.15113367931E+04  0.25500000920E-02 0. -1.
    10030    2    1    2    0    0  0.00000000000E+00  0.00000000000E+00 -0.81529003969E+03  0.22073835465E+04  0.20513030669E+04 0.  0.
        2    1    3    3  502    0 -0.38292960091E+03  0.22288768324E+03 -0.14030396771E+04  0.14713376003E+04  0.25500000920E-02 0. -1.
       -2    1    3    3    0  502  0.38292960091E+03 -0.22288768324E+03  0.58774963740E+03  0.73604594616E+03  0.25500000920E-02 0.  1.
</event>
<event>
 5   0  0.1664168E-04  0.1748969E+04  0.7818609E-02  0.8733918E-01
       -1   -1    0    0    0  501  0.00000000000E+00  0.00000000000E+00  0.48939354399E+03  0.48939354402E+03  0.50400001928E-02 0. -1.
        1   -1    0    0  501    0  0.00000000000E+00  0.00000000000E+00 -0.15625942031E+04  0.15625942031E+04  0.50400001928E-02 0.  1.
    10030    2    1    2    0    0  0.00000000000E+00  0.00000000000E+00 -0.10732006591E+04  0.20519877472E+04  0.17489694279E+04 0.  0.
        5    1    3    3  502    0 -0.17237558031E+03  0.56003983797E+03 -0.12981718167E+04  0.14242998689E+04  0.46999998093E+01 0.  1.
       -5    1    3    3    0  502  0.17237558031E+03 -0.56003983797E+03  0.22497115758E+03  0.62768787828E+03  0.46999998093E+01 0. -1.
</event>
<event>
 5   0  0.1708578E-04  0.2008688E+04  0.7818609E-02  0.8602570E-01
       -1   -1    0    0    0  501  0.00000000000E+00  0.00000000000E+00  0.67834247960E+03  0.67834247962E+03  0.50400001928E-02 0.  1.
        1   -1    0    0  501    0  0.00000000000E+00  0.00000000000E+00 -0.14870166776E+04  0.14870166776E+04  0.50400001928E-02 0. -1.
    10030    2    1    2    0    0  0.00000000000E+00  0.00000000000E+00 -0.80867419803E+03  0.21653591573E+04  0.20086877113E+04 0.  0.
        3    1    3    3  502    0  0.71978287898E+01  0.80269572535E+03  0.24634306614E+03  0.83967681442E+03  0.10100000352E+00 0.  1.
       -3    1    3    3    0  502 -0.71978287898E+01 -0.80269572535E+03 -0.10550172642E+04  0.13256823428E+04  0.10100000352E+00 0. -1.
</event>
<event>
 5   0  0.3431030E-04  0.2003701E+04  0.7818609E-02  0.8604892E-01
       -2   -1    0    0    0  501  0.00000000000E+00  0.00000000000E+00  0.12177057396E+04  0.12177057396E+04  0.25500000920E-02 0. -1.
        2   -1    0    0  501    0  0.00000000000E+00  0.00000000000E+00 -0.82425829412E+03  0.82425829413E+03  0.25500000920E-02 0.  1.
    10030    2    1    2    0    0  0.00000000000E+00  0.00000000000E+00  0.39344744547E+03  0.20419640337E+04  0.20037006320E+04 0.  0.
        3    1    3    3  502    0 -0.10380460081E+03  0.29591185167E+03 -0.77295320492E+03  0.83414380433E+03  0.10100000352E+00 0.  1.
       -3    1    3    3    0  502  0.10380460081E+03 -0.29591185167E+03  0.11664006504E+04  0.12078202294E+04  0.10100000352E+00 0. -1.
</event>
<event>
 5   0  0.3460648E-04  0.2074352E+04  0.7818609E-02  0.8572626E-01
        2   -1    0    0  501    0  0.00000000000E+00  0.00000000000E+00  0.23561333345E+04  0.23561333345E+04  0.25500000920E-02 0.  1.
       -2   -1    0    0    0  501  0.00000000000E+00  0.00000000000E+00 -0.45656756327E+03  0.45656756327E+03  0.25500000920E-02 0. -1.
    10030    2    1    2    0    0  0.00000000000E+00  0.00000000000E+00  0.18995657712E+04  0.28127008978E+04  0.20743520003E+04 0.  0.
        5    1    3    3  502    0 -0.57765886038E+02 -0.47838950712E+03  0.21951242554E+04  0.22473953824E+04  0.46999998093E+01 0.  1.
       -5    1    3    3    0  502  0.57765886038E+02  0.47838950712E+03 -0.29555848420E+03  0.56530551536E+03  0.46999998093E+01 0. -1.
</event>
<event>
 5   0  0.1664168E-04  0.1875848E+04  0.7818609E-02  0.8666973E-01
       -1   -1    0    0    0  501  0.00000000000E+00  0.00000000000E+00  0.12450795817E+04  0.12450795817E+04  0.50400001928E-02 0. -1.
        1   -1    0    0  501    0  0.00000000000E+00  0.00000000000E+00 -0.70654223980E+03  0.70654223982E+03  0.50400001928E-02 0.  1.
    10030    2    1    2    0    0  0.00000000000E+00  0.00000000000E+00  0.53853734188E+03  0.19516218215E+04  0.18758478791E+04 0.  0.
        5    1    3    3  502    0  0.32739899188E+03 -0.33611869567E+03 -0.57564014956E+03  0.74266381981E+03  0.46999998093E+01 0.  1.
       -5    1    3    3    0  502 -0.32739899188E+03  0.33611869567E+03  0.11141774914E+04  0.12089580017E+04  0.46999998093E+01 0. -1.
</event>
<event>
 5   0  0.3387881E-04  0.1303816E+04  0.7818609E-02  0.9026544E-01
        2   -1    0    0  501    0  0.00000000000E+00  0.00000000000E+00  0.59052409208E+03  0.59052409209E+03  0.25500000920E-02 0. -1.
       -2   -1    0    0    0  501  0.00000000000E+00  0.00000000000E+00 -0.71967304109E+03  0.71967304110E+03  0.25500000920E-02 0.  1.
    10030    2    1    2    0    0  0.00000000000E+00  0.00000000000E+00 -0.12914894901E+03  0.13101971332E+04  0.13038163509E+04 0.  0.
        1    1    3    3  502    0 -0.47331615437E+03 -0.14769239613E+03  0.36074982519E+03  0.61317343571E+03  0.50400001928E-02 0. -1.
       -1    1    3    3    0  502  0.47331615437E+03  0.14769239613E+03 -0.48989877419E+03  0.69702369748E+03  0.50400001928E-02 0.  1.
</event>
<event>
 5   0  0.1650221E-04  0.1985459E+04  0.7818609E-02  0.8613449E-01
       -1   -1    0    0    0  501  0.00000000000E+00  0.00000000000E+00  0.71688411611E+03  0.71688411612E+03  0.50400001928E-02 0.  1.
        1   -1    0    0  501    0  0.00000000000E+00  0.00000000000E+00 -0.13747161110E+04  0.13747161110E+04  0.50400001928E-02 0. -1.
    10030    2    1    2    0    0  0.00000000000E+00  0.00000000000E+00 -0.65783199490E+03  0.20916002271E+04  0.19854592861E+04 0.  0.
        1    1    3    3  502    0  0.57813595777E+03  0.77872647141E+03 -0.10580130742E+03  0.97562801293E+03  0.50400001928E-02 0.  1.
       -1    1    3    3    0  502 -0.57813595777E+03 -0.77872647141E+03 -0.55203068748E+03  0.11159722142E+04  0.50400001928E-02 0. -1.
</event>
<event>
 5   0  0.3431030E-04  0.2028627E+04  0.7818609E-02  0.8593352E-01
       -2   -1    0    0    0  501  0.00000000000E+00  0.00000000000E+00  0.59003482010E+03  0.59003482010E+03  0.25500000920E-02 0. -1.
        2   -1    0    0  501    0  0.00000000000E+00  0.00000000000E+00 -0.17436797798E+04  0.17436797798E+04  0.25500000920E-02 0.  1.
    10030    2    1    2    0    0  0.00000000000E+00  0.00000000000E+00 -0.11536449597E+04  0.23337145999E+04  0.20286269102E+04 0.  0.
        3    1    3    3  502    0 -0.22101063591E+03  0.46653199392E+03 -0.15812490625E+04  0.16633840237E+04  0.10100000352E+00 0.  1.
       -3    1    3    3    0  502  0.22101063591E+03 -0.46653199392E+03  0.42760410275E+03  0.67033057623E+03  0.10100000352E+00 0. -1.
</event>
<event>
 5   0  0.3395569E-04  0.1887752E+04  0.7818609E-02  0.8660977E-01
       -2   -1    0    0    0  501  0.00000000000E+00  0.00000000000E+00  0.60571296511E+03  0.60571296512E+03  0.25500000920E-02 0. -1.
        2   -1    0    0  501    0  0.00000000000E+00  0.00000000000E+00 -0.14708322137E+04  0.14708322137E+04  0.25500000920E-02 0.  1.
    10030    2    1    2    0    0  0.00000000000E+00  0.00000000000E+00 -0.86511924863E+03  0.20765451789E+04  0.18877522521E+04 0.  0.
        4    1    3    3  502    0 -0.66504298462E+03 -0.61611769055E+03 -0.72154477178E+03  0.11586680502E+04  0.12699999809E+01 0.  1.
       -4    1    3    3    0  502  0.66504298462E+03  0.61611769055E+03 -0.14357447685E+03  0.91787712865E+03  0.12699999809E+01 0. -1.
</event>
<event>
 5   0  0.3371947E-04  0.1988199E+04  0.7818609E-02  0.8612158E-01
       -2   -1    0    0    0  501  0.00000000000E+00  0.00000000000E+00  0.88797421227E+03  0.88797421227E+03  0.25500000920E-02 0. -1.
        2   -1    0    0  501    0  0.00000000000E+00  0.00000000000E+00 -0.11129082742E+04  0.11129082742E+04  0.25500000920E-02 0.  1.
    10030    2    1    2    0    0  0.00000000000E+00  0.00000000000E+00 -0.22493406194E+03  0.20008824865E+04  0.19881990324E+04 0.  0.
        2    1    3    3  502    0 -0.73713894020E+03  0.22593025147E+03  0.51908357529E+03  0.92944394872E+03  0.25500000920E-02 0. -1.
       -2    1    3    3    0  502  0.73713894020E+03 -0.22593025147E+03 -0.74401763722E+03  0.10714385378E+04  0.25500000920E-02 0.  1.
</event>
<event>
 5   0  0.3371947E-04  0.2039910E+04  0.7818609E-02  0.8588185E-01
       -2   -1    0    0    0  501  0.00000000000E+00  0.00000000000E+00  0.15153376634E+04  0.15153376634E+04  0.25500000920E-02 0.  1.
        2   -1    0    0  501    0  0.00000000000E+00  0.00000000000E+00 -0.68651903695E+03  0.68651903696E+03  0.25500000920E-02 0. -1.
    10030    2    1    2    0    0  0.00000000000E+00  0.00000000000E+00  0.82881862648E+03  0.22018567004E+04  0.20399099523E+04 0.  0.
        2    1    3    3  502    0  0.76015190953E+02  0.43888568345E+03 -0.57599080206E+03  0.72812386065E+03  0.25500000920E-02 0. -1.
       -2    1    3    3    0  502 -0.76015190953E+02 -0.43888568345E+03  0.14048094285E+04  0.14737328397E+04  0.25500000920E-02 0.  1.
</event>
<event>
 5   0  0.3387881E-04  0.1984719E+04  0.7818609E-02  0.8613799E-01
        2   -1    0    0  501    0  0.00000000000E+00  0.00000000000E+00  0.22591590767E+04  0.22591590767E+04  0.25500000920E-02 0.  1.
       -2   -1    0    0    0  501  0.00000000000E+00  0.00000000000E+00 -0.43590426869E+03  0.43590426870E+03  0.25500000920E-02 0. -1.
    10030    2    1    2    0    0  0.00000000000E+00  0.00000000000E+00  0.18232548080E+04  0.26950633454E+04  0.19847187057E+04 0.  0.
        1    1    3    3  502    0  0.61418374174E+02  0.79481368591E+03  0.10911005033E+03  0.80461544548E+03  0.50400001928E-02 0. -1.
       -1    1    3    3    0  502 -0.61418374174E+02 -0.79481368591E+03  0.17141447577E+04  0.18904478999E+04  0.50400001928E-02 0.  1.
</event>
<event>
 5   0  0.1664168E-04  0.1991529E+04  0.7818609E-02  0.8610591E-01
        1   -1    0    0  501    0  0.00000000000E+00  0.00000000000E+00  0.12969746487E+04  0.12969746488E+04  0.50400001928E-02 0. -1.
       -1   -1    0    0    0  501  0.00000000000E+00  0.00000000000E+00 -0.76450765927E+03  0.76450765929E+03  0.50400001928E-02 0.  1.
    10030    2    1    2    0    0  0.00000000000E+00  0.00000000000E+00  0.53246698947E+03  0.20614823080E+04  0.19915291139E+04 0.  0.
        5    1    3    3  502    0  0.20816060171E+03  0.28328638591E+03  0.12305920603E+04  0.12798284735E+04  0.46999998093E+01 0. -1.
       -5    1    3    3    0  502 -0.20816060171E+03 -0.28328638591E+03 -0.69812507086E+03  0.78165383458E+03  0.46999998093E+01 0.  1.
</event>
<event>
 5   0  0.1650221E-04  0.1936267E+04  0.7818609E-02  0.8637012E-01
       -1   -1    0    0    0  501  0.00000000000E+00  0.00000000000E+00  0.68585116242E+03  0.68585116244E+03  0.50400001928E-02 0.  1.
        1   -1    0    0  501    0  0.00000000000E+00  0.00000000000E+00 -0.13665975854E+04  0.13665975854E+04  0.50400001928E-02 0. -1.
    10030    2    1    2    0    0  0.00000000000E+00  0.00000000000E+00 -0.68074642297E+03  0.20524487478E+04  0.19362670710E+04 0.  0.
        1    1    3    3  502    0 -0.16819792590E+03 -0.83506963289E+03 -0.82803297599E+03  0.11879690414E+04  0.50400001928E-02 0. -1.
       -1    1    3    3    0  502  0.16819792590E+03  0.83506963289E+03  0.14728655302E+03  0.86447970640E+03  0.50400001928E-02 0.  1.
</event>
<event>
 5   0  0.3387881E-04  0.2072295E+04  0.7818609E-02  0.8573547E-01
        2   -1    0    0  501    0  0.00000000000E+00  0.00000000000E+00  0.13231874057E+04  0.13231874057E+04  0.25500000920E-02 0.  1.
       -2   -1    0    0    0  501  0.00000000000E+00  0.00000000000E+00 -0.81137537488E+03  0.81137537489E+03  0.25500000920E-02 0. -1.
    10030    2    1    2    0    0  0.00000000000E+00  0.00000000000E+00  0.51181203084E+03  0.21345627806E+04  0.20722950344E+04 0.  0.
        1    1    3    3  502    0  0.54923960738E+03 -0.42873581800E+03 -0.53402920141E+03  0.87787569504E+03  0.50400001928E-02 0. -1.
       -1    1    3    3    0  502 -0.54923960738E+03  0.42873581800E+03  0.10458412323E+04  0.12566870856E+04  0.50400001928E-02 0.  1.
</event>
<event>
 5   0  0.1643565E-04  0.2038287E+04  0.7818609E-02  0.8588926E-01
       -1   -1    0    0    0  501  0.00000000000E+00  0.00000000000E+00  0.56379935836E+03  0.56379935838E+03  0.50400001928E-02 0.  1.
        1   -1    0    0  501    0  0.00000000000E+00  0.00000000000E+00 -0.18422397882E+04  0.18422397882E+04  0.50400001928E-02 0. -1.
    10030    2    1    2    0    0  0.00000000000E+00  0.00000000000E+00 -0.12784404299E+04  0.24060391466E+04  0.20382871344E+04 0.  0.
        2    1    3    3  502    0 -0.43221837564E+03  0.56965463634E+03  0.21797632813E+03  0.74755120799E+03  0.25500000920E-02 0.  1.
       -2    1    3    3    0  502  0.43221837564E+03 -0.56965463634E+03 -0.14964167580E+04  0.16584879386E+04  0.25500000920E-02 0. -1.
</event>
<event>
 5   0  0.1708578E-04  0.1959869E+04  0.7818609E-02  0.8625617E-01
        1   -1    0    0  501    0  0.00000000000E+00  0.00000000000E+00  0.69618228334E+03  0.69618228336E+03  0.50400001928E-02 0. -1.
       -1   -1    0    0    0  501  0.00000000000E+00  0.00000000000E+00 -0.13793392505E+04  0.13793392506E+04  0.50400001928E-02 0.  1.
    10030    2    1    2    0    0  0.00000000000E+00  0.00000000000E+00 -0.68315696720E+03  0.20755215339E+04  0.19598689231E+04 0.  0.
        3    1    3    3  502    0  0.14798491547E+03  0.62072655440E+03 -0.11291508747E+04  0.12969898606E+04  0.10100000352E+00 0.  1.
       -3    1    3    3    0  502 -0.14798491547E+03 -0.62072655440E+03  0.44599390751E+03  0.77853167327E+03  0.10100000352E+00 0. -1.
</event>
<event>
 5   0  0.1696052E-04  0.2036477E+04  0.7818609E-02  0.8589754E-01
        1   -1    0    0  501    0  0.00000000000E+00  0.00000000000E+00  0.76379152702E+03  0.76379152704E+03  0.50400001928E-02 0. -1.
       -1   -1    0    0    0  501  0.00000000000E+00  0.00000000000E+00 -0.13574510686E+04  0.13574510687E+04  0.50400001928E-02 0.  1.
    10030    2    1    2    0    0  0.00000000000E+00  0.00000000000E+00 -0.59365954163E+03  0.21212425957E+04  0.20364769820E+04 0.  0.
        4    1    3    3  502    0  0.63360362725E+03  0.48186446443E+03  0.36454883264E+03  0.87552520400E+03  0.12699999809E+01 0. -1.
       -4    1    3    3    0  502 -0.63360362725E+03 -0.48186446443E+03 -0.95820837427E+03  0.12457173917E+04  0.12699999809E+01 0.  1.
</event>
<event>
 5   0  0.3387881E-04  0.1790973E+04  0.7818609E-02  0.8711115E-01
        2   -1    0    0  501    0  0.00000000000E+00  0.00000000000E+00  0.78003503703E+03  0.78003503703E+03  0.25500000920E-02 0.  1.
       -2   -1    0    0    0  501  0.00000000000E+00  0.00000000000E+00 -0.10280254206E+04  0.10280254206E+04  0.25500000920E-02 0. -1.
    10030    2    1    2    0    0  0.00000000000E+00  0.00000000000E+00 -0.24799038353E+03  0.18080604576E+04  0.17909727491E+04 0.  0.
        1    1    3    3  502    0  0.34236126692E+03 -0.20936455271E+03 -0.93216483901E+03  0.10148773523E+04  0.50400001928E-02 0. -1.
       -1    1    3    3    0  502 -0.34236126692E+03  0.20936455271E+03  0.68417445548E+03  0.79318310533E+03  0.50400001928E-02 0.  1.
</event>
<event>
 5   0  0.1643565E-04  0.1982902E+04  0.7818609E-02  0.8614657E-01
       -1   -1    0    0    0  501  0.00000000000E+00  0.00000000000E+00  0.74635412721E+03  0.74635412723E+03  0.50400001928E-02 0. -1.
        1   -1    0    0  501    0  0.00000000000E+00  0.00000000000E+00 -0.13170354752E+04  0.13170354752E+04  0.50400001928E-02 0.  1.
    10030    2    1    2    0    0  0.00000000000E+00  0.00000000000E+00 -0.57068134795E+03  0.20633896024E+04  0.19829017753E+04 0.  0.
        2    1    3    3  502    0  0.87065168872E+03  0.47400429470E+03 -0.30213350744E+03  0.10363392740E+04  0.25500000920E-02 0. -1.
       -2    1    3    3    0  502 -0.87065168872E+03 -0.47400429470E+03 -0.26854784051E+03  0.10270503284E+04  0.25500000920E-02 0.  1.
</event>
<event>
 5   0  0.1664168E-04  0.1782516E+04  0.7818609E-02  0.8715653E-01
        1   -1    0    0  501    0  0.00000000000E+00  0.00000000000E+00  0.10895624924E+04  0.10895624924E+04  0.50400001928E-02 0. -1.
       -1   -1    0    0    0  501  0.00000000000E+00  0.00000000000E+00 -0.72904545140E+03  0.72904545142E+03  0.50400001928E-02 0.  1.
    10030    2    1    2    0    0  0.00000000000E+00  0.00000000000E+00  0.36051704097E+03  0.18186079438E+04  0.17825157268E+04 0.  0.
        5    1    3    3  502    0  0.67510972973E+03 -0.42225077604E+03  0.58867590821E+03  0.99026778194E+03  0.46999998093E+01 0. -1.
       -5    1    3    3    0  502 -0.67510972973E+03  0.42225077604E+03 -0.22815886723E+03  0.82834016186E+03  0.46999998093E+01 0.  1.
</event>
<event>
 5   0  0.1664168E-04  0.2114404E+04  0.7818609E-02  0.8554925E-01
        1   -1    0    0  501    0  0.00000000000E+00  0.00000000000E+00  0.13781111720E+04  0.13781111720E+04  0.50400001928E-02 0.  1.
       -1   -1    0    0    0  501  0.00000000000E+00  0.00000000000E+00 -0.81102054160E+03  0.81102054161E+03  0.50400001928E-02 0. -1.
    10030    2    1    2    0    0  0.00000000000E+00  0.00000000000E+00  0.56709063039E+03  0.21891317136E+04  0.21144043786E+04 0.  0.
        5    1    3    3  502    0  0.45708809619E+02 -0.12483215556E+03  0.13694123170E+04  0.13758577493E+04  0.46999998093E+01 0.  1.
       -5    1    3    3    0  502 -0.45708809619E+02  0.12483215556E+03 -0.80232168658E+03  0.81327396435E+03  0.46999998093E+01 0. -1.
</event>
<event>
 5   0  0.3387881E-04  0.1900953E+04  0.7818609E-02  0.8654382E-01
        2   -1    0    0  501    0  0.00000000000E+00  0.00000000000E+00  0.23837868775E+04  0.23837868775E+04  0.25500000920E-02 0.  1.
       -2   -1    0    0    0  501  0.00000000000E+00  0.00000000000E+00 -0.37897926375E+03  0.37897926376E+03  0.25500000920E-02 0. -1.
    10030    2    1    2    0    0  0.00000000000E+00  0.00000000000E+00  0.20048076137E+04  0.27627661412E+04  0.19009532301E+04 0.  0.
        1    1    3    3  502    0 -0.61150743021E+03 -0.23314633165E+03  0.20041749569E+04  0.21083206130E+04  0.50400001928E-02 0.  1.
       -1    1    3    3    0  502  0.61150743021E+03  0.23314633165E+03  0.63265680635E+00  0.65444552825E+03  0.50400001928E-02 0. -1.
</event>
<event>
 5   0  0.1664168E-04  0.2010904E+04  0.7818609E-02  0.8601539E-01
        1   -1    0    0  501    0  0.00000000000E+00  0.00000000000E+00  0.85529737465E+03  0.85529737467E+03  0.50400001928E-02 0. -1.
       -1   -1    0    0    0  501  0.00000000000E+00  0.00000000000E+00 -0.11819680036E+04  0.11819680036E+04  0.50400001928E-02 0.  1.
    10030    2    1    2    0    0  0.00000000000E+00  0.00000000000E+00 -0.32667062896E+03  0.20372653783E+04  0.20109044039E+04 0.  0.
        5    1    3    3  502    0  0.47088796865E+03  0.50877251809E+03 -0.90111736331E+03  0.11369342754E+04  0.46999998093E+01 0.  1.
       -5    1    3    3    0  502 -0.47088796865E+03 -0.50877251809E+03  0.57444673435E+03  0.90033110286E+03  0.46999998093E+01 0. -1.
</event>
<event>
 5   0  0.3371947E-04  0.1928207E+04  0.7818609E-02  0.8640942E-01
       -2   -1    0    0    0  501  0.00000000000E+00  0.00000000000E+00  0.81863637514E+03  0.81863637514E+03  0.25500000920E-02 0. -1.
        2   -1    0    0  501    0  0.00000000000E+00  0.00000000000E+00 -0.11354188713E+04  0.11354188713E+04  0.25500000920E-02 0.  1.
    10030    2    1    2    0    0  0.00000000000E+00  0.00000000000E+00 -0.31678249616E+03  0.19540552465E+04  0.19282066166E+04 0.  0.
        2    1    3    3  502    0 -0.32493578928E+03 -0.57769941456E+03 -0.86790200596E+03  0.10920502611E+04  0.25500000920E-02 0.  1.
       -2    1    3    3    0  502  0.32493578928E+03  0.57769941456E+03  0.55111950980E+03  0.86200498538E+03  0.25500000920E-02 0. -1.
</event>
<event>
 5   0  0.1643565E-04  0.1975526E+04  0.7818609E-02  0.8618149E-01
       -1   -1    0    0    0  501  0.00000000000E+00  0.00000000000E+00  0.67003062924E+03  0.67003062926E+03  0.50400001928E-02 0.  1.
        1   -1    0    0  501    0  0.00000000000E+00  0.00000000000E+00 -0.14561659872E+04  0.14561659872E+04  0.50400001928E-02 0. -1.
    10030    2    1    2    0    0  0.00000000000E+00  0.00000000000E+00 -0.78613535792E+03  0.21261966164E+04  0.19755260694E+04 0.  0.
        2    1    3    3  502    0  0.62766434031E+02 -0.76205513807E+03 -0.10660653552E+04  0.13119310197E+04  0.25500000920E-02 0. -1.
       -2    1    3    3    0  502 -0.62766434031E+02  0.76205513807E+03  0.27992999730E+03  0.81426559678E+03  0.25500000920E-02 0.  1.
</event>
<event>
 5   0  0.3460648E-04  0.1991121E+04  0.7818609E-02  0.8610783E-01
       -2   -1    0    0    0  501  0.00000000000E+00  0.00000000000E+00  0.65495820955E+03  0.65495820955E+03  0.25500000920E-02 0. -1.
        2   -1    0    0  501    0  0.00000000000E+00  0.00000000000E+00 -0.15132878261E+04  0.15132878261E+04  0.25500000920E-02 0.  1.
    10030    2    1    2    0    0  0.00000000000E+00  0.00000000000E+00 -0.85832961657E+03  0.21682460357E+04  0.19911205741E+04 0.  0.
        5    1    3    3  502    0  0.54404879561E+03 -0.31301069886E+03  0.41233487684E+03  0.75100394823E+03  0.46999998093E+01 0. -1.
       -5    1    3    3    0  502 -0.54404879561E+03  0.31301069886E+03 -0.12706644934E+04  0.14172420874E+04  0.46999998093E+01 0.  1.
</event>
<event>
 5   0  0.3395569E-04  0.1979959E+04  0.7818609E-02  0.8616048E-01
        2   -1    0    0  501    0  0.00000000000E+00  0.00000000000E+00  0.97263804672E+03  0.97263804673E+03  0.25500000920E-02 0. -1.
       -2   -1    0    0    0  501  0.00000000000E+00  0.00000000000E+00 -0.10076296307E+04  0.10076296307E+04  0.25500000920E-02 0.  1.
    10030    2    1    2    0    0  0.00000000000E+00  0.00000000000E+00 -0.34991584000E+02  0.19802676775E+04  0.19799585004E+04 0.  0.
        4    1    3    3  502    0 -0.57053930988E+03 -0.43686862022E+03 -0.69854852978E+03  0.10021681280E+04  0.12699999809E+01 0.  1.
       -4    1    3    3    0  502  0.57053930988E+03  0.43686862022E+03  0.66355694578E+03  0.97809954945E+03  0.12699999809E+01 0. -1.
</event>
<event>
 5   0  0.3395569E-04  0.1983893E+04  0.7818609E-02  0.8614188E-01
        2   -1    0    0  501    0  0.00000000000E+00  0.00000000000E+00  0.11777064004E+04  0.11777064004E+04  0.25500000920E-02 0.  1.
       -2   -1    0    0    0  501  0.00000000000E+00  0.00000000000E+00 -0.83548662951E+03  0.83548662951E+03  0.25500000920E-02 0. -1.
    10030    2    1    2    0    0  0.00000000000E+00  0.00000000000E+00  0.34221977088E+03  0.20131930299E+04  0.19838930929E+04 0.  0.
        4    1    3    3  502    0 -0.65769139161E+02  0.55069291790E+03 -0.66345229661E+03  0.86473049690E+03  0.12699999809E+01 0. -1.
       -4    1    3    3    0  502  0.65769139161E+02 -0.55069291790E+03  0.10056720675E+04  0.11484625330E+04  0.12699999809E+01 0.  1.
</event>
<event>
 5   0  0.1664168E-04  0.1973263E+04  0.7818609E-02  0.8619224E-01
        1   -1    0    0  501    0  0.00000000000E+00  0.00000000000E+00  0.98793892872E+03  0.98793892873E+03  0.50400001928E-02 0.  1.
       -1   -1    0    0    0  501  0.00000000000E+00  0.00000000000E+00 -0.98532572281E+03  0.98532572283E+03  0.50400001928E-02 0. -1.
    10030    2    1    2    0    0  0.00000000000E+00  0.00000000000E+00  0.26132059066E+01  0.19732646516E+04  0.19732629212E+04 0.  0.
        5    1    3    3  502    0 -0.21842322567E+03  0.73115184104E+03 -0.62409607921E+03  0.98580410135E+03  0.46999998093E+01 0. -1.
       -5    1    3    3    0  502  0.21842322567E+03 -0.73115184104E+03  0.62670928511E+03  0.98746055021E+03  0.46999998093E+01 0.  1.
</event>
<event>
 5   0  0.1222488E-04  0.1996688E+04  0.7818609E-02  0.8608171E-01
        3   -1    0    0  501    0  0.00000000000E+00  0.00000000000E+00  0.20770736971E+04  0.20770736996E+04  0.10100000352E+00 0.  1.
       -3   -1    0    0    0  501  0.00000000000E+00  0.00000000000E+00 -0.47985340039E+03  0.47985341102E+03  0.10100000352E+00 0. -1.
    10030    2    1    2    0    0  0.00000000000E+00  0.00000000000E+00  0.15972202967E+04  0.25569271106E+04  0.19966881511E+04 0.  0.
        4    1    3    3  502    0  0.12949871692E+03 -0.33695048359E+03  0.19905744594E+04  0.20230407404E+04  0.12699999809E+01 0.  1.
       -4    1    3    3    0  502 -0.12949871692E+03  0.33695048359E+03 -0.39335416267E+03  0.53388637018E+03  0.12699999809E+01 0. -1.
</event>
<event>
 5   0  0.1664168E-04  0.2008644E+04  0.7818609E-02  0.8602590E-01
       -1   -1    0    0    0  501  0.00000000000E+00  0.00000000000E+00  0.81038906945E+03  0.81038906947E+03  0.50400001928E-02 0.  1.
        1   -1    0    0  501    0  0.00000000000E+00  0.00000000000E+00 -0.12446642812E+04  0.12446642813E+04  0.50400001928E-02 0. -1.
    10030    2    1    2    0    0  0.00000000000E+00  0.00000000000E+00 -0.43427521179E+03  0.20550533507E+04  0.20086436505E+04 0.  0.
        5    1    3    3  502    0  0.74972901256E+02  0.28902117910E+03  0.76391609316E+03  0.82020976907E+03  0.46999998093E+01 0.  1.
       -5    1    3    3    0  502 -0.74972901256E+02 -0.28902117910E+03 -0.11981913049E+04  0.12348435816E+04  0.46999998093E+01 0. -1.
</event>
<event>
 5   0  0.3395569E-04  0.1708273E+04  0.7818609E-02  0.8756660E-01
       -2   -1    0    0    0  501  0.00000000000E+00  0.00000000000E+00  0.11659697770E+04  0.11659697770E+04  0.25500000920E-02 0.  1.
        2   -1    0    0  501    0  0.00000000000E+00  0.00000000000E+00 -0.62570170522E+03  0.62570170522E+03  0.25500000920E-02 0. -1.
    10030    2    1    2    0    0  0.00000000000E+00  0.00000000000E+00  0.54026807175E+03  0.17916714822E+04  0.17082731370E+04 0.  0.
        4    1    3    3  502    0  0.42016683574E+03  0.25867408192E+03 -0.46110899869E+03  0.67533367462E+03  0.12699999809E+01 0. -1.
       -4    1    3    3    0  502 -0.42016683574E+03 -0.25867408192E+03  0.10013770704E+04  0.11163378076E+04  0.12699999809E+01 0.  1.
</event>
<event>
 5   0  0.3460648E-04  0.1963857E+04  0.7818609E-02  0.8623708E-01
        2   -1    0    0  501    0  0.00000000000E+00  0.00000000000E+00  0.13148732695E+04  0.13148732695E+04  0.25500000920E-02 0.  1.
       -2   -1    0    0    0  501  0.00000000000E+00  0.00000000000E+00 -0.73328996417E+03  0.73328996417E+03  0.25500000920E-02 0. -1.
    10030    2    1    2    0    0  0.00000000000E+00  0.00000000000E+00  0.58158330535E+03  0.20481632337E+04  0.19638567898E+04 0.  0.
        5    1    3    3  502    0  0.52502633598E+03  0.35914639002E+01 -0.57458540464E+03  0.77835469377E+03  0.46999998093E+01 0. -1.
       -5    1    3    3    0  502 -0.52502633598E+03 -0.35914639002E+01  0.11561687100E+04  0.12698085399E+04  0.46999998093E+01 0.  1.
</event>
<event>
 5   0  0.1708578E-04  0.1991860E+04  0.7818609E-02  0.8610436E-01
       -1   -1    0    0    0  501  0.00000000000E+00  0.00000000000E+00  0.13739796848E+04  0.13739796848E+04  0.50400001928E-02 0.  1.
        1   -1    0    0  501    0  0.00000000000E+00  0.00000000000E+00 -0.72190053987E+03  0.72190053988E+03  0.50400001928E-02 0. -1.
    10030    2    1    2    0    0  0.00000000000E+00  0.00000000000E+00  0.65207914493E+03  0.20958802247E+04  0.19918601118E+04 0.  0.
        3    1    3    3  502    0 -0.15614554534E+03  0.64531770989E+02  0.13587899620E+04  0.13692537938E+04  0.10100000352E+00 0.  1.
       -3    1    3    3    0  502  0.15614554534E+03 -0.64531770989E+02 -0.70671081711E+03  0.72662643085E+03  0.10100000352E+00 0. -1.
</event>
<event>
 5   0  0.3395569E-04  0.2005043E+04  0.7818609E-02  0.8604267E-01
       -2   -1    0    0    0  501  0.00000000000E+00  0.00000000000E+00  0.21825974999E+04  0.21825974999E+04  0.25500000920E-02 0.  1.
        2   -1    0    0  501    0  0.00000000000E+00  0.00000000000E+00 -0.46048315571E+03  0.46048315572E+03  0.25500000920E-02 0. -1.
    10030    2    1    2    0    0  0.00000000000E+00  0.00000000000E+00  0.17221143442E+04  0.26430806556E+04  0.20050430264E+04 0.  0.
        4    1    3    3  502    0  0.80353174560E+03  0.38533494802E+03  0.25567930834E+03  0.92710291228E+03  0.12699999809E+01 0.  1.
       -4    1    3    3    0  502 -0.80353174560E+03 -0.38533494802E+03  0.14664350359E+04  0.17159777433E+04  0.12699999809E+01 0. -1.
</event>
<event>
 5   0  0.3387881E-04  0.2223423E+04  0.7818609E-02  0.8508742E-01
       -2   -1    0    0    0  501  0.00000000000E+00  0.00000000000E+00  0.59105674816E+03  0.59105674816E+03  0.25500000920E-02 0. -1.
        2   -1    0    0  501    0  0.00000000000E+00  0.00000000000E+00 -0.20910053670E+04  0.20910053670E+04  0.25500000920E-02 0.  1.
    10030    2    1    2    0    0  0.00000000000E+00  0.00000000000E+00 -0.14999486188E+04  0.26820621152E+04  0.22234233359E+04 0.  0.
        1    1    3    3  502    0 -0.55464663240E+03  0.84976994643E+03 -0.20226526662E+03  0.10347236765E+04  0.50400001928E-02 0. -1.
       -1    1    3    3    0  502  0.55464663240E+03 -0.84976994643E+03 -0.12976833522E+04  0.16473384386E+04  0.50400001928E-02 0.  1.
</event>
<event>
 5   0  0.1708578E-04  0.1987571E+04  0.7818609E-02  0.8612454E-01
        1   -1    0    0  501    0  0.00000000000E+00  0.00000000000E+00  0.12548710483E+04  0.12548710483E+04  0.50400001928E-02 0. -1.
       -1   -1    0    0    0  501  0.00000000000E+00  0.00000000000E+00 -0.78702080402E+03  0.78702080404E+03  0.50400001928E-02 0.  1.
    10030    2    1    2    0    0  0.00000000000E+00  0.00000000000E+00  0.46785024427E+03  0.20418918523E+04  0.19875710014E+04 0.  0.
        3    1    3    3  502    0  0.37874983600E+03 -0.73828513264E+03 -0.32791581537E+03  0.89221363334E+03  0.10100000352E+00 0.  1.
       -3    1    3    3    0  502 -0.37874983600E+03  0.73828513264E+03  0.79576605964E+03  0.11496782190E+04  0.10100000352E+00 0. -1.
</event>
<event>
 5   0  0.3431030E-04  0.1304250E+04  0.7818609E-02  0.9026202E-01
        2   -1    0    0  501    0  0.00000000000E+00  0.00000000000E+00  0.14795738576E+04  0.14795738576E+04  0.25500000920E-02 0.  1.
       -2   -1    0    0    0  501  0.00000000000E+00  0.00000000000E+00 -0.28742528384E+03  0.28742528385E+03  0.25500000920E-02 0. -1.
    10030    2    1    2    0    0  0.00000000000E+00  0.00000000000E+00  0.11921485737E+04  0.17669991414E+04  0.13042498779E+04 0.  0.
        3    1    3    3  502    0  0.28239666227E+03  0.53619327452E+03  0.92239809730E+03  0.11036617972E+04  0.10100000352E+00 0.  1.
       -3    1    3    3    0  502 -0.28239666227E+03 -0.53619327452E+03  0.26975047644E+03  0.66333734422E+03  0.10100000352E+00 0. -1.
</event>
<event>
 5   0  0.1708578E-04  0.2132310E+04  0.7818609E-02  0.8547143E-01
       -1   -1    0    0    0  501  0.00000000000E+00  0.00000000000E+00  0.94403739147E+03  0.94403739149E+03  0.50400001928E-02 0. -1.
        1   -1    0    0  501    0  0.00000000000E+00  0.00000000000E+00 -0.12040693275E+04  0.12040693276E+04  0.50400001928E-02 0.  1.
    10030    2    1    2    0    0  0.00000000000E+00  0.00000000000E+00 -0.26003193607E+03  0.21481067190E+04  0.21323099842E+04 0.  0.
        3    1    3    3  502    0  0.10271284330E+04  0.21957322426E+03  0.54318380657E+02  0.10517393762E+04  0.10100000352E+00 0. -1.
       -3    1    3    3    0  502 -0.10271284330E+04 -0.21957322426E+03 -0.31435031673E+03  0.10963673429E+04  0.10100000352E+00 0.  1.
</event>
<event>
 5   0  0.1664168E-04  0.1944956E+04  0.7818609E-02  0.8632797E-01
       -1   -1    0    0    0  501  0.00000000000E+00  0.00000000000E+00  0.86211878452E+03  0.86211878453E+03  0.50400001928E-02 0. -1.
        1   -1    0    0  501    0  0.00000000000E+00  0.00000000000E+00 -0.10969641164E+04  0.10969641164E+04  0.50400001928E-02 0.  1.
    10030    2    1    2    0    0  0.00000000000E+00  0.00000000000E+00 -0.23484533185E+03  0.19590829009E+04  0.19449559077E+04 0.  0.
        5    1    3    3  502    0 -0.58313731139E+03 -0.67040398772E+03 -0.51551560275E+03  0.10272628959E+04  0.46999998093E+01 0.  1.
       -5    1    3    3    0  502  0.58313731139E+03  0.67040398772E+03  0.28067027091E+03  0.93182000497E+03  0.46999998093E+01 0. -1.
</event>
<event>
 5   0  0.1650221E-04  0.1989970E+04  0.7818609E-02  0.8611324E-01
        1   -1    0    0  501    0  0.00000000000E+00  0.00000000000E+00  0.20696102766E+04  0.20696102766E+04  0.50400001928E-02 0.  1.
       -1   -1    0    0    0  501  0.00000000000E+00  0.00000000000E+00 -0.47834874621E+03  0.47834874624E+03  0.50400001928E-02 0. -1.
    10030    2    1    2    0    0  0.00000000000E+00  0.00000000000E+00  0.15912615304E+04  0.25479590229E+04  0.19899703325E+04 0.  0.
        1    1    3    3  502    0  0.71724243339E+03 -0.22213260342E+03  0.16315429396E+04  0.17960267163E+04  0.50400001928E-02 0.  1.
       -1    1    3    3    0  502 -0.71724243339E+03  0.22213260342E+03 -0.40281409189E+02  0.75193230660E+03  0.50400001928E-02 0. -1.
</event>
<event>
 5   0  0.1650221E-04  0.2019824E+04  0.7818609E-02  0.8597408E-01
       -1   -1    0    0    0  501  0.00000000000E+00  0.00000000000E+00  0.53804706578E+03  0.53804706580E+03  0.50400001928E-02 0.  1.
        1   -1    0    0  501    0  0.00000000000E+00  0.00000000000E+00 -0.18955997496E+04  0.18955997496E+04  0.50400001928E-02 0. -1.
    10030    2    1    2    0    0  0.00000000000E+00  0.00000000000E+00 -0.13575526838E+04  0.24336468154E+04  0.20198236390E+04 0.  0.
        1    1    3    3  502    0  0.44107886849E+03  0.74403791111E+03 -0.13069098623E+04  0.15672129306E+04  0.50400001928E-02 0. -1.
       -1    1    3    3    0  502 -0.44107886849E+03 -0.74403791111E+03 -0.50642821456E+02  0.86643388483E+03  0.50400001928E-02 0.  1.
</event>
<event>
 5   0  0.3431030E-04  0.1891229E+04  0.7818609E-02  0.8659235E-01
        2   -1    0    0  501    0  0.00000000000E+00  0.00000000000E+00  0.30846236911E+04  0.30846236911E+04  0.25500000920E-02 0.  1.
       -2   -1    0    0    0  501  0.00000000000E+00  0.00000000000E+00 -0.28988507086E+03  0.28988507087E+03  0.25500000920E-02 0. -1.
    10030    2    1    2    0    0  0.00000000000E+00  0.00000000000E+00  0.27947386202E+04  0.33745087619E+04  0.18912285502E+04 0.  0.
        3    1    3    3  502    0  0.24551529134E+03  0.77530898048E+03  0.53645029789E+03  0.97424879051E+03  0.10100000352E+00 0. -1.
       -3    1    3    3    0  502 -0.24551529134E+03 -0.77530898048E+03  0.22582883223E+04  0.24002599714E+04  0.10100000352E+00 0.  1.
</event>
<event>
 5   0  0.1650221E-04  0.2073575E+04  0.7818609E-02  0.8572974E-01
        1   -1    0    0  501    0  0.00000000000E+00  0.00000000000E+00  0.11259203940E+04  0.11259203940E+04  0.50400001928E-02 0. -1.
       -1   -1    0    0    0  501  0.00000000000E+00  0.00000000000E+00 -0.95471036551E+03  0.95471036552E+03  0.50400001928E-02 0.  1.
    10030    2    1    2    0    0  0.00000000000E+00  0.00000000000E+00  0.17121002846E+03  0.20806307595E+04  0.20735745667E+04 0.  0.
        1    1    3    3  502    0 -0.31354544032E+03  0.92141731621E+03 -0.27283215941E+03  0.10108204593E+04  0.50400001928E-02 0.  1.
       -1    1    3    3    0  502  0.31354544032E+03 -0.92141731621E+03  0.44404218787E+03  0.10698103002E+04  0.50400001928E-02 0. -1.
</event>
<event>
 5   0  0.1643565E-04  0.2012519E+04  0.7818609E-02  0.8600790E-01
        1   -1    0    0  501    0  0.00000000000E+00  0.00000000000E+00  0.62991262934E+03  0.62991262936E+03  0.50400001928E-02 0. -1.
       -1   -1    0    0    0  501  0.00000000000E+00  0.00000000000E+00 -0.16074573581E+04  0.16074573581E+04  0.50400001928E-02 0.  1.
    10030    2    1    2    0    0  0.00000000000E+00  0.00000000000E+00 -0.97754472877E+03  0.22373699875E+04  0.20125185127E+04 0.  0.
        2    1    3    3  502    0  0.40711822693E+03 -0.91406036569E+03 -0.37056239400E+03  0.10670370615E+04  0.25500000920E-02 0. -1.
       -2    1    3    3    0  502 -0.40711822693E+03  0.91406036569E+03 -0.60698233477E+03  0.11703329259E+04  0.25500000920E-02 0.  1.
</event>
<event>
 5   0  0.1664168E-04  0.2305106E+04  0.7818609E-02  0.8475910E-01
       -1   -1    0    0    0  501  0.00000000000E+00  0.00000000000E+00  0.12094504223E+04  0.12094504223E+04  0.50400001928E-02 0.  1.
        1   -1    0    0  501    0  0.00000000000E+00  0.00000000000E+00 -0.10983326285E+04  0.10983326285E+04  0.50400001928E-02 0. -1.
    10030    2    1    2    0    0  0.00000000000E+00  0.00000000000E+00  0.11111779378E+03  0.23077830509E+04  0.23051063849E+04 0.  0.
        5    1    3    3  502    0 -0.47610307575E+03  0.47968611777E+03 -0.87911173218E+03  0.11088879285E+04  0.46999998093E+01 0. -1.
       -5    1    3    3    0  502  0.47610307575E+03 -0.47968611777E+03  0.99022952596E+03  0.11988951224E+04  0.46999998093E+01 0.  1.
</event>
<event>
 5   0  0.3387881E-04  0.1967710E+04  0.7818609E-02  0.8621868E-01
       -2   -1    0    0    0  501  0.00000000000E+00  0.00000000000E+00  0.80522740550E+03  0.80522740551E+03  0.25500000920E-02 0.  1.
        2   -1    0    0  501    0  0.00000000000E+00  0.00000000000E+00 -0.12021088634E+04  0.12021088634E+04  0.25500000920E-02 0. -1.
    10030    2    1    2    0    0  0.00000000000E+00  0.00000000000E+00 -0.39688145787E+03  0.20073362689E+04  0.19677103458E+04 0.  0.
        1    1    3    3  502    0 -0.40946771274E+03 -0.62490573176E+03  0.45460703998E+03  0.87455048006E+03  0.50400001928E-02 0.  1.
       -1    1    3    3    0  502  0.40946771274E+03  0.62490573176E+03 -0.85148849785E+03  0.11327857888E+04  0.50400001928E-02 0. -1.
</event>
<event>
 5   0  0.3431030E-04  0.2006059E+04  0.7818609E-02  0.8603793E-01
        2   -1    0    0  501    0  0.00000000000E+00  0.00000000000E+00  0.12662523745E+04  0.12662523745E+04  0.25500000920E-02 0. -1.
       -2   -1    0    0    0  501  0.00000000000E+00  0.00000000000E+00 -0.79452399391E+03  0.79452399391E+03  0.25500000920E-02 0.  1.
    10030    2    1    2    0    0  0.00000000000E+00  0.00000000000E+00  0.47172838057E+03  0.20607763684E+04  0.20060587169E+04 0.  0.
        3    1    3    3  502    0  0.65212991677E+03  0.43377764373E+03  0.87955861178E+03  0.11777350442E+04  0.10100000352E+00 0. -1.
       -3    1    3    3    0  502 -0.65212991677E+03 -0.43377764373E+03 -0.40783023122E+03  0.88304132420E+03  0.10100000352E+00 0.  1.
</event>
<event>
 5   0  0.1696052E-04  0.1915183E+04  0.7818609E-02  0.8647336E-01
       -1   -1    0    0    0  501  0.00000000000E+00  0.00000000000E+00  0.54300374558E+03  0.54300374561E+03  0.50400001928E-02 0. -1.
        1   -1    0    0  501    0  0.00000000000E+00  0.00000000000E+00 -0.16887201235E+04  0.16887201235E+04  0.50400001928E-02 0.  1.
    10030    2    1    2    0    0  0.00000000000E+00  0.00000000000E+00 -0.11457163779E+04  0.22317238691E+04  0.19151828658E+04 0.  0.
        4    1    3    3  502    0 -0.94977191325E+02  0.67843770901E+03 -0.13525351671E+04  0.15161303977E+04  0.12699999809E+01 0.  1.
       -4    1    3    3    0  502  0.94977191325E+02 -0.67843770901E+03  0.20681878913E+03  0.71559347140E+03  0.12699999809E+01 0. -1.
</event>
<event>
 5   0  0.1643565E-04  0.1165250E+04  0.7818609E-02  0.9143829E-01
        1   -1    0    0  501    0  0.00000000000E+00  0.00000000000E+00  0.99243625905E+03  0.99243625906E+03  0.50400001928E-02 0.  1.
       -1   -1    0    0    0  501  0.00000000000E+00  0.00000000000E+00 -0.34203904963E+03  0.34203904967E+03  0.50400001928E-02 0. -1.
    10030    2    1    2    0    0  0.00000000000E+00  0.00000000000E+00  0.65039720941E+03  0.13344753087E+04  0.11652501103E+04 0.  0.
        2    1    3    3  502    0  0.35380951408E+03  0.44934475087E+03  0.19787703419E+03  0.60518360689E+03  0.25500000920E-02 0. -1.
       -2    1    3    3    0  502 -0.35380951408E+03 -0.44934475087E+03  0.45252017522E+03  0.72929170184E+03  0.25500000920E-02 0.  1.
</event>
<event>
 5   0  0.1696052E-04  0.2031094E+04  0.7818609E-02  0.8592219E-01
       -1   -1    0    0    0  501  0.00000000000E+00  0.00000000000E+00  0.98455934356E+03  0.98455934357E+03  0.50400001928E-02 0.  1.
        1   -1    0    0  501    0  0.00000000000E+00  0.00000000000E+00 -0.10475104108E+04  0.10475104108E+04  0.50400001928E-02 0. -1.
    10030    2    1    2    0    0  0.00000000000E+00  0.00000000000E+00 -0.62951067254E+02  0.20320697544E+04  0.20310944463E+04 0.  0.
        4    1    3    3  502    0 -0.61973016657E+03  0.33491608960E+03 -0.76333228496E+03  0.10387069156E+04  0.12699999809E+01 0. -1.
       -4    1    3    3    0  502  0.61973016657E+03 -0.33491608960E+03  0.70038121770E+03  0.99336283876E+03  0.12699999809E+01 0.  1.
</event>
<event>
 5   0  0.1650221E-04  0.1903224E+04  0.7818609E-02  0.8653253E-01
       -1   -1    0    0    0  501  0.00000000000E+00  0.00000000000E+00  0.78200099540E+03  0.78200099541E+03  0.50400001928E-02 0. -1.
        1   -1    0    0  501    0  0.00000000000E+00  0.00000000000E+00 -0.11580105675E+04  0.11580105675E+04  0.50400001928E-02 0.  1.
    10030    2    1    2    0    0  0.00000000000E+00  0.00000000000E+00 -0.37600957207E+03  0.19400115629E+04  0.19032240188E+04 0.  0.
        1    1    3    3  502    0  0.86935277185E+02 -0.10255044682E+03 -0.11482815204E+04  0.11561249010E+04  0.50400001928E-02 0.  1.
       -1    1    3    3    0  502 -0.86935277185E+02  0.10255044682E+03  0.77227194831E+03  0.78388666192E+03  0.50400001928E-02 0. -1.
</event>
<event>
 5   0  0.1650221E-04  0.2029127E+04  0.7818609E-02  0.8593123E-01
        1   -1    0    0  501    0  0.00000000000E+00  0.00000000000E+00  0.11255615481E+04  0.11255615481E+04  0.50400001928E-02 0. -1.
       -1   -1    0    0    0  501  0.00000000000E+00  0.00000000000E+00 -0.91451162654E+03  0.91451162656E+03  0.50400001928E-02 0.  1.
    10030    2    1    2    0    0  0.00000000000E+00  0.00000000000E+00  0.21104992159E+03  0.20400731747E+04  0.20291270263E+04 0.  0.
        1    1    3    3  502    0  0.63068982380E+03  0.20928013789E+03  0.87632316680E+03  0.10997773059E+04  0.50400001928E-02 0. -1.
       -1    1    3    3    0  502 -0.63068982380E+03 -0.20928013789E+03 -0.66527324522E+03  0.94029586875E+03  0.50400001928E-02 0.  1.
</event>
<event>
 5   0  0.3395569E-04  0.1337075E+04  0.7818609E-02  0.9000670E-01
        2   -1    0    0  501    0  0.00000000000E+00  0.00000000000E+00  0.36566700841E+03  0.36566700842E+03  0.25500000920E-02 0.  1.
       -2   -1    0    0    0  501  0.00000000000E+00  0.00000000000E+00 -0.12222658766E+04  0.12222658767E+04  0.25500000920E-02 0. -1.
    10030    2    1    2    0    0  0.00000000000E+00  0.00000000000E+00 -0.85659886824E+03  0.15879328851E+04  0.13370748769E+04 0.  0.
        4    1    3    3  502    0 -0.54521552490E+02 -0.64802325420E+03 -0.61241438027E+03  0.89328591377E+03  0.12699999809E+01 0. -1.
       -4    1    3    3    0  502  0.54521552490E+02  0.64802325420E+03 -0.24418448797E+03  0.69464697130E+03  0.12699999809E+01 0.  1.
</event>
<event>
 5   0  0.3395569E-04  0.1996443E+04  0.7818609E-02  0.8608286E-01
       -2   -1    0    0    0  501  0.00000000000E+00  0.00000000000E+00  0.16244447300E+04  0.16244447300E+04  0.25500000920E-02 0. -1.
        2   -1    0    0  501    0  0.00000000000E+00  0.00000000000E+00 -0.61340718419E+03  0.61340718420E+03  0.25500000920E-02 0.  1.
    10030    2    1    2    0    0  0.00000000000E+00  0.00000000000E+00  0.10110375458E+04  0.22378519142E+04  0.19964429045E+04 0.  0.
        4    1    3    3  502    0  0.34583767269E+03 -0.92700237968E+03  0.35720392858E+03  0.10519188977E+04  0.12699999809E+01 0. -1.
       -4    1    3    3    0  502 -0.34583767269E+03  0.92700237968E+03  0.65383361725E+03  0.11859330165E+04  0.12699999809E+01 0.  1.
</event>
<event>
 5   0  0.1650221E-04  0.1967587E+04  0.7818609E-02  0.8621927E-01
        1   -1    0    0  501    0  0.00000000000E+00  0.00000000000E+00  0.10754388067E+04  0.10754388067E+04  0.50400001928E-02 0.  1.
       -1   -1    0    0    0  501  0.00000000000E+00  0.00000000000E+00 -0.89995762475E+03  0.89995762476E+03  0.50400001928E-02 0. -1.
    10030    2    1    2    0    0  0.00000000000E+00  0.00000000000E+00  0.17548118194E+03  0.19753964315E+04  0.19675866985E+04 0.  0.
        1    1    3    3  502    0  0.70163061691E+03  0.21762031136E+03  0.74471185122E+03  0.10460592067E+04  0.50400001928E-02 0.  1.
       -1    1    3    3    0  502 -0.70163061691E+03 -0.21762031136E+03 -0.56923066929E+03  0.92933722479E+03  0.50400001928E-02 0. -1.
</event>
<event>
 5   0  0.1696052E-04  0.1945849E+04  0.7818609E-02  0.8632365E-01
        1   -1    0    0  501    0  0.00000000000E+00  0.00000000000E+00  0.14132873863E+04  0.14132873863E+04  0.50400001928E-02 0. -1.
       -1   -1    0    0    0  501  0.00000000000E+00  0.00000000000E+00 -0.66977324847E+03  0.66977324849E+03  0.50400001928E-02 0.  1.
    10030    2    1    2    0    0  0.00000000000E+00  0.00000000000E+00  0.74351413783E+03  0.20830606348E+04  0.19458490011E+04 0.  0.
        4    1    3    3  502    0  0.41631322200E+03 -0.17303099626E+03 -0.55120077954E+03  0.71209573566E+03  0.12699999809E+01 0.  1.
       -4    1    3    3    0  502 -0.41631322200E+03  0.17303099626E+03  0.12947149174E+04  0.13709648991E+04  0.12699999809E+01 0. -1.
</event>
<event>
 5   0  0.3395569E-04  0.1958796E+04  0.7818609E-02  0.8626131E-01
       -2   -1    0    0    0  501  0.00000000000E+00  0.00000000000E+00  0.63442214960E+03  0.63442214961E+03  0.25500000920E-02 0. -1.
        2   -1    0    0  501    0  0.00000000000E+00  0.00000000000E+00 -0.15119593585E+04  0.15119593585E+04  0.25500000920E-02 0.  1.
    10030    2    1    2    0    0  0.00000000000E+00  0.00000000000E+00 -0.87753720893E+03  0.21463815081E+04  0.19587960653E+04 0.  0.
        4    1    3    3  502    0 -0.27297377607E+03  0.25008167249E+03 -0.14323346845E+04  0.14794052138E+04  0.12699999809E+01 0.  1.
       -4    1    3    3    0  502  0.27297377607E+03 -0.25008167249E+03  0.55479747559E+03  0.66697629430E+03  0.12699999809E+01 0. -1.
</event>
<event>
 5   0  0.3395569E-04  0.2279974E+04  0.7818609E-02  0.8485859E-01
        2   -1    0    0  501    0  0.00000000000E+00  0.00000000000E+00  0.12462003621E+04  0.12462003621E+04  0.25500000920E-02 0.  1.
       -2   -1    0    0    0  501  0.00000000000E+00  0.00000000000E+00 -0.10428264717E+04  0.10428264717E+04  0.25500000920E-02 0. -1.
    10030    2    1    2    0    0  0.00000000000E+00  0.00000000000E+00  0.20337389037E+03  0.22890268338E+04  0.22799743214E+04 0.  0.
        4    1    3    3  502    0 -0.57349656351E+03 -0.92643378415E+03  0.43826606993E+03  0.11744175687E+04  0.12699999809E+01 0.  1.
       -4    1    3    3    0  502  0.57349656351E+03  0.92643378415E+03 -0.23489217956E+03  0.11146092650E+04  0.12699999809E+01 0. -1.
</event>
<event>
 5   0  0.3460648E-04  0.1991330E+04  0.7818609E-02  0.8610685E-01
        2   -1    0    0  501    0  0.00000000000E+00  0.00000000000E+00  0.31455301588E+04  0.31455301588E+04  0.25500000920E-02 0.  1.
       -2   -1    0    0    0  501  0.00000000000E+00  0.00000000000E+00 -0.31516124258E+03  0.31516124259E+03  0.25500000920E-02 0. -1.
    10030    2    1    2    0    0  0.00000000000E+00  0.00000000000E+00  0.28303689163E+04  0.34606914014E+04  0.19913304030E+04 0.  0.
        5    1    3    3  502    0 -0.21591629681E+03  0.25681249623E+03 -0.21393658955E+03  0.39794906683E+03  0.46999998093E+01 0. -1.
       -5    1    3    3    0  502  0.21591629681E+03 -0.25681249623E+03  0.30443055058E+04  0.30627423346E+04  0.46999998093E+01 0.  1.
</event>
<event>
 5   0  0.3387881E-04  0.1942327E+04  0.7818609E-02  0.8634070E-01
       -2   -1    0    0    0  501  0.00000000000E+00  0.00000000000E+00  0.72756103098E+03  0.72756103098E+03  0.25500000920E-02 0. -1.
        2   -1    0    0  501    0  0.00000000000E+00  0.00000000000E+00 -0.12963293985E+04  0.12963293985E+04  0.25500000920E-02 0.  1.
    10030    2    1    2    0    0  0.00000000000E+00  0.00000000000E+00 -0.56876836754E+03  0.20238904295E+04  0.19423272162E+04 0.  0.
        1    1    3    3  502    0  0.71108553407E+03 -0.55504114405E+01 -0.97358588121E+03  0.12056296745E+04  0.50400001928E-02 0.  1.
       -1    1    3    3    0  502 -0.71108553407E+03  0.55504114405E+01  0.40481751367E+03  0.81826075503E+03  0.50400001928E-02 0. -1.
</event>
<event>
 5   0  0.1664168E-04  0.1913171E+04  0.7818609E-02  0.8648328E-01
        1   -1    0    0  501    0  0.00000000000E+00  0.00000000000E+00  0.95994863608E+03  0.95994863609E+03  0.50400001928E-02 0.  1.
       -1   -1    0    0    0  501  0.00000000000E+00  0.00000000000E+00 -0.95323425793E+03  0.95323425794E+03  0.50400001928E-02 0. -1.
    10030    2    1    2    0    0  0.00000000000E+00  0.00000000000E+00  0.67143781505E+01  0.19131828940E+04  0.19131711118E+04 0.  0.
        5    1    3    3  502    0  0.12451253854E+03 -0.45774581609E+03 -0.82730985017E+03  0.95367619378E+03  0.46999998093E+01 0. -1.
       -5    1    3    3    0  502 -0.12451253854E+03  0.45774581609E+03  0.83402422832E+03  0.95950670025E+03  0.46999998093E+01 0.  1.
</event>
<event>
 5   0  0.3460648E-04  0.1980197E+04  0.7818609E-02  0.8615936E-01
       -2   -1    0    0    0  501  0.00000000000E+00  0.00000000000E+00  0.51437904807E+03  0.51437904807E+03  0.25500000920E-02 0.  1.
        2   -1    0    0  501    0  0.00000000000E+00  0.00000000000E+00 -0.19057828285E+04  0.19057828285E+04  0.25500000920E-02 0. -1.
    10030    2    1    2    0    0  0.00000000000E+00  0.00000000000E+00 -0.13914037804E+04  0.24201618766E+04  0.19801967146E+04 0.  0.
        5    1    3    3  502    0  0.76873494643E+03 -0.49648016049E+03 -0.23380952881E+03  0.94452895847E+03  0.46999998093E+01 0.  1.
       -5    1    3    3    0  502 -0.76873494643E+03  0.49648016049E+03 -0.11575942516E+04  0.14756329181E+04  0.46999998093E+01 0. -1.
</event>
<event>
 5   0  0.1643565E-04  0.1999769E+04  0.7818609E-02  0.8606728E-01
        1   -1    0    0  501    0  0.00000000000E+00  0.00000000000E+00  0.15682880327E+04  0.15682880327E+04  0.50400001928E-02 0.  1.
       -1   -1    0    0    0  501  0.00000000000E+00  0.00000000000E+00 -0.63749097408E+03  0.63749097410E+03  0.50400001928E-02 0. -1.
    10030    2    1    2    0    0  0.00000000000E+00  0.00000000000E+00  0.93079705863E+03  0.22057790068E+04  0.19997694523E+04 0.  0.
        2    1    3    3  502    0 -0.35674025049E+02 -0.45018929571E+03 -0.51859274566E+03  0.68766377969E+03  0.25500000920E-02 0. -1.
       -2    1    3    3    0  502  0.35674025049E+02  0.45018929571E+03  0.14493898043E+04  0.15181152271E+04  0.25500000920E-02 0.  1.
</event>
<event>
 5   0  0.3460648E-04  0.2004579E+04  0.7818609E-02  0.8604483E-01
        2   -1    0    0  501    0  0.00000000000E+00  0.00000000000E+00  0.80757411466E+03  0.80757411466E+03  0.25500000920E-02 0. -1.
       -2   -1    0    0    0  501  0.00000000000E+00  0.00000000000E+00 -0.12439532387E+04  0.12439532387E+04  0.25500000920E-02 0.  1.
    10030    2    1    2    0    0  0.00000000000E+00  0.00000000000E+00 -0.43637912403E+03  0.20515273534E+04  0.20045791932E+04 0.  0.
        5    1    3    3  502    0 -0.18862551329E+03  0.34159156009E+03 -0.11630111764E+04  0.12267361023E+04  0.46999998093E+01 0.  1.
       -5    1    3    3    0  502  0.18862551329E+03 -0.34159156009E+03  0.72663205241E+03  0.82479125103E+03  0.46999998093E+01 0. -1.
</event>
<event>
 5   0  0.1708578E-04  0.1993392E+04  0.7818609E-02  0.8609716E-01
       -1   -1    0    0    0  501  0.00000000000E+00  0.00000000000E+00  0.14842659744E+04  0.14842659744E+04  0.50400001928E-02 0.  1.
        1   -1    0    0  501    0  0.00000000000E+00  0.00000000000E+00 -0.66928915475E+03  0.66928915477E+03  0.50400001928E-02 0. -1.
    10030    2    1    2    0    0  0.00000000000E+00  0.00000000000E+00  0.81497681969E+03  0.21535551292E+04  0.19933922037E+04 0.  0.
        3    1    3    3  502    0 -0.42873580682E+03  0.37746069999E+03 -0.47490581999E+03  0.74285026765E+03  0.10100000352E+00 0. -1.
       -3    1    3    3    0  502  0.42873580682E+03 -0.37746069999E+03  0.12898826397E+04  0.14107048616E+04  0.10100000352E+00 0.  1.
</event>
<event>
 5   0  0.1696052E-04  0.1316670E+04  0.7818609E-02  0.9016449E-01
        1   -1    0    0  501    0  0.00000000000E+00  0.00000000000E+00  0.10799010138E+04  0.10799010138E+04  0.50400001928E-02 0.  1.
       -1   -1    0    0    0  501  0.00000000000E+00  0.00000000000E+00 -0.40133747289E+03  0.40133747293E+03  0.50400001928E-02 0. -1.
    10030    2    1    2    0    0  0.00000000000E+00  0.00000000000E+00  0.67856354093E+03  0.14812384868E+04  0.13166696532E+04 0.  0.
        4    1    3    3  502    0 -0.21833124952E+03  0.39058743075E+03 -0.20395622414E+03  0.49175891435E+03  0.12699999809E+01 0. -1.
       -4    1    3    3    0  502  0.21833124952E+03 -0.39058743075E+03  0.88251976507E+03  0.98947957241E+03  0.12699999809E+01 0.  1.
</event>
<event>
 5   0  0.1708578E-04  0.1996741E+04  0.7818609E-02  0.8608146E-01
        1   -1    0    0  501    0  0.00000000000E+00  0.00000000000E+00  0.14896841427E+04  0.14896841427E+04  0.50400001928E-02 0.  1.
       -1   -1    0    0    0  501  0.00000000000E+00  0.00000000000E+00 -0.66909713602E+03  0.66909713603E+03  0.50400001928E-02 0. -1.
    10030    2    1    2    0    0  0.00000000000E+00  0.00000000000E+00  0.82058700669E+03  0.21587812788E+04  0.19967407378E+04 0.  0.
        3    1    3    3  502    0 -0.60106562425E+03 -0.28468130270E+03 -0.39472605185E+03  0.77338993721E+03  0.10100000352E+00 0.  1.
       -3    1    3    3    0  502  0.60106562425E+03  0.28468130270E+03  0.12153130585E+04  0.13853913415E+04  0.10100000352E+00 0. -1.
</event>
<event>
 5   0  0.1708578E-04  0.2028784E+04  0.7818609E-02  0.8593280E-01
        1   -1    0    0  501    0  0.00000000000E+00  0.00000000000E+00  0.14736835101E+04  0.14736835101E+04  0.50400001928E-02 0. -1.
       -1   -1    0    0    0  501  0.00000000000E+00  0.00000000000E+00 -0.69824454498E+03  0.69824454500E+03  0.50400001928E-02 0.  1.
    10030    2    1    2    0    0  0.00000000000E+00  0.00000000000E+00  0.77543896512E+03  0.21719280551E+04  0.20287843375E+04 0.  0.
        3    1    3    3  502    0 -0.79915697636E+03  0.22661874595E+03 -0.23558299420E+03  0.86342763810E+03  0.10100000352E+00 0.  1.
       -3    1    3    3    0  502  0.79915697636E+03 -0.22661874595E+03  0.10110219593E+04  0.13085004170E+04  0.10100000352E+00 0. -1.
</event>
<event>
 5   0  0.3371947E-04  0.2119637E+04  0.7818609E-02  0.8552642E-01
        2   -1    0    0  501    0  0.00000000000E+00  0.00000000000E+00  0.10497554018E+04  0.10497554018E+04  0.25500000920E-02 0.  1.
       -2   -1    0    0    0  501  0.00000000000E+00  0.00000000000E+00 -0.10699782189E+04  0.10699782189E+04  0.25500000920E-02 0. -1.
    10030    2    1    2    0    0  0.00000000000E+00  0.00000000000E+00 -0.20222817091E+02  0.21197336207E+04  0.21196371530E+04 0.  0.
        2    1    3    3  502    0  0.78213673694E+03 -0.20466134438E+03 -0.69540989713E+03  0.10664047385E+04  0.25500000920E-02 0. -1.
       -2    1    3    3    0  502 -0.78213673694E+03  0.20466134438E+03  0.67518708004E+03  0.10533288823E+04  0.25500000920E-02 0.  1.
</event>
<event>
 5   0  0.1664168E-04  0.1991394E+04  0.7818609E-02  0.8610655E-01
        1   -1    0    0  501    0  0.00000000000E+00  0.00000000000E+00  0.13047951607E+04  0.13047951608E+04  0.50400001928E-02 0. -1.
       -1   -1    0    0    0  501  0.00000000000E+00  0.00000000000E+00 -0.75982266306E+03  0.75982266307E+03  0.50400001928E-02 0.  1.
    10030    2    1    2    0    0  0.00000000000E+00  0.00000000000E+00  0.54497249769E+03  0.20646178238E+04  0.19913944198E+04 0.  0.
        5    1    3    3  502    0 -0.47547202770E+03 -0.63804689972E+03  0.89300265585E+03  0.11960992136E+04  0.46999998093E+01 0. -1.
       -5    1    3    3    0  502  0.47547202770E+03  0.63804689972E+03 -0.34803015816E+03  0.86851861025E+03  0.46999998093E+01 0.  1.
</event>
<event>
 5   0  0.1643565E-04  0.1569078E+04  0.7818609E-02  0.8839773E-01
       -1   -1    0    0    0  501  0.00000000000E+00  0.00000000000E+00  0.34212269960E+03  0.34212269964E+03  0.50400001928E-02 0.  1.
        1   -1    0    0  501    0  0.00000000000E+00  0.00000000000E+00 -0.17990660362E+04  0.17990660362E+04  0.50400001928E-02 0. -1.
    10030    2    1    2    0    0  0.00000000000E+00  0.00000000000E+00 -0.14569433366E+04  0.21411887358E+04  0.15690778554E+04 0.  0.
        2    1    3    3  502    0 -0.65691877063E+03  0.93725458909E+02 -0.15732714144E+03  0.68196668709E+03  0.25500000920E-02 0.  1.
       -2    1    3    3    0  502  0.65691877063E+03 -0.93725458909E+02 -0.12996161951E+04  0.14592220487E+04  0.25500000920E-02 0. -1.
</event>
<event>
 5   0  0.1708578E-04  0.1826090E+04  0.7818609E-02  0.8692547E-01
       -1   -1    0    0    0  501  0.00000000000E+00  0.00000000000E+00  0.44873155295E+03  0.44873155297E+03  0.50400001928E-02 0.  1.
        1   -1    0    0  501    0  0.00000000000E+00  0.00000000000E+00 -0.18577943260E+04  0.18577943260E+04  0.50400001928E-02 0. -1.
    10030    2    1    2    0    0  0.00000000000E+00  0.00000000000E+00 -0.14090627731E+04  0.23065258790E+04  0.18260897382E+04 0.  0.
        3    1    3    3  502    0  0.61271241452E+02 -0.20452921083E+03  0.41675645849E+03  0.46826522293E+03  0.10100000352E+00 0.  1.
       -3    1    3    3    0  502 -0.61271241452E+02  0.20452921083E+03 -0.18258192316E+04  0.18382606561E+04  0.10100000352E+00 0. -1.
</event>
<event>
 5   0  0.3387881E-04  0.1978718E+04  0.7818609E-02  0.8616636E-01
       -2   -1    0    0    0  501  0.00000000000E+00  0.00000000000E+00  0.79690931475E+03  0.79690931476E+03  0.25500000920E-02 0.  1.
        2   -1    0    0  501    0  0.00000000000E+00  0.00000000000E+00 -0.12282838469E+04  0.12282838469E+04  0.25500000920E-02 0. -1.
    10030    2    1    2    0    0  0.00000000000E+00  0.00000000000E+00 -0.43137453216E+03  0.20251931617E+04  0.19787176037E+04 0.  0.
        1    1    3    3  502    0 -0.60903334945E+03  0.24289340807E+03  0.54260041643E+03  0.85107816349E+03  0.50400001928E-02 0.  1.
       -1    1    3    3    0  502  0.60903334945E+03 -0.24289340807E+03 -0.97397494859E+03  0.11741149982E+04  0.50400001928E-02 0. -1.
</event>
<event>
 5   0  0.3371947E-04  0.1933853E+04  0.7818609E-02  0.8638187E-01
        2   -1    0    0  501    0  0.00000000000E+00  0.00000000000E+00  0.81366657116E+03  0.81366657116E+03  0.25500000920E-02 0. -1.
       -2   -1    0    0    0  501  0.00000000000E+00  0.00000000000E+00 -0.11490539994E+04  0.11490539994E+04  0.25500000920E-02 0.  1.
    10030    2    1    2    0    0  0.00000000000E+00  0.00000000000E+00 -0.33538742823E+03  0.19627205706E+04  0.19338529704E+04 0.  0.
        2    1    3    3  502    0 -0.29481937348E+03 -0.92080093960E+03 -0.15509902336E+03  0.97920811904E+03  0.25500000920E-02 0. -1.
       -2    1    3    3    0  502  0.29481937348E+03  0.92080093960E+03 -0.18028840487E+03  0.98351245151E+03  0.25500000920E-02 0.  1.
</event>
<event>
 5   0  0.1708578E-04  0.1959805E+04  0.7818609E-02  0.8625647E-01
        1   -1    0    0  501    0  0.00000000000E+00  0.00000000000E+00  0.82403116053E+03  0.82403116054E+03  0.50400001928E-02 0.  1.
       -1   -1    0    0    0  501  0.00000000000E+00  0.00000000000E+00 -0.11652578851E+04  0.11652578852E+04  0.50400001928E-02 0. -1.
    10030    2    1    2    0    0  0.00000000000E+00  0.00000000000E+00 -0.34122672461E+03  0.19892890457E+04  0.19598048958E+04 0.  0.
        3    1    3    3  502    0 -0.55542922912E+03  0.72148002087E+03  0.19701458305E+03  0.93158456686E+03  0.10100000352E+00 0.  1.
       -3    1    3    3    0  502  0.55542922912E+03 -0.72148002087E+03 -0.53824130766E+03  0.10577044788E+04  0.10100000352E+00 0. -1.
</event>
<event>
 5   0  0.3387881E-04  0.1950107E+04  0.7818609E-02  0.8630309E-01
        2   -1    0    0  501    0  0.00000000000E+00  0.00000000000E+00  0.13778445613E+04  0.13778445613E+04  0.25500000920E-02 0. -1.
       -2   -1    0    0    0  501  0.00000000000E+00  0.00000000000E+00 -0.69001229186E+03  0.69001229186E+03  0.25500000920E-02 0.  1.
    10030    2    1    2    0    0  0.00000000000E+00  0.00000000000E+00  0.68783226945E+03  0.20678568532E+04  0.19501073648E+04 0.  0.
        1    1    3    3  502    0 -0.30662339633E+03 -0.79292505564E+03  0.85022074116E+03  0.12023407835E+04  0.50400001928E-02 0.  1.
       -1    1    3    3    0  502  0.30662339633E+03  0.79292505564E+03 -0.16238847171E+03  0.86551606964E+03  0.50400001928E-02 0. -1.
</event>
<event>
 5   0  0.1650221E-04  0.1634256E+04  0.7818609E-02  0.8799775E-01
       -1   -1    0    0    0  501  0.00000000000E+00  0.00000000000E+00  0.53674896147E+03  0.53674896150E+03  0.50400001928E-02 0.  1.
        1   -1    0    0  501    0  0.00000000000E+00  0.00000000000E+00 -0.12439671307E+04  0.12439671308E+04  0.50400001928E-02 0. -1.
    10030    2    1    2    0    0  0.00000000000E+00  0.00000000000E+00 -0.70721816927E+03  0.17807160923E+04  0.16342558742E+04 0.  0.
        1    1    3    3  502    0  0.36787824809E+03 -0.32510654025E+03  0.35812927997E+03  0.60768844741E+03  0.50400001928E-02 0.  1.
       -1    1    3    3    0  502 -0.36787824809E+03  0.32510654025E+03 -0.10653474492E+04  0.11730276448E+04  0.50400001928E-02 0. -1.
</event>
<event>
 5   0  0.1708578E-04  0.1902298E+04  0.7818609E-02  0.8653714E-01
       -1   -1    0    0    0  501  0.00000000000E+00  0.00000000000E+00  0.50142051923E+03  0.50142051926E+03  0.50400001928E-02 0.  1.
        1   -1    0    0  501    0  0.00000000000E+00  0.00000000000E+00 -0.18042422485E+04  0.18042422485E+04  0.50400001928E-02 0. -1.
    10030    2    1    2    0    0  0.00000000000E+00  0.00000000000E+00 -0.13028217292E+04  0.23056627677E+04  0.19022976477E+04 0.  0.
        3    1    3    3  502    0  0.13612446716E+02 -0.68360109292E+03 -0.14528150238E+04  0.16056672309E+04  0.10100000352E+00 0. -1.
       -3    1    3    3    0  502 -0.13612446716E+02  0.68360109292E+03  0.14999329454E+03  0.69999553681E+03  0.10100000352E+00 0.  1.
</event>
<event>
 5   0  0.3395569E-04  0.2052442E+04  0.7818609E-02  0.8582487E-01
        2   -1    0    0  501    0  0.00000000000E+00  0.00000000000E+00  0.17473362606E+04  0.17473362606E+04  0.25500000920E-02 0.  1.
       -2   -1    0    0    0  501  0.00000000000E+00  0.00000000000E+00 -0.60270597240E+03  0.60270597241E+03  0.25500000920E-02 0. -1.
    10030    2    1    2    0    0  0.00000000000E+00  0.00000000000E+00  0.11446302882E+04  0.23500422330E+04  0.20524424475E+04 0.  0.
        4    1    3    3  502    0 -0.36143655763E+03 -0.37448554168E+03  0.15850090152E+04  0.16682718595E+04  0.12699999809E+01 0.  1.
       -4    1    3    3    0  502  0.36143655763E+03  0.37448554168E+03 -0.44037872698E+03  0.68177037351E+03  0.12699999809E+01 0. -1.
</event>
<event>
 5   0  0.1222488E-04  0.1970789E+04  0.7818609E-02  0.8620401E-01
       -4   -1    0    0    0  501  0.00000000000E+00  0.00000000000E+00  0.86406287007E+03  0.86406380340E+03  0.12699999809E+01 0.  1.
        4   -1    0    0  501    0  0.00000000000E+00  0.00000000000E+00 -0.11237611294E+04  0.11237618470E+04  0.12699999809E+01 0. -1.
    10030    2    1    2    0    0  0.00000000000E+00  0.00000000000E+00 -0.25969825930E+03  0.19878256504E+04  0.19707885809E+04 0.  0.
        4    1    3    3  502    0  0.31973716843E+03 -0.71636629611E+03 -0.73131592891E+03  0.10724910852E+04  0.12699999809E+01 0. -1.
       -4    1    3    3    0  502 -0.31973716843E+03  0.71636629611E+03  0.47161766960E+03  0.91533456520E+03  0.12699999809E+01 0.  1.
</event>
<event>
 5   0  0.3387881E-04  0.1098528E+04  0.7818609E-02  0.9206628E-01
        2   -1    0    0  501    0  0.00000000000E+00  0.00000000000E+00  0.21655746162E+04  0.21655746162E+04  0.25500000920E-02 0. -1.
       -2   -1    0    0    0  501  0.00000000000E+00  0.00000000000E+00 -0.13931221193E+03  0.13931221195E+03  0.25500000920E-02 0.  1.
    10030    2    1    2    0    0  0.00000000000E+00  0.00000000000E+00  0.20262624043E+04  0.23048868282E+04  0.10985280878E+04 0.  0.
        1    1    3    3  502    0 -0.12919462062E+03  0.40112477477E+03  0.27399924891E+03  0.50266084327E+03  0.50400001928E-02 0.  1.
       -1    1    3    3    0  502  0.12919462062E+03 -0.40112477477E+03  0.17522631554E+04  0.18022259849E+04  0.50400001928E-02 0. -1.
</event>
<event>
 5   0  0.3460648E-04  0.2024137E+04  0.7818609E-02  0.8595418E-01
        2   -1    0    0  501    0  0.00000000000E+00  0.00000000000E+00  0.81620738791E+03  0.81620738791E+03  0.25500000920E-02 0.  1.
       -2   -1    0    0    0  501  0.00000000000E+00  0.00000000000E+00 -0.12549294141E+04  0.12549294141E+04  0.25500000920E-02 0. -1.
    10030    2    1    2    0    0  0.00000000000E+00  0.00000000000E+00 -0.43872202617E+03  0.20711368020E+04  0.20241370103E+04 0.  0.
        5    1    3    3  502    0 -0.56793682258E+03  0.57748390844E+03 -0.84026287466E+03  0.11670919790E+04  0.46999998093E+01 0. -1.
       -5    1    3    3    0  502  0.56793682258E+03 -0.57748390844E+03  0.40154084849E+03  0.90404482298E+03  0.46999998093E+01 0.  1.
</event>
<event>
 5   0  0.3395569E-04  0.2045358E+04  0.7818609E-02  0.8585703E-01
       -2   -1    0    0    0  501  0.00000000000E+00  0.00000000000E+00  0.13008627867E+04  0.13008627867E+04  0.25500000920E-02 0.  1.
        2   -1    0    0  501    0  0.00000000000E+00  0.00000000000E+00 -0.80398334297E+03  0.80398334297E+03  0.25500000920E-02 0. -1.
    10030    2    1    2    0    0  0.00000000000E+00  0.00000000000E+00  0.49687944375E+03  0.21048461297E+04  0.20453576822E+04 0.  0.
        4    1    3    3  502    0  0.32062646302E+03  0.24378652428E+02  0.12474867889E+04  0.12882626086E+04  0.12699999809E+01 0.  1.
       -4    1    3    3    0  502 -0.32062646302E+03 -0.24378652428E+02 -0.75060734510E+03  0.81658352108E+03  0.12699999809E+01 0. -1.
</event>
<event>
 5   0  0.1708578E-04  0.1914777E+04  0.7818609E-02  0.8647536E-01
        1   -1    0    0  501    0  0.00000000000E+00  0.00000000000E+00  0.13750989134E+04  0.13750989135E+04  0.50400001928E-02 0. -1.
       -1   -1    0    0    0  501  0.00000000000E+00  0.00000000000E+00 -0.66656500591E+03  0.66656500592E+03  0.50400001928E-02 0.  1.
    10030    2    1    2    0    0  0.00000000000E+00  0.00000000000E+00  0.70853390754E+03  0.20416639194E+04  0.19147770788E+04 0.  0.
        3    1    3    3  502    0  0.33023012677E+02 -0.41451436821E+03 -0.56524868768E+03  0.70172556598E+03  0.10100000352E+00 0.  1.
       -3    1    3    3    0  502 -0.33023012677E+02  0.41451436821E+03  0.12737825952E+04  0.13399383534E+04  0.10100000352E+00 0. -1.
</event>
<event>
 5   0  0.1708578E-04  0.1939179E+04  0.7818609E-02  0.8635597E-01
       -1   -1    0    0    0  501  0.00000000000E+00  0.00000000000E+00  0.77523058022E+03  0.77523058024E+03  0.50400001928E-02 0.  1.
        1   -1    0    0  501    0  0.00000000000E+00  0.00000000000E+00 -0.12126757692E+04  0.12126757692E+04  0.50400001928E-02 0. -1.
    10030    2    1    2    0    0  0.00000000000E+00  0.00000000000E+00 -0.43744518896E+03  0.19879063494E+04  0.19391785273E+04 0.  0.
        3    1    3    3  502    0  0.49188382097E+03  0.61276177717E+03  0.36359765318E+03  0.86581173040E+03  0.10100000352E+00 0.  1.
       -3    1    3    3    0  502 -0.49188382097E+03 -0.61276177717E+03 -0.80104284214E+03  0.11220946190E+04  0.10100000352E+00 0. -1.
</event>
<event>
 5   0  0.3431030E-04  0.1987176E+04  0.7818609E-02  0.8612640E-01
       -2   -1    0    0    0  501  0.00000000000E+00  0.00000000000E+00  0.91965896600E+03  0.91965896600E+03  0.25500000920E-02 0.  1.
        2   -1    0    0  501    0  0.00000000000E+00  0.00000000000E+00 -0.10734597689E+04  0.10734597689E+04  0.25500000920E-02 0. -1.
    10030    2    1    2    0    0  0.00000000000E+00  0.00000000000E+00 -0.15380080287E+03  0.19931187349E+04  0.19871757860E+04 0.  0.
        3    1    3    3  502    0  0.37389084015E+03 -0.33215442241E+03 -0.93801093797E+03  0.10630077378E+04  0.10100000352E+00 0. -1.
       -3    1    3    3    0  502 -0.37389084015E+03  0.33215442241E+03  0.78421013510E+03  0.93011099707E+03  0.10100000352E+00 0.  1.
</event>
<event>
 5   0  0.3395569E-04  0.2014475E+04  0.7818609E-02  0.8599883E-01
       -2   -1    0    0    0  501  0.00000000000E+00  0.00000000000E+00  0.10835007748E+04  0.10835007748E+04  0.25500000920E-02 0. -1.
        2   -1    0    0  501    0  0.00000000000E+00  0.00000000000E+00 -0.93634172220E+03  0.93634172220E+03  0.25500000920E-02 0.  1.
    10030    2    1    2    0    0  0.00000000000E+00  0.00000000000E+00  0.14715905262E+03  0.20198424970E+04  0.20144746030E+04 0.  0.
        4    1    3    3  502    0  0.24427087962E+03 -0.30993294159E+03 -0.85560376672E+03  0.94222402296E+03  0.12699999809E+01 0.  1.
       -4    1    3    3    0  502 -0.24427087962E+03  0.30993294159E+03  0.10027628193E+04  0.10776184741E+04  0.12699999809E+01 0. -1.
</event>
<event>
 5   0  0.1643565E-04  0.2046312E+04  0.7818609E-02  0.8585269E-01
       -1   -1    0    0    0  501  0.00000000000E+00  0.00000000000E+00  0.95059704228E+03  0.95059704230E+03  0.50400001928E-02 0. -1.
        1   -1    0    0  501    0  0.00000000000E+00  0.00000000000E+00 -0.11012537322E+04  0.11012537323E+04  0.50400001928E-02 0.  1.
    10030    2    1    2    0    0  0.00000000000E+00  0.00000000000E+00 -0.15065668996E+03  0.20518507746E+04  0.20463123327E+04 0.  0.
        2    1    3    3  502    0  0.23365053444E+03  0.81793651664E+03  0.49474875276E+03  0.98406760228E+03  0.25500000920E-02 0. -1.
       -2    1    3    3    0  502 -0.23365053444E+03 -0.81793651664E+03 -0.64540544272E+03  0.10677831723E+04  0.25500000920E-02 0.  1.
</event>
<event>
 5   0  0.1650221E-04  0.2058250E+04  0.7818609E-02  0.8579861E-01
        1   -1    0    0  501    0  0.00000000000E+00  0.00000000000E+00  0.22115222116E+04  0.22115222116E+04  0.50400001928E-02 0.  1.
       -1   -1    0    0    0  501  0.00000000000E+00  0.00000000000E+00 -0.47890014524E+03  0.47890014527E+03  0.50400001928E-02 0. -1.
    10030    2    1    2    0    0  0.00000000000E+00  0.00000000000E+00  0.17326220663E+04  0.26904223568E+04  0.20582500415E+04 0.  0.
        1    1    3    3  502    0  0.69358288971E+03 -0.75545345510E+03  0.75439077645E+03  0.12731349462E+04  0.50400001928E-02 0. -1.
       -1    1    3    3    0  502 -0.69358288971E+03  0.75545345510E+03  0.97823128987E+03  0.14172874106E+04  0.50400001928E-02 0.  1.
</event>
<event>
 5   0  0.1643565E-04  0.1973727E+04  0.7818609E-02  0.8619003E-01
       -1   -1    0    0    0  501  0.00000000000E+00  0.00000000000E+00  0.18548668115E+04  0.18548668115E+04  0.50400001928E-02 0.  1.
        1   -1    0    0  501    0  0.00000000000E+00  0.00000000000E+00 -0.52505117442E+03  0.52505117444E+03  0.50400001928E-02 0. -1.
    10030    2    1    2    0    0  0.00000000000E+00  0.00000000000E+00  0.13298156370E+04  0.23799179859E+04  0.19737274359E+04 0.  0.
        2    1    3    3  502    0  0.17335719765E+03  0.85485938433E+03  0.12214890268E+04  0.15009572704E+04  0.25500000920E-02 0.  1.
       -2    1    3    3    0  502 -0.17335719765E+03 -0.85485938433E+03  0.10832661026E+03  0.87896071553E+03  0.25500000920E-02 0. -1.
</event>
<event>
 5   0  0.3395569E-04  0.1986774E+04  0.7818609E-02  0.8612829E-01
        2   -1    0    0  501    0  0.00000000000E+00  0.00000000000E+00  0.14232809315E+04  0.14232809315E+04  0.25500000920E-02 0.  1.
       -2   -1    0    0    0  501  0.00000000000E+00  0.00000000000E+00 -0.69333996476E+03  0.69333996477E+03  0.25500000920E-02 0. -1.
    10030    2    1    2    0    0  0.00000000000E+00  0.00000000000E+00  0.72994096672E+03  0.21166208963E+04  0.19867738179E+04 0.  0.
        4    1    3    3  502    0  0.12612228918E+03  0.86106139822E+03  0.87532189320E+03  0.12343109790E+04  0.12699999809E+01 0.  1.
       -4    1    3    3    0  502 -0.12612228918E+03 -0.86106139822E+03 -0.14538092649E+03  0.88230991722E+03  0.12699999809E+01 0. -1.
</event>
<event>
 5   0  0.3395569E-04  0.1973437E+04  0.7818609E-02  0.8619141E-01
        2   -1    0    0  501    0  0.00000000000E+00  0.00000000000E+00  0.84564569780E+03  0.84564569781E+03  0.25500000920E-02 0.  1.
       -2   -1    0    0    0  501  0.00000000000E+00  0.00000000000E+00 -0.11513256330E+04  0.11513256330E+04  0.25500000920E-02 0. -1.
    10030    2    1    2    0    0  0.00000000000E+00  0.00000000000E+00 -0.30567993523E+03  0.19969713308E+04  0.19734371724E+04 0.  0.
        4    1    3    3  502    0 -0.45755021292E+03  0.76571470871E+03 -0.57970071984E+03  0.10638259961E+04  0.12699999809E+01 0.  1.
       -4    1    3    3    0  502  0.45755021292E+03 -0.76571470871E+03  0.27402078461E+03  0.93314533475E+03  0.12699999809E+01 0. -1.
</event>
<event>
 5   0  0.3460648E-04  0.2025037E+04  0.7818609E-02  0.8595004E-01
       -2   -1    0    0    0  501  0.00000000000E+00  0.00000000000E+00  0.56708334312E+03  0.56708334312E+03  0.25500000920E-02 0.  1.
        2   -1    0    0  501    0  0.00000000000E+00  0.00000000000E+00 -0.18078353581E+04  0.18078353581E+04  0.25500000920E-02 0. -1.
    10030    2    1    2    0    0  0.00000000000E+00  0.00000000000E+00 -0.12407520150E+04  0.23749187013E+04  0.20250366107E+04 0.  0.
        5    1    3    3  502    0  0.73625056221E+03  0.61105638913E+03 -0.10088408301E+04  0.13904088289E+04  0.46999998093E+01 0. -1.
       -5    1    3    3    0  502 -0.73625056221E+03 -0.61105638913E+03 -0.23191118493E+03  0.98450987235E+03  0.46999998093E+01 0.  1.
</event>
<event>
 5   0  0.1708578E-04  0.1743110E+04  0.7818609E-02  0.8737152E-01
       -1   -1    0    0    0  501  0.00000000000E+00  0.00000000000E+00  0.89321208653E+03  0.89321208654E+03  0.50400001928E-02 0. -1.
        1   -1    0    0  501    0  0.00000000000E+00  0.00000000000E+00 -0.85042316742E+03  0.85042316743E+03  0.50400001928E-02 0.  1.
    10030    2    1    2    0    0  0.00000000000E+00  0.00000000000E+00  0.42788919110E+02  0.17436352540E+04  0.17431101535E+04 0.  0.
        3    1    3    3  502    0  0.86648566568E+03  0.46846820880E+02 -0.59970120887E+02  0.86982093505E+03  0.10100000352E+00 0. -1.
       -3    1    3    3    0  502 -0.86648566568E+03 -0.46846820880E+02  0.10275904000E+03  0.87381431892E+03  0.10100000352E+00 0.  1.
</event>
<event>
 5   0  0.1643565E-04  0.2005503E+04  0.7818609E-02  0.8604052E-01
       -1   -1    0    0    0  501  0.00000000000E+00  0.00000000000E+00  0.10389437362E+04  0.10389437362E+04  0.50400001928E-02 0.  1.
        1   -1    0    0  501    0  0.00000000000E+00  0.00000000000E+00 -0.96782008024E+03  0.96782008025E+03  0.50400001928E-02 0. -1.
    10030    2    1    2    0    0  0.00000000000E+00  0.00000000000E+00  0.71123655982E+02  0.20067638165E+04  0.20055030393E+04 0.  0.
        2    1    3    3  502    0 -0.34184251545E+03  0.30608924067E+03  0.92772970321E+03  0.10350020922E+04  0.25500000920E-02 0.  1.
       -2    1    3    3    0  502  0.34184251545E+03 -0.30608924067E+03 -0.85660604723E+03  0.97176172429E+03  0.25500000920E-02 0. -1.
</event>
<event>
 5   0  0.3387881E-04  0.1610742E+04  0.7818609E-02  0.8813976E-01
       -2   -1    0    0    0  501  0.00000000000E+00  0.00000000000E+00  0.48431776185E+03  0.48431776186E+03  0.25500000920E-02 0.  1.
        2   -1    0    0  501    0  0.00000000000E+00  0.00000000000E+00 -0.13392495368E+04  0.13392495368E+04  0.25500000920E-02 0. -1.
    10030    2    1    2    0    0  0.00000000000E+00  0.00000000000E+00 -0.85493177497E+03  0.18235672987E+04  0.16107418642E+04 0.  0.
        1    1    3    3  502    0 -0.78671786147E+03 -0.40738906438E+02 -0.23789705548E+03  0.82290926662E+03  0.50400001928E-02 0.  1.
       -1    1    3    3    0  502  0.78671786147E+03  0.40738906438E+02 -0.61703471949E+03  0.10006580321E+04  0.50400001928E-02 0. -1.
</event>
<event>
 5   0  0.1696052E-04  0.2039467E+04  0.7818609E-02  0.8588387E-01
       -1   -1    0    0    0  501  0.00000000000E+00  0.00000000000E+00  0.59070823095E+03  0.59070823097E+03  0.50400001928E-02 0.  1.
        1   -1    0    0  501    0  0.00000000000E+00  0.00000000000E+00 -0.17603562190E+04  0.17603562190E+04  0.50400001928E-02 0. -1.
    10030    2    1    2    0    0  0.00000000000E+00  0.00000000000E+00 -0.11696479880E+04  0.23510644500E+04  0.20394674873E+04 0.  0.
        4    1    3    3  502    0 -0.22697329402E+03  0.16441198894E+03  0.54543722642E+03  0.61323042910E+03  0.12699999809E+01 0.  1.
       -4    1    3    3    0  502  0.22697329402E+03 -0.16441198894E+03 -0.17150852145E+04  0.17378340209E+04  0.12699999809E+01 0. -1.
</event>
<event>
 5   0  0.3395569E-04  0.1997460E+04  0.7818609E-02  0.8607809E-01
       -2   -1    0    0    0  501  0.00000000000E+00  0.00000000000E+00  0.51200661906E+03  0.51200661907E+03  0.25500000920E-02 0.  1.
        2   -1    0    0  501    0  0.00000000000E+00  0.00000000000E+00 -0.19481415859E+04  0.19481415859E+04  0.25500000920E-02 0. -1.
    10030    2    1    2    0    0  0.00000000000E+00  0.00000000000E+00 -0.14361349668E+04  0.24601482050E+04  0.19974597737E+04 0.  0.
        4    1    3    3  502    0 -0.36337731081E+03  0.23341883847E+03  0.39104486786E+03  0.58261919445E+03  0.12699999809E+01 0.  1.
       -4    1    3    3    0  502  0.36337731081E+03 -0.23341883847E+03 -0.18271798347E+04  0.18775290105E+04  0.12699999809E+01 0. -1.
</event>
<event>
 5   0  0.3371947E-04  0.1892538E+04  0.7818609E-02  0.8658579E-01
       -2   -1    0    0    0  501  0.00000000000E+00  0.00000000000E+00  0.57812595190E+03  0.57812595191E+03  0.25500000920E-02 0.  1.
        2   -1    0    0  501    0  0.00000000000E+00  0.00000000000E+00 -0.15488414748E+04  0.15488414748E+04  0.25500000920E-02 0. -1.
    10030    2    1    2    0    0  0.00000000000E+00  0.00000000000E+00 -0.97071552288E+03  0.21269674267E+04  0.18925384561E+04 0.  0.
        2    1    3    3  502    0  0.64746768455E+03 -0.39612715949E+03  0.14969780097E+03  0.77365403162E+03  0.25500000920E-02 0.  1.
       -2    1    3    3    0  502 -0.64746768455E+03  0.39612715949E+03 -0.11204133238E+04  0.13533133951E+04  0.25500000920E-02 0. -1.
</event>
<event>
 5   0  0.1696052E-04  0.1898845E+04  0.7818609E-02  0.8655432E-01
       -1   -1    0    0    0  501  0.00000000000E+00  0.00000000000E+00  0.11804734418E+04  0.11804734418E+04  0.50400001928E-02 0.  1.
        1   -1    0    0  501    0  0.00000000000E+00  0.00000000000E+00 -0.76359418708E+03  0.76359418709E+03  0.50400001928E-02 0. -1.
    10030    2    1    2    0    0  0.00000000000E+00  0.00000000000E+00  0.41687925470E+03  0.19440676289E+04  0.18988445520E+04 0.  0.
        4    1    3    3  502    0 -0.11120409941E+03 -0.59089339258E+03  0.96070392662E+03  0.11333468139E+04  0.12699999809E+01 0.  1.
       -4    1    3    3    0  502  0.11120409941E+03  0.59089339258E+03 -0.54382467191E+03  0.81072081496E+03  0.12699999809E+01 0. -1.
</event>
<event>
 5   0  0.3395569E-04  0.2010926E+04  0.7818609E-02  0.8601529E-01
        2   -1    0    0  501    0  0.00000000000E+00  0.00000000000E+00  0.13887918477E+04  0.13887918477E+04  0.25500000920E-02 0. -1.
       -2   -1    0    0    0  501  0.00000000000E+00  0.00000000000E+00 -0.72793935912E+03  0.72793935913E+03  0.25500000920E-02 0.  1.
    10030    2    1    2    0    0  0.00000000000E+00  0.00000000000E+00  0.66085248857E+03  0.21167312068E+04  0.20109264010E+04 0.  0.
        4    1    3    3  502    0 -0.95831556387E+03 -0.46816420123E+02  0.13951054160E+02  0.95956070259E+03  0.12699999809E+01 0.  1.
       -4    1    3    3    0  502  0.95831556387E+03  0.46816420123E+02  0.64690143441E+03  0.11571705042E+04  0.12699999809E+01 0. -1.
</event>
<event>
 5   0  0.1708578E-04  0.1999547E+04  0.7818609E-02  0.8606833E-01
       -1   -1    0    0    0  501  0.00000000000E+00  0.00000000000E+00  0.42024389531E+03  0.42024389534E+03  0.50400001928E-02 0. -1.
        1   -1    0    0  501    0  0.00000000000E+00  0.00000000000E+00 -0.23784917890E+04  0.23784917890E+04  0.50400001928E-02 0.  1.
    10030    2    1    2    0    0  0.00000000000E+00  0.00000000000E+00 -0.19582478937E+04  0.27987356844E+04  0.19995466030E+04 0.  0.
        3    1    3    3  502    0 -0.16338029414E+03  0.10808259071E+03  0.39311846231E+03  0.43922329462E+03  0.10100000352E+00 0. -1.
       -3    1    3    3    0  502  0.16338029414E+03 -0.10808259071E+03 -0.23513663560E+04  0.23595123898E+04  0.10100000352E+00 0.  1.
</event>
<event>
 5   0  0.3460648E-04  0.1471774E+04  0.7818609E-02  0.8903443E-01
       -2   -1    0    0    0  501  0.00000000000E+00  0.00000000000E+00  0.37758574041E+03  0.37758574042E+03  0.25500000920E-02 0. -1.
        2   -1    0    0  501    0  0.00000000000E+00  0.00000000000E+00 -0.14341903597E+04  0.14341903597E+04  0.25500000920E-02 0.  1.
    10030    2    1    2    0    0  0.00000000000E+00  0.00000000000E+00 -0.10566046193E+04  0.18117761001E+04  0.14717742067E+04 0.  0.
        5    1    3    3  502    0 -0.15248128802E+03  0.66162867850E+03 -0.87758247422E+03  0.11095837690E+04  0.46999998093E+01 0. -1.
       -5    1    3    3    0  502  0.15248128802E+03 -0.66162867850E+03 -0.17902214506E+03  0.70219233108E+03  0.46999998093E+01 0.  1.
</event>
<event>
 5   0  0.3460648E-04  0.2000153E+04  0.7818609E-02  0.8606549E-01
       -2   -1    0    0    0  501  0.00000000000E+00  0.00000000000E+00  0.67679719534E+03  0.67679719534E+03  0.25500000920E-02 0. -1.
        2   -1    0    0  501    0  0.00000000000E+00  0.00000000000E+00 -0.14777732651E+04  0.14777732651E+04  0.25500000920E-02 0.  1.
    10030    2    1    2    0    0  0.00000000000E+00  0.00000000000E+00 -0.80097606972E+03  0.21545704604E+04  0.20001527953E+04 0.  0.
        5    1    3    3  502    0 -0.28646556265E+03 -0.71266697102E+03 -0.10903807860E+04  0.13337575037E+04  0.46999998093E+01 0.  1.
       -5    1    3    3    0  502  0.28646556265E+03  0.71266697102E+03  0.28940471624E+03  0.82081295674E+03  0.46999998093E+01 0. -1.
</event>
<event>
 5   0  0.3387881E-04  0.1959186E+04  0.7818609E-02  0.8625944E-01
        2   -1    0    0  501    0  0.00000000000E+00  0.00000000000E+00  0.18061610998E+04  0.18061610998E+04  0.25500000920E-02 0.  1.
       -2   -1    0    0    0  501  0.00000000000E+00  0.00000000000E+00 -0.53129378251E+03  0.53129378251E+03  0.25500000920E-02 0. -1.
    10030    2    1    2    0    0  0.00000000000E+00  0.00000000000E+00  0.12748673173E+04  0.23374548823E+04  0.19591857110E+04 0.  0.
        1    1    3    3  502    0 -0.88902509481E+03 -0.35800745451E+03  0.87921078402E+03  0.13005946945E+04  0.50400001928E-02 0.  1.
       -1    1    3    3    0  502  0.88902509481E+03  0.35800745451E+03  0.39565653329E+03  0.10368601878E+04  0.50400001928E-02 0. -1.
</event>
<event>
 5   0  0.1696052E-04  0.2029473E+04  0.7818609E-02  0.8592964E-01
        1   -1    0    0  501    0  0.00000000000E+00  0.00000000000E+00  0.79866890109E+03  0.79866890110E+03  0.50400001928E-02 0.  1.
       -1   -1    0    0    0  501  0.00000000000E+00  0.00000000000E+00 -0.12892583312E+04  0.12892583312E+04  0.50400001928E-02 0. -1.
    10030    2    1    2    0    0  0.00000000000E+00  0.00000000000E+00 -0.49058943011E+03  0.20879272323E+04  0.20294733648E+04 0.  0.
        4    1    3    3  502    0  0.18760620915E+03 -0.11327801152E+03  0.77403047003E+03  0.80445806543E+03  0.12699999809E+01 0.  1.
       -4    1    3    3    0  502 -0.18760620915E+03  0.11327801152E+03 -0.12646199001E+04  0.12834691669E+04  0.12699999809E+01 0. -1.
</event>
<event>
 5   0  0.1708578E-04  0.2001205E+04  0.7818609E-02  0.8606057E-01
        1   -1    0    0  501    0  0.00000000000E+00  0.00000000000E+00  0.13531926581E+04  0.13531926581E+04  0.50400001928E-02 0. -1.
       -1   -1    0    0    0  501  0.00000000000E+00  0.00000000000E+00 -0.73988403095E+03  0.73988403097E+03  0.50400001928E-02 0.  1.
    10030    2    1    2    0    0  0.00000000000E+00  0.00000000000E+00  0.61330862712E+03  0.20930766891E+04  0.20012052754E+04 0.  0.
        3    1    3    3  502    0 -0.88849603025E+03  0.46015440494E+03  0.30017675807E+03  0.10446403058E+04  0.10100000352E+00 0.  1.
       -3    1    3    3    0  502  0.88849603025E+03 -0.46015440494E+03  0.31313186905E+03  0.10484363833E+04  0.10100000352E+00 0. -1.
</event>
<event>
 5   0  0.1708578E-04  0.1997527E+04  0.7818609E-02  0.8607778E-01
       -1   -1    0    0    0  501  0.00000000000E+00  0.00000000000E+00  0.91816095211E+03  0.91816095212E+03  0.50400001928E-02 0. -1.
        1   -1    0    0  501    0  0.00000000000E+00  0.00000000000E+00 -0.10864419156E+04  0.10864419156E+04  0.50400001928E-02 0.  1.
    10030    2    1    2    0    0  0.00000000000E+00  0.00000000000E+00 -0.16828096346E+03  0.20046028677E+04  0.19975270147E+04 0.  0.
        3    1    3    3  502    0  0.74442885252E+03 -0.65067035123E+02  0.58086854586E+03  0.94647573307E+03  0.10100000352E+00 0. -1.
       -3    1    3    3    0  502 -0.74442885252E+03  0.65067035123E+02 -0.74914950932E+03  0.10581271346E+04  0.10100000352E+00 0.  1.
</event>
<event>
 5   0  0.3395569E-04  0.1998478E+04  0.7818609E-02  0.8607332E-01
        2   -1    0    0  501    0  0.00000000000E+00  0.00000000000E+00  0.13960806352E+04  0.13960806352E+04  0.25500000920E-02 0.  1.
       -2   -1    0    0    0  501  0.00000000000E+00  0.00000000000E+00 -0.71520138957E+03  0.71520138957E+03  0.25500000920E-02 0. -1.
    10030    2    1    2    0    0  0.00000000000E+00  0.00000000000E+00  0.68087924561E+03  0.21112820248E+04  0.19984782313E+04 0.  0.
        4    1    3    3  502    0  0.28747476931E+03 -0.24168189263E+03  0.13186786373E+04  0.13711188284E+04  0.12699999809E+01 0.  1.
       -4    1    3    3    0  502 -0.28747476931E+03  0.24168189263E+03 -0.63779939172E+03  0.74016319633E+03  0.12699999809E+01 0. -1.
</event>
<event>
 5   0  0.1664168E-04  0.1996245E+04  0.7818609E-02  0.8608378E-01
        1   -1    0    0  501    0  0.00000000000E+00  0.00000000000E+00  0.11075436914E+04  0.11075436914E+04  0.50400001928E-02 0. -1.
       -1   -1    0    0    0  501  0.00000000000E+00  0.00000000000E+00 -0.89951185328E+03  0.89951185329E+03  0.50400001928E-02 0.  1.
    10030    2    1    2    0    0  0.00000000000E+00  0.00000000000E+00  0.20803183809E+03  0.20070555447E+04  0.19962451537E+04 0.  0.
        5    1    3    3  502    0  0.45590917499E+03 -0.67912077889E+03  0.67909977864E+03  0.10631353665E+04  0.46999998093E+01 0. -1.
       -5    1    3    3    0  502 -0.45590917499E+03  0.67912077889E+03 -0.47106794054E+03  0.94392017818E+03  0.46999998093E+01 0.  1.
</event>
<event>
 5   0  0.1696052E-04  0.1972847E+04  0.7818609E-02  0.8619422E-01
        1   -1    0    0  501    0  0.00000000000E+00  0.00000000000E+00  0.13538350327E+04  0.13538350327E+04  0.50400001928E-02 0. -1.
       -1   -1    0    0    0  501  0.00000000000E+00  0.00000000000E+00 -0.71872199286E+03  0.71872199288E+03  0.50400001928E-02 0.  1.
    10030    2    1    2    0    0  0.00000000000E+00  0.00000000000E+00  0.63511303987E+03  0.20725570256E+04  0.19728466872E+04 0.  0.
        4    1    3    3  502    0  0.79778712872E+03 -0.33043421861E+03 -0.18338575383E+03  0.88277008512E+03  0.12699999809E+01 0.  1.
       -4    1    3    3    0  502 -0.79778712872E+03  0.33043421861E+03  0.81849879371E+03  0.11897869405E+04  0.12699999809E+01 0. -1.
</event>
<event>
 5   0  0.1643565E-04  0.1988430E+04  0.7818609E-02  0.8612049E-01
        1   -1    0    0  501    0  0.00000000000E+00  0.00000000000E+00  0.57941296565E+03  0.57941296567E+03  0.50400001928E-02 0. -1.
       -1   -1    0    0    0  501  0.00000000000E+00  0.00000000000E+00 -0.17059747439E+04  0.17059747439E+04  0.50400001928E-02 0.  1.
    10030    2    1    2    0    0  0.00000000000E+00  0.00000000000E+00 -0.11265617782E+04  0.22853877095E+04  0.19884304219E+04 0.  0.
        2    1    3    3  502    0  0.11031120757E+03  0.18000319308E+03 -0.16799156444E+04  0.16931291399E+04  0.25500000920E-02 0.  1.
       -2    1    3    3    0  502 -0.11031120757E+03 -0.18000319308E+03  0.55335386621E+03  0.59225856963E+03  0.25500000920E-02 0. -1.
</event>
<event>
 5   0  0.3431030E-04  0.1910364E+04  0.7818609E-02  0.8649714E-01
       -2   -1    0    0    0  501  0.00000000000E+00  0.00000000000E+00  0.10123574290E+04  0.10123574290E+04  0.25500000920E-02 0.  1.
        2   -1    0    0  501    0  0.00000000000E+00  0.00000000000E+00 -0.90123614295E+03  0.90123614295E+03  0.25500000920E-02 0. -1.
    10030    2    1    2    0    0  0.00000000000E+00  0.00000000000E+00  0.11112128608E+03  0.19135935720E+04  0.19103644727E+04 0.  0.
        3    1    3    3  502    0 -0.18262013303E+03  0.49757995999E+03  0.85153401709E+03  0.10030185053E+04  0.10100000352E+00 0.  1.
       -3    1    3    3    0  502  0.18262013303E+03 -0.49757995999E+03 -0.74041273101E+03  0.91057506666E+03  0.10100000352E+00 0. -1.
</event>
<event>
 5   0  0.3395569E-04  0.2010007E+04  0.7818609E-02  0.8601957E-01
        2   -1    0    0  501    0  0.00000000000E+00  0.00000000000E+00  0.16018137904E+04  0.16018137904E+04  0.25500000920E-02 0.  1.
       -2   -1    0    0    0  501  0.00000000000E+00  0.00000000000E+00 -0.63055493675E+03  0.63055493676E+03  0.25500000920E-02 0. -1.
    10030    2    1    2    0    0  0.00000000000E+00  0.00000000000E+00  0.97125885362E+03  0.22323687271E+04  0.20100065605E+04 0.  0.
        4    1    3    3  502    0 -0.58326609777E+01 -0.10048196381E+04  0.50591033169E+03  0.11250081785E+04  0.12699999809E+01 0.  1.
       -4    1    3    3    0  502  0.58326609777E+01  0.10048196381E+04  0.46534852193E+03  0.11073605487E+04  0.12699999809E+01 0. -1.
</event>
<event>
 5   0  0.3387881E-04  0.1959558E+04  0.7818609E-02  0.8625765E-01
        2   -1    0    0  501    0  0.00000000000E+00  0.00000000000E+00  0.14941477859E+04  0.14941477859E+04  0.25500000920E-02 0. -1.
       -2   -1    0    0    0  501  0.00000000000E+00  0.00000000000E+00 -0.64248461383E+03  0.64248461383E+03  0.25500000920E-02 0.  1.
    10030    2    1    2    0    0  0.00000000000E+00  0.00000000000E+00  0.85166317212E+03  0.21366323998E+04  0.19595580760E+04 0.  0.
        1    1    3    3  502    0 -0.70805362246E+03 -0.64299289987E+03  0.65761331704E+03  0.11607045603E+04  0.50400001928E-02 0. -1.
       -1    1    3    3    0  502  0.70805362246E+03  0.64299289987E+03  0.19404985508E+03  0.97592783947E+03  0.50400001928E-02 0.  1.
</event>
<event>
 5   0  0.3431030E-04  0.2028358E+04  0.7818609E-02  0.8593476E-01
       -2   -1    0    0    0  501  0.00000000000E+00  0.00000000000E+00  0.14223571567E+04  0.14223571567E+04  0.25500000920E-02 0.  1.
        2   -1    0    0  501    0  0.00000000000E+00  0.00000000000E+00 -0.72313665867E+03  0.72313665867E+03  0.25500000920E-02 0. -1.
    10030    2    1    2    0    0  0.00000000000E+00  0.00000000000E+00  0.69922049808E+03  0.21454938154E+04  0.20283575639E+04 0.  0.
        3    1    3    3  502    0 -0.19548317670E+03  0.56010038460E+03  0.12196902194E+04  0.13563076180E+04  0.10100000352E+00 0.  1.
       -3    1    3    3    0  502  0.19548317670E+03 -0.56010038460E+03 -0.52046972130E+03  0.78918619742E+03  0.10100000352E+00 0. -1.
</event>
<event>
 5   0  0.1664168E-04  0.2064947E+04  0.7818609E-02  0.8576844E-01
       -1   -1    0    0    0  501  0.00000000000E+00  0.00000000000E+00  0.10708530857E+04  0.10708530857E+04  0.50400001928E-02 0. -1.
        1   -1    0    0  501    0  0.00000000000E+00  0.00000000000E+00 -0.99546901068E+03  0.99546901069E+03  0.50400001928E-02 0.  1.
    10030    2    1    2    0    0  0.00000000000E+00  0.00000000000E+00  0.75384074971E+02  0.20663220964E+04  0.20649465483E+04 0.  0.
        5    1    3    3  502    0  0.72162376872E+03  0.33724757564E+03  0.69501787454E+03  0.10571417723E+04  0.46999998093E+01 0. -1.
       -5    1    3    3    0  502 -0.72162376872E+03 -0.33724757564E+03 -0.61963379957E+03  0.10091803240E+04  0.46999998093E+01 0.  1.
</event>
<event>
 5   0  0.1696052E-04  0.2084650E+04  0.7818609E-02  0.8568036E-01
        1   -1    0    0  501    0  0.00000000000E+00  0.00000000000E+00  0.19495706263E+04  0.19495706263E+04  0.50400001928E-02 0. -1.
       -1   -1    0    0    0  501  0.00000000000E+00  0.00000000000E+00 -0.55727209553E+03  0.55727209555E+03  0.50400001928E-02 0.  1.
    10030    2    1    2    0    0  0.00000000000E+00  0.00000000000E+00  0.13922985307E+04  0.25068427218E+04  0.20846499066E+04 0.  0.
        4    1    3    3  502    0 -0.29189862115E+03  0.28275538506E+03  0.18503750922E+04  0.18944775025E+04  0.12699999809E+01 0. -1.
       -4    1    3    3    0  502  0.29189862115E+03 -0.28275538506E+03 -0.45807656143E+03  0.61236521933E+03  0.12699999809E+01 0.  1.
</event>
<event>
 5   0  0.1664168E-04  0.1982894E+04  0.7818609E-02  0.8614660E-01
       -1   -1    0    0    0  501  0.00000000000E+00  0.00000000000E+00  0.70433300920E+03  0.70433300922E+03  0.50400001928E-02 0. -1.
        1   -1    0    0  501    0  0.00000000000E+00  0.00000000000E+00 -0.13955997026E+04  0.13955997026E+04  0.50400001928E-02 0.  1.
    10030    2    1    2    0    0  0.00000000000E+00  0.00000000000E+00 -0.69126669340E+03  0.20999327118E+04  0.19828937825E+04 0.  0.
        5    1    3    3  502    0 -0.87457360380E+03 -0.25676855592E+03 -0.75870138681E+03  0.11859422263E+04  0.46999998093E+01 0.  1.
       -5    1    3    3    0  502  0.87457360380E+03  0.25676855592E+03  0.67434693412E+02  0.91399048553E+03  0.46999998093E+01 0. -1.
</event>
<event>
 5   0  0.1650221E-04  0.2002561E+04  0.7818609E-02  0.8605424E-01
        1   -1    0    0  501    0  0.00000000000E+00  0.00000000000E+00  0.14661064610E+04  0.14661064610E+04  0.50400001928E-02 0.  1.
       -1   -1    0    0    0  501  0.00000000000E+00  0.00000000000E+00 -0.68382657180E+03  0.68382657182E+03  0.50400001928E-02 0. -1.
    10030    2    1    2    0    0  0.00000000000E+00  0.00000000000E+00  0.78227988919E+03  0.21499330328E+04  0.20025609156E+04 0.  0.
        1    1    3    3  502    0 -0.91393249563E+03 -0.18779653695E+03  0.10515555535E+01  0.93302800154E+03  0.50400001928E-02 0. -1.
       -1    1    3    3    0  502  0.91393249563E+03  0.18779653695E+03  0.78122833363E+03  0.12169050313E+04  0.50400001928E-02 0.  1.
</event>
<event>
 5   0  0.3395569E-04  0.2002916E+04  0.7818609E-02  0.8605258E-01
        2   -1    0    0  501    0  0.00000000000E+00  0.00000000000E+00  0.15771395981E+04  0.15771395981E+04  0.25500000920E-02 0. -1.
       -2   -1    0    0    0  501  0.00000000000E+00  0.00000000000E+00 -0.63590981399E+03  0.63590981399E+03  0.25500000920E-02 0.  1.
    10030    2    1    2    0    0  0.00000000000E+00  0.00000000000E+00  0.94122978408E+03  0.22130494121E+04  0.20029164221E+04 0.  0.
        4    1    3    3  502    0  0.78398048568E+03 -0.61233729008E+03  0.34302452058E+03  0.10522593755E+04  0.12699999809E+01 0.  1.
       -4    1    3    3    0  502 -0.78398048568E+03  0.61233729008E+03  0.59820526350E+03  0.11607900365E+04  0.12699999809E+01 0. -1.
</event>
<event>
 5   0  0.3387881E-04  0.9972707E+03  0.7818609E-02  0.9311543E-01
        2   -1    0    0  501    0  0.00000000000E+00  0.00000000000E+00  0.82552336876E+03  0.82552336876E+03  0.25500000920E-02 0. -1.
       -2   -1    0    0    0  501  0.00000000000E+00  0.00000000000E+00 -0.30118734541E+03  0.30118734542E+03  0.25500000920E-02 0.  1.
    10030    2    1    2    0    0  0.00000000000E+00  0.00000000000E+00  0.52433602335E+03  0.11267107142E+04  0.99727065939E+03 0.  0.
        1    1    3    3  502    0 -0.26262283617E+03  0.19350899903E+03  0.68823785468E+03  0.76163497256E+03  0.50400001928E-02 0. -1.
       -1    1    3    3    0  502  0.26262283617E+03 -0.19350899903E+03 -0.16390183133E+03  0.36507574163E+03  0.50400001928E-02 0.  1.
</event>
<event>
 5   0  0.3371947E-04  0.2330113E+04  0.7818609E-02  0.8466142E-01
       -2   -1    0    0    0  501  0.00000000000E+00  0.00000000000E+00  0.14749327430E+04  0.14749327430E+04  0.25500000920E-02 0. -1.
        2   -1    0    0  501    0  0.00000000000E+00  0.00000000000E+00 -0.92028397908E+03  0.92028397908E+03  0.25500000920E-02 0.  1.
    10030    2    1    2    0    0  0.00000000000E+00  0.00000000000E+00  0.55464876394E+03  0.23952167221E+04  0.23301132793E+04 0.  0.
        2    1    3    3  502    0 -0.10845651453E+04 -0.24653032620E+03 -0.79206682699E+02  0.11150481850E+04  0.25500000920E-02 0. -1.
       -2    1    3    3    0  502  0.10845651453E+04  0.24653032620E+03  0.63385544664E+03  0.12801685371E+04  0.25500000920E-02 0.  1.
</event>
<event>
 5   0  0.1708578E-04  0.2050293E+04  0.7818609E-02  0.8583462E-01
       -1   -1    0    0    0  501  0.00000000000E+00  0.00000000000E+00  0.10950575883E+04  0.10950575883E+04  0.50400001928E-02 0.  1.
        1   -1    0    0  501    0  0.00000000000E+00  0.00000000000E+00 -0.95969845647E+03  0.95969845648E+03  0.50400001928E-02 0. -1.
    10030    2    1    2    0    0  0.00000000000E+00  0.00000000000E+00  0.13535913179E+03  0.20547560448E+04  0.20502927374E+04 0.  0.
        3    1    3    3  502    0  0.12424050167E+03 -0.15131818032E+03 -0.94078739951E+03  0.96094424148E+03  0.10100000352E+00 0. -1.
       -3    1    3    3    0  502 -0.12424050167E+03  0.15131818032E+03  0.10761465313E+04  0.10938118033E+04  0.10100000352E+00 0.  1.
</event>
<event>
 5   0  0.3431030E-04  0.1969322E+04  0.7818609E-02  0.8621100E-01
        2   -1    0    0  501    0  0.00000000000E+00  0.00000000000E+00  0.79874692581E+03  0.79874692582E+03  0.25500000920E-02 0. -1.
       -2   -1    0    0    0  501  0.00000000000E+00  0.00000000000E+00 -0.12138474000E+04  0.12138474000E+04  0.25500000920E-02 0.  1.
    10030    2    1    2    0    0  0.00000000000E+00  0.00000000000E+00 -0.41510047421E+03  0.20125943258E+04  0.19693215879E+04 0.  0.
        3    1    3    3  502    0 -0.96904496519E+03 -0.12380878791E+02 -0.29493727425E+02  0.96957275172E+03  0.10100000352E+00 0. -1.
       -3    1    3    3    0  502  0.96904496519E+03  0.12380878791E+02 -0.38560674679E+03  0.10430215741E+04  0.10100000352E+00 0.  1.
</event>
<event>
 5   0  0.3460648E-04  0.1987400E+04  0.7818609E-02  0.8612535E-01
       -2   -1    0    0    0  501  0.00000000000E+00  0.00000000000E+00  0.71997229957E+03  0.71997229958E+03  0.25500000920E-02 0. -1.
        2   -1    0    0  501    0  0.00000000000E+00  0.00000000000E+00 -0.13714961942E+04  0.13714961942E+04  0.25500000920E-02 0.  1.
    10030    2    1    2    0    0  0.00000000000E+00  0.00000000000E+00 -0.65152389462E+03  0.20914684938E+04  0.19873995761E+04 0.  0.
        5    1    3    3  502    0  0.43468948744E+03 -0.86027266606E+03 -0.58006241207E+03  0.11249526667E+04  0.46999998093E+01 0.  1.
       -5    1    3    3    0  502 -0.43468948744E+03  0.86027266606E+03 -0.71461482555E+02  0.96651582706E+03  0.46999998093E+01 0. -1.
</event>
<event>
 5   0  0.3387881E-04  0.1999946E+04  0.7818609E-02  0.8606646E-01
       -2   -1    0    0    0  501  0.00000000000E+00  0.00000000000E+00  0.69010372629E+03  0.69010372629E+03  0.25500000920E-02 0. -1.
        2   -1    0    0  501    0  0.00000000000E+00  0.00000000000E+00 -0.14489794124E+04  0.14489794124E+04  0.25500000920E-02 0.  1.
    10030    2    1    2    0    0  0.00000000000E+00  0.00000000000E+00 -0.75887568608E+03  0.21390831387E+04  0.19999460911E+04 0.  0.
        1    1    3    3  502    0 -0.36823467953E+03  0.90769256918E+03 -0.59453457299E+03  0.11458507485E+04  0.50400001928E-02 0.  1.
       -1    1    3    3    0  502  0.36823467953E+03 -0.90769256918E+03 -0.16434111308E+03  0.99323239014E+03  0.50400001928E-02 0. -1.
</event>
<event>
 5   0  0.1708578E-04  0.1972250E+04  0.7818609E-02  0.8619706E-01
       -1   -1    0    0    0  501  0.00000000000E+00  0.00000000000E+00  0.29181236299E+03  0.29181236303E+03  0.50400001928E-02 0.  1.
        1   -1    0    0  501    0  0.00000000000E+00  0.00000000000E+00 -0.33324223914E+04  0.33324223914E+04  0.50400001928E-02 0. -1.
    10030    2    1    2    0    0  0.00000000000E+00  0.00000000000E+00 -0.30406100284E+04  0.36242347544E+04  0.19722495304E+04 0.  0.
        3    1    3    3  502    0  0.32502198296E+03 -0.64186158180E+03 -0.28101614945E+03  0.77239605517E+03  0.10100000352E+00 0.  1.
       -3    1    3    3    0  502 -0.32502198296E+03  0.64186158180E+03 -0.27595938790E+04  0.28518386993E+04  0.10100000352E+00 0. -1.
</event>
<event>
 5   0  0.1696052E-04  0.2022438E+04  0.7818609E-02  0.8596201E-01
       -1   -1    0    0    0  501  0.00000000000E+00  0.00000000000E+00  0.82383996129E+03  0.82383996130E+03  0.50400001928E-02 0.  1.
        1   -1    0    0  501    0  0.00000000000E+00  0.00000000000E+00 -0.12412167025E+04  0.12412167025E+04  0.50400001928E-02 0. -1.
    10030    2    1    2    0    0  0.00000000000E+00  0.00000000000E+00 -0.41737674119E+03  0.20650566638E+04  0.20224380536E+04 0.  0.
        4    1    3    3  502    0  0.55313839750E+03 -0.84197227806E+03 -0.11918911320E+03  0.10144392842E+04  0.12699999809E+01 0. -1.
       -4    1    3    3    0  502 -0.55313839750E+03  0.84197227806E+03 -0.29818762800E+03  0.10506173795E+04  0.12699999809E+01 0.  1.
</event>
<event>
 5   0  0.1708578E-04  0.2022524E+04  0.7818609E-02  0.8596162E-01
       -1   -1    0    0    0  501  0.00000000000E+00  0.00000000000E+00  0.52365622638E+03  0.52365622641E+03  0.50400001928E-02 0.  1.
        1   -1    0    0  501    0  0.00000000000E+00  0.00000000000E+00 -0.19529054769E+04  0.19529054769E+04  0.50400001928E-02 0. -1.
    10030    2    1    2    0    0  0.00000000000E+00  0.00000000000E+00 -0.14292492505E+04  0.24765617033E+04  0.20225242768E+04 0.  0.
        3    1    3    3  502    0  0.22895407778E+03  0.34279992133E+03 -0.18453534614E+04  0.18908361017E+04  0.10100000352E+00 0. -1.
       -3    1    3    3    0  502 -0.22895407778E+03 -0.34279992133E+03  0.41610421092E+03  0.58572560158E+03  0.10100000352E+00 0.  1.
</event>
<event>
 5   0  0.3395569E-04  0.2057180E+04  0.7818609E-02  0.8580344E-01
        2   -1    0    0  501    0  0.00000000000E+00  0.00000000000E+00  0.12017955202E+04  0.12017955202E+04  0.25500000920E-02 0. -1.
       -2   -1    0    0    0  501  0.00000000000E+00  0.00000000000E+00 -0.88034719091E+03  0.88034719092E+03  0.25500000920E-02 0.  1.
    10030    2    1    2    0    0  0.00000000000E+00  0.00000000000E+00  0.32144832926E+03  0.20821427111E+04  0.20571799243E+04 0.  0.
        4    1    3    3  502    0 -0.64689596495E+03 -0.76173021863E+03 -0.85722539439E+02  0.10030240686E+04  0.12699999809E+01 0.  1.
       -4    1    3    3    0  502  0.64689596495E+03  0.76173021863E+03  0.40717086870E+03  0.10791186425E+04  0.12699999809E+01 0. -1.
</event>
<event>
 5   0  0.3460648E-04  0.1146537E+04  0.7818609E-02  0.9160985E-01
        2   -1    0    0  501    0  0.00000000000E+00  0.00000000000E+00  0.21695331002E+04  0.21695331002E+04  0.25500000920E-02 0.  1.
       -2   -1    0    0    0  501  0.00000000000E+00  0.00000000000E+00 -0.15147800669E+03  0.15147800671E+03  0.25500000920E-02 0. -1.
    10030    2    1    2    0    0  0.00000000000E+00  0.00000000000E+00  0.20180550936E+04  0.23210111070E+04  0.11465366100E+04 0.  0.
        5    1    3    3  502    0  0.32273436260E+03  0.22812150300E+02  0.19669973700E+04  0.19934338731E+04  0.46999998093E+01 0.  1.
       -5    1    3    3    0  502 -0.32273436260E+03 -0.22812150300E+02  0.51057723603E+02  0.32757723386E+03  0.46999998093E+01 0. -1.
</event>
<event>
 5   0  0.3371947E-04  0.1350661E+04  0.7818609E-02  0.8990328E-01
       -2   -1    0    0    0  501  0.00000000000E+00  0.00000000000E+00  0.34466017279E+03  0.34466017280E+03  0.25500000920E-02 0. -1.
        2   -1    0    0  501    0  0.00000000000E+00  0.00000000000E+00 -0.13232497256E+04  0.13232497256E+04  0.25500000920E-02 0.  1.
    10030    2    1    2    0    0  0.00000000000E+00  0.00000000000E+00 -0.97858955277E+03  0.16679098984E+04  0.13506612885E+04 0.  0.
        2    1    3    3  502    0 -0.52365840798E+03  0.24244814559E+03 -0.56077069502E+02  0.57977915561E+03  0.25500000920E-02 0. -1.
       -2    1    3    3    0  502  0.52365840798E+03 -0.24244814559E+03 -0.92251248327E+03  0.10881307428E+04  0.25500000920E-02 0.  1.
</event>
<event>
 5   0  0.3431030E-04  0.1023802E+04  0.7818609E-02  0.9282818E-01
        2   -1    0    0  501    0  0.00000000000E+00  0.00000000000E+00  0.29723204145E+03  0.29723204146E+03  0.25500000920E-02 0. -1.
       -2   -1    0    0    0  501  0.00000000000E+00  0.00000000000E+00 -0.88160983243E+03  0.88160983243E+03  0.25500000920E-02 0.  1.
    10030    2    1    2    0    0  0.00000000000E+00  0.00000000000E+00 -0.58437779098E+03  0.11788418739E+04  0.10238021103E+04 0.  0.
        3    1    3    3  502    0  0.39062413714E+03  0.12302205107E+03  0.61436804898E+02  0.41412091563E+03  0.10100000352E+00 0.  1.
       -3    1    3    3    0  502 -0.39062413714E+03 -0.12302205107E+03 -0.64581459588E+03  0.76472095827E+03  0.10100000352E+00 0. -1.
</event>
<event>
 5   0  0.3371947E-04  0.1731791E+04  0.7818609E-02  0.8743438E-01
        2   -1    0    0  501    0  0.00000000000E+00  0.00000000000E+00  0.68003104189E+03  0.68003104189E+03  0.25500000920E-02 0. -1.
       -2   -1    0    0    0  501  0.00000000000E+00  0.00000000000E+00 -0.11025596231E+04  0.11025596231E+04  0.25500000920E-02 0.  1.
    10030    2    1    2    0    0  0.00000000000E+00  0.00000000000E+00 -0.42252858124E+03  0.17825906650E+04  0.17317907140E+04 0.  0.
        2    1    3    3  502    0  0.21836818413E+03 -0.74774205130E+02  0.64778176114E+03  0.68767510910E+03  0.25500000920E-02 0. -1.
       -2    1    3    3    0  502 -0.21836818413E+03  0.74774205130E+02 -0.10703103424E+04  0.10949155559E+04  0.25500000920E-02 0.  1.
</event>
<event>
 5   0  0.3431030E-04  0.1310696E+04  0.7818609E-02  0.9021126E-01
        2   -1    0    0  501    0  0.00000000000E+00  0.00000000000E+00  0.13539558962E+04  0.13539558962E+04  0.25500000920E-02 0. -1.
       -2   -1    0    0    0  501  0.00000000000E+00  0.00000000000E+00 -0.31720469930E+03  0.31720469931E+03  0.25500000920E-02 0.  1.
    10030    2    1    2    0    0  0.00000000000E+00  0.00000000000E+00  0.10367511969E+04  0.16711605955E+04  0.13106962622E+04 0.  0.
        3    1    3    3  502    0  0.99288423410E+02  0.47492882751E+03  0.10800574397E+04  0.11840353312E+04  0.10100000352E+00 0. -1.
       -3    1    3    3    0  502 -0.99288423410E+02 -0.47492882751E+03 -0.43306242863E+02  0.48712526428E+03  0.10100000352E+00 0.  1.
</event>
<event>
 5   0  0.3431030E-04  0.1996754E+04  0.7818609E-02  0.8608140E-01
       -2   -1    0    0    0  501  0.00000000000E+00  0.00000000000E+00  0.13596264585E+04  0.13596264585E+04  0.25500000920E-02 0. -1.
        2   -1    0    0  501    0  0.00000000000E+00  0.00000000000E+00 -0.73311049468E+03  0.73311049468E+03  0.25500000920E-02 0.  1.
    10030    2    1    2    0    0  0.00000000000E+00  0.00000000000E+00  0.62651596381E+03  0.20927369532E+04  0.19967537911E+04 0.  0.
        3    1    3    3  502    0  0.16227664706E+03  0.73794561390E+03  0.99720589414E+03  0.12511263105E+04  0.10100000352E+00 0. -1.
       -3    1    3    3    0  502 -0.16227664706E+03 -0.73794561390E+03 -0.37068993033E+03  0.84161064270E+03  0.10100000352E+00 0.  1.
</event>
<event>
 5   0  0.3395569E-04  0.1185192E+04  0.7818609E-02  0.9125918E-01
       -2   -1    0    0    0  501  0.00000000000E+00  0.00000000000E+00  0.26520013466E+03  0.26520013467E+03  0.25500000920E-02 0.  1.
        2   -1    0    0  501    0  0.00000000000E+00  0.00000000000E+00 -0.13241698815E+04  0.13241698815E+04  0.25500000920E-02 0. -1.
    10030    2    1    2    0    0  0.00000000000E+00  0.00000000000E+00 -0.10589697468E+04  0.15893700161E+04  0.11851920197E+04 0.  0.
        4    1    3    3  502    0 -0.43767767526E+03 -0.39851916836E+03 -0.49181326574E+03  0.76958506758E+03  0.12699999809E+01 0.  1.
       -4    1    3    3    0  502  0.43767767526E+03  0.39851916836E+03 -0.56715648105E+03  0.81978494855E+03  0.12699999809E+01 0. -1.
</event>
<event>
 5   0  0.1664168E-04  0.1881972E+04  0.7818609E-02  0.8663882E-01
       -1   -1    0    0    0  501  0.00000000000E+00  0.00000000000E+00  0.59728858475E+03  0.59728858478E+03  0.50400001928E-02 0. -1.
        1   -1    0    0  501    0  0.00000000000E+00  0.00000000000E+00 -0.14824569377E+04  0.14824569377E+04  0.50400001928E-02 0.  1.
    10030    2    1    2    0    0  0.00000000000E+00  0.00000000000E+00 -0.88516835290E+03  0.20797455224E+04  0.18819719512E+04 0.  0.
        5    1    3    3  502    0 -0.74648304884E+03  0.43784547647E+03 -0.85084955884E+03  0.12136361338E+04  0.46999998093E+01 0.  1.
       -5    1    3    3    0  502  0.74648304884E+03 -0.43784547647E+03 -0.34318794060E+02  0.86610938864E+03  0.46999998093E+01 0. -1.
</event>
<event>
 5   0  0.1643565E-04  0.2013102E+04  0.7818609E-02  0.8600519E-01
        1   -1    0    0  501    0  0.00000000000E+00  0.00000000000E+00  0.94654333430E+03  0.94654333431E+03  0.50400001928E-02 0. -1.
       -1   -1    0    0    0  501  0.00000000000E+00  0.00000000000E+00 -0.10703632320E+04  0.10703632320E+04  0.50400001928E-02 0.  1.
    10030    2    1    2    0    0  0.00000000000E+00  0.00000000000E+00 -0.12381989769E+03  0.20169065663E+04  0.20131022652E+04 0.  0.
        2    1    3    3  502    0 -0.63849611078E+03  0.55918697479E+03  0.48020206689E+03  0.97517248798E+03  0.25500000920E-02 0.  1.
       -2    1    3    3    0  502  0.63849611078E+03 -0.55918697479E+03 -0.60402196457E+03  0.10417340783E+04  0.25500000920E-02 0. -1.
</event>
<event>
 5   0  0.1643565E-04  0.2018073E+04  0.7818609E-02  0.8598217E-01
       -1   -1    0    0    0  501  0.00000000000E+00  0.00000000000E+00  0.45050619575E+03  0.45050619577E+03  0.50400001928E-02 0. -1.
        1   -1    0    0  501    0  0.00000000000E+00  0.00000000000E+00 -0.22600241013E+04  0.22600241013E+04  0.50400001928E-02 0.  1.
    10030    2    1    2    0    0  0.00000000000E+00  0.00000000000E+00 -0.18095179056E+04  0.27105302971E+04  0.20180732001E+04 0.  0.
        2    1    3    3  502    0  0.41770091059E+03 -0.90338382282E+03 -0.68170881303E+03  0.12063595185E+04  0.25500000920E-02 0. -1.
       -2    1    3    3    0  502 -0.41770091059E+03  0.90338382282E+03 -0.11278090925E+04  0.15041707786E+04  0.25500000920E-02 0.  1.
</event>
<event>
 5   0  0.1708578E-04  0.1954919E+04  0.7818609E-02  0.8627992E-01
       -1   -1    0    0    0  501  0.00000000000E+00  0.00000000000E+00  0.79823354226E+03  0.79823354228E+03  0.50400001928E-02 0. -1.
        1   -1    0    0  501    0  0.00000000000E+00  0.00000000000E+00 -0.11969266089E+04  0.11969266089E+04  0.50400001928E-02 0.  1.
    10030    2    1    2    0    0  0.00000000000E+00  0.00000000000E+00 -0.39869306667E+03  0.19951601512E+04  0.19549188903E+04 0.  0.
        3    1    3    3  502    0 -0.89263999490E+03  0.15670140070E+02 -0.60550233946E+03  0.10787422338E+04  0.10100000352E+00 0.  1.
       -3    1    3    3    0  502  0.89263999490E+03 -0.15670140070E+02  0.20680927279E+03  0.91641791738E+03  0.10100000352E+00 0. -1.
</event>
<event>
 5   0  0.3387881E-04  0.1928446E+04  0.7818609E-02  0.8640825E-01
       -2   -1    0    0    0  501  0.00000000000E+00  0.00000000000E+00  0.65041694399E+03  0.65041694400E+03  0.25500000920E-02 0. -1.
        2   -1    0    0  501    0  0.00000000000E+00  0.00000000000E+00 -0.14294310744E+04  0.14294310744E+04  0.25500000920E-02 0.  1.
    10030    2    1    2    0    0  0.00000000000E+00  0.00000000000E+00 -0.77901413044E+03  0.20798480184E+04  0.19284462047E+04 0.  0.
        1    1    3    3  502    0  0.36198363391E+03  0.27955766458E+03 -0.13049970290E+04  0.13828238806E+04  0.50400001928E-02 0.  1.
       -1    1    3    3    0  502 -0.36198363391E+03 -0.27955766458E+03  0.52598289859E+03  0.69702413780E+03  0.50400001928E-02 0. -1.
</event>
<event>
 5   0  0.1708578E-04  0.1907064E+04  0.7818609E-02  0.8651348E-01
        1   -1    0    0  501    0  0.00000000000E+00  0.00000000000E+00  0.15227572069E+04  0.15227572069E+04  0.50400001928E-02 0.  1.
       -1   -1    0    0    0  501  0.00000000000E+00  0.00000000000E+00 -0.59709025938E+03  0.59709025940E+03  0.50400001928E-02 0. -1.
    10030    2    1    2    0    0  0.00000000000E+00  0.00000000000E+00  0.92566694755E+03  0.21198474663E+04  0.19070642314E+04 0.  0.
        3    1    3    3  502    0  0.75711371634E+03 -0.57721270368E+02  0.11039640317E+04  0.13398841435E+04  0.10100000352E+00 0.  1.
       -3    1    3    3    0  502 -0.75711371634E+03  0.57721270368E+02 -0.17829708417E+03  0.77996332282E+03  0.10100000352E+00 0. -1.
</event>
<event>
 5   0  0.3431030E-04  0.1969348E+04  0.7818609E-02  0.8621087E-01
       -2   -1    0    0    0  501  0.00000000000E+00  0.00000000000E+00  0.90702402392E+03  0.90702402392E+03  0.25500000920E-02 0.  1.
        2   -1    0    0  501    0  0.00000000000E+00  0.00000000000E+00 -0.10689716943E+04  0.10689716943E+04  0.25500000920E-02 0. -1.
    10030    2    1    2    0    0  0.00000000000E+00  0.00000000000E+00 -0.16194767040E+03  0.19759957182E+04  0.19693481233E+04 0.  0.
        3    1    3    3  502    0 -0.65873255890E+03 -0.73172049734E+03 -0.96502738879E+02  0.98927056926E+03  0.10100000352E+00 0.  1.
       -3    1    3    3    0  502  0.65873255890E+03  0.73172049734E+03 -0.65444931525E+02  0.98672514899E+03  0.10100000352E+00 0. -1.
</event>
<event>
 5   0  0.1650221E-04  0.2160535E+04  0.7818609E-02  0.8535036E-01
        1   -1    0    0  501    0  0.00000000000E+00  0.00000000000E+00  0.11303574424E+04  0.11303574424E+04  0.50400001928E-02 0. -1.
       -1   -1    0    0    0  501  0.00000000000E+00  0.00000000000E+00 -0.10323970410E+04  0.10323970410E+04  0.50400001928E-02 0.  1.
    10030    2    1    2    0    0  0.00000000000E+00  0.00000000000E+00  0.97960401374E+02  0.21627544835E+04  0.21605348216E+04 0.  0.
        1    1    3    3  502    0  0.32503059825E+03  0.61916058969E+03 -0.77525685422E+03  0.10440440200E+04  0.50400001928E-02 0.  1.
       -1    1    3    3    0  502 -0.32503059825E+03 -0.61916058969E+03  0.87321725559E+03  0.11187104635E+04  0.50400001928E-02 0. -1.
</event>
<event>
 5   0  0.3395569E-04  0.2039710E+04  0.7818609E-02  0.8588277E-01
        2   -1    0    0  501    0  0.00000000000E+00  0.00000000000E+00  0.14254705247E+04  0.14254705247E+04  0.25500000920E-02 0.  1.
       -2   -1    0    0    0  501  0.00000000000E+00  0.00000000000E+00 -0.72965679327E+03  0.72965679327E+03  0.25500000920E-02 0. -1.
    10030    2    1    2    0    0  0.00000000000E+00  0.00000000000E+00  0.69581373144E+03  0.21551273180E+04  0.20397100303E+04 0.  0.
        4    1    3    3  502    0 -0.29812460832E+03  0.14937187614E+03 -0.67043097107E+03  0.74877869851E+03  0.12699999809E+01 0. -1.
       -4    1    3    3    0  502  0.29812460832E+03 -0.14937187614E+03  0.13662447025E+04  0.14063486195E+04  0.12699999809E+01 0.  1.
</event>
<event>
 5   0  0.3395569E-04  0.1548375E+04  0.7818609E-02  0.8852907E-01
       -2   -1    0    0    0  501  0.00000000000E+00  0.00000000000E+00  0.40442767885E+03  0.40442767886E+03  0.25500000920E-02 0.  1.
        2   -1    0    0  501    0  0.00000000000E+00  0.00000000000E+00 -0.14820105012E+04  0.14820105012E+04  0.25500000920E-02 0. -1.
    10030    2    1    2    0    0  0.00000000000E+00  0.00000000000E+00 -0.10775828223E+04  0.18864381801E+04  0.15483747183E+04 0.  0.
        4    1    3    3  502    0  0.29736384823E+03  0.42377234005E+03  0.16252508828E+03  0.54260876480E+03  0.12699999809E+01 0.  1.
       -4    1    3    3    0  502 -0.29736384823E+03 -0.42377234005E+03 -0.12401079106E+04  0.13438294153E+04  0.12699999809E+01 0. -1.
</event>
<event>
 5   0  0.1664168E-04  0.1900063E+04  0.7818609E-02  0.8654825E-01
        1   -1    0    0  501    0  0.00000000000E+00  0.00000000000E+00  0.98321407324E+03  0.98321407326E+03  0.50400001928E-02 0.  1.
       -1   -1    0    0    0  501  0.00000000000E+00  0.00000000000E+00 -0.91796873772E+03  0.91796873773E+03  0.50400001928E-02 0. -1.
    10030    2    1    2    0    0  0.00000000000E+00  0.00000000000E+00  0.65245335524E+02  0.19011828110E+04  0.19000629271E+04 0.  0.
        5    1    3    3  502    0 -0.49711382286E+03  0.80659299296E+03  0.10211345762E+03  0.95297621030E+03  0.46999998093E+01 0.  1.
       -5    1    3    3    0  502  0.49711382286E+03 -0.80659299296E+03 -0.36868122095E+02  0.94820660069E+03  0.46999998093E+01 0. -1.
</event>
<event>
 5   0  0.1708578E-04  0.2136224E+04  0.7818609E-02  0.8545452E-01
        1   -1    0    0  501    0  0.00000000000E+00  0.00000000000E+00  0.15415203919E+04  0.15415203919E+04  0.50400001928E-02 0.  1.
       -1   -1    0    0    0  501  0.00000000000E+00  0.00000000000E+00 -0.74008965744E+03  0.74008965746E+03  0.50400001928E-02 0. -1.
    10030    2    1    2    0    0  0.00000000000E+00  0.00000000000E+00  0.80143073447E+03  0.22816100494E+04  0.21362240508E+04 0.  0.
        3    1    3    3  502    0  0.15134197842E+03  0.29927498001E+03 -0.68239885121E+03  0.76035393760E+03  0.10100000352E+00 0. -1.
       -3    1    3    3    0  502 -0.15134197842E+03 -0.29927498001E+03  0.14838295857E+04  0.15212561118E+04  0.10100000352E+00 0.  1.
</event>
<event>
 5   0  0.1643565E-04  0.1999475E+04  0.7818609E-02  0.8606866E-01
        1   -1    0    0  501    0  0.00000000000E+00  0.00000000000E+00  0.12902945275E+04  0.12902945275E+04  0.50400001928E-02 0. -1.
       -1   -1    0    0    0  501  0.00000000000E+00  0.00000000000E+00 -0.77460964081E+03  0.77460964083E+03  0.50400001928E-02 0.  1.
    10030    2    1    2    0    0  0.00000000000E+00  0.00000000000E+00  0.51568488666E+03  0.20649041683E+04  0.19994745115E+04 0.  0.
        2    1    3    3  502    0  0.38266302100E+02  0.78169693958E+03 -0.38457475435E+03  0.87201614487E+03  0.25500000920E-02 0.  1.
       -2    1    3    3    0  502 -0.38266302100E+02 -0.78169693958E+03  0.90025964101E+03  0.11928880234E+04  0.25500000920E-02 0. -1.
</event>
<event>
 5   0  0.3395569E-04  0.2026563E+04  0.7818609E-02  0.8594301E-01
       -2   -1    0    0    0  501  0.00000000000E+00  0.00000000000E+00  0.51477698595E+03  0.51477698595E+03  0.25500000920E-02 0. -1.
        2   -1    0    0  501    0  0.00000000000E+00  0.00000000000E+00 -0.19945332709E+04  0.19945332709E+04  0.25500000920E-02 0.  1.
    10030    2    1    2    0    0  0.00000000000E+00  0.00000000000E+00 -0.14797562850E+04  0.25093102569E+04  0.20265634217E+04 0.  0.
        4    1    3    3  502    0 -0.51356170039E+03 -0.11634778201E+03  0.33205369630E+03  0.62253007688E+03  0.12699999809E+01 0. -1.
       -4    1    3    3    0  502  0.51356170039E+03  0.11634778201E+03 -0.18118099813E+04  0.18867801800E+04  0.12699999809E+01 0.  1.
</event>
<event>
 5   0  0.1708578E-04  0.2030444E+04  0.7818609E-02  0.8592518E-01
       -1   -1    0    0    0  501  0.00000000000E+00  0.00000000000E+00  0.60743654785E+03  0.60743654787E+03  0.50400001928E-02 0. -1.
        1   -1    0    0  501    0  0.00000000000E+00  0.00000000000E+00 -0.16967630539E+04  0.16967630539E+04  0.50400001928E-02 0.  1.
    10030    2    1    2    0    0  0.00000000000E+00  0.00000000000E+00 -0.10893265060E+04  0.23041996018E+04  0.20304441800E+04 0.  0.
        3    1    3    3  502    0 -0.24660110321E+03  0.83998954190E+03 -0.11280577103E+04  0.14279036181E+04  0.10100000352E+00 0.  1.
       -3    1    3    3    0  502  0.24660110321E+03 -0.83998954190E+03  0.38731204271E+02  0.87629598367E+03  0.10100000352E+00 0. -1.
</event>
<event>
 5   0  0.3371947E-04  0.1986502E+04  0.7818609E-02  0.8612958E-01
       -2   -1    0    0    0  501  0.00000000000E+00  0.00000000000E+00  0.50280980916E+03  0.50280980917E+03  0.25500000920E-02 0. -1.
        2   -1    0    0  501    0  0.00000000000E+00  0.00000000000E+00 -0.19620683220E+04  0.19620683220E+04  0.25500000920E-02 0.  1.
    10030    2    1    2    0    0  0.00000000000E+00  0.00000000000E+00 -0.14592585129E+04  0.24648781312E+04  0.19865016472E+04 0.  0.
        2    1    3    3  502    0 -0.79901416148E+03  0.46745983030E+03 -0.11763305309E+04  0.14968954009E+04  0.25500000920E-02 0.  1.
       -2    1    3    3    0  502  0.79901416148E+03 -0.46745983030E+03 -0.28292798191E+03  0.96798273029E+03  0.25500000920E-02 0. -1.
</event>
<event>
 5   0  0.3395569E-04  0.2031220E+04  0.7818609E-02  0.8592162E-01
       -2   -1    0    0    0  501  0.00000000000E+00  0.00000000000E+00  0.94577711102E+03  0.94577711103E+03  0.25500000920E-02 0. -1.
        2   -1    0    0  501    0  0.00000000000E+00  0.00000000000E+00 -0.10905987483E+04  0.10905987483E+04  0.25500000920E-02 0.  1.
    10030    2    1    2    0    0  0.00000000000E+00  0.00000000000E+00 -0.14482163730E+03  0.20363758593E+04  0.20312196666E+04 0.  0.
        4    1    3    3  502    0 -0.10007406020E+04 -0.14675410870E+03 -0.16453095552E+03  0.10247392689E+04  0.12699999809E+01 0. -1.
       -4    1    3    3    0  502  0.10007406020E+04  0.14675410870E+03  0.19709318224E+02  0.10116365904E+04  0.12699999809E+01 0.  1.
</event>
<event>
 5   0  0.1664168E-04  0.2028778E+04  0.7818609E-02  0.8593283E-01
       -1   -1    0    0    0  501  0.00000000000E+00  0.00000000000E+00  0.96159172259E+03  0.96159172260E+03  0.50400001928E-02 0. -1.
        1   -1    0    0  501    0  0.00000000000E+00  0.00000000000E+00 -0.10700848806E+04  0.10700848806E+04  0.50400001928E-02 0.  1.
    10030    2    1    2    0    0  0.00000000000E+00  0.00000000000E+00 -0.10849315805E+03  0.20316766032E+04  0.20287777244E+04 0.  0.
        5    1    3    3  502    0 -0.34945551770E+01  0.87485390311E+03 -0.56838167746E+03  0.10432935277E+04  0.46999998093E+01 0.  1.
       -5    1    3    3    0  502  0.34945551770E+01 -0.87485390311E+03  0.45988851942E+03  0.98838307553E+03  0.46999998093E+01 0. -1.
</event>
<event>
 5   0  0.1643565E-04  0.2012051E+04  0.7818609E-02  0.8601007E-01
       -1   -1    0    0    0  501  0.00000000000E+00  0.00000000000E+00  0.59293770713E+03  0.59293770715E+03  0.50400001928E-02 0.  1.
        1   -1    0    0  501    0  0.00000000000E+00  0.00000000000E+00 -0.17069029897E+04  0.17069029897E+04  0.50400001928E-02 0. -1.
    10030    2    1    2    0    0  0.00000000000E+00  0.00000000000E+00 -0.11139652826E+04  0.22998406969E+04  0.20120508394E+04 0.  0.
        2    1    3    3  502    0  0.99202920452E+03 -0.63589163373E+02 -0.38019410301E+03  0.10642899418E+04  0.25500000920E-02 0.  1.
       -2    1    3    3    0  502 -0.99202920452E+03  0.63589163373E+02 -0.73377117960E+03  0.12355507551E+04  0.25500000920E-02 0. -1.
</event>
<event>
 5   0  0.3371947E-04  0.1981190E+04  0.7818609E-02  0.8615466E-01
        2   -1    0    0  501    0  0.00000000000E+00  0.00000000000E+00  0.16041017448E+04  0.16041017448E+04  0.25500000920E-02 0. -1.
       -2   -1    0    0    0  501  0.00000000000E+00  0.00000000000E+00 -0.61173071175E+03  0.61173071176E+03  0.25500000920E-02 0.  1.
    10030    2    1    2    0    0  0.00000000000E+00  0.00000000000E+00  0.99237103300E+03  0.22158324565E+04  0.19811898466E+04 0.  0.
        2    1    3    3  502    0  0.27144129363E+03  0.70557479034E+03 -0.21975467112E+03  0.78727903321E+03  0.25500000920E-02 0.  1.
       -2    1    3    3    0  502 -0.27144129363E+03 -0.70557479034E+03  0.12121257041E+04  0.14285534233E+04  0.25500000920E-02 0. -1.
</event>
<event>
 5   0  0.3431030E-04  0.1941423E+04  0.7818609E-02  0.8634508E-01
       -2   -1    0    0    0  501  0.00000000000E+00  0.00000000000E+00  0.71442940432E+03  0.71442940432E+03  0.25500000920E-02 0. -1.
        2   -1    0    0  501    0  0.00000000000E+00  0.00000000000E+00 -0.13189280470E+04  0.13189280471E+04  0.25500000920E-02 0.  1.
    10030    2    1    2    0    0  0.00000000000E+00  0.00000000000E+00 -0.60449864273E+03  0.20333574514E+04  0.19414231677E+04 0.  0.
        3    1    3    3  502    0  0.33717828849E+03  0.83371465813E+03 -0.68494458562E+03  0.11304505407E+04  0.10100000352E+00 0.  1.
       -3    1    3    3    0  502 -0.33717828849E+03 -0.83371465813E+03  0.80445942889E+02  0.90290691067E+03  0.10100000352E+00 0. -1.
</event>
<event>
 5   0  0.3460648E-04  0.2043293E+04  0.7818609E-02  0.8586643E-01
       -2   -1    0    0    0  501  0.00000000000E+00  0.00000000000E+00  0.11069320314E+04  0.11069320314E+04  0.25500000920E-02 0.  1.
        2   -1    0    0  501    0  0.00000000000E+00  0.00000000000E+00 -0.94293231062E+03  0.94293231062E+03  0.25500000920E-02 0. -1.
    10030    2    1    2    0    0  0.00000000000E+00  0.00000000000E+00  0.16399972079E+03  0.20498643420E+04  0.20432933985E+04 0.  0.
        5    1    3    3  502    0 -0.28150829380E+03  0.10418112062E+03 -0.89768512157E+03  0.94655231913E+03  0.46999998093E+01 0. -1.
       -5    1    3    3    0  502  0.28150829380E+03 -0.10418112062E+03  0.10616848424E+04  0.11033120229E+04  0.46999998093E+01 0.  1.
</event>
<event>
 5   0  0.1643565E-04  0.1933994E+04  0.7818609E-02  0.8638118E-01
        1   -1    0    0  501    0  0.00000000000E+00  0.00000000000E+00  0.10135379326E+04  0.10135379327E+04  0.50400001928E-02 0.  1.
       -1   -1    0    0    0  501  0.00000000000E+00  0.00000000000E+00 -0.92259345474E+03  0.92259345476E+03  0.50400001928E-02 0. -1.
    10030    2    1    2    0    0  0.00000000000E+00  0.00000000000E+00  0.90944477901E+02  0.19361313874E+04  0.19339942738E+04 0.  0.
        2    1    3    3  502    0 -0.33256051620E+03  0.68091090777E+03  0.64684170387E+03  0.99631337998E+03  0.25500000920E-02 0.  1.
       -2    1    3    3    0  502  0.33256051620E+03 -0.68091090777E+03 -0.55589722597E+03  0.93981800744E+03  0.25500000920E-02 0. -1.
</event>
<event>
 5   0  0.3371947E-04  0.1695656E+04  0.7818609E-02  0.8763846E-01
       -2   -1    0    0    0  501  0.00000000000E+00  0.00000000000E+00  0.40781563695E+03  0.40781563696E+03  0.25500000920E-02 0.  1.
        2   -1    0    0  501    0  0.00000000000E+00  0.00000000000E+00 -0.17625923259E+04  0.17625923259E+04  0.25500000920E-02 0. -1.
    10030    2    1    2    0    0  0.00000000000E+00  0.00000000000E+00 -0.13547766889E+04  0.21704079628E+04  0.16956564653E+04 0.  0.
        2    1    3    3  502    0  0.61908941623E+03  0.57870285913E+03 -0.64490587726E+03  0.10649283051E+04  0.25500000920E-02 0.  1.
       -2    1    3    3    0  502 -0.61908941623E+03 -0.57870285913E+03 -0.70987081166E+03  0.11054796578E+04  0.25500000920E-02 0. -1.
</event>
<event>
 5   0  0.1643565E-04  0.2036716E+04  0.7818609E-02  0.8589645E-01
       -1   -1    0    0    0  501  0.00000000000E+00  0.00000000000E+00  0.56940431468E+03  0.56940431471E+03  0.50400001928E-02 0.  1.
        1   -1    0    0  501    0  0.00000000000E+00  0.00000000000E+00 -0.18212943671E+04  0.18212943671E+04  0.50400001928E-02 0. -1.
    10030    2    1    2    0    0  0.00000000000E+00  0.00000000000E+00 -0.12518900524E+04  0.23906986818E+04  0.20367158574E+04 0.  0.
        2    1    3    3  502    0  0.89925412287E+03  0.37696511900E+03 -0.28113479067E+03  0.10147893619E+04  0.25500000920E-02 0. -1.
       -2    1    3    3    0  502 -0.89925412287E+03 -0.37696511900E+03 -0.97075526172E+03  0.13759093199E+04  0.25500000920E-02 0.  1.
</event>
<event>
 5   0  0.3460648E-04  0.1974798E+04  0.7818609E-02  0.8618495E-01
       -2   -1    0    0    0  501  0.00000000000E+00  0.00000000000E+00  0.10914842328E+04  0.10914842328E+04  0.25500000920E-02 0.  1.
        2   -1    0    0  501    0  0.00000000000E+00  0.00000000000E+00 -0.89323939578E+03  0.89323939578E+03  0.25500000920E-02 0. -1.
    10030    2    1    2    0    0  0.00000000000E+00  0.00000000000E+00  0.19824483701E+03  0.19847236286E+04  0.19747979305E+04 0.  0.
        5    1    3    3  502    0  0.26525256724E+03  0.43960329984E+03 -0.74851730925E+03  0.90769501371E+03  0.46999998093E+01 0. -1.
       -5    1    3    3    0  502 -0.26525256724E+03 -0.43960329984E+03  0.94676214626E+03  0.10770286149E+04  0.46999998093E+01 0.  1.
</event>
<event>
 5   0  0.1650221E-04  0.2002315E+04  0.7818609E-02  0.8605539E-01
        1   -1    0    0  501    0  0.00000000000E+00  0.00000000000E+00  0.13505927972E+04  0.13505927972E+04  0.50400001928E-02 0.  1.
       -1   -1    0    0    0  501  0.00000000000E+00  0.00000000000E+00 -0.74213078294E+03  0.74213078296E+03  0.50400001928E-02 0. -1.
    10030    2    1    2    0    0  0.00000000000E+00  0.00000000000E+00  0.60846201429E+03  0.20927235802E+04  0.20023151501E+04 0.  0.
        1    1    3    3  502    0  0.24415175069E+03 -0.39000996143E+03  0.12335342800E+04  0.13165578861E+04  0.50400001928E-02 0.  1.
       -1    1    3    3    0  502 -0.24415175069E+03  0.39000996143E+03 -0.62507226571E+03  0.77616569414E+03  0.50400001928E-02 0. -1.
</event>
<event>
 5   0  0.1643565E-04  0.1999072E+04  0.7818609E-02  0.8607055E-01
       -1   -1    0    0    0  501  0.00000000000E+00  0.00000000000E+00  0.11122720333E+04  0.11122720333E+04  0.50400001928E-02 0. -1.
        1   -1    0    0  501    0  0.00000000000E+00  0.00000000000E+00 -0.89822677850E+03  0.89822677852E+03  0.50400001928E-02 0.  1.
    10030    2    1    2    0    0  0.00000000000E+00  0.00000000000E+00  0.21404525483E+03  0.20104988119E+04  0.19990723102E+04 0.  0.
        2    1    3    3  502    0 -0.42424433682E+03 -0.45346915759E+03 -0.68068793556E+03  0.92138678080E+03  0.25500000920E-02 0.  1.
       -2    1    3    3    0  502  0.42424433682E+03  0.45346915759E+03  0.89473319039E+03  0.10891120311E+04  0.25500000920E-02 0. -1.
</event>
<event>
 5   0  0.1650221E-04  0.1981998E+04  0.7818609E-02  0.8615084E-01
       -1   -1    0    0    0  501  0.00000000000E+00  0.00000000000E+00  0.12135013100E+04  0.12135013100E+04  0.50400001928E-02 0. -1.
        1   -1    0    0  501    0  0.00000000000E+00  0.00000000000E+00 -0.80929349314E+03  0.80929349315E+03  0.50400001928E-02 0.  1.
    10030    2    1    2    0    0  0.00000000000E+00  0.00000000000E+00  0.40420781682E+03  0.20227948031E+04  0.19819976933E+04 0.  0.
        1    1    3    3  502    0  0.57204553661E+03  0.71312017093E+02 -0.62056340031E+03  0.84700674942E+03  0.50400001928E-02 0.  1.
       -1    1    3    3    0  502 -0.57204553661E+03 -0.71312017093E+02  0.10247712171E+04  0.11757880537E+04  0.50400001928E-02 0. -1.
</event>
<event>
 5   0  0.3460648E-04  0.2213746E+04  0.7818609E-02  0.8512728E-01
        2   -1    0    0  501    0  0.00000000000E+00  0.00000000000E+00  0.12835017463E+04  0.12835017463E+04  0.25500000920E-02 0. -1.
       -2   -1    0    0    0  501  0.00000000000E+00  0.00000000000E+00 -0.95455115501E+03  0.95455115502E+03  0.25500000920E-02 0.  1.
    10030    2    1    2    0    0  0.00000000000E+00  0.00000000000E+00  0.32895059124E+03  0.22380529013E+04  0.22137462134E+04 0.  0.
        5    1    3    3  502    0  0.43214515177E+03 -0.87806611943E+03  0.68725693779E+03  0.11958652645E+04  0.46999998093E+01 0. -1.
       -5    1    3    3    0  502 -0.43214515177E+03  0.87806611943E+03 -0.35830634655E+03  0.10421876368E+04  0.46999998093E+01 0.  1.
</event>
<event>
 5   0  0.1664168E-04  0.1970612E+04  0.7818609E-02  0.8620485E-01
       -1   -1    0    0    0  501  0.00000000000E+00  0.00000000000E+00  0.51523134933E+03  0.51523134935E+03  0.50400001928E-02 0.  1.
        1   -1    0    0  501    0  0.00000000000E+00  0.00000000000E+00 -0.18842558008E+04  0.18842558008E+04  0.50400001928E-02 0. -1.
    10030    2    1    2    0    0  0.00000000000E+00  0.00000000000E+00 -0.13690244515E+04  0.23994871502E+04  0.19706117413E+04 0.  0.
        5    1    3    3  502    0 -0.72238352251E+03  0.31821431567E+03  0.33487444176E+02  0.79008974377E+03  0.46999998093E+01 0.  1.
       -5    1    3    3    0  502  0.72238352251E+03 -0.31821431567E+03 -0.14025118957E+04  0.16093974064E+04  0.46999998093E+01 0. -1.
</event>
<event>
 5   0  0.1708578E-04  0.1205542E+04  0.7818609E-02  0.9108020E-01
       -1   -1    0    0    0  501  0.00000000000E+00  0.00000000000E+00  0.23083653531E+03  0.23083653536E+03  0.50400001928E-02 0. -1.
        1   -1    0    0  501    0  0.00000000000E+00  0.00000000000E+00 -0.15739829571E+04  0.15739829571E+04  0.50400001928E-02 0.  1.
    10030    2    1    2    0    0  0.00000000000E+00  0.00000000000E+00 -0.13431464218E+04  0.18048194925E+04  0.12055418243E+04 0.  0.
        3    1    3    3  502    0 -0.44635374054E+03  0.24135898838E+03 -0.11586423832E+04  0.12648865583E+04  0.10100000352E+00 0.  1.
       -3    1    3    3    0  502  0.44635374054E+03 -0.24135898838E+03 -0.18450403859E+03  0.53993293419E+03  0.10100000352E+00 0. -1.
</event>
<event>
 5   0  0.3387881E-04  0.2341076E+04  0.7818609E-02  0.8461899E-01
       -2   -1    0    0    0  501  0.00000000000E+00  0.00000000000E+00  0.92602249337E+03  0.92602249337E+03  0.25500000920E-02 0.  1.
        2   -1    0    0  501    0  0.00000000000E+00  0.00000000000E+00 -0.14796174386E+04  0.14796174386E+04  0.25500000920E-02 0. -1.
    10030    2    1    2    0    0  0.00000000000E+00  0.00000000000E+00 -0.55359494519E+03  0.24056399319E+04  0.23410758464E+04 0.  0.
        1    1    3    3  502    0  0.42590342694E+02  0.62727483276E+03 -0.12913833188E+04  0.14363002921E+04  0.50400001928E-02 0. -1.
       -1    1    3    3    0  502 -0.42590342694E+02 -0.62727483276E+03  0.73778837358E+03  0.96933963982E+03  0.50400001928E-02 0.  1.
</event>
<event>
 5   0  0.1708578E-04  0.1644423E+04  0.7818609E-02  0.8793713E-01
       -1   -1    0    0    0  501  0.00000000000E+00  0.00000000000E+00  0.71735329892E+03  0.71735329893E+03  0.50400001928E-02 0.  1.
        1   -1    0    0  501    0  0.00000000000E+00  0.00000000000E+00 -0.94239687849E+03  0.94239687850E+03  0.50400001928E-02 0. -1.
    10030    2    1    2    0    0  0.00000000000E+00  0.00000000000E+00 -0.22504357957E+03  0.16597501774E+04  0.16444227068E+04 0.  0.
        3    1    3    3  502    0  0.56601066385E+01 -0.64786847911E+03 -0.62346739266E+03  0.89915360364E+03  0.10100000352E+00 0. -1.
       -3    1    3    3    0  502 -0.56601066385E+01  0.64786847911E+03  0.39842381309E+03  0.76059657379E+03  0.10100000352E+00 0.  1.
</event>
<event>
 5   0  0.3431030E-04  0.1981989E+04  0.7818609E-02  0.8615088E-01
        2   -1    0    0  501    0  0.00000000000E+00  0.00000000000E+00  0.19592572597E+04  0.19592572597E+04  0.25500000920E-02 0. -1.
       -2   -1    0    0    0  501  0.00000000000E+00  0.00000000000E+00 -0.50124632446E+03  0.50124632447E+03  0.25500000920E-02 0.  1.
    10030    2    1    2    0    0  0.00000000000E+00  0.00000000000E+00  0.14580109352E+04  0.24605035841E+04  0.19819894047E+04 0.  0.
        3    1    3    3  502    0  0.30756211249E+03 -0.80700896065E+03  0.13323622232E+04  0.15877805326E+04  0.10100000352E+00 0. -1.
       -3    1    3    3    0  502 -0.30756211249E+03  0.80700896065E+03  0.12564871195E+03  0.87272305151E+03  0.10100000352E+00 0.  1.
</event>
<event>
 5   0  0.1650221E-04  0.2389446E+04  0.7818609E-02  0.8443465E-01
       -1   -1    0    0    0  501  0.00000000000E+00  0.00000000000E+00  0.98157818939E+03  0.98157818941E+03  0.50400001928E-02 0. -1.
        1   -1    0    0  501    0  0.00000000000E+00  0.00000000000E+00 -0.14541513917E+04  0.14541513917E+04  0.50400001928E-02 0.  1.
    10030    2    1    2    0    0  0.00000000000E+00  0.00000000000E+00 -0.47257320234E+03  0.24357295811E+04  0.23894462038E+04 0.  0.
        1    1    3    3  502    0 -0.10639034533E+04 -0.41023233822E+03  0.12724729678E+03  0.11473329961E+04  0.50400001928E-02 0. -1.
       -1    1    3    3    0  502  0.10639034533E+04  0.41023233822E+03 -0.59982049911E+03  0.12883965851E+04  0.50400001928E-02 0.  1.
</event>
<event>
 5   0  0.1650221E-04  0.1915687E+04  0.7818609E-02  0.8647087E-01
        1   -1    0    0  501    0  0.00000000000E+00  0.00000000000E+00  0.23947034813E+04  0.23947034813E+04  0.50400001928E-02 0.  1.
       -1   -1    0    0    0  501  0.00000000000E+00  0.00000000000E+00 -0.38312233509E+03  0.38312233513E+03  0.50400001928E-02 0. -1.
    10030    2    1    2    0    0  0.00000000000E+00  0.00000000000E+00  0.20115811462E+04  0.27778258164E+04  0.19156872288E+04 0.  0.
        1    1    3    3  502    0  0.72705636719E+03 -0.16911941987E+03  0.18761199373E+04  0.20191677390E+04  0.50400001928E-02 0.  1.
       -1    1    3    3    0  502 -0.72705636719E+03  0.16911941987E+03  0.13546120891E+03  0.75865807739E+03  0.50400001928E-02 0. -1.
</event>
<event>
 5   0  0.3387881E-04  0.1977342E+04  0.7818609E-02  0.8617288E-01
        2   -1    0    0  501    0  0.00000000000E+00  0.00000000000E+00  0.13214945402E+04  0.13214945402E+04  0.25500000920E-02 0.  1.
       -2   -1    0    0    0  501  0.00000000000E+00  0.00000000000E+00 -0.73967001329E+03  0.73967001329E+03  0.25500000920E-02 0. -1.
    10030    2    1    2    0    0  0.00000000000E+00  0.00000000000E+00  0.58182452689E+03  0.20611645535E+04  0.19773415326E+04 0.  0.
        1    1    3    3  502    0  0.81029579821E+03 -0.94960897159E+02  0.87304213793E+03  0.11949056144E+04  0.50400001928E-02 0.  1.
       -1    1    3    3    0  502 -0.81029579821E+03  0.94960897159E+02 -0.29121761104E+03  0.86625893911E+03  0.50400001928E-02 0. -1.
</event>
<event>
 5   0  0.1708578E-04  0.2012016E+04  0.7818609E-02  0.8601023E-01
       -1   -1    0    0    0  501  0.00000000000E+00  0.00000000000E+00  0.61310353390E+03  0.61310353392E+03  0.50400001928E-02 0. -1.
        1   -1    0    0  501    0  0.00000000000E+00  0.00000000000E+00 -0.16507041268E+04  0.16507041268E+04  0.50400001928E-02 0.  1.
    10030    2    1    2    0    0  0.00000000000E+00  0.00000000000E+00 -0.10376005929E+04  0.22638076608E+04  0.20120164349E+04 0.  0.
        3    1    3    3  502    0 -0.95060067291E+03  0.27379928311E+03 -0.31303480542E+03  0.10375926399E+04  0.10100000352E+00 0. -1.
       -3    1    3    3    0  502  0.95060067291E+03 -0.27379928311E+03 -0.72456578751E+03  0.12262150209E+04  0.10100000352E+00 0.  1.
</event>
<event>
 5   0  0.1650221E-04  0.1340868E+04  0.7818609E-02  0.8997770E-01
       -1   -1    0    0    0  501  0.00000000000E+00  0.00000000000E+00  0.36988689567E+03  0.36988689571E+03  0.50400001928E-02 0.  1.
        1   -1    0    0  501    0  0.00000000000E+00  0.00000000000E+00 -0.12151871063E+04  0.12151871063E+04  0.50400001928E-02 0. -1.
    10030    2    1    2    0    0  0.00000000000E+00  0.00000000000E+00 -0.84530021060E+03  0.15850740020E+04  0.13408680568E+04 0.  0.
        1    1    3    3  502    0  0.34501498524E+03  0.13922821559E+03  0.23665576617E+03  0.44093739662E+03  0.50400001928E-02 0.  1.
       -1    1    3    3    0  502 -0.34501498524E+03 -0.13922821559E+03 -0.10819559768E+04  0.11441366054E+04  0.50400001928E-02 0. -1.
</event>
<event>
 5   0  0.3431030E-04  0.1854811E+04  0.7818609E-02  0.8677683E-01
        2   -1    0    0  501    0  0.00000000000E+00  0.00000000000E+00  0.99804509082E+03  0.99804509083E+03  0.25500000920E-02 0.  1.
       -2   -1    0    0    0  501  0.00000000000E+00  0.00000000000E+00 -0.86176548772E+03  0.86176548773E+03  0.25500000920E-02 0. -1.
    10030    2    1    2    0    0  0.00000000000E+00  0.00000000000E+00  0.13627960310E+03  0.18598105786E+04  0.18548108415E+04 0.  0.
        3    1    3    3  502    0  0.64862221618E+03 -0.38386210218E+03 -0.47370551063E+03  0.89020099630E+03  0.10100000352E+00 0. -1.
       -3    1    3    3    0  502 -0.64862221618E+03  0.38386210218E+03  0.60998511373E+03  0.96960958225E+03  0.10100000352E+00 0.  1.
</event>
<event>
 5   0  0.3460648E-04  0.1775346E+04  0.7818609E-02  0.8719521E-01
       -2   -1    0    0    0  501  0.00000000000E+00  0.00000000000E+00  0.64495524241E+03  0.64495524241E+03  0.25500000920E-02 0. -1.
        2   -1    0    0  501    0  0.00000000000E+00  0.00000000000E+00 -0.12217332471E+04  0.12217332471E+04  0.25500000920E-02 0.  1.
    10030    2    1    2    0    0  0.00000000000E+00  0.00000000000E+00 -0.57677800466E+03  0.18666884895E+04  0.17753458959E+04 0.  0.
        5    1    3    3  502    0  0.30450943367E+03 -0.72858690273E+02  0.58495245833E+03  0.66349517892E+03  0.46999998093E+01 0. -1.
       -5    1    3    3    0  502 -0.30450943367E+03  0.72858690273E+02 -0.11617304630E+04  0.12031933106E+04  0.46999998093E+01 0.  1.
</event>
<event>
 5   0  0.3371947E-04  0.1924994E+04  0.7818609E-02  0.8642514E-01
       -2   -1    0    0    0  501  0.00000000000E+00  0.00000000000E+00  0.65841281258E+03  0.65841281259E+03  0.25500000920E-02 0.  1.
        2   -1    0    0  501    0  0.00000000000E+00  0.00000000000E+00 -0.14070213568E+04  0.14070213568E+04  0.25500000920E-02 0. -1.
    10030    2    1    2    0    0  0.00000000000E+00  0.00000000000E+00 -0.74860854420E+03  0.20654341694E+04  0.19249944300E+04 0.  0.
        2    1    3    3  502    0  0.36910474440E+02 -0.67271230339E+02 -0.14037343753E+04  0.14058300032E+04  0.25500000920E-02 0. -1.
       -2    1    3    3    0  502 -0.36910474440E+02  0.67271230339E+02  0.65512583105E+03  0.65960416620E+03  0.25500000920E-02 0.  1.
</event>
<event>
 5   0  0.3371947E-04  0.2036140E+04  0.7818609E-02  0.8589908E-01
       -2   -1    0    0    0  501  0.00000000000E+00  0.00000000000E+00  0.87044937982E+03  0.87044937983E+03  0.25500000920E-02 0. -1.
        2   -1    0    0  501    0  0.00000000000E+00  0.00000000000E+00 -0.11907260874E+04  0.11907260874E+04  0.25500000920E-02 0.  1.
    10030    2    1    2    0    0  0.00000000000E+00  0.00000000000E+00 -0.32027670761E+03  0.20611754673E+04  0.20361402548E+04 0.  0.
        2    1    3    3  502    0  0.20174315262E+03  0.13517607098E+03 -0.11609775509E+04  0.11861035973E+04  0.25500000920E-02 0.  1.
       -2    1    3    3    0  502 -0.20174315262E+03 -0.13517607098E+03  0.84070084327E+03  0.87507187000E+03  0.25500000920E-02 0. -1.
</event>
<event>
 5   0  0.3431030E-04  0.2021559E+04  0.7818609E-02  0.8596607E-01
        2   -1    0    0  501    0  0.00000000000E+00  0.00000000000E+00  0.10552299524E+04  0.10552299524E+04  0.25500000920E-02 0.  1.
       -2   -1    0    0    0  501  0.00000000000E+00  0.00000000000E+00 -0.96820118678E+03  0.96820118679E+03  0.25500000920E-02 0. -1.
    10030    2    1    2    0    0  0.00000000000E+00  0.00000000000E+00  0.87028765615E+02  0.20234311392E+04  0.20215586979E+04 0.  0.
        3    1    3    3  502    0  0.25085911692E+03  0.93063438364E+03 -0.26117556938E+03  0.99861070533E+03  0.10100000352E+00 0. -1.
       -3    1    3    3    0  502 -0.25085911692E+03 -0.93063438364E+03  0.34820433499E+03  0.10248204339E+04  0.10100000352E+00 0.  1.
</event>
<event>
 5   0  0.1643565E-04  0.2007989E+04  0.7818609E-02  0.8602895E-01
        1   -1    0    0  501    0  0.00000000000E+00  0.00000000000E+00  0.49327607829E+03  0.49327607831E+03  0.50400001928E-02 0.  1.
       -1   -1    0    0    0  501  0.00000000000E+00  0.00000000000E+00 -0.20434904484E+04  0.20434904484E+04  0.50400001928E-02 0. -1.
    10030    2    1    2    0    0  0.00000000000E+00  0.00000000000E+00 -0.15502143701E+04  0.25367665267E+04  0.20079889984E+04 0.  0.
        2    1    3    3  502    0 -0.67532069623E+03 -0.29477165757E+02 -0.17129406150E+04  0.18414919214E+04  0.25500000920E-02 0. -1.
       -2    1    3    3    0  502  0.67532069623E+03  0.29477165757E+02  0.16272624486E+03  0.69527460534E+03  0.25500000920E-02 0.  1.
</event>
<event>
 5   0  0.3387881E-04  0.1989790E+04  0.7818609E-02  0.8611409E-01
       -2   -1    0    0    0  501  0.00000000000E+00  0.00000000000E+00  0.54145940355E+03  0.54145940356E+03  0.25500000920E-02 0. -1.
        2   -1    0    0  501    0  0.00000000000E+00  0.00000000000E+00 -0.18280514127E+04  0.18280514127E+04  0.25500000920E-02 0.  1.
    10030    2    1    2    0    0  0.00000000000E+00  0.00000000000E+00 -0.12865920091E+04  0.23695108162E+04  0.19897895643E+04 0.  0.
        1    1    3    3  502    0 -0.47717147781E+03 -0.39202357671E+03  0.28558613493E+03  0.68039293384E+03  0.50400001928E-02 0. -1.
       -1    1    3    3    0  502  0.47717147781E+03  0.39202357671E+03 -0.15721781441E+04  0.16891178824E+04  0.50400001928E-02 0.  1.
</event>
<event>
 5   0  0.1708578E-04  0.1985847E+04  0.7818609E-02  0.8613266E-01
       -1   -1    0    0    0  501  0.00000000000E+00  0.00000000000E+00  0.55876781111E+03  0.55876781114E+03  0.50400001928E-02 0. -1.
        1   -1    0    0  501    0  0.00000000000E+00  0.00000000000E+00 -0.17644128964E+04  0.17644128964E+04  0.50400001928E-02 0.  1.
    10030    2    1    2    0    0  0.00000000000E+00  0.00000000000E+00 -0.12056450853E+04  0.23231807076E+04  0.19858470556E+04 0.  0.
        3    1    3    3  502    0 -0.67408933510E+03 -0.67498288867E+03 -0.92511832471E+03  0.13288499752E+04  0.10100000352E+00 0.  1.
       -3    1    3    3    0  502  0.67408933510E+03  0.67498288867E+03 -0.28052676060E+03  0.99433073236E+03  0.10100000352E+00 0. -1.
</event>
<event>
 5   0  0.1708578E-04  0.1991314E+04  0.7818609E-02  0.8610692E-01
        1   -1    0    0  501    0  0.00000000000E+00  0.00000000000E+00  0.12287619725E+04  0.12287619725E+04  0.50400001928E-02 0. -1.
       -1   -1    0    0    0  501  0.00000000000E+00  0.00000000000E+00 -0.80677398933E+03  0.80677398934E+03  0.50400001928E-02 0.  1.
    10030    2    1    2    0    0  0.00000000000E+00  0.00000000000E+00  0.42198798315E+03  0.20355359618E+04  0.19913143383E+04 0.  0.
        3    1    3    3  502    0 -0.85552381504E+03 -0.18294458841E+03  0.69688499019E+03  0.11184982880E+04  0.10100000352E+00 0. -1.
       -3    1    3    3    0  502  0.85552381504E+03  0.18294458841E+03 -0.27489700704E+03  0.91703767382E+03  0.10100000352E+00 0.  1.
</event>
<event>
 5   0  0.1696052E-04  0.2050693E+04  0.7818609E-02  0.8583280E-01
        1   -1    0    0  501    0  0.00000000000E+00  0.00000000000E+00  0.16361465341E+04  0.16361465341E+04  0.50400001928E-02 0.  1.
       -1   -1    0    0    0  501  0.00000000000E+00  0.00000000000E+00 -0.64256830634E+03  0.64256830636E+03  0.50400001928E-02 0. -1.
    10030    2    1    2    0    0  0.00000000000E+00  0.00000000000E+00  0.99357822778E+03  0.22787148405E+04  0.20506934509E+04 0.  0.
        4    1    3    3  502    0 -0.63611484404E+03 -0.56201204005E+03  0.11359272646E+04  0.14180380782E+04  0.12699999809E+01 0.  1.
       -4    1    3    3    0  502  0.63611484404E+03  0.56201204005E+03 -0.14234903678E+03  0.86067676229E+03  0.12699999809E+01 0. -1.
</event>
<event>
 5   0  0.3395569E-04  0.1605066E+04  0.7818609E-02  0.8817442E-01
       -2   -1    0    0    0  501  0.00000000000E+00  0.00000000000E+00  0.40386147099E+03  0.40386147100E+03  0.25500000920E-02 0. -1.
        2   -1    0    0  501    0  0.00000000000E+00  0.00000000000E+00 -0.15947536294E+04  0.15947536294E+04  0.25500000920E-02 0.  1.
    10030    2    1    2    0    0  0.00000000000E+00  0.00000000000E+00 -0.11908921584E+04  0.19986151004E+04  0.16050664119E+04 0.  0.
        4    1    3    3  502    0  0.27442266498E+03 -0.95774626176E+01 -0.15344380738E+04  0.15588140820E+04  0.12699999809E+01 0.  1.
       -4    1    3    3    0  502 -0.27442266498E+03  0.95774626176E+01  0.34354591546E+03  0.43980101839E+03  0.12699999809E+01 0. -1.
</event>
<event>
 5   0  0.1708578E-04  0.1992086E+04  0.7818609E-02  0.8610329E-01
        1   -1    0    0  501    0  0.00000000000E+00  0.00000000000E+00  0.96194127303E+03  0.96194127304E+03  0.50400001928E-02 0. -1.
       -1   -1    0    0    0  501  0.00000000000E+00  0.00000000000E+00 -0.10313541354E+04  0.10313541354E+04  0.50400001928E-02 0.  1.
    10030    2    1    2    0    0  0.00000000000E+00  0.00000000000E+00 -0.69412862396E+02  0.19932954085E+04  0.19920864539E+04 0.  0.
        3    1    3    3  502    0 -0.40191235778E+02 -0.80666762498E+02  0.95785304433E+03  0.96208363812E+03  0.10100000352E+00 0. -1.
       -3    1    3    3    0  502  0.40191235778E+02  0.80666762498E+02 -0.10272659067E+04  0.10312117704E+04  0.10100000352E+00 0.  1.
</event>
<event>
 5   0  0.3460648E-04  0.1947715E+04  0.7818609E-02  0.8631463E-01
        2   -1    0    0  501    0  0.00000000000E+00  0.00000000000E+00  0.13946254539E+04  0.13946254539E+04  0.25500000920E-02 0. -1.
       -2   -1    0    0    0  501  0.00000000000E+00  0.00000000000E+00 -0.68003806672E+03  0.68003806673E+03  0.25500000920E-02 0.  1.
    10030    2    1    2    0    0  0.00000000000E+00  0.00000000000E+00  0.71458738720E+03  0.20746635207E+04  0.19477149663E+04 0.  0.
        5    1    3    3  502    0  0.12828761155E+03  0.63472656940E+03  0.11320530748E+04  0.13041862533E+04  0.46999998093E+01 0. -1.
       -5    1    3    3    0  502 -0.12828761155E+03 -0.63472656940E+03 -0.41746568759E+03  0.77047726734E+03  0.46999998093E+01 0.  1.
</event>
<event>
 5   0  0.1708578E-04  0.1937740E+04  0.7818609E-02  0.8636295E-01
       -1   -1    0    0    0  501  0.00000000000E+00  0.00000000000E+00  0.82510369750E+03  0.82510369752E+03  0.50400001928E-02 0.  1.
        1   -1    0    0  501    0  0.00000000000E+00  0.00000000000E+00 -0.11376862677E+04  0.11376862677E+04  0.50400001928E-02 0. -1.
    10030    2    1    2    0    0  0.00000000000E+00  0.00000000000E+00 -0.31258257021E+03  0.19627899652E+04  0.19377400714E+04 0.  0.
        3    1    3    3  502    0 -0.49168389772E+03  0.20404782090E+02 -0.10016698929E+04  0.11160250871E+04  0.10100000352E+00 0. -1.
       -3    1    3    3    0  502  0.49168389772E+03 -0.20404782090E+02  0.68908732270E+03  0.84676487818E+03  0.10100000352E+00 0.  1.
</event>
<event>
 5   0  0.3387881E-04  0.1995982E+04  0.7818609E-02  0.8608502E-01
        2   -1    0    0  501    0  0.00000000000E+00  0.00000000000E+00  0.17581586497E+04  0.17581586497E+04  0.25500000920E-02 0. -1.
       -2   -1    0    0    0  501  0.00000000000E+00  0.00000000000E+00 -0.56649368912E+03  0.56649368913E+03  0.25500000920E-02 0.  1.
    10030    2    1    2    0    0  0.00000000000E+00  0.00000000000E+00  0.11916649606E+04  0.23246523388E+04  0.19959817429E+04 0.  0.
        1    1    3    3  502    0  0.71150253042E+03 -0.63859257060E+03  0.92923930736E+03  0.13332374179E+04  0.50400001928E-02 0. -1.
       -1    1    3    3    0  502 -0.71150253042E+03  0.63859257060E+03  0.26242565322E+03  0.99141492097E+03  0.50400001928E-02 0.  1.
</event>
<event>
 5   0  0.1708578E-04  0.2007307E+04  0.7818609E-02  0.8603212E-01
        1   -1    0    0  501    0  0.00000000000E+00  0.00000000000E+00  0.24427991872E+04  0.24427991872E+04  0.50400001928E-02 0.  1.
       -1   -1    0    0    0  501  0.00000000000E+00  0.00000000000E+00 -0.41236312909E+03  0.41236312912E+03  0.50400001928E-02 0. -1.
    10030    2    1    2    0    0  0.00000000000E+00  0.00000000000E+00  0.20304360581E+04  0.28551623163E+04  0.20073069687E+04 0.  0.
        3    1    3    3  502    0  0.40944070201E+03 -0.80152860772E+03  0.16469081113E+04  0.18768047674E+04  0.10100000352E+00 0.  1.
       -3    1    3    3    0  502 -0.40944070201E+03  0.80152860772E+03  0.38352794680E+03  0.97835754898E+03  0.10100000352E+00 0. -1.
</event>
<event>
 5   0  0.3460648E-04  0.1042687E+04  0.7818609E-02  0.9262927E-01
       -2   -1    0    0    0  501  0.00000000000E+00  0.00000000000E+00  0.30047450473E+03  0.30047450474E+03  0.25500000920E-02 0.  1.
        2   -1    0    0  501    0  0.00000000000E+00  0.00000000000E+00 -0.90456528630E+03  0.90456528631E+03  0.25500000920E-02 0. -1.
    10030    2    1    2    0    0  0.00000000000E+00  0.00000000000E+00 -0.60409078158E+03  0.12050397910E+04  0.10426865424E+04 0.  0.
        5    1    3    3  502    0  0.24656009887E+03 -0.39603054701E+03 -0.33123996504E+02  0.46770863330E+03  0.46999998093E+01 0.  1.
       -5    1    3    3    0  502 -0.24656009887E+03  0.39603054701E+03 -0.57096678507E+03  0.73733115774E+03  0.46999998093E+01 0. -1.
</event>
<event>
 5   0  0.3431030E-04  0.1998749E+04  0.7818609E-02  0.8607206E-01
       -2   -1    0    0    0  501  0.00000000000E+00  0.00000000000E+00  0.68430152804E+03  0.68430152805E+03  0.25500000920E-02 0. -1.
        2   -1    0    0  501    0  0.00000000000E+00  0.00000000000E+00 -0.14595158545E+04  0.14595158545E+04  0.25500000920E-02 0.  1.
    10030    2    1    2    0    0  0.00000000000E+00  0.00000000000E+00 -0.77521432651E+03  0.21438173826E+04  0.19987485379E+04 0.  0.
        3    1    3    3  502    0  0.66013276046E+03 -0.66399025756E+03 -0.12832057582E+02  0.93638827174E+03  0.10100000352E+00 0. -1.
       -3    1    3    3    0  502 -0.66013276046E+03  0.66399025756E+03 -0.76238226892E+03  0.12074291109E+04  0.10100000352E+00 0.  1.
</event>
<event>
 5   0  0.3431030E-04  0.1050201E+04  0.7818609E-02  0.9255137E-01
       -2   -1    0    0    0  501  0.00000000000E+00  0.00000000000E+00  0.16511114708E+03  0.16511114710E+03  0.25500000920E-02 0. -1.
        2   -1    0    0  501    0  0.00000000000E+00  0.00000000000E+00 -0.16699681990E+04  0.16699681990E+04  0.25500000920E-02 0.  1.
    10030    2    1    2    0    0  0.00000000000E+00  0.00000000000E+00 -0.15048570519E+04  0.18350793461E+04  0.10502006760E+04 0.  0.
        3    1    3    3  502    0 -0.19665291686E+03 -0.46017974612E+03 -0.10303225285E+04  0.11454266853E+04  0.10100000352E+00 0.  1.
       -3    1    3    3    0  502  0.19665291686E+03  0.46017974612E+03 -0.47453452344E+03  0.68965266083E+03  0.10100000352E+00 0. -1.
</event>
<event>
 5   0  0.1650221E-04  0.2053768E+04  0.7818609E-02  0.8581887E-01
        1   -1    0    0  501    0  0.00000000000E+00  0.00000000000E+00  0.64587259084E+03  0.64587259086E+03  0.50400001928E-02 0. -1.
       -1   -1    0    0    0  501  0.00000000000E+00  0.00000000000E+00 -0.16326611552E+04  0.16326611552E+04  0.50400001928E-02 0.  1.
    10030    2    1    2    0    0  0.00000000000E+00  0.00000000000E+00 -0.98678856436E+03  0.22785337461E+04  0.20537683319E+04 0.  0.
        1    1    3    3  502    0  0.78003527136E+03  0.51733004273E+03 -0.24787719995E+02  0.93632250254E+03  0.50400001928E-02 0.  1.
       -1    1    3    3    0  502 -0.78003527136E+03 -0.51733004273E+03 -0.96200084436E+03  0.13422112435E+04  0.50400001928E-02 0. -1.
</event>
<event>
 5   0  0.1696052E-04  0.9948391E+03  0.7818609E-02  0.9314223E-01
       -1   -1    0    0    0  501  0.00000000000E+00  0.00000000000E+00  0.25974426066E+03  0.25974426071E+03  0.50400001928E-02 0. -1.
        1   -1    0    0  501    0  0.00000000000E+00  0.00000000000E+00 -0.95257630868E+03  0.95257630870E+03  0.50400001928E-02 0.  1.
    10030    2    1    2    0    0  0.00000000000E+00  0.00000000000E+00 -0.69283204803E+03  0.12123205694E+04  0.99483914088E+03 0.  0.
        4    1    3    3  502    0 -0.35663385921E+03 -0.23291125344E+03 -0.33375024470E+02  0.42725971805E+03  0.12699999809E+01 0.  1.
       -4    1    3    3    0  502  0.35663385921E+03  0.23291125344E+03 -0.65945702356E+03  0.78506085135E+03  0.12699999809E+01 0. -1.
</event>
<event>
 5   0  0.1650221E-04  0.1980927E+04  0.7818609E-02  0.8615590E-01
       -1   -1    0    0    0  501  0.00000000000E+00  0.00000000000E+00  0.84383198577E+03  0.84383198579E+03  0.50400001928E-02 0.  1.
        1   -1    0    0  501    0  0.00000000000E+00  0.00000000000E+00 -0.11625751665E+04  0.11625751665E+04  0.50400001928E-02 0. -1.
    10030    2    1    2    0    0  0.00000000000E+00  0.00000000000E+00 -0.31874318076E+03  0.20064071523E+04  0.19809271682E+04 0.  0.
        1    1    3    3  502    0  0.50992589249E+01  0.63868709794E+03  0.60738009081E+03  0.88139536320E+03  0.50400001928E-02 0.  1.
       -1    1    3    3    0  502 -0.50992589249E+01 -0.63868709794E+03 -0.92612327157E+03  0.11250117891E+04  0.50400001928E-02 0. -1.
</event>
<event>
 5   0  0.1222488E-04  0.2032756E+04  0.7818609E-02  0.8591458E-01
       -3   -1    0    0    0  501  0.00000000000E+00  0.00000000000E+00  0.11607702578E+04  0.11607702622E+04  0.10100000352E+00 0. -1.
        3   -1    0    0  501    0  0.00000000000E+00  0.00000000000E+00 -0.88994679373E+03  0.88994679946E+03  0.10100000352E+00 0.  1.
    10030    2    1    2    0    0  0.00000000000E+00  0.00000000000E+00  0.27082346403E+03  0.20507170616E+04  0.20327555481E+04 0.  0.
        1    1    3    3  502    0  0.34919964763E+03 -0.71175353514E+03  0.77702692676E+03  0.11100920384E+04  0.50400001928E-02 0. -1.
       -1    1    3    3    0  502 -0.34919964763E+03  0.71175353514E+03 -0.50620346273E+03  0.94062502326E+03  0.50400001928E-02 0.  1.
</event>
<event>
 5   0  0.1664168E-04  0.2146947E+04  0.7818609E-02  0.8540840E-01
       -1   -1    0    0    0  501  0.00000000000E+00  0.00000000000E+00  0.19340746629E+04  0.19340746629E+04  0.50400001928E-02 0.  1.
        1   -1    0    0  501    0  0.00000000000E+00  0.00000000000E+00 -0.59581201158E+03  0.59581201160E+03  0.50400001928E-02 0. -1.
    10030    2    1    2    0    0  0.00000000000E+00  0.00000000000E+00  0.13382626513E+04  0.25298866745E+04  0.21469465904E+04 0.  0.
        5    1    3    3  502    0  0.52470155971E+03  0.85140026366E+03  0.11287370079E+04  0.15080661320E+04  0.46999998093E+01 0.  1.
       -5    1    3    3    0  502 -0.52470155971E+03 -0.85140026366E+03  0.20952564346E+03  0.10218205425E+04  0.46999998093E+01 0. -1.
</event>
<event>
 5   0  0.1696052E-04  0.2001105E+04  0.7818609E-02  0.8606104E-01
       -1   -1    0    0    0  501  0.00000000000E+00  0.00000000000E+00  0.75062220144E+03  0.75062220145E+03  0.50400001928E-02 0. -1.
        1   -1    0    0  501    0  0.00000000000E+00  0.00000000000E+00 -0.13337006736E+04  0.13337006736E+04  0.50400001928E-02 0.  1.
    10030    2    1    2    0    0  0.00000000000E+00  0.00000000000E+00 -0.58307847212E+03  0.20843228750E+04  0.20011050304E+04 0.  0.
        4    1    3    3  502    0  0.56400192230E+03 -0.82643904858E+03 -0.29363626586E+03  0.10427480707E+04  0.12699999809E+01 0. -1.
       -4    1    3    3    0  502 -0.56400192230E+03  0.82643904858E+03 -0.28944220625E+03  0.10415748043E+04  0.12699999809E+01 0.  1.
</event>
<event>
 5   0  0.1643565E-04  0.1938923E+04  0.7818609E-02  0.8635721E-01
        1   -1    0    0  501    0  0.00000000000E+00  0.00000000000E+00  0.69591123349E+03  0.69591123351E+03  0.50400001928E-02 0.  1.
       -1   -1    0    0    0  501  0.00000000000E+00  0.00000000000E+00 -0.13505400011E+04  0.13505400011E+04  0.50400001928E-02 0. -1.
    10030    2    1    2    0    0  0.00000000000E+00  0.00000000000E+00 -0.65462876763E+03  0.20464512346E+04  0.19389233694E+04 0.  0.
        2    1    3    3  502    0 -0.39217876289E+03 -0.41756928587E+03 -0.11527926007E+04  0.12872836015E+04  0.25500000920E-02 0. -1.
       -2    1    3    3    0  502  0.39217876289E+03  0.41756928587E+03  0.49816383307E+03  0.75916763310E+03  0.25500000920E-02 0.  1.
</event>
<event>
 5   0  0.3371947E-04  0.2023565E+04  0.7818609E-02  0.8595682E-01
        2   -1    0    0  501    0  0.00000000000E+00  0.00000000000E+00  0.10447181690E+04  0.10447181690E+04  0.25500000920E-02 0. -1.
       -2   -1    0    0    0  501  0.00000000000E+00  0.00000000000E+00 -0.97988532421E+03  0.97988532422E+03  0.25500000920E-02 0.  1.
    10030    2    1    2    0    0  0.00000000000E+00  0.00000000000E+00  0.64832844826E+02  0.20246034933E+04  0.20235651725E+04 0.  0.
        2    1    3    3  502    0 -0.34632899497E+03 -0.62775228580E+03 -0.68187377552E+03  0.98942839601E+03  0.25500000920E-02 0.  1.
       -2    1    3    3    0  502  0.34632899497E+03  0.62775228580E+03  0.74670662035E+03  0.10351750972E+04  0.25500000920E-02 0. -1.
</event>
<event>
 5   0  0.1664168E-04  0.2004952E+04  0.7818609E-02  0.8604309E-01
        1   -1    0    0  501    0  0.00000000000E+00  0.00000000000E+00  0.16599910113E+04  0.16599910113E+04  0.50400001928E-02 0.  1.
       -1   -1    0    0    0  501  0.00000000000E+00  0.00000000000E+00 -0.60539974416E+03  0.60539974418E+03  0.50400001928E-02 0. -1.
    10030    2    1    2    0    0  0.00000000000E+00  0.00000000000E+00  0.10545912671E+04  0.22653907554E+04  0.20049520030E+04 0.  0.
        5    1    3    3  502    0 -0.71746778745E+03  0.68675841030E+03  0.68113984649E+03  0.12043133814E+04  0.46999998093E+01 0. -1.
       -5    1    3    3    0  502  0.71746778745E+03 -0.68675841030E+03  0.37345142061E+03  0.10610773740E+04  0.46999998093E+01 0.  1.
</event>
<event>
 5   0  0.1708578E-04  0.1985350E+04  0.7818609E-02  0.8613501E-01
       -1   -1    0    0    0  501  0.00000000000E+00  0.00000000000E+00  0.62332026643E+03  0.62332026645E+03  0.50400001928E-02 0.  1.
        1   -1    0    0  501    0  0.00000000000E+00  0.00000000000E+00 -0.15808948348E+04  0.15808948348E+04  0.50400001928E-02 0. -1.
    10030    2    1    2    0    0  0.00000000000E+00  0.00000000000E+00 -0.95757456833E+03  0.22042151012E+04  0.19853501350E+04 0.  0.
        3    1    3    3  502    0  0.16820696052E+03 -0.89649332333E+03 -0.43933169170E+02  0.91319438999E+03  0.10100000352E+00 0.  1.
       -3    1    3    3    0  502 -0.16820696052E+03  0.89649332333E+03 -0.91364139916E+03  0.12910207112E+04  0.10100000352E+00 0. -1.
</event>
<event>
 5   0  0.3371947E-04  0.1965562E+04  0.7818609E-02  0.8622893E-01
       -2   -1    0    0    0  501  0.00000000000E+00  0.00000000000E+00  0.56544839231E+03  0.56544839232E+03  0.25500000920E-02 0.  1.
        2   -1    0    0  501    0  0.00000000000E+00  0.00000000000E+00 -0.17081288321E+04  0.17081288321E+04  0.25500000920E-02 0. -1.
    10030    2    1    2    0    0  0.00000000000E+00  0.00000000000E+00 -0.11426804398E+04  0.22735772244E+04  0.19655622117E+04 0.  0.
        2    1    3    3  502    0 -0.71009412174E+03 -0.48399697648E+01 -0.13572208337E+04  0.15317654776E+04  0.25500000920E-02 0. -1.
       -2    1    3    3    0  502  0.71009412174E+03  0.48399697648E+01  0.21454039391E+03  0.74181174678E+03  0.25500000920E-02 0.  1.
</event>
<event>
 5   0  0.1643565E-04  0.1571465E+04  0.7818609E-02  0.8838273E-01
        1   -1    0    0  501    0  0.00000000000E+00  0.00000000000E+00  0.13751469744E+04  0.13751469744E+04  0.50400001928E-02 0.  1.
       -1   -1    0    0    0  501  0.00000000000E+00  0.00000000000E+00 -0.44895232009E+03  0.44895232012E+03  0.50400001928E-02 0. -1.
    10030    2    1    2    0    0  0.00000000000E+00  0.00000000000E+00  0.92619465428E+03  0.18240992945E+04  0.15714648258E+04 0.  0.
        2    1    3    3  502    0 -0.66252857106E+03 -0.16033219435E+03  0.91672416636E+03  0.11423807234E+04  0.25500000920E-02 0.  1.
       -2    1    3    3    0  502  0.66252857106E+03  0.16033219435E+03  0.94704879129E+01  0.68171857109E+03  0.25500000920E-02 0. -1.
</event>
<event>
 5   0  0.1664168E-04  0.1968669E+04  0.7818609E-02  0.8621411E-01
       -1   -1    0    0    0  501  0.00000000000E+00  0.00000000000E+00  0.87271065884E+03  0.87271065885E+03  0.50400001928E-02 0. -1.
        1   -1    0    0  501    0  0.00000000000E+00  0.00000000000E+00 -0.11102353753E+04  0.11102353753E+04  0.50400001928E-02 0.  1.
    10030    2    1    2    0    0  0.00000000000E+00  0.00000000000E+00 -0.23752471642E+03  0.19829460341E+04  0.19686688354E+04 0.  0.
        5    1    3    3  502    0  0.28169145435E+03  0.67972200881E+02  0.82876267034E+03  0.87797491382E+03  0.46999998093E+01 0. -1.
       -5    1    3    3    0  502 -0.28169145435E+03 -0.67972200881E+02 -0.10662873868E+04  0.11049711203E+04  0.46999998093E+01 0.  1.
</event>
<event>
 5   0  0.3387881E-04  0.1976624E+04  0.7818609E-02  0.8617628E-01
       -2   -1    0    0    0  501  0.00000000000E+00  0.00000000000E+00  0.77106011736E+03  0.77106011736E+03  0.25500000920E-02 0. -1.
        2   -1    0    0  501    0  0.00000000000E+00  0.00000000000E+00 -0.12667759952E+04  0.12667759952E+04  0.25500000920E-02 0.  1.
    10030    2    1    2    0    0  0.00000000000E+00  0.00000000000E+00 -0.49571587780E+03  0.20378361125E+04  0.19766238362E+04 0.  0.
        1    1    3    3  502    0  0.58662654289E+03  0.38422627834E+03  0.47012819417E+03  0.84426361569E+03  0.50400001928E-02 0. -1.
       -1    1    3    3    0  502 -0.58662654289E+03 -0.38422627834E+03 -0.96584407197E+03  0.11935724968E+04  0.50400001928E-02 0.  1.
</event>
<event>
 5   0  0.3371947E-04  0.1300573E+04  0.7818609E-02  0.9029111E-01
        2   -1    0    0  501    0  0.00000000000E+00  0.00000000000E+00  0.68269015406E+03  0.68269015407E+03  0.25500000920E-02 0.  1.
       -2   -1    0    0    0  501  0.00000000000E+00  0.00000000000E+00 -0.61942078547E+03  0.61942078548E+03  0.25500000920E-02 0. -1.
    10030    2    1    2    0    0  0.00000000000E+00  0.00000000000E+00  0.63269368589E+02  0.13021109395E+04  0.13005729068E+04 0.  0.
        2    1    3    3  502    0 -0.47662032198E+03 -0.43028613198E+03 -0.71245703443E+02  0.64605652769E+03  0.25500000920E-02 0. -1.
       -2    1    3    3    0  502  0.47662032198E+03  0.43028613198E+03  0.13451507203E+03  0.65605441185E+03  0.25500000920E-02 0.  1.
</event>
<event>
 5   0  0.3395569E-04  0.2025601E+04  0.7818609E-02  0.8594744E-01
       -2   -1    0    0    0  501  0.00000000000E+00  0.00000000000E+00  0.60321410585E+03  0.60321410586E+03  0.25500000920E-02 0.  1.
        2   -1    0    0  501    0  0.00000000000E+00  0.00000000000E+00 -0.17004992007E+04  0.17004992007E+04  0.25500000920E-02 0. -1.
    10030    2    1    2    0    0  0.00000000000E+00  0.00000000000E+00 -0.10972850949E+04  0.23037133066E+04  0.20256012489E+04 0.  0.
        4    1    3    3  502    0  0.84225625475E+03  0.48953860591E+03 -0.86365544669E+03  0.13019009136E+04  0.12699999809E+01 0. -1.
       -4    1    3    3    0  502 -0.84225625475E+03 -0.48953860591E+03 -0.23362964820E+03  0.10018123930E+04  0.12699999809E+01 0.  1.
</event>
<event>
 5   0  0.3460648E-04  0.1824181E+04  0.7818609E-02  0.8693545E-01
       -2   -1    0    0    0  501  0.00000000000E+00  0.00000000000E+00  0.51069783829E+03  0.51069783830E+03  0.25500000920E-02 0. -1.
        2   -1    0    0  501    0  0.00000000000E+00  0.00000000000E+00 -0.16289648634E+04  0.16289648634E+04  0.25500000920E-02 0.  1.
    10030    2    1    2    0    0  0.00000000000E+00  0.00000000000E+00 -0.11182670251E+04  0.21396627017E+04  0.18241807305E+04 0.  0.
        5    1    3    3  502    0  0.72112562270E+03  0.33418393242E+03 -0.10839336694E+04  0.13441113622E+04  0.46999998093E+01 0. -1.
       -5    1    3    3    0  502 -0.72112562270E+03 -0.33418393242E+03 -0.34333355683E+02  0.79555133946E+03  0.46999998093E+01 0.  1.
</event>
<event>
 5   0  0.3395569E-04  0.1996107E+04  0.7818609E-02  0.8608443E-01
        2   -1    0    0  501    0  0.00000000000E+00  0.00000000000E+00  0.14264262277E+04  0.14264262277E+04  0.25500000920E-02 0.  1.
       -2   -1    0    0    0  501  0.00000000000E+00  0.00000000000E+00 -0.69832586270E+03  0.69832586271E+03  0.25500000920E-02 0. -1.
    10030    2    1    2    0    0  0.00000000000E+00  0.00000000000E+00  0.72810036500E+03  0.21247520904E+04  0.19961065363E+04 0.  0.
        4    1    3    3  502    0  0.37476295115E+03 -0.11179602337E+03  0.13414682047E+04  0.13973131995E+04  0.12699999809E+01 0.  1.
       -4    1    3    3    0  502 -0.37476295115E+03  0.11179602337E+03 -0.61336783967E+03  0.72743889093E+03  0.12699999809E+01 0. -1.
</event>
<event>
 5   0  0.3387881E-04  0.1982934E+04  0.7818609E-02  0.8614641E-01
       -2   -1    0    0    0  501  0.00000000000E+00  0.00000000000E+00  0.52459634706E+03  0.52459634706E+03  0.25500000920E-02 0.  1.
        2   -1    0    0  501    0  0.00000000000E+00  0.00000000000E+00 -0.18738347733E+04  0.18738347733E+04  0.25500000920E-02 0. -1.
    10030    2    1    2    0    0  0.00000000000E+00  0.00000000000E+00 -0.13492384262E+04  0.23984311203E+04  0.19829340655E+04 0.  0.
        1    1    3    3  502    0  0.56414504142E+03  0.39974495129E+03 -0.15341148793E+04  0.16827252053E+04  0.50400001928E-02 0. -1.
       -1    1    3    3    0  502 -0.56414504142E+03 -0.39974495129E+03  0.18487645306E+03  0.71570591500E+03  0.50400001928E-02 0.  1.
</event>
<event>
 5   0  0.1643565E-04  0.1989255E+04  0.7818609E-02  0.8611661E-01
        1   -1    0    0  501    0  0.00000000000E+00  0.00000000000E+00  0.12914584494E+04  0.12914584494E+04  0.50400001928E-02 0. -1.
       -1   -1    0    0    0  501  0.00000000000E+00  0.00000000000E+00 -0.76602031085E+03  0.76602031087E+03  0.50400001928E-02 0.  1.
    10030    2    1    2    0    0  0.00000000000E+00  0.00000000000E+00  0.52543813857E+03  0.20574787603E+04  0.19892545367E+04 0.  0.
        2    1    3    3  502    0  0.10394409317E+02  0.29988985306E+03  0.12435251698E+04  0.12792172668E+04  0.25500000920E-02 0. -1.
       -2    1    3    3    0  502 -0.10394409317E+02 -0.29988985306E+03 -0.71808703128E+03  0.77826149347E+03  0.25500000920E-02 0.  1.
</event>
<event>
 5   0  0.3371947E-04  0.1563570E+04  0.7818609E-02  0.8843246E-01
        2   -1    0    0  501    0  0.00000000000E+00  0.00000000000E+00  0.70140966217E+03  0.70140966217E+03  0.25500000920E-02 0.  1.
       -2   -1    0    0    0  501  0.00000000000E+00  0.00000000000E+00 -0.87137098248E+03  0.87137098248E+03  0.25500000920E-02 0. -1.
    10030    2    1    2    0    0  0.00000000000E+00  0.00000000000E+00 -0.16996132031E+03  0.15727806447E+04  0.15635703073E+04 0.  0.
        2    1    3    3  502    0  0.46675157622E+03  0.50855846256E+02  0.54379724984E+03  0.71844192524E+03  0.25500000920E-02 0.  1.
       -2    1    3    3    0  502 -0.46675157622E+03 -0.50855846256E+02 -0.71375857015E+03  0.85433871941E+03  0.25500000920E-02 0. -1.
</event>
<event>
 5   0  0.3431030E-04  0.1807465E+04  0.7818609E-02  0.8702340E-01
       -2   -1    0    0    0  501  0.00000000000E+00  0.00000000000E+00  0.72391351118E+03  0.72391351118E+03  0.25500000920E-02 0. -1.
        2   -1    0    0  501    0  0.00000000000E+00  0.00000000000E+00 -0.11282185910E+04  0.11282185910E+04  0.25500000920E-02 0.  1.
    10030    2    1    2    0    0  0.00000000000E+00  0.00000000000E+00 -0.40430507981E+03  0.18521321022E+04  0.18074652767E+04 0.  0.
        3    1    3    3  502    0  0.37723883974E+03  0.13970643808E+03 -0.10314137705E+04  0.11070869014E+04  0.10100000352E+00 0.  1.
       -3    1    3    3    0  502 -0.37723883974E+03 -0.13970643808E+03  0.62710869070E+03  0.74504520078E+03  0.10100000352E+00 0. -1.
</event>
<event>
 5   0  0.1222488E-04  0.2112283E+04  0.7818609E-02  0.8555852E-01
        4   -1    0    0  501    0  0.00000000000E+00  0.00000000000E+00  0.88181213896E+03  0.88181305350E+03  0.12699999809E+01 0.  1.
       -4   -1    0    0    0  501  0.00000000000E+00  0.00000000000E+00 -0.12649325809E+04  0.12649332185E+04  0.12699999809E+01 0. -1.
    10030    2    1    2    0    0  0.00000000000E+00  0.00000000000E+00 -0.38312044197E+03  0.21467462720E+04  0.21122827186E+04 0.  0.
        2    1    3    3  502    0  0.49492195543E+03  0.53104471640E+03  0.58807941846E+03  0.93423425071E+03  0.25500000920E-02 0.  1.
       -2    1    3    3    0  502 -0.49492195543E+03 -0.53104471640E+03 -0.97119986043E+03  0.12125120213E+04  0.25500000920E-02 0. -1.
</event>
<event>
 5   0  0.3387881E-04  0.1909036E+04  0.7818609E-02  0.8650372E-01
        2   -1    0    0  501    0  0.00000000000E+00  0.00000000000E+00  0.93998841555E+03  0.93998841555E+03  0.25500000920E-02 0.  1.
       -2   -1    0    0    0  501  0.00000000000E+00  0.00000000000E+00 -0.96927239895E+03  0.96927239895E+03  0.25500000920E-02 0. -1.
    10030    2    1    2    0    0  0.00000000000E+00  0.00000000000E+00 -0.29283983399E+02  0.19092608145E+04  0.19090362244E+04 0.  0.
        1    1    3    3  502    0 -0.41115746345E+03 -0.73139122095E+03 -0.46980128846E+03  0.96161157881E+03  0.50400001928E-02 0. -1.
       -1    1    3    3    0  502  0.41115746345E+03  0.73139122095E+03  0.44051730506E+03  0.94764923570E+03  0.50400001928E-02 0.  1.
</event>
<event>
 5   0  0.1650221E-04  0.1973617E+04  0.7818609E-02  0.8619056E-01
       -1   -1    0    0    0  501  0.00000000000E+00  0.00000000000E+00  0.10210647296E+04  0.10210647296E+04  0.50400001928E-02 0. -1.
        1   -1    0    0  501    0  0.00000000000E+00  0.00000000000E+00 -0.95370169830E+03  0.95370169832E+03  0.50400001928E-02 0.  1.
    10030    2    1    2    0    0  0.00000000000E+00  0.00000000000E+00  0.67363031304E+02  0.19747664279E+04  0.19736171531E+04 0.  0.
        1    1    3    3  502    0  0.54404126646E+01  0.71332180169E+03 -0.64857592319E+03  0.96411011769E+03  0.50400001928E-02 0.  1.
       -1    1    3    3    0  502 -0.54404126646E+01 -0.71332180169E+03  0.71593895449E+03  0.10106563102E+04  0.50400001928E-02 0. -1.
</event>
<event>
 5   0  0.3371947E-04  0.2004518E+04  0.7818609E-02  0.8604511E-01
        2   -1    0    0  501    0  0.00000000000E+00  0.00000000000E+00  0.70503101430E+03  0.70503101430E+03  0.25500000920E-02 0. -1.
       -2   -1    0    0    0  501  0.00000000000E+00  0.00000000000E+00 -0.14247924346E+04  0.14247924346E+04  0.25500000920E-02 0.  1.
    10030    2    1    2    0    0  0.00000000000E+00  0.00000000000E+00 -0.71976142028E+03  0.21298234489E+04  0.20045177528E+04 0.  0.
        2    1    3    3  502    0  0.28477394961E+03  0.73884653143E+03  0.29296543481E+03  0.84428617505E+03  0.25500000920E-02 0. -1.
       -2    1    3    3    0  502 -0.28477394961E+03 -0.73884653143E+03 -0.10127268551E+04  0.12855372738E+04  0.25500000920E-02 0.  1.
</event>
<event>
 5   0  0.1664168E-04  0.2058819E+04  0.7818609E-02  0.8579604E-01
       -1   -1    0    0    0  501  0.00000000000E+00  0.00000000000E+00  0.75580098205E+03  0.75580098207E+03  0.50400001928E-02 0.  1.
        1   -1    0    0  501    0  0.00000000000E+00  0.00000000000E+00 -0.14020668843E+04  0.14020668844E+04  0.50400001928E-02 0. -1.
    10030    2    1    2    0    0  0.00000000000E+00  0.00000000000E+00 -0.64626590230E+03  0.21578678664E+04  0.20588186206E+04 0.  0.
        5    1    3    3  502    0 -0.52246656812E+03  0.60445560376E+03  0.35718922219E+03  0.87518233653E+03  0.46999998093E+01 0.  1.
       -5    1    3    3    0  502  0.52246656812E+03 -0.60445560376E+03 -0.10034551245E+04  0.12826855299E+04  0.46999998093E+01 0. -1.
</event>
<event>
 5   0  0.3460648E-04  0.1749418E+04  0.7818609E-02  0.8733671E-01
       -2   -1    0    0    0  501  0.00000000000E+00  0.00000000000E+00  0.38293246320E+03  0.38293246321E+03  0.25500000920E-02 0.  1.
        2   -1    0    0  501    0  0.00000000000E+00  0.00000000000E+00 -0.19980429977E+04  0.19980429977E+04  0.25500000920E-02 0. -1.
    10030    2    1    2    0    0  0.00000000000E+00  0.00000000000E+00 -0.16151105345E+04  0.23809754609E+04  0.17494176479E+04 0.  0.
        5    1    3    3  502    0 -0.66985903757E+03 -0.50730658608E+03 -0.47690444530E+03  0.96619410184E+03  0.46999998093E+01 0. -1.
       -5    1    3    3    0  502  0.66985903757E+03  0.50730658608E+03 -0.11382060892E+04  0.14147813591E+04  0.46999998093E+01 0.  1.
</event>
<event>
 5   0  0.1696052E-04  0.1995458E+04  0.7818609E-02  0.8608747E-01
        1   -1    0    0  501    0  0.00000000000E+00  0.00000000000E+00  0.17201769453E+04  0.17201769453E+04  0.50400001928E-02 0. -1.
       -1   -1    0    0    0  501  0.00000000000E+00  0.00000000000E+00 -0.57869786391E+03  0.57869786393E+03  0.50400001928E-02 0.  1.
    10030    2    1    2    0    0  0.00000000000E+00  0.00000000000E+00  0.11414790814E+04  0.22988748092E+04  0.19954575654E+04 0.  0.
        4    1    3    3  502    0 -0.40270080282E+03  0.28182879377E+03 -0.42953638885E+03  0.65276222917E+03  0.12699999809E+01 0.  1.
       -4    1    3    3    0  502  0.40270080282E+03 -0.28182879377E+03  0.15710154702E+04  0.16461125800E+04  0.12699999809E+01 0. -1.
</event>
<event>
 5   0  0.3395569E-04  0.1985514E+04  0.7818609E-02  0.8613424E-01
        2   -1    0    0  501    0  0.00000000000E+00  0.00000000000E+00  0.71268582688E+03  0.71268582689E+03  0.25500000920E-02 0. -1.
       -2   -1    0    0    0  501  0.00000000000E+00  0.00000000000E+00 -0.13828899679E+04  0.13828899679E+04  0.25500000920E-02 0.  1.
    10030    2    1    2    0    0  0.00000000000E+00  0.00000000000E+00 -0.67020414099E+03  0.20955757948E+04  0.19855136164E+04 0.  0.
        4    1    3    3  502    0  0.45193276505E+03  0.86175915184E+03 -0.12749440743E+03  0.98139110284E+03  0.12699999809E+01 0.  1.
       -4    1    3    3    0  502 -0.45193276505E+03 -0.86175915184E+03 -0.54270973356E+03  0.11141846919E+04  0.12699999809E+01 0. -1.
</event>
<event>
 5   0  0.1650221E-04  0.2023281E+04  0.7818609E-02  0.8595813E-01
       -1   -1    0    0    0  501  0.00000000000E+00  0.00000000000E+00  0.10783472213E+04  0.10783472213E+04  0.50400001928E-02 0.  1.
        1   -1    0    0  501    0  0.00000000000E+00  0.00000000000E+00 -0.94906053111E+03  0.94906053112E+03  0.50400001928E-02 0. -1.
    10030    2    1    2    0    0  0.00000000000E+00  0.00000000000E+00  0.12928669018E+03  0.20274077524E+04  0.20232812821E+04 0.  0.
        1    1    3    3  502    0  0.58578938185E+03 -0.16653133801E+03  0.87408716439E+03  0.10653216685E+04  0.50400001928E-02 0.  1.
       -1    1    3    3    0  502 -0.58578938185E+03  0.16653133801E+03 -0.74480047421E+03  0.96208608391E+03  0.50400001928E-02 0. -1.
</event>
<event>
 5   0  0.3387881E-04  0.1934227E+04  0.7818609E-02  0.8638005E-01
       -2   -1    0    0    0  501  0.00000000000E+00  0.00000000000E+00  0.68334290090E+03  0.68334290090E+03  0.25500000920E-02 0. -1.
        2   -1    0    0  501    0  0.00000000000E+00  0.00000000000E+00 -0.13687248177E+04  0.13687248177E+04  0.25500000920E-02 0.  1.
    10030    2    1    2    0    0  0.00000000000E+00  0.00000000000E+00 -0.68538191683E+03  0.20520677186E+04  0.19342268610E+04 0.  0.
        1    1    3    3  502    0 -0.29738384789E+02 -0.65109664593E+03 -0.11007114556E+04  0.12792094912E+04  0.50400001928E-02 0.  1.
       -1    1    3    3    0  502  0.29738384789E+02  0.65109664593E+03  0.41532953878E+03  0.77285822742E+03  0.50400001928E-02 0. -1.
</event>
<event>
 5   0  0.1696052E-04  0.2037916E+04  0.7818609E-02  0.8589096E-01
       -1   -1    0    0    0  501  0.00000000000E+00  0.00000000000E+00  0.57470077119E+03  0.57470077121E+03  0.50400001928E-02 0.  1.
        1   -1    0    0  501    0  0.00000000000E+00  0.00000000000E+00 -0.18066362803E+04  0.18066362803E+04  0.50400001928E-02 0. -1.
    10030    2    1    2    0    0  0.00000000000E+00  0.00000000000E+00 -0.12319355091E+04  0.23813370515E+04  0.20379158605E+04 0.  0.
        4    1    3    3  502    0 -0.17627188597E+02  0.48998816716E+03 -0.16597308094E+04  0.17306377710E+04  0.12699999809E+01 0. -1.
       -4    1    3    3    0  502  0.17627188597E+02 -0.48998816716E+03  0.42779530035E+03  0.65069928049E+03  0.12699999809E+01 0.  1.
</event>
<event>
 5   0  0.3431030E-04  0.2563158E+04  0.7818609E-02  0.8380824E-01
        2   -1    0    0  501    0  0.00000000000E+00  0.00000000000E+00  0.13487741622E+04  0.13487741622E+04  0.25500000920E-02 0. -1.
       -2   -1    0    0    0  501  0.00000000000E+00  0.00000000000E+00 -0.12177311384E+04  0.12177311385E+04  0.25500000920E-02 0.  1.
    10030    2    1    2    0    0  0.00000000000E+00  0.00000000000E+00  0.13104302377E+03  0.25665053007E+04  0.25631576589E+04 0.  0.
        3    1    3    3  502    0 -0.93965169875E+03 -0.85719471689E+03  0.22294067253E+03  0.12912903048E+04  0.10100000352E+00 0.  1.
       -3    1    3    3    0  502  0.93965169875E+03  0.85719471689E+03 -0.91897648760E+02  0.12752149959E+04  0.10100000352E+00 0. -1.
</event>
<event>
 5   0  0.1708578E-04  0.1724115E+04  0.7818609E-02  0.8747729E-01
       -1   -1    0    0    0  501  0.00000000000E+00  0.00000000000E+00  0.17023427580E+04  0.17023427580E+04  0.50400001928E-02 0.  1.
        1   -1    0    0  501    0  0.00000000000E+00  0.00000000000E+00 -0.43654132557E+03  0.43654132560E+03  0.50400001928E-02 0. -1.
    10030    2    1    2    0    0  0.00000000000E+00  0.00000000000E+00  0.12658014324E+04  0.21388840836E+04  0.17241148038E+04 0.  0.
        3    1    3    3  502    0 -0.12754677037E+03  0.83769111810E+03  0.43616828721E+03  0.95301488600E+03  0.10100000352E+00 0. -1.
       -3    1    3    3    0  502  0.12754677037E+03 -0.83769111810E+03  0.82963314518E+03  0.11858691976E+04  0.10100000352E+00 0.  1.
</event>
<event>
 5   0  0.3387881E-04  0.2114428E+04  0.7818609E-02  0.8554914E-01
        2   -1    0    0  501    0  0.00000000000E+00  0.00000000000E+00  0.80755281753E+03  0.80755281754E+03  0.25500000920E-02 0. -1.
       -2   -1    0    0    0  501  0.00000000000E+00  0.00000000000E+00 -0.13840601276E+04  0.13840601276E+04  0.25500000920E-02 0.  1.
    10030    2    1    2    0    0  0.00000000000E+00  0.00000000000E+00 -0.57650731004E+03  0.21916129451E+04  0.21144282023E+04 0.  0.
        1    1    3    3  502    0 -0.84913388135E+03  0.17176083106E+03 -0.91631983807E+03  0.12610202921E+04  0.50400001928E-02 0.  1.
       -1    1    3    3    0  502  0.84913388135E+03 -0.17176083106E+03  0.33981252803E+03  0.93059265297E+03  0.50400001928E-02 0. -1.
</event>
<event>
 5   0  0.1696052E-04  0.2013513E+04  0.7818609E-02  0.8600329E-01
        1   -1    0    0  501    0  0.00000000000E+00  0.00000000000E+00  0.10971147847E+04  0.10971147847E+04  0.50400001928E-02 0. -1.
       -1   -1    0    0    0  501  0.00000000000E+00  0.00000000000E+00 -0.92383994939E+03  0.92383994941E+03  0.50400001928E-02 0.  1.
    10030    2    1    2    0    0  0.00000000000E+00  0.00000000000E+00  0.17327483534E+03  0.20209547341E+04  0.20135128182E+04 0.  0.
        4    1    3    3  502    0  0.48281978035E+03 -0.69237788815E+03 -0.46407509829E+03  0.96325977288E+03  0.12699999809E+01 0. -1.
       -4    1    3    3    0  502 -0.48281978035E+03  0.69237788815E+03  0.63734993362E+03  0.10576949613E+04  0.12699999809E+01 0.  1.
</event>
<event>
 5   0  0.3431030E-04  0.1952852E+04  0.7818609E-02  0.8628987E-01
        2   -1    0    0  501    0  0.00000000000E+00  0.00000000000E+00  0.16533472771E+04  0.16533472771E+04  0.25500000920E-02 0. -1.
       -2   -1    0    0    0  501  0.00000000000E+00  0.00000000000E+00 -0.57665311893E+03  0.57665311894E+03  0.25500000920E-02 0.  1.
    10030    2    1    2    0    0  0.00000000000E+00  0.00000000000E+00  0.10766941581E+04  0.22300003960E+04  0.19528521337E+04 0.  0.
        3    1    3    3  502    0  0.16348675566E+03 -0.88314673562E+03  0.97576610535E+03  0.13261959050E+04  0.10100000352E+00 0.  1.
       -3    1    3    3    0  502 -0.16348675566E+03  0.88314673562E+03  0.10092805280E+03  0.90380449100E+03  0.10100000352E+00 0. -1.
</event>
<event>
 5   0  0.1696052E-04  0.2077178E+04  0.7818609E-02  0.8571364E-01
        1   -1    0    0  501    0  0.00000000000E+00  0.00000000000E+00  0.95603415257E+03  0.95603415258E+03  0.50400001928E-02 0. -1.
       -1   -1    0    0    0  501  0.00000000000E+00  0.00000000000E+00 -0.11282730490E+04  0.11282730491E+04  0.50400001928E-02 0.  1.
    10030    2    1    2    0    0  0.00000000000E+00  0.00000000000E+00 -0.17223889647E+03  0.20843072016E+04  0.20771784404E+04 0.  0.
        4    1    3    3  502    0  0.70532314760E+03 -0.11092229320E+03 -0.84295027308E+03  0.11046951043E+04  0.12699999809E+01 0.  1.
       -4    1    3    3    0  502 -0.70532314760E+03  0.11092229320E+03  0.67071137660E+03  0.97961209735E+03  0.12699999809E+01 0. -1.
</event>
<event>
 5   0  0.1222488E-04  0.1904172E+04  0.7818609E-02  0.8652782E-01
       -3   -1    0    0    0  501  0.00000000000E+00  0.00000000000E+00  0.62026682398E+03  0.62026683220E+03  0.10100000352E+00 0. -1.
        3   -1    0    0  501    0  0.00000000000E+00  0.00000000000E+00 -0.14614162692E+04  0.14614162727E+04  0.10100000352E+00 0.  1.
    10030    2    1    2    0    0  0.00000000000E+00  0.00000000000E+00 -0.84114944519E+03  0.20816831049E+04  0.19041723031E+04 0.  0.
        1    1    3    3  502    0  0.38498304192E+03  0.87056847696E+03 -0.44150712157E+03  0.10492997446E+04  0.50400001928E-02 0. -1.
       -1    1    3    3    0  502 -0.38498304192E+03 -0.87056847696E+03 -0.39964232363E+03  0.10323833602E+04  0.50400001928E-02 0.  1.
</event>
<event>
 5   0  0.1696052E-04  0.1957560E+04  0.7818609E-02  0.8626724E-01
       -1   -1    0    0    0  501  0.00000000000E+00  0.00000000000E+00  0.39052063973E+03  0.39052063977E+03  0.50400001928E-02 0. -1.
        1   -1    0    0  501    0  0.00000000000E+00  0.00000000000E+00 -0.24531612557E+04  0.24531612557E+04  0.50400001928E-02 0.  1.
    10030    2    1    2    0    0  0.00000000000E+00  0.00000000000E+00 -0.20626406160E+04  0.28436818955E+04  0.19575598106E+04 0.  0.
        4    1    3    3  502    0 -0.38272325080E+03  0.59716711236E+03 -0.20111144651E+04  0.21325263542E+04  0.12699999809E+01 0.  1.
       -4    1    3    3    0  502  0.38272325080E+03 -0.59716711236E+03 -0.51526150898E+02  0.71115554129E+03  0.12699999809E+01 0. -1.
</event>
<event>
 5   0  0.1664168E-04  0.2111243E+04  0.7818609E-02  0.8556307E-01
        1   -1    0    0  501    0  0.00000000000E+00  0.00000000000E+00  0.13062877855E+04  0.13062877856E+04  0.50400001928E-02 0.  1.
       -1   -1    0    0    0  501  0.00000000000E+00  0.00000000000E+00 -0.85305593995E+03  0.85305593996E+03  0.50400001928E-02 0. -1.
    10030    2    1    2    0    0  0.00000000000E+00  0.00000000000E+00  0.45323184559E+03  0.21593437255E+04  0.21112428139E+04 0.  0.
        5    1    3    3  502    0 -0.47376880255E+03  0.73633775301E+03  0.82968025524E+03  0.12062510438E+04  0.46999998093E+01 0.  1.
       -5    1    3    3    0  502  0.47376880255E+03 -0.73633775301E+03 -0.37644840965E+03  0.95309268170E+03  0.46999998093E+01 0. -1.
</event>
<event>
 5   0  0.3371947E-04  0.2034261E+04  0.7818609E-02  0.8590768E-01
       -2   -1    0    0    0  501  0.00000000000E+00  0.00000000000E+00  0.57447692507E+03  0.57447692508E+03  0.25500000920E-02 0. -1.
        2   -1    0    0  501    0  0.00000000000E+00  0.00000000000E+00 -0.18008628603E+04  0.18008628603E+04  0.25500000920E-02 0.  1.
    10030    2    1    2    0    0  0.00000000000E+00  0.00000000000E+00 -0.12263859352E+04  0.23753397853E+04  0.20342607094E+04 0.  0.
        2    1    3    3  502    0 -0.25552598862E+03 -0.96749857583E+03 -0.40041099779E+03  0.10778107405E+04  0.25500000920E-02 0.  1.
       -2    1    3    3    0  502  0.25552598862E+03  0.96749857583E+03 -0.82597493739E+03  0.12975290449E+04  0.25500000920E-02 0. -1.
</event>
<event>
 5   0  0.3395569E-04  0.1959623E+04  0.7818609E-02  0.8625735E-01
        2   -1    0    0  501    0  0.00000000000E+00  0.00000000000E+00  0.10890882956E+04  0.10890882956E+04  0.25500000920E-02 0.  1.
       -2   -1    0    0    0  501  0.00000000000E+00  0.00000000000E+00 -0.88149907283E+03  0.88149907284E+03  0.25500000920E-02 0. -1.
    10030    2    1    2    0    0  0.00000000000E+00  0.00000000000E+00  0.20758922273E+03  0.19705873684E+04  0.19596227420E+04 0.  0.
        4    1    3    3  502    0  0.34913051628E+03  0.89476719145E+03 -0.91011452057E+02  0.96477206718E+03  0.12699999809E+01 0. -1.
       -4    1    3    3    0  502 -0.34913051628E+03 -0.89476719145E+03  0.29860067479E+03  0.10058153012E+04  0.12699999809E+01 0.  1.
</event>
<event>
 5   0  0.3460648E-04  0.1907447E+04  0.7818609E-02  0.8651158E-01
        2   -1    0    0  501    0  0.00000000000E+00  0.00000000000E+00  0.14573688957E+04  0.14573688957E+04  0.25500000920E-02 0.  1.
       -2   -1    0    0    0  501  0.00000000000E+00  0.00000000000E+00 -0.62413059207E+03  0.62413059207E+03  0.25500000920E-02 0. -1.
    10030    2    1    2    0    0  0.00000000000E+00  0.00000000000E+00  0.83323830365E+03  0.20814994878E+04  0.19074469972E+04 0.  0.
        5    1    3    3  502    0 -0.56211196392E+03 -0.45478553483E+03  0.10952730612E+04  0.13124194875E+04  0.46999998093E+01 0.  1.
       -5    1    3    3    0  502  0.56211196392E+03  0.45478553483E+03 -0.26203475753E+03  0.76908000028E+03  0.46999998093E+01 0. -1.
</event>
<event>
 5   0  0.3460648E-04  0.1987585E+04  0.7818609E-02  0.8612447E-01
       -2   -1    0    0    0  501  0.00000000000E+00  0.00000000000E+00  0.77175725110E+03  0.77175725111E+03  0.25500000920E-02 0.  1.
        2   -1    0    0  501    0  0.00000000000E+00  0.00000000000E+00 -0.12797077530E+04  0.12797077530E+04  0.25500000920E-02 0. -1.
    10030    2    1    2    0    0  0.00000000000E+00  0.00000000000E+00 -0.50795050193E+03  0.20514650041E+04  0.19875852059E+04 0.  0.
        5    1    3    3  502    0 -0.83382442050E+03  0.50924258744E+03 -0.66448074299E+02  0.97930006314E+03  0.46999998093E+01 0. -1.
       -5    1    3    3    0  502  0.83382442050E+03 -0.50924258744E+03 -0.44150242763E+03  0.10721649410E+04  0.46999998093E+01 0.  1.
</event>
<event>
 5   0  0.1696052E-04  0.1997567E+04  0.7818609E-02  0.8607759E-01
        1   -1    0    0  501    0  0.00000000000E+00  0.00000000000E+00  0.16000733530E+04  0.16000733530E+04  0.50400001928E-02 0. -1.
       -1   -1    0    0    0  501  0.00000000000E+00  0.00000000000E+00 -0.62345162384E+03  0.62345162386E+03  0.50400001928E-02 0.  1.
    10030    2    1    2    0    0  0.00000000000E+00  0.00000000000E+00  0.97662172918E+03  0.22235249769E+04  0.19975668502E+04 0.  0.
        4    1    3    3  502    0 -0.22171930428E+02 -0.98416116707E+03  0.67623291775E+03  0.11943020427E+04  0.12699999809E+01 0. -1.
       -4    1    3    3    0  502  0.22171930428E+02  0.98416116707E+03  0.30038881143E+03  0.10292229342E+04  0.12699999809E+01 0.  1.
</event>
<event>
 5   0  0.1650221E-04  0.2026023E+04  0.7818609E-02  0.8594550E-01
        1   -1    0    0  501    0  0.00000000000E+00  0.00000000000E+00  0.14685409559E+04  0.14685409559E+04  0.50400001928E-02 0. -1.
       -1   -1    0    0    0  501  0.00000000000E+00  0.00000000000E+00 -0.69878355679E+03  0.69878355681E+03  0.50400001928E-02 0.  1.
    10030    2    1    2    0    0  0.00000000000E+00  0.00000000000E+00  0.76975739910E+03  0.21673245127E+04  0.20260229737E+04 0.  0.
        1    1    3    3  502    0 -0.28055873969E+03  0.41666389874E+03  0.13259307736E+04  0.14178908376E+04  0.50400001928E-02 0. -1.
       -1    1    3    3    0  502  0.28055873969E+03 -0.41666389874E+03 -0.55617337448E+03  0.74943367514E+03  0.50400001928E-02 0.  1.
</event>
<event>
 5   0  0.3431030E-04  0.1998162E+04  0.7818609E-02  0.8607480E-01
       -2   -1    0    0    0  501  0.00000000000E+00  0.00000000000E+00  0.60231092058E+03  0.60231092058E+03  0.25500000920E-02 0.  1.
        2   -1    0    0  501    0  0.00000000000E+00  0.00000000000E+00 -0.16572225394E+04  0.16572225394E+04  0.25500000920E-02 0. -1.
    10030    2    1    2    0    0  0.00000000000E+00  0.00000000000E+00 -0.10549116188E+04  0.22595334600E+04  0.19981623891E+04 0.  0.
        3    1    3    3  502    0 -0.22428463410E+03  0.55780782469E+03  0.37486059191E+03  0.70850098091E+03  0.10100000352E+00 0.  1.
       -3    1    3    3    0  502  0.22428463410E+03 -0.55780782469E+03 -0.14297722107E+04  0.15510324791E+04  0.10100000352E+00 0. -1.
</event>
<event>
 5   0  0.3387881E-04  0.2018343E+04  0.7818609E-02  0.8598092E-01
       -2   -1    0    0    0  501  0.00000000000E+00  0.00000000000E+00  0.32744820274E+04  0.32744820274E+04  0.25500000920E-02 0. -1.
        2   -1    0    0  501    0  0.00000000000E+00  0.00000000000E+00 -0.31101934302E+03  0.31101934303E+03  0.25500000920E-02 0.  1.
    10030    2    1    2    0    0  0.00000000000E+00  0.00000000000E+00  0.29634626844E+04  0.35855013704E+04  0.20183431313E+04 0.  0.
        1    1    3    3  502    0 -0.67131575198E+03 -0.65798680438E+03  0.82946457994E+03  0.12536438741E+04  0.50400001928E-02 0.  1.
       -1    1    3    3    0  502  0.67131575198E+03  0.65798680438E+03  0.21339981044E+04  0.23318574963E+04  0.50400001928E-02 0. -1.
</event>
<event>
 5   0  0.3460648E-04  0.1955223E+04  0.7818609E-02  0.8627846E-01
        2   -1    0    0  501    0  0.00000000000E+00  0.00000000000E+00  0.17034591056E+04  0.17034591056E+04  0.25500000920E-02 0.  1.
       -2   -1    0    0    0  501  0.00000000000E+00  0.00000000000E+00 -0.56104917909E+03  0.56104917909E+03  0.25500000920E-02 0. -1.
    10030    2    1    2    0    0  0.00000000000E+00  0.00000000000E+00  0.11424099265E+04  0.22645082847E+04  0.19552230899E+04 0.  0.
        5    1    3    3  502    0 -0.16477195348E+03 -0.38041083018E+02 -0.54396774838E+03  0.56966650062E+03  0.46999998093E+01 0. -1.
       -5    1    3    3    0  502  0.16477195348E+03  0.38041083018E+02  0.16863776749E+04  0.16948417841E+04  0.46999998093E+01 0.  1.
</event>
<event>
 5   0  0.1708578E-04  0.1721046E+04  0.7818609E-02  0.8749451E-01
       -1   -1    0    0    0  501  0.00000000000E+00  0.00000000000E+00  0.39704396958E+03  0.39704396961E+03  0.50400001928E-02 0.  1.
        1   -1    0    0  501    0  0.00000000000E+00  0.00000000000E+00 -0.18650331732E+04  0.18650331732E+04  0.50400001928E-02 0. -1.
    10030    2    1    2    0    0  0.00000000000E+00  0.00000000000E+00 -0.14679892036E+04  0.22620771428E+04  0.17210463963E+04 0.  0.
        3    1    3    3  502    0 -0.24076945708E+03 -0.47267147040E+03  0.15658781127E+03  0.55308950743E+03  0.10100000352E+00 0.  1.
       -3    1    3    3    0  502  0.24076945708E+03  0.47267147040E+03 -0.16245770149E+04  0.17089876354E+04  0.10100000352E+00 0. -1.
</event>
<event>
 5   0  0.3371947E-04  0.1724741E+04  0.7818609E-02  0.8747378E-01
       -2   -1    0    0    0  501  0.00000000000E+00  0.00000000000E+00  0.66262775686E+03  0.66262775687E+03  0.25500000920E-02 0.  1.
        2   -1    0    0  501    0  0.00000000000E+00  0.00000000000E+00 -0.11223243383E+04  0.11223243383E+04  0.25500000920E-02 0. -1.
    10030    2    1    2    0    0  0.00000000000E+00  0.00000000000E+00 -0.45969658147E+03  0.17849520952E+04  0.17247414401E+04 0.  0.
        2    1    3    3  502    0 -0.47962804064E+03 -0.70198455462E+03 -0.80383906758E+02  0.85398298857E+03  0.25500000920E-02 0. -1.
       -2    1    3    3    0  502  0.47962804064E+03  0.70198455462E+03 -0.37931267472E+03  0.93096910663E+03  0.25500000920E-02 0.  1.
</event>
<event>
 5   0  0.1650221E-04  0.2070910E+04  0.7818609E-02  0.8574167E-01
       -1   -1    0    0    0  501  0.00000000000E+00  0.00000000000E+00  0.95893396005E+03  0.95893396007E+03  0.50400001928E-02 0.  1.
        1   -1    0    0  501    0  0.00000000000E+00  0.00000000000E+00 -0.11180818932E+04  0.11180818932E+04  0.50400001928E-02 0. -1.
    10030    2    1    2    0    0  0.00000000000E+00  0.00000000000E+00 -0.15914793313E+03  0.20770158533E+04  0.20709096528E+04 0.  0.
        1    1    3    3  502    0 -0.46150411023E+03  0.47989552742E+03 -0.87493236992E+03  0.10994509598E+04  0.50400001928E-02 0. -1.
       -1    1    3    3    0  502  0.46150411023E+03 -0.47989552742E+03  0.71578443679E+03  0.97756489348E+03  0.50400001928E-02 0.  1.
</event>
<event>
 5   0  0.3431030E-04  0.1740535E+04  0.7818609E-02  0.8738578E-01
       -2   -1    0    0    0  501  0.00000000000E+00  0.00000000000E+00  0.11927181657E+04  0.11927181657E+04  0.25500000920E-02 0.  1.
        2   -1    0    0  501    0  0.00000000000E+00  0.00000000000E+00 -0.63499094340E+03  0.63499094341E+03  0.25500000920E-02 0. -1.
    10030    2    1    2    0    0  0.00000000000E+00  0.00000000000E+00  0.55772722228E+03  0.18277091091E+04  0.17405346687E+04 0.  0.
        3    1    3    3  502    0  0.30715972339E+03  0.77606956779E+03  0.53764967732E+03  0.99282337576E+03  0.10100000352E+00 0. -1.
       -3    1    3    3    0  502 -0.30715972339E+03 -0.77606956779E+03  0.20077544960E+02  0.83488573334E+03  0.10100000352E+00 0.  1.
</event>
<event>
 5   0  0.3371947E-04  0.2002417E+04  0.7818609E-02  0.8605492E-01
        2   -1    0    0  501    0  0.00000000000E+00  0.00000000000E+00  0.13878007421E+04  0.13878007421E+04  0.25500000920E-02 0.  1.
       -2   -1    0    0    0  501  0.00000000000E+00  0.00000000000E+00 -0.72230703646E+03  0.72230703647E+03  0.25500000920E-02 0. -1.
    10030    2    1    2    0    0  0.00000000000E+00  0.00000000000E+00  0.66549370564E+03  0.21101077786E+04  0.20024167810E+04 0.  0.
        2    1    3    3  502    0  0.82697821531E+03 -0.46445842145E+03 -0.51268753404E+01  0.94849400563E+03  0.25500000920E-02 0. -1.
       -2    1    3    3    0  502 -0.82697821531E+03  0.46445842145E+03  0.67062058098E+03  0.11616137729E+04  0.25500000920E-02 0.  1.
</event>
<event>
 5   0  0.1650221E-04  0.2019308E+04  0.7818609E-02  0.8597646E-01
       -1   -1    0    0    0  501  0.00000000000E+00  0.00000000000E+00  0.45166553654E+03  0.45166553657E+03  0.50400001928E-02 0. -1.
        1   -1    0    0  501    0  0.00000000000E+00  0.00000000000E+00 -0.22569820607E+04  0.22569820607E+04  0.50400001928E-02 0.  1.
    10030    2    1    2    0    0  0.00000000000E+00  0.00000000000E+00 -0.18053165242E+04  0.27086475973E+04  0.20193078155E+04 0.  0.
        1    1    3    3  502    0 -0.49944536347E+03 -0.51715291820E+03  0.48212638176E+02  0.72056732537E+03  0.50400001928E-02 0. -1.
       -1    1    3    3    0  502  0.49944536347E+03  0.51715291820E+03 -0.18535291624E+04  0.19880802719E+04  0.50400001928E-02 0.  1.
</event>
<event>
 5   0  0.3460648E-04  0.1950514E+04  0.7818609E-02  0.8630113E-01
       -2   -1    0    0    0  501  0.00000000000E+00  0.00000000000E+00  0.65810117955E+03  0.65810117955E+03  0.25500000920E-02 0.  1.
        2   -1    0    0  501    0  0.00000000000E+00  0.00000000000E+00 -0.14452589923E+04  0.14452589923E+04  0.25500000920E-02 0. -1.
    10030    2    1    2    0    0  0.00000000000E+00  0.00000000000E+00 -0.78715781280E+03  0.21033601719E+04  0.19505144425E+04 0.  0.
        5    1    3    3  502    0 -0.47451425200E+03  0.82801623769E+03 -0.17701902382E+03  0.97063509623E+03  0.46999998093E+01 0.  1.
       -5    1    3    3    0  502  0.47451425200E+03 -0.82801623769E+03 -0.61013878898E+03  0.11327250757E+04  0.46999998093E+01 0. -1.
</event>
<event>
 5   0  0.3371947E-04  0.1927070E+04  0.7818609E-02  0.8641498E-01
       -2   -1    0    0    0  501  0.00000000000E+00  0.00000000000E+00  0.42207179698E+03  0.42207179699E+03  0.25500000920E-02 0.  1.
        2   -1    0    0  501    0  0.00000000000E+00  0.00000000000E+00 -0.21996258134E+04  0.21996258134E+04  0.25500000920E-02 0. -1.
    10030    2    1    2    0    0  0.00000000000E+00  0.00000000000E+00 -0.17775540165E+04  0.26216976104E+04  0.19270703358E+04 0.  0.
        2    1    3    3  502    0  0.72148975643E+03 -0.10375050273E+03 -0.31485299171E+02  0.72959095356E+03  0.25500000920E-02 0.  1.
       -2    1    3    3    0  502 -0.72148975643E+03  0.10375050273E+03 -0.17460687173E+04  0.18921066569E+04  0.25500000920E-02 0. -1.
</event>
<event>
 5   0  0.3460648E-04  0.2140748E+04  0.7818609E-02  0.8543503E-01
        2   -1    0    0  501    0  0.00000000000E+00  0.00000000000E+00  0.95369676090E+03  0.95369676091E+03  0.25500000920E-02 0.  1.
       -2   -1    0    0    0  501  0.00000000000E+00  0.00000000000E+00 -0.12013263181E+04  0.12013263181E+04  0.25500000920E-02 0. -1.
    10030    2    1    2    0    0  0.00000000000E+00  0.00000000000E+00 -0.24762955720E+03  0.21550230790E+04  0.21407484844E+04 0.  0.
        5    1    3    3  502    0 -0.78426608934E+03 -0.17938077725E+03 -0.83451682919E+03  0.11591769452E+04  0.46999998093E+01 0. -1.
       -5    1    3    3    0  502  0.78426608934E+03  0.17938077725E+03  0.58688727200E+03  0.99584613378E+03  0.46999998093E+01 0.  1.
</event>
<event>
 5   0  0.1650221E-04  0.1955637E+04  0.7818609E-02  0.8627647E-01
        1   -1    0    0  501    0  0.00000000000E+00  0.00000000000E+00  0.61312173096E+03  0.61312173098E+03  0.50400001928E-02 0. -1.
       -1   -1    0    0    0  501  0.00000000000E+00  0.00000000000E+00 -0.15594437431E+04  0.15594437431E+04  0.50400001928E-02 0.  1.
    10030    2    1    2    0    0  0.00000000000E+00  0.00000000000E+00 -0.94632201210E+03  0.21725654740E+04  0.19556368243E+04 0.  0.
        1    1    3    3  502    0  0.26189376618E+03  0.22083300763E+03 -0.14905966823E+04  0.15294554689E+04  0.50400001928E-02 0.  1.
       -1    1    3    3    0  502 -0.26189376618E+03 -0.22083300763E+03  0.54427467023E+03  0.64311000513E+03  0.50400001928E-02 0. -1.
</event>
<event>
 5   0  0.3395569E-04  0.1983980E+04  0.7818609E-02  0.8614147E-01
       -2   -1    0    0    0  501  0.00000000000E+00  0.00000000000E+00  0.94618140432E+03  0.94618140432E+03  0.25500000920E-02 0. -1.
        2   -1    0    0  501    0  0.00000000000E+00  0.00000000000E+00 -0.10400162844E+04  0.10400162844E+04  0.25500000920E-02 0.  1.
    10030    2    1    2    0    0  0.00000000000E+00  0.00000000000E+00 -0.93834880115E+02  0.19861976888E+04  0.19839799077E+04 0.  0.
        4    1    3    3  502    0  0.14853967615E+02 -0.65104521841E+03 -0.79605997612E+03  0.10284909408E+04  0.12699999809E+01 0.  1.
       -4    1    3    3    0  502 -0.14853967615E+02  0.65104521841E+03  0.70222509601E+03  0.95770674798E+03  0.12699999809E+01 0. -1.
</event>
<event>
 5   0  0.3431030E-04  0.1990460E+04  0.7818609E-02  0.8611094E-01
       -2   -1    0    0    0  501  0.00000000000E+00  0.00000000000E+00  0.89904197494E+03  0.89904197495E+03  0.25500000920E-02 0. -1.
        2   -1    0    0  501    0  0.00000000000E+00  0.00000000000E+00 -0.11017095234E+04  0.11017095234E+04  0.25500000920E-02 0.  1.
    10030    2    1    2    0    0  0.00000000000E+00  0.00000000000E+00 -0.20266754843E+03  0.20007514983E+04  0.19904603545E+04 0.  0.
        3    1    3    3  502    0  0.16959233835E+03  0.48010026923E+03  0.75820448694E+03  0.91330820863E+03  0.10100000352E+00 0. -1.
       -3    1    3    3    0  502 -0.16959233835E+03 -0.48010026923E+03 -0.96087203537E+03  0.10874432897E+04  0.10100000352E+00 0.  1.
</event>
<event>
 5   0  0.3460648E-04  0.2002479E+04  0.7818609E-02  0.8605463E-01
       -2   -1    0    0    0  501  0.00000000000E+00  0.00000000000E+00  0.84071227829E+03  0.84071227829E+03  0.25500000920E-02 0. -1.
        2   -1    0    0  501    0  0.00000000000E+00  0.00000000000E+00 -0.11924179482E+04  0.11924179482E+04  0.25500000920E-02 0.  1.
    10030    2    1    2    0    0  0.00000000000E+00  0.00000000000E+00 -0.35170566990E+03  0.20331302265E+04  0.20024788737E+04 0.  0.
        5    1    3    3  502    0 -0.76524324246E+03  0.14312329293E+03  0.46336867433E+03  0.90598792236E+03  0.46999998093E+01 0. -1.
       -5    1    3    3    0  502  0.76524324246E+03 -0.14312329293E+03 -0.81507434423E+03  0.11271423041E+04  0.46999998093E+01 0.  1.
</event>
<event>
 5   0  0.3431030E-04  0.2078252E+04  0.7818609E-02  0.8570884E-01
       -2   -1    0    0    0  501  0.00000000000E+00  0.00000000000E+00  0.60267081374E+03  0.60267081374E+03  0.25500000920E-02 0. -1.
        2   -1    0    0  501    0  0.00000000000E+00  0.00000000000E+00 -0.17916634872E+04  0.17916634872E+04  0.25500000920E-02 0.  1.
    10030    2    1    2    0    0  0.00000000000E+00  0.00000000000E+00 -0.11889926735E+04  0.23943343010E+04  0.20782524311E+04 0.  0.
        3    1    3    3  502    0  0.75163337106E+03 -0.95280524611E+02 -0.14138197606E+04  0.16040316171E+04  0.10100000352E+00 0. -1.
       -3    1    3    3    0  502 -0.75163337106E+03  0.95280524611E+02  0.22482708714E+03  0.79030268389E+03  0.10100000352E+00 0.  1.
</event>
<event>
 5   0  0.1708578E-04  0.1923326E+04  0.7818609E-02  0.8643332E-01
        1   -1    0    0  501    0  0.00000000000E+00  0.00000000000E+00  0.94486947453E+03  0.94486947454E+03  0.50400001928E-02 0.  1.
       -1   -1    0    0    0  501  0.00000000000E+00  0.00000000000E+00 -0.97875531505E+03  0.97875531506E+03  0.50400001928E-02 0. -1.
    10030    2    1    2    0    0  0.00000000000E+00  0.00000000000E+00 -0.33885840518E+02  0.19236247896E+04  0.19233263064E+04 0.  0.
        3    1    3    3  502    0  0.24004642837E+03 -0.40244453196E+03  0.82295649234E+03  0.94701704713E+03  0.10100000352E+00 0.  1.
       -3    1    3    3    0  502 -0.24004642837E+03  0.40244453196E+03 -0.85684233285E+03  0.97660774247E+03  0.10100000352E+00 0. -1.
</event>
<event>
 5   0  0.1708578E-04  0.2015864E+04  0.7818609E-02  0.8599239E-01
       -1   -1    0    0    0  501  0.00000000000E+00  0.00000000000E+00  0.75858961173E+03  0.75858961174E+03  0.50400001928E-02 0.  1.
        1   -1    0    0  501    0  0.00000000000E+00  0.00000000000E+00 -0.13392314765E+04  0.13392314765E+04  0.50400001928E-02 0. -1.
    10030    2    1    2    0    0  0.00000000000E+00  0.00000000000E+00 -0.58064186476E+03  0.20978210882E+04  0.20158641678E+04 0.  0.
        3    1    3    3  502    0 -0.17177122433E+03 -0.71735447555E+03  0.42450010224E+03  0.85106001204E+03  0.10100000352E+00 0.  1.
       -3    1    3    3    0  502  0.17177122433E+03  0.71735447555E+03 -0.10051419670E+04  0.12467610762E+04  0.10100000352E+00 0. -1.
</event>
<event>
 5   0  0.3395569E-04  0.1785711E+04  0.7818609E-02  0.8713935E-01
        2   -1    0    0  501    0  0.00000000000E+00  0.00000000000E+00  0.52769877956E+03  0.52769877956E+03  0.25500000920E-02 0. -1.
       -2   -1    0    0    0  501  0.00000000000E+00  0.00000000000E+00 -0.15106932670E+04  0.15106932670E+04  0.25500000920E-02 0.  1.
    10030    2    1    2    0    0  0.00000000000E+00  0.00000000000E+00 -0.98299448744E+03  0.20383920466E+04  0.17857110553E+04 0.  0.
        4    1    3    3  502    0 -0.56386928855E+03 -0.13353695750E+03  0.28389135713E+03  0.64527250766E+03  0.12699999809E+01 0. -1.
       -4    1    3    3    0  502  0.56386928855E+03  0.13353695750E+03 -0.12668858446E+04  0.13931195389E+04  0.12699999809E+01 0.  1.
</event>
<event>
 5   0  0.1664168E-04  0.1884252E+04  0.7818609E-02  0.8662735E-01
        1   -1    0    0  501    0  0.00000000000E+00  0.00000000000E+00  0.44240754553E+03  0.44240754556E+03  0.50400001928E-02 0.  1.
       -1   -1    0    0    0  501  0.00000000000E+00  0.00000000000E+00 -0.20062980494E+04  0.20062980494E+04  0.50400001928E-02 0. -1.
    10030    2    1    2    0    0  0.00000000000E+00  0.00000000000E+00 -0.15638905039E+04  0.24487055950E+04  0.18842519956E+04 0.  0.
        5    1    3    3  502    0  0.88772781966E+03  0.10817835761E+03 -0.11670550610E+04  0.14703070578E+04  0.46999998093E+01 0. -1.
       -5    1    3    3    0  502 -0.88772781966E+03 -0.10817835761E+03 -0.39683544294E+03  0.97839853722E+03  0.46999998093E+01 0.  1.
</event>
<event>
 5   0  0.1664168E-04  0.2005348E+04  0.7818609E-02  0.8604124E-01
       -1   -1    0    0    0  501  0.00000000000E+00  0.00000000000E+00  0.70841073181E+03  0.70841073183E+03  0.50400001928E-02 0.  1.
        1   -1    0    0  501    0  0.00000000000E+00  0.00000000000E+00 -0.14191702337E+04  0.14191702337E+04  0.50400001928E-02 0. -1.
    10030    2    1    2    0    0  0.00000000000E+00  0.00000000000E+00 -0.71075950193E+03  0.21275809656E+04  0.20053482729E+04 0.  0.
        5    1    3    3  502    0  0.59422996180E+03 -0.22506217653E+03  0.46750643386E+03  0.78888946406E+03  0.46999998093E+01 0.  1.
       -5    1    3    3    0  502 -0.59422996180E+03  0.22506217653E+03 -0.11782659358E+04  0.13386915015E+04  0.46999998093E+01 0. -1.
</event>
<event>
 5   0  0.1222488E-04  0.2107118E+04  0.7818609E-02  0.8558114E-01
       -3   -1    0    0    0  501  0.00000000000E+00  0.00000000000E+00  0.13913992761E+04  0.13913992797E+04  0.10100000352E+00 0. -1.
        3   -1    0    0  501    0  0.00000000000E+00  0.00000000000E+00 -0.79774865562E+03  0.79774866201E+03  0.10100000352E+00 0.  1.
    10030    2    1    2    0    0  0.00000000000E+00  0.00000000000E+00  0.59365062046E+03  0.21891479418E+04  0.21071183288E+04 0.  0.
        3    1    3    3  502    0  0.96033420002E+02  0.32683436382E+03  0.13326043018E+04  0.13754553263E+04  0.10100000352E+00 0. -1.
       -3    1    3    3    0  502 -0.96033420002E+02 -0.32683436382E+03 -0.73895368135E+03  0.81369261550E+03  0.10100000352E+00 0.  1.
</event>
<event>
 5   0  0.1708578E-04  0.1968719E+04  0.7818609E-02  0.8621387E-01
       -1   -1    0    0    0  501  0.00000000000E+00  0.00000000000E+00  0.72014895617E+03  0.72014895619E+03  0.50400001928E-02 0. -1.
        1   -1    0    0  501    0  0.00000000000E+00  0.00000000000E+00 -0.13455046796E+04  0.13455046796E+04  0.50400001928E-02 0.  1.
    10030    2    1    2    0    0  0.00000000000E+00  0.00000000000E+00 -0.62535572344E+03  0.20656536358E+04  0.19687191680E+04 0.  0.
        3    1    3    3  502    0  0.54585478788E+03 -0.42803643859E+03 -0.10454866771E+04  0.12546772671E+04  0.10100000352E+00 0.  1.
       -3    1    3    3    0  502 -0.54585478788E+03  0.42803643859E+03  0.42013095370E+03  0.81097636875E+03  0.10100000352E+00 0. -1.
</event>
<event>
 5   0  0.3387881E-04  0.2019048E+04  0.7818609E-02  0.8597766E-01
       -2   -1    0    0    0  501  0.00000000000E+00  0.00000000000E+00  0.45381669967E+03  0.45381669968E+03  0.25500000920E-02 0. -1.
        2   -1    0    0  501    0  0.00000000000E+00  0.00000000000E+00 -0.22457061677E+04  0.22457061677E+04  0.25500000920E-02 0.  1.
    10030    2    1    2    0    0  0.00000000000E+00  0.00000000000E+00 -0.17918894680E+04  0.26995228674E+04  0.20190482525E+04 0.  0.
        1    1    3    3  502    0 -0.90424091969E+03 -0.36987535403E+03 -0.12359798614E+04  0.15754699731E+04  0.50400001928E-02 0.  1.
       -1    1    3    3    0  502  0.90424091969E+03  0.36987535403E+03 -0.55590960663E+03  0.11240528943E+04  0.50400001928E-02 0. -1.
</event>
<event>
 5   0  0.1643565E-04  0.2175589E+04  0.7818609E-02  0.8528658E-01
       -1   -1    0    0    0  501  0.00000000000E+00  0.00000000000E+00  0.75661528468E+03  0.75661528470E+03  0.50400001928E-02 0. -1.
        1   -1    0    0  501    0  0.00000000000E+00  0.00000000000E+00 -0.15639349732E+04  0.15639349732E+04  0.50400001928E-02 0.  1.
    10030    2    1    2    0    0  0.00000000000E+00  0.00000000000E+00 -0.80731968856E+03  0.23205502579E+04  0.21755892122E+04 0.  0.
        2    1    3    3  502    0  0.89086019996E+03 -0.61620304463E+03 -0.51010412160E+03  0.11973071047E+04  0.25500000920E-02 0.  1.
       -2    1    3    3    0  502 -0.89086019996E+03  0.61620304463E+03 -0.29721556696E+03  0.11232431533E+04  0.25500000920E-02 0. -1.
</event>
<event>
 5   0  0.1708578E-04  0.1953608E+04  0.7818609E-02  0.8628623E-01
        1   -1    0    0  501    0  0.00000000000E+00  0.00000000000E+00  0.23490033395E+04  0.23490033395E+04  0.50400001928E-02 0. -1.
       -1   -1    0    0    0  501  0.00000000000E+00  0.00000000000E+00 -0.40619195461E+03  0.40619195464E+03  0.50400001928E-02 0.  1.
    10030    2    1    2    0    0  0.00000000000E+00  0.00000000000E+00  0.19428113849E+04  0.27551952942E+04  0.19536082083E+04 0.  0.
        3    1    3    3  502    0 -0.52262660873E+03  0.36289955761E+03  0.20166656091E+04  0.21146571472E+04  0.10100000352E+00 0. -1.
       -3    1    3    3    0  502  0.52262660873E+03 -0.36289955761E+03 -0.73854224210E+02  0.64053814695E+03  0.10100000352E+00 0.  1.
</event>
<event>
 5   0  0.1643565E-04  0.1975185E+04  0.7818609E-02  0.8618311E-01
        1   -1    0    0  501    0  0.00000000000E+00  0.00000000000E+00  0.14198388109E+04  0.14198388109E+04  0.50400001928E-02 0.  1.
       -1   -1    0    0    0  501  0.00000000000E+00  0.00000000000E+00 -0.68693636098E+03  0.68693636100E+03  0.50400001928E-02 0. -1.
    10030    2    1    2    0    0  0.00000000000E+00  0.00000000000E+00  0.73290244996E+03  0.21067751719E+04  0.19751849594E+04 0.  0.
        2    1    3    3  502    0 -0.94226353303E+03  0.91900430231E+02  0.66594566371E+02  0.94907380695E+03  0.25500000920E-02 0. -1.
       -2    1    3    3    0  502  0.94226353303E+03 -0.91900430231E+02  0.66630788359E+03  0.11577013650E+04  0.25500000920E-02 0.  1.
</event>
<event>
 5   0  0.1708578E-04  0.2021745E+04  0.7818609E-02  0.8596521E-01
        1   -1    0    0  501    0  0.00000000000E+00  0.00000000000E+00  0.20002466671E+04  0.20002466671E+04  0.50400001928E-02 0.  1.
       -1   -1    0    0    0  501  0.00000000000E+00  0.00000000000E+00 -0.51086849683E+03  0.51086849686E+03  0.50400001928E-02 0. -1.
    10030    2    1    2    0    0  0.00000000000E+00  0.00000000000E+00  0.14893781702E+04  0.25111151639E+04  0.20217447991E+04 0.  0.
        3    1    3    3  502    0  0.47456692089E+03 -0.85158538860E+03  0.41268291251E+03  0.10586399921E+04  0.10100000352E+00 0.  1.
       -3    1    3    3    0  502 -0.47456692089E+03  0.85158538860E+03  0.10766952577E+04  0.14524751718E+04  0.10100000352E+00 0. -1.
</event>
<event>
 5   0  0.3460648E-04  0.1993313E+04  0.7818609E-02  0.8609754E-01
       -2   -1    0    0    0  501  0.00000000000E+00  0.00000000000E+00  0.69610566174E+03  0.69610566175E+03  0.25500000920E-02 0.  1.
        2   -1    0    0  501    0  0.00000000000E+00  0.00000000000E+00 -0.14269730337E+04  0.14269730337E+04  0.25500000920E-02 0. -1.
    10030    2    1    2    0    0  0.00000000000E+00  0.00000000000E+00 -0.73086737196E+03  0.21230786955E+04  0.19933128284E+04 0.  0.
        5    1    3    3  502    0  0.80381443429E+03 -0.42113387241E+03  0.73499602723E+02  0.91043707353E+03  0.46999998093E+01 0.  1.
       -5    1    3    3    0  502 -0.80381443429E+03  0.42113387241E+03 -0.80436697469E+03  0.12126416219E+04  0.46999998093E+01 0. -1.
</event>
<event>
 5   0  0.3387881E-04  0.2005172E+04  0.7818609E-02  0.8604206E-01
       -2   -1    0    0    0  501  0.00000000000E+00  0.00000000000E+00  0.64676041488E+03  0.64676041488E+03  0.25500000920E-02 0. -1.
        2   -1    0    0  501    0  0.00000000000E+00  0.00000000000E+00 -0.15541753220E+04  0.15541753220E+04  0.25500000920E-02 0.  1.
    10030    2    1    2    0    0  0.00000000000E+00  0.00000000000E+00 -0.90741490709E+03  0.22009357368E+04  0.20051723876E+04 0.  0.
        1    1    3    3  502    0 -0.42519085133E+01 -0.99977047060E+03 -0.53599307168E+03  0.11343930736E+04  0.50400001928E-02 0.  1.
       -1    1    3    3    0  502  0.42519085133E+01  0.99977047060E+03 -0.37142183542E+03  0.10665426632E+04  0.50400001928E-02 0. -1.
</event>
<event>
 5   0  0.1650221E-04  0.2053308E+04  0.7818609E-02  0.8582095E-01
        1   -1    0    0  501    0  0.00000000000E+00  0.00000000000E+00  0.13303356865E+04  0.13303356865E+04  0.50400001928E-02 0. -1.
       -1   -1    0    0    0  501  0.00000000000E+00  0.00000000000E+00 -0.79229510814E+03  0.79229510815E+03  0.50400001928E-02 0.  1.
    10030    2    1    2    0    0  0.00000000000E+00  0.00000000000E+00  0.53804057833E+03  0.21226307946E+04  0.20533080203E+04 0.  0.
        1    1    3    3  502    0 -0.30164571547E+03  0.29946868215E+03  0.12351017109E+04  0.13061959522E+04  0.50400001928E-02 0. -1.
       -1    1    3    3    0  502  0.30164571547E+03 -0.29946868215E+03 -0.69706113261E+03  0.81643484239E+03  0.50400001928E-02 0.  1.
</event>
<event>
 5   0  0.3371947E-04  0.1985786E+04  0.7818609E-02  0.8613295E-01
       -2   -1    0    0    0  501  0.00000000000E+00  0.00000000000E+00  0.83244211303E+03  0.83244211304E+03  0.25500000920E-02 0. -1.
        2   -1    0    0  501    0  0.00000000000E+00  0.00000000000E+00 -0.11842703444E+04  0.11842703444E+04  0.25500000920E-02 0.  1.
    10030    2    1    2    0    0  0.00000000000E+00  0.00000000000E+00 -0.35182823132E+03  0.20167124574E+04  0.19857859984E+04 0.  0.
        2    1    3    3  502    0 -0.91489029371E+03  0.38556270701E+03 -0.16332520538E+03  0.10061600138E+04  0.25500000920E-02 0.  1.
       -2    1    3    3    0  502  0.91489029371E+03 -0.38556270701E+03 -0.18850302595E+03  0.10105524436E+04  0.25500000920E-02 0. -1.
</event>
<event>
 5   0  0.3460648E-04  0.1546867E+04  0.7818609E-02  0.8853871E-01
       -2   -1    0    0    0  501  0.00000000000E+00  0.00000000000E+00  0.73027292478E+03  0.73027292479E+03  0.25500000920E-02 0. -1.
        2   -1    0    0  501    0  0.00000000000E+00  0.00000000000E+00 -0.81914533859E+03  0.81914533859E+03  0.25500000920E-02 0.  1.
    10030    2    1    2    0    0  0.00000000000E+00  0.00000000000E+00 -0.88872413803E+02  0.15494182634E+04  0.15468673663E+04 0.  0.
        5    1    3    3  502    0  0.53807449925E+03 -0.39001399658E+03  0.35187076203E+03  0.75197753121E+03  0.46999998093E+01 0.  1.
       -5    1    3    3    0  502 -0.53807449925E+03  0.39001399658E+03 -0.44074317583E+03  0.79744073217E+03  0.46999998093E+01 0. -1.
</event>
<event>
 5   0  0.1643565E-04  0.2032143E+04  0.7818609E-02  0.8591739E-01
        1   -1    0    0  501    0  0.00000000000E+00  0.00000000000E+00  0.15722717291E+04  0.15722717291E+04  0.50400001928E-02 0. -1.
       -1   -1    0    0    0  501  0.00000000000E+00  0.00000000000E+00 -0.65663008894E+03  0.65663008896E+03  0.50400001928E-02 0.  1.
    10030    2    1    2    0    0  0.00000000000E+00  0.00000000000E+00  0.91564164013E+03  0.22289018180E+04  0.20321426380E+04 0.  0.
        2    1    3    3  502    0 -0.72865094889E+03 -0.42643585051E+03  0.10779105366E+04  0.13691862054E+04  0.25500000920E-02 0. -1.
       -2    1    3    3    0  502  0.72865094889E+03  0.42643585051E+03 -0.16226889650E+03  0.85971561269E+03  0.25500000920E-02 0.  1.
</event>
<event>
 5   0  0.3371947E-04  0.2160880E+04  0.7818609E-02  0.8534889E-01
        2   -1    0    0  501    0  0.00000000000E+00  0.00000000000E+00  0.93726478501E+03  0.93726478501E+03  0.25500000920E-02 0.  1.
       -2   -1    0    0    0  501  0.00000000000E+00  0.00000000000E+00 -0.12454866472E+04  0.12454866472E+04  0.25500000920E-02 0. -1.
    10030    2    1    2    0    0  0.00000000000E+00  0.00000000000E+00 -0.30822186219E+03  0.21827514322E+04  0.21608801675E+04 0.  0.
        2    1    3    3  502    0 -0.46113288244E+03 -0.30457007157E+03 -0.10919173523E+04  0.12238014414E+04  0.25500000920E-02 0. -1.
       -2    1    3    3    0  502  0.46113288244E+03  0.30457007157E+03  0.78369549006E+03  0.95894999083E+03  0.25500000920E-02 0.  1.
</event>
<event>
 5   0  0.3431030E-04  0.2023142E+04  0.7818609E-02  0.8595877E-01
        2   -1    0    0  501    0  0.00000000000E+00  0.00000000000E+00  0.88080064217E+03  0.88080064217E+03  0.25500000920E-02 0. -1.
       -2   -1    0    0    0  501  0.00000000000E+00  0.00000000000E+00 -0.11617562755E+04  0.11617562755E+04  0.25500000920E-02 0.  1.
    10030    2    1    2    0    0  0.00000000000E+00  0.00000000000E+00 -0.28095563338E+03  0.20425569177E+04  0.20231417880E+04 0.  0.
        3    1    3    3  502    0  0.19511789749E+03 -0.78242951407E+03  0.47612760923E+03  0.93646380009E+03  0.10100000352E+00 0. -1.
       -3    1    3    3    0  502 -0.19511789749E+03  0.78242951407E+03 -0.75708324261E+03  0.11060931176E+04  0.10100000352E+00 0.  1.
</event>
<event>
 5   0  0.1222488E-04  0.1992367E+04  0.7818609E-02  0.8610198E-01
        3   -1    0    0  501    0  0.00000000000E+00  0.00000000000E+00  0.12341257290E+04  0.12341257331E+04  0.10100000352E+00 0. -1.
       -3   -1    0    0    0  501  0.00000000000E+00  0.00000000000E+00 -0.80411694624E+03  0.80411695259E+03  0.10100000352E+00 0.  1.
    10030    2    1    2    0    0  0.00000000000E+00  0.00000000000E+00  0.43000878277E+03  0.20382426857E+04  0.19923668570E+04 0.  0.
        4    1    3    3  502    0 -0.40716529146E+03 -0.24458856560E+03 -0.68081383870E+03  0.83013025294E+03  0.12699999809E+01 0.  1.
       -4    1    3    3    0  502  0.40716529146E+03  0.24458856560E+03  0.11108226215E+04  0.12081124328E+04  0.12699999809E+01 0. -1.
</event>
<event>
 5   0  0.1664168E-04  0.2035611E+04  0.7818609E-02  0.8590150E-01
       -1   -1    0    0    0  501  0.00000000000E+00  0.00000000000E+00  0.66625652748E+03  0.66625652750E+03  0.50400001928E-02 0. -1.
        1   -1    0    0  501    0  0.00000000000E+00  0.00000000000E+00 -0.15548487100E+04  0.15548487100E+04  0.50400001928E-02 0.  1.
    10030    2    1    2    0    0  0.00000000000E+00  0.00000000000E+00 -0.88859218248E+03  0.22211052375E+04  0.20356110653E+04 0.  0.
        5    1    3    3  502    0 -0.88836304435E+02 -0.21979357075E+03  0.63569948216E+03  0.67848141047E+03  0.46999998093E+01 0. -1.
       -5    1    3    3    0  502  0.88836304435E+02  0.21979357075E+03 -0.15242916646E+04  0.15426238270E+04  0.46999998093E+01 0.  1.
</event>
<event>
 5   0  0.3387881E-04  0.2002769E+04  0.7818609E-02  0.8605327E-01
       -2   -1    0    0    0  501  0.00000000000E+00  0.00000000000E+00  0.11527825837E+04  0.11527825837E+04  0.25500000920E-02 0.  1.
        2   -1    0    0  501    0  0.00000000000E+00  0.00000000000E+00 -0.86987012479E+03  0.86987012479E+03  0.25500000920E-02 0. -1.
    10030    2    1    2    0    0  0.00000000000E+00  0.00000000000E+00  0.28291245892E+03  0.20226527085E+04  0.20027692128E+04 0.  0.
        1    1    3    3  502    0  0.26812163433E+03 -0.84799896173E+03  0.60622031164E+03  0.10763338312E+04  0.50400001928E-02 0.  1.
       -1    1    3    3    0  502 -0.26812163433E+03  0.84799896173E+03 -0.32330785272E+03  0.94631887731E+03  0.50400001928E-02 0. -1.
</event>
<event>
 5   0  0.1696052E-04  0.2000984E+04  0.7818609E-02  0.8606161E-01
        1   -1    0    0  501    0  0.00000000000E+00  0.00000000000E+00  0.16029258837E+04  0.16029258837E+04  0.50400001928E-02 0.  1.
       -1   -1    0    0    0  501  0.00000000000E+00  0.00000000000E+00 -0.62447348519E+03  0.62447348522E+03  0.50400001928E-02 0. -1.
    10030    2    1    2    0    0  0.00000000000E+00  0.00000000000E+00  0.97845239854E+03  0.22273993690E+04  0.20009844709E+04 0.  0.
        4    1    3    3  502    0  0.78626118544E+03  0.36685846587E+03  0.10437850790E+04  0.13573064097E+04  0.12699999809E+01 0.  1.
       -4    1    3    3    0  502 -0.78626118544E+03 -0.36685846587E+03 -0.65332680482E+02  0.87009295926E+03  0.12699999809E+01 0. -1.
</event>
<event>
 5   0  0.1643565E-04  0.2149737E+04  0.7818609E-02  0.8539645E-01
       -1   -1    0    0    0  501  0.00000000000E+00  0.00000000000E+00  0.63186715088E+03  0.63186715090E+03  0.50400001928E-02 0.  1.
        1   -1    0    0  501    0  0.00000000000E+00  0.00000000000E+00 -0.18284578941E+04  0.18284578941E+04  0.50400001928E-02 0. -1.
    10030    2    1    2    0    0  0.00000000000E+00  0.00000000000E+00 -0.11965907432E+04  0.24603250450E+04  0.21497371747E+04 0.  0.
        2    1    3    3  502    0 -0.81645902196E+02 -0.88003488639E+03 -0.12984077101E+04  0.15706654756E+04  0.25500000920E-02 0.  1.
       -2    1    3    3    0  502  0.81645902196E+02  0.88003488639E+03  0.10181696692E+03  0.88965956937E+03  0.25500000920E-02 0. -1.
</event>
<event>
 5   0  0.3395569E-04  0.1983219E+04  0.7818609E-02  0.8614507E-01
       -2   -1    0    0    0  501  0.00000000000E+00  0.00000000000E+00  0.44058317424E+03  0.44058317425E+03  0.25500000920E-02 0.  1.
        2   -1    0    0  501    0  0.00000000000E+00  0.00000000000E+00 -0.22317907009E+04  0.22317907009E+04  0.25500000920E-02 0. -1.
    10030    2    1    2    0    0  0.00000000000E+00  0.00000000000E+00 -0.17912075266E+04  0.26723738751E+04  0.19832190310E+04 0.  0.
        4    1    3    3  502    0 -0.82942029544E+03 -0.85174178175E+02 -0.16188638693E+04  0.18209652680E+04  0.12699999809E+01 0. -1.
       -4    1    3    3    0  502  0.82942029544E+03  0.85174178175E+02 -0.17234365732E+03  0.85140860709E+03  0.12699999809E+01 0.  1.
</event>
<event>
 5   0  0.3371947E-04  0.1975897E+04  0.7818609E-02  0.8617973E-01
       -2   -1    0    0    0  501  0.00000000000E+00  0.00000000000E+00  0.16075029199E+04  0.16075029199E+04  0.25500000920E-02 0.  1.
        2   -1    0    0  501    0  0.00000000000E+00  0.00000000000E+00 -0.60717917920E+03  0.60717917920E+03  0.25500000920E-02 0. -1.
    10030    2    1    2    0    0  0.00000000000E+00  0.00000000000E+00  0.10003237407E+04  0.22146820991E+04  0.19758970656E+04 0.  0.
        2    1    3    3  502    0  0.29801890938E+02  0.30161849119E+03  0.15541058557E+04  0.15833846272E+04  0.25500000920E-02 0.  1.
       -2    1    3    3    0  502 -0.29801890938E+02 -0.30161849119E+03 -0.55378211508E+03  0.63129747182E+03  0.25500000920E-02 0. -1.
</event>
<event>
 5   0  0.3431030E-04  0.1646822E+04  0.7818609E-02  0.8792289E-01
        2   -1    0    0  501    0  0.00000000000E+00  0.00000000000E+00  0.41984908106E+03  0.41984908106E+03  0.25500000920E-02 0. -1.
       -2   -1    0    0    0  501  0.00000000000E+00  0.00000000000E+00 -0.16148799325E+04  0.16148799325E+04  0.25500000920E-02 0.  1.
    10030    2    1    2    0    0  0.00000000000E+00  0.00000000000E+00 -0.11950308514E+04  0.20347290135E+04  0.16468222195E+04 0.  0.
        3    1    3    3  502    0  0.55182357823E+03  0.61052556290E+03 -0.56356320843E+03  0.99742379385E+03  0.10100000352E+00 0.  1.
       -3    1    3    3    0  502 -0.55182357823E+03 -0.61052556290E+03 -0.63146764297E+03  0.10373052197E+04  0.10100000352E+00 0. -1.
</event>
<event>
 5   0  0.1643565E-04  0.1953940E+04  0.7818609E-02  0.8628463E-01
       -1   -1    0    0    0  501  0.00000000000E+00  0.00000000000E+00  0.83647207424E+03  0.83647207426E+03  0.50400001928E-02 0.  1.
        1   -1    0    0  501    0  0.00000000000E+00  0.00000000000E+00 -0.11410669436E+04  0.11410669436E+04  0.50400001928E-02 0. -1.
    10030    2    1    2    0    0  0.00000000000E+00  0.00000000000E+00 -0.30459486937E+03  0.19775390179E+04  0.19539402582E+04 0.  0.
        2    1    3    3  502    0  0.22103878862E+03  0.55651153636E+03 -0.93357106878E+03  0.11091069275E+04  0.25500000920E-02 0. -1.
       -2    1    3    3    0  502 -0.22103878862E+03 -0.55651153636E+03  0.62897619941E+03  0.86843209038E+03  0.25500000920E-02 0.  1.
</event>
<event>
 5   0  0.3395569E-04  0.2000983E+04  0.7818609E-02  0.8606161E-01
        2   -1    0    0  501    0  0.00000000000E+00  0.00000000000E+00  0.19864866611E+04  0.19864866611E+04  0.25500000920E-02 0.  1.
       -2   -1    0    0    0  501  0.00000000000E+00  0.00000000000E+00 -0.50389609853E+03  0.50389609854E+03  0.25500000920E-02 0. -1.
    10030    2    1    2    0    0  0.00000000000E+00  0.00000000000E+00  0.14825905625E+04  0.24903827596E+04  0.20009826369E+04 0.  0.
        4    1    3    3  502    0 -0.85896888426E+03  0.48772850892E+03  0.93915852426E+03  0.13629845887E+04  0.12699999809E+01 0.  1.
       -4    1    3    3    0  502  0.85896888426E+03 -0.48772850892E+03  0.54343203827E+03  0.11273981709E+04  0.12699999809E+01 0. -1.
</event>
<event>
 5   0  0.3431030E-04  0.1983553E+04  0.7818609E-02  0.8614349E-01
        2   -1    0    0  501    0  0.00000000000E+00  0.00000000000E+00  0.15197774881E+04  0.15197774881E+04  0.25500000920E-02 0.  1.
       -2   -1    0    0    0  501  0.00000000000E+00  0.00000000000E+00 -0.64721330110E+03  0.64721330111E+03  0.25500000920E-02 0. -1.
    10030    2    1    2    0    0  0.00000000000E+00  0.00000000000E+00  0.87256418696E+03  0.21669907892E+04  0.19835525756E+04 0.  0.
        3    1    3    3  502    0 -0.72180873779E+03  0.65207485091E+03  0.22497628344E+03  0.99841063869E+03  0.10100000352E+00 0. -1.
       -3    1    3    3    0  502  0.72180873779E+03 -0.65207485091E+03  0.64758790352E+03  0.11685801505E+04  0.10100000352E+00 0.  1.
</event>
<event>
 5   0  0.1708578E-04  0.1066117E+04  0.7818609E-02  0.9238861E-01
       -1   -1    0    0    0  501  0.00000000000E+00  0.00000000000E+00  0.19093067740E+03  0.19093067747E+03  0.50400001928E-02 0.  1.
        1   -1    0    0  501    0  0.00000000000E+00  0.00000000000E+00 -0.14882427546E+04  0.14882427547E+04  0.50400001928E-02 0. -1.
    10030    2    1    2    0    0  0.00000000000E+00  0.00000000000E+00 -0.12973120772E+04  0.16791734321E+04  0.10661166866E+04 0.  0.
        3    1    3    3  502    0  0.22528868593E+03  0.43211728250E+03 -0.98891820708E+03  0.11024697585E+04  0.10100000352E+00 0. -1.
       -3    1    3    3    0  502 -0.22528868593E+03 -0.43211728250E+03 -0.30839387016E+03  0.57670367365E+03  0.10100000352E+00 0.  1.
</event>
<event>
 5   0  0.3431030E-04  0.2012265E+04  0.7818609E-02  0.8600908E-01
       -2   -1    0    0    0  501  0.00000000000E+00  0.00000000000E+00  0.92267632133E+03  0.92267632133E+03  0.25500000920E-02 0.  1.
        2   -1    0    0  501    0  0.00000000000E+00  0.00000000000E+00 -0.10971376482E+04  0.10971376482E+04  0.25500000920E-02 0. -1.
    10030    2    1    2    0    0  0.00000000000E+00  0.00000000000E+00 -0.17446132685E+03  0.20198139695E+04  0.20122653197E+04 0.  0.
        3    1    3    3  502    0 -0.34963363135E+03 -0.30984148502E+03 -0.98167249932E+03  0.10871643519E+04  0.10100000352E+00 0. -1.
       -3    1    3    3    0  502  0.34963363135E+03  0.30984148502E+03  0.80721117246E+03  0.93264961757E+03  0.10100000352E+00 0.  1.
</event>
<event>
 5   0  0.1643565E-04  0.1979823E+04  0.7818609E-02  0.8616113E-01
        1   -1    0    0  501    0  0.00000000000E+00  0.00000000000E+00  0.18238429275E+04  0.18238429275E+04  0.50400001928E-02 0. -1.
       -1   -1    0    0    0  501  0.00000000000E+00  0.00000000000E+00 -0.53728550906E+03  0.53728550909E+03  0.50400001928E-02 0.  1.
    10030    2    1    2    0    0  0.00000000000E+00  0.00000000000E+00  0.12865574184E+04  0.23611284366E+04  0.19798225939E+04 0.  0.
        2    1    3    3  502    0 -0.24183334813E+03  0.94220919317E+03  0.86215449154E+03  0.12998276421E+04  0.25500000920E-02 0. -1.
       -2    1    3    3    0  502  0.24183334813E+03 -0.94220919317E+03  0.42440292691E+03  0.10613007945E+04  0.25500000920E-02 0.  1.
</event>
<event>
 5   0  0.1650221E-04  0.1982552E+04  0.7818609E-02  0.8614822E-01
        1   -1    0    0  501    0  0.00000000000E+00  0.00000000000E+00  0.74545862418E+03  0.74545862420E+03  0.50400001928E-02 0. -1.
       -1   -1    0    0    0  501  0.00000000000E+00  0.00000000000E+00 -0.13181521030E+04  0.13181521030E+04  0.50400001928E-02 0.  1.
    10030    2    1    2    0    0  0.00000000000E+00  0.00000000000E+00 -0.57269347879E+03  0.20636107272E+04  0.19825517428E+04 0.  0.
        1    1    3    3  502    0 -0.69704387181E+03 -0.82819007230E+02  0.44219827760E+03  0.82961946935E+03  0.50400001928E-02 0. -1.
       -1    1    3    3    0  502  0.69704387181E+03  0.82819007230E+02 -0.10148917564E+04  0.12339912578E+04  0.50400001928E-02 0.  1.
</event>
<event>
 5   0  0.3395569E-04  0.1974322E+04  0.7818609E-02  0.8618721E-01
       -2   -1    0    0    0  501  0.00000000000E+00  0.00000000000E+00  0.54716192049E+03  0.54716192049E+03  0.25500000920E-02 0. -1.
        2   -1    0    0  501    0  0.00000000000E+00  0.00000000000E+00 -0.17809843531E+04  0.17809843531E+04  0.25500000920E-02 0.  1.
    10030    2    1    2    0    0  0.00000000000E+00  0.00000000000E+00 -0.12338224326E+04  0.23281462736E+04  0.19743219788E+04 0.  0.
        4    1    3    3  502    0  0.27997114175E+03 -0.63383527879E+03  0.21219734377E+03  0.72467946463E+03  0.12699999809E+01 0. -1.
       -4    1    3    3    0  502 -0.27997114175E+03  0.63383527879E+03 -0.14460197763E+04  0.16034668089E+04  0.12699999809E+01 0.  1.
</event>
<event>
 5   0  0.3395569E-04  0.2010441E+04  0.7818609E-02  0.8601755E-01
       -2   -1    0    0    0  501  0.00000000000E+00  0.00000000000E+00  0.50071084534E+03  0.50071084535E+03  0.25500000920E-02 0. -1.
        2   -1    0    0  501    0  0.00000000000E+00  0.00000000000E+00 -0.20180680058E+04  0.20180680058E+04  0.25500000920E-02 0.  1.
    10030    2    1    2    0    0  0.00000000000E+00  0.00000000000E+00 -0.15173571604E+04  0.25187788511E+04  0.20104412820E+04 0.  0.
        4    1    3    3  502    0 -0.88445466128E+03 -0.48835424875E+02 -0.13540414525E+04  0.16180466046E+04  0.12699999809E+01 0.  1.
       -4    1    3    3    0  502  0.88445466128E+03  0.48835424875E+02 -0.16331570791E+03  0.90073224652E+03  0.12699999809E+01 0. -1.
</event>
<event>
 5   0  0.3395569E-04  0.1731860E+04  0.7818609E-02  0.8743399E-01
        2   -1    0    0  501    0  0.00000000000E+00  0.00000000000E+00  0.13622424095E+04  0.13622424095E+04  0.25500000920E-02 0.  1.
       -2   -1    0    0    0  501  0.00000000000E+00  0.00000000000E+00 -0.55044136241E+03  0.55044136242E+03  0.25500000920E-02 0. -1.
    10030    2    1    2    0    0  0.00000000000E+00  0.00000000000E+00  0.81180104710E+03  0.19126837719E+04  0.17318597724E+04 0.  0.
        4    1    3    3  502    0 -0.29211840361E+03 -0.80471888692E+03  0.26221124163E+03  0.89535579343E+03  0.12699999809E+01 0. -1.
       -4    1    3    3    0  502  0.29211840361E+03  0.80471888692E+03  0.54958980547E+03  0.10173279785E+04  0.12699999809E+01 0.  1.
</event>
<event>
 5   0  0.1650221E-04  0.2005555E+04  0.7818609E-02  0.8604028E-01
       -1   -1    0    0    0  501  0.00000000000E+00  0.00000000000E+00  0.56668869280E+03  0.56668869282E+03  0.50400001928E-02 0. -1.
        1   -1    0    0  501    0  0.00000000000E+00  0.00000000000E+00 -0.17744540912E+04  0.17744540912E+04  0.50400001928E-02 0.  1.
    10030    2    1    2    0    0  0.00000000000E+00  0.00000000000E+00 -0.12077653984E+04  0.23411427840E+04  0.20055553539E+04 0.  0.
        1    1    3    3  502    0 -0.51893421364E+02 -0.94226954225E+03 -0.20802520798E+03  0.96635361261E+03  0.50400001928E-02 0. -1.
       -1    1    3    3    0  502  0.51893421364E+02  0.94226954225E+03 -0.99974019039E+03  0.13747891714E+04  0.50400001928E-02 0.  1.
</event>
<event>
 5   0  0.3431030E-04  0.1987268E+04  0.7818609E-02  0.8612597E-01
        2   -1    0    0  501    0  0.00000000000E+00  0.00000000000E+00  0.72899176119E+03  0.72899176120E+03  0.25500000920E-02 0.  1.
       -2   -1    0    0    0  501  0.00000000000E+00  0.00000000000E+00 -0.13543479373E+04  0.13543479373E+04  0.25500000920E-02 0. -1.
    10030    2    1    2    0    0  0.00000000000E+00  0.00000000000E+00 -0.62535617612E+03  0.20833396985E+04  0.19872679619E+04 0.  0.
        3    1    3    3  502    0 -0.73627964945E+02 -0.22304408006E+03  0.69946971584E+03  0.73785339495E+03  0.10100000352E+00 0.  1.
       -3    1    3    3    0  502  0.73627964945E+02  0.22304408006E+03 -0.13248258920E+04  0.13454863036E+04  0.10100000352E+00 0. -1.
</event>
<event>
 5   0  0.3387881E-04  0.2005042E+04  0.7818609E-02  0.8604267E-01
        2   -1    0    0  501    0  0.00000000000E+00  0.00000000000E+00  0.10625822439E+04  0.10625822440E+04  0.25500000920E-02 0. -1.
       -2   -1    0    0    0  501  0.00000000000E+00  0.00000000000E+00 -0.94585449051E+03  0.94585449051E+03  0.25500000920E-02 0.  1.
    10030    2    1    2    0    0  0.00000000000E+00  0.00000000000E+00  0.11672775344E+03  0.20084367345E+04  0.20050418320E+04 0.  0.
        1    1    3    3  502    0  0.40648286657E+03  0.84454619301E+03  0.41472119836E+03  0.10249293953E+04  0.50400001928E-02 0. -1.
       -1    1    3    3    0  502 -0.40648286657E+03 -0.84454619301E+03 -0.29799344492E+03  0.98350733917E+03  0.50400001928E-02 0.  1.
</event>
<event>
 5   0  0.1643565E-04  0.1669399E+04  0.7818609E-02  0.8779012E-01
        1   -1    0    0  501    0  0.00000000000E+00  0.00000000000E+00  0.23274902640E+04  0.23274902640E+04  0.50400001928E-02 0. -1.
       -1   -1    0    0    0  501  0.00000000000E+00  0.00000000000E+00 -0.29934533305E+03  0.29934533309E+03  0.50400001928E-02 0.  1.
    10030    2    1    2    0    0  0.00000000000E+00  0.00000000000E+00  0.20281449310E+04  0.26268355971E+04  0.16693991114E+04 0.  0.
        2    1    3    3  502    0  0.20514580652E+02  0.73302947043E+03  0.38669241325E+03  0.82902597970E+03  0.25500000920E-02 0.  1.
       -2    1    3    3    0  502 -0.20514580652E+02 -0.73302947043E+03  0.16414525177E+04  0.17978096174E+04  0.25500000920E-02 0. -1.
</event>
<event>
 5   0  0.1650221E-04  0.1536445E+04  0.7818609E-02  0.8860573E-01
        1   -1    0    0  501    0  0.00000000000E+00  0.00000000000E+00  0.10474832393E+04  0.10474832393E+04  0.50400001928E-02 0.  1.
       -1   -1    0    0    0  501  0.00000000000E+00  0.00000000000E+00 -0.56341294478E+03  0.56341294480E+03  0.50400001928E-02 0. -1.
    10030    2    1    2    0    0  0.00000000000E+00  0.00000000000E+00  0.48407029450E+03  0.16108961841E+04  0.15364447487E+04 0.  0.
        1    1    3    3  502    0 -0.71240585933E+03 -0.26805636275E+03  0.35093997388E+03  0.83817372143E+03  0.50400001928E-02 0. -1.
       -1    1    3    3    0  502  0.71240585933E+03  0.26805636275E+03  0.13313032063E+03  0.77272246267E+03  0.50400001928E-02 0.  1.
</event>
<event>
 5   0  0.1643565E-04  0.2004247E+04  0.7818609E-02  0.8604638E-01
       -1   -1    0    0    0  501  0.00000000000E+00  0.00000000000E+00  0.87886058910E+03  0.87886058911E+03  0.50400001928E-02 0.  1.
        1   -1    0    0  501    0  0.00000000000E+00  0.00000000000E+00 -0.11426746402E+04  0.11426746402E+04  0.50400001928E-02 0. -1.
    10030    2    1    2    0    0  0.00000000000E+00  0.00000000000E+00 -0.26381405112E+03  0.20215352293E+04  0.20042471978E+04 0.  0.
        2    1    3    3  502    0 -0.80005375326E+03 -0.45056382219E+03  0.27300053380E+03  0.95792643634E+03  0.25500000920E-02 0.  1.
       -2    1    3    3    0  502  0.80005375326E+03  0.45056382219E+03 -0.53681458492E+03  0.10636087930E+04  0.25500000920E-02 0. -1.
</event>
<event>
 5   0  0.3431030E-04  0.2025249E+04  0.7818609E-02  0.8594906E-01
       -2   -1    0    0    0  501  0.00000000000E+00  0.00000000000E+00  0.13572888503E+04  0.13572888503E+04  0.25500000920E-02 0. -1.
        2   -1    0    0  501    0  0.00000000000E+00  0.00000000000E+00 -0.75548316817E+03  0.75548316817E+03  0.25500000920E-02 0.  1.
    10030    2    1    2    0    0  0.00000000000E+00  0.00000000000E+00  0.60180568214E+03  0.21127720185E+04  0.20252494965E+04 0.  0.
        3    1    3    3  502    0 -0.46780266330E+02 -0.93121760900E+02  0.13516798880E+04  0.13556911837E+04  0.10100000352E+00 0. -1.
       -3    1    3    3    0  502  0.46780266330E+02  0.93121760900E+02 -0.74987420584E+03  0.75708083483E+03  0.10100000352E+00 0.  1.
</event>
<event>
 5   0  0.1643565E-04  0.2063434E+04  0.7818609E-02  0.8577524E-01
       -1   -1    0    0    0  501  0.00000000000E+00  0.00000000000E+00  0.10771287565E+04  0.10771287565E+04  0.50400001928E-02 0.  1.
        1   -1    0    0  501    0  0.00000000000E+00  0.00000000000E+00 -0.98822005031E+03  0.98822005032E+03  0.50400001928E-02 0. -1.
    10030    2    1    2    0    0  0.00000000000E+00  0.00000000000E+00  0.88908706146E+02  0.20653488068E+04  0.20634342577E+04 0.  0.
        2    1    3    3  502    0  0.93228539693E+02 -0.77413091602E+03 -0.63179815806E+03  0.10035632259E+04  0.25500000920E-02 0. -1.
       -2    1    3    3    0  502 -0.93228539693E+02  0.77413091602E+03  0.72070686421E+03  0.10617855809E+04  0.25500000920E-02 0.  1.
</event>
<event>
 5   0  0.3371947E-04  0.2072757E+04  0.7818609E-02  0.8573340E-01
        2   -1    0    0  501    0  0.00000000000E+00  0.00000000000E+00  0.13405947971E+04  0.13405947971E+04  0.25500000920E-02 0.  1.
       -2   -1    0    0    0  501  0.00000000000E+00  0.00000000000E+00 -0.80119659818E+03  0.80119659818E+03  0.25500000920E-02 0. -1.
    10030    2    1    2    0    0  0.00000000000E+00  0.00000000000E+00  0.53939819888E+03  0.21417913952E+04  0.20727566099E+04 0.  0.
        2    1    3    3  502    0  0.29267646875E+03 -0.68546414157E+03 -0.47439542806E+03  0.88349964737E+03  0.25500000920E-02 0. -1.
       -2    1    3    3    0  502 -0.29267646875E+03  0.68546414157E+03  0.10137936269E+04  0.12582917479E+04  0.25500000920E-02 0.  1.
</event>
<event>
 5   0  0.1708578E-04  0.1979536E+04  0.7818609E-02  0.8616249E-01
        1   -1    0    0  501    0  0.00000000000E+00  0.00000000000E+00  0.82281850163E+03  0.82281850165E+03  0.50400001928E-02 0.  1.
       -1   -1    0    0    0  501  0.00000000000E+00  0.00000000000E+00 -0.11905910317E+04  0.11905910317E+04  0.50400001928E-02 0. -1.
    10030    2    1    2    0    0  0.00000000000E+00  0.00000000000E+00 -0.36777253006E+03  0.20134095334E+04  0.19795356312E+04 0.  0.
        3    1    3    3  502    0 -0.26654283083E+03 -0.45729625364E+03  0.66677177664E+03  0.85132224016E+03  0.10100000352E+00 0.  1.
       -3    1    3    3    0  502  0.26654283083E+03  0.45729625364E+03 -0.10345443067E+04  0.11620872932E+04  0.10100000352E+00 0. -1.
</event>
<event>
 5   0  0.1650221E-04  0.1950508E+04  0.7818609E-02  0.8630116E-01
       -1   -1    0    0    0  501  0.00000000000E+00  0.00000000000E+00  0.74731709485E+03  0.74731709487E+03  0.50400001928E-02 0. -1.
        1   -1    0    0  501    0  0.00000000000E+00  0.00000000000E+00 -0.12727129255E+04  0.12727129255E+04  0.50400001928E-02 0.  1.
    10030    2    1    2    0    0  0.00000000000E+00  0.00000000000E+00 -0.52539583060E+03  0.20200300203E+04  0.19505077555E+04 0.  0.
        1    1    3    3  502    0 -0.56157705330E+02 -0.40529001344E+03 -0.11795237676E+04  0.12484750703E+04  0.50400001928E-02 0.  1.
       -1    1    3    3    0  502  0.56157705330E+02  0.40529001344E+03  0.65412793701E+03  0.77155495000E+03  0.50400001928E-02 0. -1.
</event>
<event>
 5   0  0.3395569E-04  0.1912463E+04  0.7818609E-02  0.8648677E-01
        2   -1    0    0  501    0  0.00000000000E+00  0.00000000000E+00  0.18013549339E+04  0.18013549339E+04  0.25500000920E-02 0.  1.
       -2   -1    0    0    0  501  0.00000000000E+00  0.00000000000E+00 -0.50760610106E+03  0.50760610107E+03  0.25500000920E-02 0. -1.
    10030    2    1    2    0    0  0.00000000000E+00  0.00000000000E+00  0.12937488328E+04  0.23089610350E+04  0.19124630764E+04 0.  0.
        4    1    3    3  502    0 -0.59250665794E+03  0.18973310475E+01  0.15530180531E+04  0.16622076963E+04  0.12699999809E+01 0.  1.
       -4    1    3    3    0  502  0.59250665794E+03 -0.18973310475E+01 -0.25926922026E+03  0.64675333864E+03  0.12699999809E+01 0. -1.
</event>
<event>
 5   0  0.3460648E-04  0.1948486E+04  0.7818609E-02  0.8631091E-01
       -2   -1    0    0    0  501  0.00000000000E+00  0.00000000000E+00  0.61902979660E+03  0.61902979661E+03  0.25500000920E-02 0. -1.
        2   -1    0    0  501    0  0.00000000000E+00  0.00000000000E+00 -0.15332858997E+04  0.15332858997E+04  0.25500000920E-02 0.  1.
    10030    2    1    2    0    0  0.00000000000E+00  0.00000000000E+00 -0.91425610308E+03  0.21523156963E+04  0.19484862418E+04 0.  0.
        5    1    3    3  502    0  0.41196632589E+03  0.59196896564E+03  0.26635640684E+03  0.76883765218E+03  0.46999998093E+01 0. -1.
       -5    1    3    3    0  502 -0.41196632589E+03 -0.59196896564E+03 -0.11806125099E+04  0.13834780441E+04  0.46999998093E+01 0.  1.
</event>
<event>
 5   0  0.1643565E-04  0.2011440E+04  0.7818609E-02  0.8601291E-01
        1   -1    0    0  501    0  0.00000000000E+00  0.00000000000E+00  0.13385762122E+04  0.13385762122E+04  0.50400001928E-02 0.  1.
       -1   -1    0    0    0  501  0.00000000000E+00  0.00000000000E+00 -0.75563345282E+03  0.75563345284E+03  0.50400001928E-02 0. -1.
    10030    2    1    2    0    0  0.00000000000E+00  0.00000000000E+00  0.58294275935E+03  0.20942096650E+04  0.20114402453E+04 0.  0.
        2    1    3    3  502    0 -0.47193309131E+03 -0.77658255671E+03 -0.15715605534E+03  0.92222520883E+03  0.25500000920E-02 0. -1.
       -2    1    3    3    0  502  0.47193309131E+03  0.77658255671E+03  0.74009881469E+03  0.11719844562E+04  0.25500000920E-02 0.  1.
</event>
<event>
 5   0  0.1643565E-04  0.2300530E+04  0.7818609E-02  0.8477712E-01
       -1   -1    0    0    0  501  0.00000000000E+00  0.00000000000E+00  0.91879436899E+03  0.91879436900E+03  0.50400001928E-02 0.  1.
        1   -1    0    0  501    0  0.00000000000E+00  0.00000000000E+00 -0.14400498618E+04  0.14400498618E+04  0.50400001928E-02 0. -1.
    10030    2    1    2    0    0  0.00000000000E+00  0.00000000000E+00 -0.52125549283E+03  0.23588442308E+04  0.23005301164E+04 0.  0.
        2    1    3    3  502    0 -0.48530081756E+02 -0.11136710431E+04  0.30273730636E+02  0.11151389420E+04  0.25500000920E-02 0.  1.
       -2    1    3    3    0  502  0.48530081756E+02  0.11136710431E+04 -0.55152922347E+03  0.12437052888E+04  0.25500000920E-02 0. -1.
</event>
<event>
 5   0  0.1650221E-04  0.1973260E+04  0.7818609E-02  0.8619226E-01
       -1   -1    0    0    0  501  0.00000000000E+00  0.00000000000E+00  0.76176399608E+03  0.76176399610E+03  0.50400001928E-02 0.  1.
        1   -1    0    0  501    0  0.00000000000E+00  0.00000000000E+00 -0.12778739255E+04  0.12778739255E+04  0.50400001928E-02 0. -1.
    10030    2    1    2    0    0  0.00000000000E+00  0.00000000000E+00 -0.51610992942E+03  0.20396379216E+04  0.19732595856E+04 0.  0.
        1    1    3    3  502    0 -0.24642462640E+03  0.55874033540E+03 -0.10590567697E+04  0.12225044378E+04  0.50400001928E-02 0. -1.
       -1    1    3    3    0  502  0.24642462640E+03 -0.55874033540E+03  0.54294684032E+03  0.81713348380E+03  0.50400001928E-02 0.  1.
</event>
<event>
 5   0  0.1664168E-04  0.1762943E+04  0.7818609E-02  0.8726258E-01
        1   -1    0    0  501    0  0.00000000000E+00  0.00000000000E+00  0.18185482257E+04  0.18185482258E+04  0.50400001928E-02 0. -1.
       -1   -1    0    0    0  501  0.00000000000E+00  0.00000000000E+00 -0.42725957134E+03  0.42725957137E+03  0.50400001928E-02 0.  1.
    10030    2    1    2    0    0  0.00000000000E+00  0.00000000000E+00  0.13912886544E+04  0.22458077971E+04  0.17629431476E+04 0.  0.
        5    1    3    3  502    0 -0.29905579466E+03 -0.67311528504E+03  0.78821018104E+02  0.74077891315E+03  0.46999998093E+01 0.  1.
       -5    1    3    3    0  502  0.29905579466E+03  0.67311528504E+03  0.13124676363E+04  0.15050288840E+04  0.46999998093E+01 0. -1.
</event>
<event>
 5   0  0.1708578E-04  0.1544950E+04  0.7818609E-02  0.8855100E-01
       -1   -1    0    0    0  501  0.00000000000E+00  0.00000000000E+00  0.34732273232E+03  0.34732273235E+03  0.50400001928E-02 0. -1.
        1   -1    0    0  501    0  0.00000000000E+00  0.00000000000E+00 -0.17180493287E+04  0.17180493287E+04  0.50400001928E-02 0.  1.
    10030    2    1    2    0    0  0.00000000000E+00  0.00000000000E+00 -0.13707265964E+04  0.20653720611E+04  0.15449499502E+04 0.  0.
        3    1    3    3  502    0  0.19252721789E+03 -0.24224849918E+03  0.26084822133E+03  0.40471331798E+03  0.10100000352E+00 0. -1.
       -3    1    3    3    0  502 -0.19252721789E+03  0.24224849918E+03 -0.16315748177E+04  0.16606587431E+04  0.10100000352E+00 0.  1.
</event>
<event>
 5   0  0.3387881E-04  0.1802353E+04  0.7818609E-02  0.8705049E-01
       -2   -1    0    0    0  501  0.00000000000E+00  0.00000000000E+00  0.80602611883E+03  0.80602611884E+03  0.25500000920E-02 0. -1.
        2   -1    0    0  501    0  0.00000000000E+00  0.00000000000E+00 -0.10075593622E+04  0.10075593622E+04  0.25500000920E-02 0.  1.
    10030    2    1    2    0    0  0.00000000000E+00  0.00000000000E+00 -0.20153324333E+03  0.18135854810E+04  0.18023530866E+04 0.  0.
        1    1    3    3  502    0  0.78889080749E+03  0.41551065350E+03 -0.23243066693E+03  0.92142380275E+03  0.50400001928E-02 0.  1.
       -1    1    3    3    0  502 -0.78889080749E+03 -0.41551065350E+03  0.30897423606E+02  0.89216167825E+03  0.50400001928E-02 0. -1.
</event>
<event>
 5   0  0.1664168E-04  0.1941154E+04  0.7818609E-02  0.8634638E-01
       -1   -1    0    0    0  501  0.00000000000E+00  0.00000000000E+00  0.42749623695E+03  0.42749623698E+03  0.50400001928E-02 0.  1.
        1   -1    0    0  501    0  0.00000000000E+00  0.00000000000E+00 -0.22035743718E+04  0.22035743718E+04  0.50400001928E-02 0. -1.
    10030    2    1    2    0    0  0.00000000000E+00  0.00000000000E+00 -0.17760781349E+04  0.26310706088E+04  0.19411540401E+04 0.  0.
        5    1    3    3  502    0 -0.38627729441E+03  0.53700845494E+03  0.74601374149E+02  0.66571441616E+03  0.46999998093E+01 0.  1.
       -5    1    3    3    0  502  0.38627729441E+03 -0.53700845494E+03 -0.18506795090E+04  0.19653561926E+04  0.46999998093E+01 0. -1.
</event>
<event>
 5   0  0.1650221E-04  0.1996677E+04  0.7818609E-02  0.8608176E-01
       -1   -1    0    0    0  501  0.00000000000E+00  0.00000000000E+00  0.90683076233E+03  0.90683076234E+03  0.50400001928E-02 0.  1.
        1   -1    0    0  501    0  0.00000000000E+00  0.00000000000E+00 -0.10990796854E+04  0.10990796855E+04  0.50400001928E-02 0. -1.
    10030    2    1    2    0    0  0.00000000000E+00  0.00000000000E+00 -0.19224892312E+03  0.20059104478E+04  0.19966765076E+04 0.  0.
        1    1    3    3  502    0 -0.95021467647E+03  0.26633362273E+03  0.55696027206E+02  0.98840456163E+03  0.50400001928E-02 0.  1.
       -1    1    3    3    0  502  0.95021467647E+03 -0.26633362273E+03 -0.24794495033E+03  0.10175058862E+04  0.50400001928E-02 0. -1.
</event>
<event>
 5   0  0.1650221E-04  0.1978404E+04  0.7818609E-02  0.8616785E-01
        1   -1    0    0  501    0  0.00000000000E+00  0.00000000000E+00  0.11131331500E+04  0.11131331501E+04  0.50400001928E-02 0. -1.
       -1   -1    0    0    0  501  0.00000000000E+00  0.00000000000E+00 -0.87906848020E+03  0.87906848021E+03  0.50400001928E-02 0.  1.
    10030    2    1    2    0    0  0.00000000000E+00  0.00000000000E+00  0.23406466985E+03  0.19922016303E+04  0.19784036661E+04 0.  0.
        1    1    3    3  502    0  0.78915418546E+03 -0.17902440825E+03 -0.45588754385E+03  0.92878819967E+03  0.50400001928E-02 0. -1.
       -1    1    3    3    0  502 -0.78915418546E+03  0.17902440825E+03  0.68995221370E+03  0.10634134306E+04  0.50400001928E-02 0.  1.
</event>
<event>
 5   0  0.1696052E-04  0.2047835E+04  0.7818609E-02  0.8584577E-01
       -1   -1    0    0    0  501  0.00000000000E+00  0.00000000000E+00  0.11963044899E+04  0.11963044899E+04  0.50400001928E-02 0. -1.
        1   -1    0    0  501    0  0.00000000000E+00  0.00000000000E+00 -0.87637118519E+03  0.87637118521E+03  0.50400001928E-02 0.  1.
    10030    2    1    2    0    0  0.00000000000E+00  0.00000000000E+00  0.31993330466E+03  0.20726756751E+04  0.20478347430E+04 0.  0.
        4    1    3    3  502    0  0.44446985883E+03  0.78796053046E+03 -0.32540226242E+03  0.96141744225E+03  0.12699999809E+01 0.  1.
       -4    1    3    3    0  502 -0.44446985883E+03 -0.78796053046E+03  0.64533556709E+03  0.11112582328E+04  0.12699999809E+01 0. -1.
</event>
<event>
 5   0  0.1708578E-04  0.1968512E+04  0.7818609E-02  0.8621485E-01
       -1   -1    0    0    0  501  0.00000000000E+00  0.00000000000E+00  0.56102088315E+03  0.56102088317E+03  0.50400001928E-02 0. -1.
        1   -1    0    0  501    0  0.00000000000E+00  0.00000000000E+00 -0.17267808582E+04  0.17267808583E+04  0.50400001928E-02 0.  1.
    10030    2    1    2    0    0  0.00000000000E+00  0.00000000000E+00 -0.11657599751E+04  0.22878017414E+04  0.19685122526E+04 0.  0.
        3    1    3    3  502    0 -0.35260019616E+03 -0.41451342698E+03  0.37027278493E+03  0.65821746022E+03  0.10100000352E+00 0. -1.
       -3    1    3    3    0  502  0.35260019616E+03  0.41451342698E+03 -0.15360327600E+04  0.16295842812E+04  0.10100000352E+00 0.  1.
</event>
<event>
 5   0  0.3387881E-04  0.2067553E+04  0.7818609E-02  0.8575673E-01
        2   -1    0    0  501    0  0.00000000000E+00  0.00000000000E+00  0.14787359148E+04  0.14787359148E+04  0.25500000920E-02 0.  1.
       -2   -1    0    0    0  501  0.00000000000E+00  0.00000000000E+00 -0.72270803450E+03  0.72270803450E+03  0.25500000920E-02 0. -1.
    10030    2    1    2    0    0  0.00000000000E+00  0.00000000000E+00  0.75602788032E+03  0.22014439493E+04  0.20675534591E+04 0.  0.
        1    1    3    3  502    0 -0.12651856850E+03 -0.14448535085E+03 -0.70354710734E+03  0.72928834973E+03  0.50400001928E-02 0. -1.
       -1    1    3    3    0  502  0.12651856850E+03  0.14448535085E+03  0.14595749877E+04  0.14721555996E+04  0.50400001928E-02 0.  1.
</event>
<event>
 5   0  0.3431030E-04  0.2062646E+04  0.7818609E-02  0.8577879E-01
        2   -1    0    0  501    0  0.00000000000E+00  0.00000000000E+00  0.12690504791E+04  0.12690504791E+04  0.25500000920E-02 0. -1.
       -2   -1    0    0    0  501  0.00000000000E+00  0.00000000000E+00 -0.83812830493E+03  0.83812830494E+03  0.25500000920E-02 0.  1.
    10030    2    1    2    0    0  0.00000000000E+00  0.00000000000E+00  0.43092217414E+03  0.21071787840E+04  0.20626459967E+04 0.  0.
        3    1    3    3  502    0  0.14904168139E+03 -0.39835359234E+03 -0.74435973011E+03  0.85730416150E+03  0.10100000352E+00 0.  1.
       -3    1    3    3    0  502 -0.14904168139E+03  0.39835359234E+03  0.11752819042E+04  0.12498746225E+04  0.10100000352E+00 0. -1.
</event>
<event>
 5   0  0.1708578E-04  0.1998564E+04  0.7818609E-02  0.8607292E-01
       -1   -1    0    0    0  501  0.00000000000E+00  0.00000000000E+00  0.80587453486E+03  0.80587453488E+03  0.50400001928E-02 0.  1.
        1   -1    0    0  501    0  0.00000000000E+00  0.00000000000E+00 -0.12391067635E+04  0.12391067635E+04  0.50400001928E-02 0. -1.
    10030    2    1    2    0    0  0.00000000000E+00  0.00000000000E+00 -0.43323222865E+03  0.20449812984E+04  0.19985640713E+04 0.  0.
        3    1    3    3  502    0  0.73769443729E+03  0.67398508741E+03 -0.22761736454E+03  0.10248212799E+04  0.10100000352E+00 0. -1.
       -3    1    3    3    0  502 -0.73769443729E+03 -0.67398508741E+03 -0.20561486411E+03  0.10201600185E+04  0.10100000352E+00 0.  1.
</event>
<event>
 5   0  0.1222488E-04  0.1835600E+04  0.7818609E-02  0.8687594E-01
       -4   -1    0    0    0  501  0.00000000000E+00  0.00000000000E+00  0.79815961021E+03  0.79816062060E+03  0.12699999809E+01 0. -1.
        4   -1    0    0  501    0  0.00000000000E+00  0.00000000000E+00 -0.10553718264E+04  0.10553725906E+04  0.12699999809E+01 0.  1.
    10030    2    1    2    0    0  0.00000000000E+00  0.00000000000E+00 -0.25721221622E+03  0.18535332112E+04  0.18355999675E+04 0.  0.
        4    1    3    3  502    0 -0.26522611429E+03 -0.65066050110E+03  0.46762952028E+03  0.84402781976E+03  0.12699999809E+01 0. -1.
       -4    1    3    3    0  502  0.26522611429E+03  0.65066050110E+03 -0.72484173650E+03  0.10095053914E+04  0.12699999809E+01 0.  1.
</event>
<event>
 5   0  0.1696052E-04  0.1519325E+04  0.7818609E-02  0.8871703E-01
        1   -1    0    0  501    0  0.00000000000E+00  0.00000000000E+00  0.13324029791E+04  0.13324029792E+04  0.50400001928E-02 0. -1.
       -1   -1    0    0    0  501  0.00000000000E+00  0.00000000000E+00 -0.43311776988E+03  0.43311776991E+03  0.50400001928E-02 0.  1.
    10030    2    1    2    0    0  0.00000000000E+00  0.00000000000E+00  0.89928520926E+03  0.17655207491E+04  0.15193253857E+04 0.  0.
        4    1    3    3  502    0  0.47817446068E+03  0.15424840475E+03 -0.21245902629E+03  0.54551245262E+03  0.12699999809E+01 0.  1.
       -4    1    3    3    0  502 -0.47817446068E+03 -0.15424840475E+03  0.11117442356E+04  0.12200082964E+04  0.12699999809E+01 0. -1.
</event>
<event>
 5   0  0.1643565E-04  0.1997057E+04  0.7818609E-02  0.8607998E-01
        1   -1    0    0  501    0  0.00000000000E+00  0.00000000000E+00  0.16197823316E+04  0.16197823316E+04  0.50400001928E-02 0.  1.
       -1   -1    0    0    0  501  0.00000000000E+00  0.00000000000E+00 -0.61555157978E+03  0.61555157980E+03  0.50400001928E-02 0. -1.
    10030    2    1    2    0    0  0.00000000000E+00  0.00000000000E+00  0.10042307518E+04  0.22353339114E+04  0.19970574084E+04 0.  0.
        2    1    3    3  502    0  0.72169451884E+03 -0.21584545962E+03 -0.23154963636E+03  0.78806565403E+03  0.25500000920E-02 0. -1.
       -2    1    3    3    0  502 -0.72169451884E+03  0.21584545962E+03  0.12357803881E+04  0.14472682573E+04  0.25500000920E-02 0.  1.
</event>
<event>
 5   0  0.1650221E-04  0.2022608E+04  0.7818609E-02  0.8596123E-01
       -1   -1    0    0    0  501  0.00000000000E+00  0.00000000000E+00  0.63610304896E+03  0.63610304898E+03  0.50400001928E-02 0. -1.
        1   -1    0    0  501    0  0.00000000000E+00  0.00000000000E+00 -0.16078146113E+04  0.16078146113E+04  0.50400001928E-02 0.  1.
    10030    2    1    2    0    0  0.00000000000E+00  0.00000000000E+00 -0.97171156230E+03  0.22439176602E+04  0.20226079960E+04 0.  0.
        1    1    3    3  502    0 -0.87875351230E+03 -0.95086444969E+02 -0.10310380508E+04  0.13580458864E+04  0.50400001928E-02 0.  1.
       -1    1    3    3    0  502  0.87875351230E+03  0.95086444969E+02  0.59326488502E+02  0.88587177383E+03  0.50400001928E-02 0. -1.
</event>
<event>
 5   0  0.1664168E-04  0.2079444E+04  0.7818609E-02  0.8570353E-01
        1   -1    0    0  501    0  0.00000000000E+00  0.00000000000E+00  0.19972703698E+04  0.19972703699E+04  0.50400001928E-02 0.  1.
       -1   -1    0    0    0  501  0.00000000000E+00  0.00000000000E+00 -0.54124953440E+03  0.54124953442E+03  0.50400001928E-02 0. -1.
    10030    2    1    2    0    0  0.00000000000E+00  0.00000000000E+00  0.14560208355E+04  0.25385199043E+04  0.20794438274E+04 0.  0.
        5    1    3    3  502    0 -0.36528407602E+03  0.97190550402E+03  0.66151714293E+03  0.12311213528E+04  0.46999998093E+01 0.  1.
       -5    1    3    3    0  502  0.36528407602E+03 -0.97190550402E+03  0.79450369252E+03  0.13073985515E+04  0.46999998093E+01 0. -1.
</event>
<event>
 5   0  0.3460648E-04  0.1993139E+04  0.7818609E-02  0.8609835E-01
       -2   -1    0    0    0  501  0.00000000000E+00  0.00000000000E+00  0.58166472236E+03  0.58166472236E+03  0.25500000920E-02 0. -1.
        2   -1    0    0  501    0  0.00000000000E+00  0.00000000000E+00 -0.17074278947E+04  0.17074278947E+04  0.25500000920E-02 0.  1.
    10030    2    1    2    0    0  0.00000000000E+00  0.00000000000E+00 -0.11257631724E+04  0.22890926171E+04  0.19931388033E+04 0.  0.
        5    1    3    3  502    0 -0.14437209888E+03 -0.95099160861E+03 -0.26361298446E+03  0.99736765446E+03  0.46999998093E+01 0. -1.
       -5    1    3    3    0  502  0.14437209888E+03  0.95099160861E+03 -0.86215018793E+03  0.12917249626E+04  0.46999998093E+01 0.  1.
</event>
<event>
 5   0  0.3395569E-04  0.2023104E+04  0.7818609E-02  0.8595894E-01
       -2   -1    0    0    0  501  0.00000000000E+00  0.00000000000E+00  0.14916629805E+04  0.14916629805E+04  0.25500000920E-02 0. -1.
        2   -1    0    0  501    0  0.00000000000E+00  0.00000000000E+00 -0.68597098238E+03  0.68597098238E+03  0.25500000920E-02 0.  1.
    10030    2    1    2    0    0  0.00000000000E+00  0.00000000000E+00  0.80569199816E+03  0.21776339629E+04  0.20231040706E+04 0.  0.
        4    1    3    3  502    0  0.15905063774E+03 -0.81256861989E+03  0.10283261971E+04  0.13202353002E+04  0.12699999809E+01 0. -1.
       -4    1    3    3    0  502 -0.15905063774E+03  0.81256861989E+03 -0.22263419892E+03  0.85739866272E+03  0.12699999809E+01 0.  1.
</event>
<event>
 5   0  0.1664168E-04  0.1969995E+04  0.7818609E-02  0.8620779E-01
       -1   -1    0    0    0  501  0.00000000000E+00  0.00000000000E+00  0.67859731436E+03  0.67859731438E+03  0.50400001928E-02 0. -1.
        1   -1    0    0  501    0  0.00000000000E+00  0.00000000000E+00 -0.14297437289E+04  0.14297437289E+04  0.50400001928E-02 0.  1.
    10030    2    1    2    0    0  0.00000000000E+00  0.00000000000E+00 -0.75114641450E+03  0.21083410433E+04  0.19699951824E+04 0.  0.
        5    1    3    3  502    0 -0.76832940242E+02 -0.65735483647E+03  0.40516379499E+03  0.77601447957E+03  0.46999998093E+01 0. -1.
       -5    1    3    3    0  502  0.76832940242E+02  0.65735483647E+03 -0.11563102095E+04  0.13323265637E+04  0.46999998093E+01 0.  1.
</event>
<event>
 5   0  0.1222488E-04  0.1997236E+04  0.7818609E-02  0.8607914E-01
        3   -1    0    0  501    0  0.00000000000E+00  0.00000000000E+00  0.87375514860E+03  0.87375515444E+03  0.10100000352E+00 0.  1.
       -3   -1    0    0    0  501  0.00000000000E+00  0.00000000000E+00 -0.11413236803E+04  0.11413236847E+04  0.10100000352E+00 0. -1.
    10030    2    1    2    0    0  0.00000000000E+00  0.00000000000E+00 -0.26756853167E+03  0.20150788392E+04  0.19972355417E+04 0.  0.
        1    1    3    3  502    0 -0.60027227583E+03  0.22929037516E+03  0.63746415948E+03  0.90513061815E+03  0.50400001928E-02 0.  1.
       -1    1    3    3    0  502  0.60027227583E+03 -0.22929037516E+03 -0.90503269115E+03  0.11099482210E+04  0.50400001928E-02 0. -1.
</event>
<event>
 5   0  0.3387881E-04  0.1974513E+04  0.7818609E-02  0.8618630E-01
       -2   -1    0    0    0  501  0.00000000000E+00  0.00000000000E+00  0.14701887651E+04  0.14701887651E+04  0.25500000920E-02 0. -1.
        2   -1    0    0  501    0  0.00000000000E+00  0.00000000000E+00 -0.66295944624E+03  0.66295944625E+03  0.25500000920E-02 0.  1.
    10030    2    1    2    0    0  0.00000000000E+00  0.00000000000E+00  0.80722931885E+03  0.21331482113E+04  0.19745131345E+04 0.  0.
        1    1    3    3  502    0 -0.35097320487E+03  0.45622403165E+03  0.12701487639E+04  0.13944893116E+04  0.50400001928E-02 0. -1.
       -1    1    3    3    0  502  0.35097320487E+03 -0.45622403165E+03 -0.46291944505E+03  0.73865889978E+03  0.50400001928E-02 0.  1.
</event>
<event>
 5   0  0.3395569E-04  0.1953663E+04  0.7818609E-02  0.8628597E-01
       -2   -1    0    0    0  501  0.00000000000E+00  0.00000000000E+00  0.52202578278E+03  0.52202578279E+03  0.25500000920E-02 0. -1.
        2   -1    0    0  501    0  0.00000000000E+00  0.00000000000E+00 -0.18278777102E+04  0.18278777102E+04  0.25500000920E-02 0.  1.
    10030    2    1    2    0    0  0.00000000000E+00  0.00000000000E+00 -0.13058519274E+04  0.23499034930E+04  0.19536625016E+04 0.  0.
        4    1    3    3  502    0  0.41959752484E+03  0.33056120796E+03  0.33078992052E+03  0.62829641052E+03  0.12699999809E+01 0. -1.
       -4    1    3    3    0  502 -0.41959752484E+03 -0.33056120796E+03 -0.16366418479E+04  0.17216070825E+04  0.12699999809E+01 0.  1.
</event>
<event>
 5   0  0.3395569E-04  0.2034737E+04  0.7818609E-02  0.8590550E-01
       -2   -1    0    0    0  501  0.00000000000E+00  0.00000000000E+00  0.43902664992E+03  0.43902664993E+03  0.25500000920E-02 0. -1.
        2   -1    0    0  501    0  0.00000000000E+00  0.00000000000E+00 -0.23575754531E+04  0.23575754531E+04  0.25500000920E-02 0.  1.
    10030    2    1    2    0    0  0.00000000000E+00  0.00000000000E+00 -0.19185488032E+04  0.27966021030E+04  0.20347367919E+04 0.  0.
        4    1    3    3  502    0 -0.78893110770E+03 -0.50485471988E+03 -0.41338837610E+03  0.10238076691E+04  0.12699999809E+01 0. -1.
       -4    1    3    3    0  502  0.78893110770E+03  0.50485471988E+03 -0.15051604271E+04  0.17727944339E+04  0.12699999809E+01 0.  1.
</event>
<event>
 5   0  0.1650221E-04  0.1067522E+04  0.7818609E-02  0.9237438E-01
       -1   -1    0    0    0  501  0.00000000000E+00  0.00000000000E+00  0.26539653541E+03  0.26539653546E+03  0.50400001928E-02 0. -1.
        1   -1    0    0  501    0  0.00000000000E+00  0.00000000000E+00 -0.10734919944E+04  0.10734919944E+04  0.50400001928E-02 0.  1.
    10030    2    1    2    0    0  0.00000000000E+00  0.00000000000E+00 -0.80809545900E+03  0.13388885299E+04  0.10675224703E+04 0.  0.
        1    1    3    3  502    0  0.45202531673E+03 -0.17607753451E+03 -0.12480577398E+03  0.50090584581E+03  0.50400001928E-02 0.  1.
       -1    1    3    3    0  502 -0.45202531673E+03  0.17607753451E+03 -0.68328968501E+03  0.83798268407E+03  0.50400001928E-02 0. -1.
</event>
<event>
 5   0  0.1708578E-04  0.1989243E+04  0.7818609E-02  0.8611666E-01
       -1   -1    0    0    0  501  0.00000000000E+00  0.00000000000E+00  0.63311635949E+03  0.63311635951E+03  0.50400001928E-02 0.  1.
        1   -1    0    0  501    0  0.00000000000E+00  0.00000000000E+00 -0.15625442408E+04  0.15625442408E+04  0.50400001928E-02 0. -1.
    10030    2    1    2    0    0  0.00000000000E+00  0.00000000000E+00 -0.92942788130E+03  0.21956606003E+04  0.19892433952E+04 0.  0.
        3    1    3    3  502    0 -0.24502309814E+03  0.90234191208E+03 -0.83904395502E+03  0.12562850049E+04  0.10100000352E+00 0. -1.
       -3    1    3    3    0  502  0.24502309814E+03 -0.90234191208E+03 -0.90383926289E+02  0.93937559541E+03  0.10100000352E+00 0.  1.
</event>
<event>
 5   0  0.1708578E-04  0.2005485E+04  0.7818609E-02  0.8604061E-01
        1   -1    0    0  501    0  0.00000000000E+00  0.00000000000E+00  0.20037104952E+04  0.20037104952E+04  0.50400001928E-02 0. -1.
       -1   -1    0    0    0  501  0.00000000000E+00  0.00000000000E+00 -0.50181517552E+03  0.50181517554E+03  0.50400001928E-02 0.  1.
    10030    2    1    2    0    0  0.00000000000E+00  0.00000000000E+00  0.15018953197E+04  0.25055256708E+04  0.20054848131E+04 0.  0.
        3    1    3    3  502    0  0.94615931048E+03  0.32994544170E+03  0.79787498573E+03  0.12808926334E+04  0.10100000352E+00 0.  1.
       -3    1    3    3    0  502 -0.94615931048E+03 -0.32994544170E+03  0.70402033395E+03  0.12246330373E+04  0.10100000352E+00 0. -1.
</event>
<event>
 5   0  0.3395569E-04  0.1860651E+04  0.7818609E-02  0.8674695E-01
        2   -1    0    0  501    0  0.00000000000E+00  0.00000000000E+00  0.56173254381E+03  0.56173254382E+03  0.25500000920E-02 0. -1.
       -2   -1    0    0    0  501  0.00000000000E+00  0.00000000000E+00 -0.15407779048E+04  0.15407779048E+04  0.25500000920E-02 0.  1.
    10030    2    1    2    0    0  0.00000000000E+00  0.00000000000E+00 -0.97904536102E+03  0.21025104486E+04  0.18606505227E+04 0.  0.
        4    1    3    3  502    0  0.84219519684E+03  0.34109389503E+03 -0.26390508594E+03  0.94619517125E+03  0.12699999809E+01 0.  1.
       -4    1    3    3    0  502 -0.84219519684E+03 -0.34109389503E+03 -0.71514027508E+03  0.11563152774E+04  0.12699999809E+01 0. -1.
</event>
<event>
 5   0  0.1696052E-04  0.1990691E+04  0.7818609E-02  0.8610985E-01
        1   -1    0    0  501    0  0.00000000000E+00  0.00000000000E+00  0.94010805238E+03  0.94010805239E+03  0.50400001928E-02 0.  1.
       -1   -1    0    0    0  501  0.00000000000E+00  0.00000000000E+00 -0.10538287521E+04  0.10538287521E+04  0.50400001928E-02 0. -1.
    10030    2    1    2    0    0  0.00000000000E+00  0.00000000000E+00 -0.11372069975E+03  0.19939368045E+04  0.19906912324E+04 0.  0.
        4    1    3    3  502    0  0.26207458756E+03 -0.85948358417E+03 -0.48571276875E+03  0.10214272502E+04  0.12699999809E+01 0. -1.
       -4    1    3    3    0  502 -0.26207458756E+03  0.85948358417E+03  0.37199206900E+03  0.97250955430E+03  0.12699999809E+01 0.  1.
</event>
<event>
 5   0  0.3387881E-04  0.2021811E+04  0.7818609E-02  0.8596491E-01
        2   -1    0    0  501    0  0.00000000000E+00  0.00000000000E+00  0.85100933786E+03  0.85100933787E+03  0.25500000920E-02 0.  1.
       -2   -1    0    0    0  501  0.00000000000E+00  0.00000000000E+00 -0.12008441910E+04  0.12008441910E+04  0.25500000920E-02 0. -1.
    10030    2    1    2    0    0  0.00000000000E+00  0.00000000000E+00 -0.34983485315E+03  0.20518535289E+04  0.20218106933E+04 0.  0.
        1    1    3    3  502    0  0.46027517306E+03  0.26324942835E+03  0.69855531039E+03  0.87700229086E+03  0.50400001928E-02 0.  1.
       -1    1    3    3    0  502 -0.46027517306E+03 -0.26324942835E+03 -0.10483901635E+04  0.11748512380E+04  0.50400001928E-02 0. -1.
</event>
<event>
 5   0  0.1664168E-04  0.1747437E+04  0.7818609E-02  0.8734762E-01
        1   -1    0    0  501    0  0.00000000000E+00  0.00000000000E+00  0.15253724235E+04  0.15253724235E+04  0.50400001928E-02 0.  1.
       -1   -1    0    0    0  501  0.00000000000E+00  0.00000000000E+00 -0.50045753960E+03  0.50045753962E+03  0.50400001928E-02 0. -1.
    10030    2    1    2    0    0  0.00000000000E+00  0.00000000000E+00  0.10249148839E+04  0.20258299632E+04  0.17474371292E+04 0.  0.
        5    1    3    3  502    0  0.65519245713E+03  0.55945563421E+03  0.34408005747E+03  0.92772891432E+03  0.46999998093E+01 0.  1.
       -5    1    3    3    0  502 -0.65519245713E+03 -0.55945563421E+03  0.68083482646E+03  0.10981010488E+04  0.46999998093E+01 0. -1.
</event>
<event>
 5   0  0.3431030E-04  0.2205304E+04  0.7818609E-02  0.8516224E-01
       -2   -1    0    0    0  501  0.00000000000E+00  0.00000000000E+00  0.49439677951E+03  0.49439677952E+03  0.25500000920E-02 0.  1.
        2   -1    0    0  501    0  0.00000000000E+00  0.00000000000E+00 -0.24592421743E+04  0.24592421743E+04  0.25500000920E-02 0. -1.
    10030    2    1    2    0    0  0.00000000000E+00  0.00000000000E+00 -0.19648453948E+04  0.29536389538E+04  0.22053039800E+04 0.  0.
        3    1    3    3  502    0 -0.46020667954E+03 -0.23778546516E+03 -0.22861317559E+04  0.23440841561E+04  0.10100000352E+00 0. -1.
       -3    1    3    3    0  502  0.46020667954E+03  0.23778546516E+03  0.32128636114E+03  0.60955479769E+03  0.10100000352E+00 0.  1.
</event>
<event>
 5   0  0.3387881E-04  0.1977506E+04  0.7818609E-02  0.8617210E-01
        2   -1    0    0  501    0  0.00000000000E+00  0.00000000000E+00  0.12060188576E+04  0.12060188576E+04  0.25500000920E-02 0. -1.
       -2   -1    0    0    0  501  0.00000000000E+00  0.00000000000E+00 -0.81062774569E+03  0.81062774570E+03  0.25500000920E-02 0.  1.
    10030    2    1    2    0    0  0.00000000000E+00  0.00000000000E+00  0.39539111195E+03  0.20166466033E+04  0.19775058512E+04 0.  0.
        1    1    3    3  502    0  0.82819603655E+02  0.33004719895E+03 -0.74903387113E+03  0.82270406612E+03  0.50400001928E-02 0.  1.
       -1    1    3    3    0  502 -0.82819603655E+02 -0.33004719895E+03  0.11444249831E+04  0.11939425372E+04  0.50400001928E-02 0. -1.
</event>
<event>
 5   0  0.1664168E-04  0.2057446E+04  0.7818609E-02  0.8580224E-01
        1   -1    0    0  501    0  0.00000000000E+00  0.00000000000E+00  0.11834981271E+04  0.11834981271E+04  0.50400001928E-02 0. -1.
       -1   -1    0    0    0  501  0.00000000000E+00  0.00000000000E+00 -0.89418914298E+03  0.89418914300E+03  0.50400001928E-02 0.  1.
    10030    2    1    2    0    0  0.00000000000E+00  0.00000000000E+00  0.28930898407E+03  0.20776872701E+04  0.20574461606E+04 0.  0.
        5    1    3    3  502    0 -0.59574903241E+03 -0.70236064306E+03  0.60744430202E+03  0.11032851184E+04  0.46999998093E+01 0.  1.
       -5    1    3    3    0  502  0.59574903241E+03  0.70236064306E+03 -0.31813531795E+03  0.97440215161E+03  0.46999998093E+01 0. -1.
</event>
<event>
 5   0  0.1643565E-04  0.1776065E+04  0.7818609E-02  0.8719132E-01
       -1   -1    0    0    0  501  0.00000000000E+00  0.00000000000E+00  0.62961461121E+03  0.62961461123E+03  0.50400001928E-02 0.  1.
        1   -1    0    0  501    0  0.00000000000E+00  0.00000000000E+00 -0.12525147335E+04  0.12525147335E+04  0.50400001928E-02 0. -1.
    10030    2    1    2    0    0  0.00000000000E+00  0.00000000000E+00 -0.62290012232E+03  0.18821293448E+04  0.17760648378E+04 0.  0.
        2    1    3    3  502    0  0.28841714798E+03  0.35162251902E+03 -0.11197444599E+04  0.12085737473E+04  0.25500000920E-02 0. -1.
       -2    1    3    3    0  502 -0.28841714798E+03 -0.35162251902E+03  0.49684433757E+03  0.67355559749E+03  0.25500000920E-02 0.  1.
</event>
<event>
 5   0  0.3371947E-04  0.1990501E+04  0.7818609E-02  0.8611075E-01
        2   -1    0    0  501    0  0.00000000000E+00  0.00000000000E+00  0.15736954339E+04  0.15736954339E+04  0.25500000920E-02 0. -1.
       -2   -1    0    0    0  501  0.00000000000E+00  0.00000000000E+00 -0.62942520847E+03  0.62942520847E+03  0.25500000920E-02 0.  1.
    10030    2    1    2    0    0  0.00000000000E+00  0.00000000000E+00  0.94427022546E+03  0.22031206424E+04  0.19905010189E+04 0.  0.
        2    1    3    3  502    0  0.90226468311E+03  0.26383554973E+03  0.83390150874E+03  0.12566154869E+04  0.25500000920E-02 0. -1.
       -2    1    3    3    0  502 -0.90226468311E+03 -0.26383554973E+03  0.11036871672E+03  0.94650515547E+03  0.25500000920E-02 0.  1.
</event>
<event>
 5   0  0.3371947E-04  0.1992769E+04  0.7818609E-02  0.8610009E-01
       -2   -1    0    0    0  501  0.00000000000E+00  0.00000000000E+00  0.11242970671E+04  0.11242970671E+04  0.25500000920E-02 0. -1.
        2   -1    0    0  501    0  0.00000000000E+00  0.00000000000E+00 -0.88302450683E+03  0.88302450684E+03  0.25500000920E-02 0.  1.
    10030    2    1    2    0    0  0.00000000000E+00  0.00000000000E+00  0.24127256024E+03  0.20073215739E+04  0.19927687906E+04 0.  0.
        2    1    3    3  502    0  0.59614284351E+02 -0.91755118793E+03  0.50727239437E+03  0.10501330047E+04  0.25500000920E-02 0. -1.
       -2    1    3    3    0  502 -0.59614284351E+02  0.91755118793E+03 -0.26599983413E+03  0.95718856926E+03  0.25500000920E-02 0.  1.
</event>
<event>
 5   0  0.1708578E-04  0.1995963E+04  0.7818609E-02  0.8608510E-01
        1   -1    0    0  501    0  0.00000000000E+00  0.00000000000E+00  0.10912226974E+04  0.10912226974E+04  0.50400001928E-02 0. -1.
       -1   -1    0    0    0  501  0.00000000000E+00  0.00000000000E+00 -0.91270751207E+03  0.91270751208E+03  0.50400001928E-02 0.  1.
    10030    2    1    2    0    0  0.00000000000E+00  0.00000000000E+00  0.17851518536E+03  0.20039302095E+04  0.19959630791E+04 0.  0.
        3    1    3    3  502    0 -0.33941212044E+03  0.23517580120E+03  0.10014318580E+04  0.10832239017E+04  0.10100000352E+00 0. -1.
       -3    1    3    3    0  502  0.33941212044E+03 -0.23517580120E+03 -0.82291667259E+03  0.92070630779E+03  0.10100000352E+00 0.  1.
</event>
<event>
 5   0  0.1643565E-04  0.2051881E+04  0.7818609E-02  0.8582741E-01
       -1   -1    0    0    0  501  0.00000000000E+00  0.00000000000E+00  0.61211815471E+03  0.61211815473E+03  0.50400001928E-02 0.  1.
        1   -1    0    0  501    0  0.00000000000E+00  0.00000000000E+00 -0.17195278444E+04  0.17195278444E+04  0.50400001928E-02 0. -1.
    10030    2    1    2    0    0  0.00000000000E+00  0.00000000000E+00 -0.11074096897E+04  0.23316459992E+04  0.20518812940E+04 0.  0.
        2    1    3    3  502    0 -0.47671952307E+03  0.88215253357E+03 -0.30709008767E+03  0.10486939106E+04  0.25500000920E-02 0. -1.
       -2    1    3    3    0  502  0.47671952307E+03 -0.88215253357E+03 -0.80031960205E+03  0.12829520886E+04  0.25500000920E-02 0.  1.
</event>
<event>
 5   0  0.3387881E-04  0.1952209E+04  0.7818609E-02  0.8629296E-01
       -2   -1    0    0    0  501  0.00000000000E+00  0.00000000000E+00  0.55876746330E+03  0.55876746331E+03  0.25500000920E-02 0.  1.
        2   -1    0    0  501    0  0.00000000000E+00  0.00000000000E+00 -0.17051465822E+04  0.17051465822E+04  0.25500000920E-02 0. -1.
    10030    2    1    2    0    0  0.00000000000E+00  0.00000000000E+00 -0.11463791189E+04  0.22639140455E+04  0.19522094460E+04 0.  0.
        1    1    3    3  502    0  0.21308071906E+03 -0.42322020349E+03 -0.15628295999E+04  0.16330814713E+04  0.50400001928E-02 0. -1.
       -1    1    3    3    0  502 -0.21308071906E+03  0.42322020349E+03  0.41645048104E+03  0.63083257419E+03  0.50400001928E-02 0.  1.
</event>
<event>
 5   0  0.1696052E-04  0.1900574E+04  0.7818609E-02  0.8654571E-01
        1   -1    0    0  501    0  0.00000000000E+00  0.00000000000E+00  0.15989023339E+04  0.15989023339E+04  0.50400001928E-02 0. -1.
       -1   -1    0    0    0  501  0.00000000000E+00  0.00000000000E+00 -0.56479068572E+03  0.56479068574E+03  0.50400001928E-02 0.  1.
    10030    2    1    2    0    0  0.00000000000E+00  0.00000000000E+00  0.10341116482E+04  0.21636930197E+04  0.19005737508E+04 0.  0.
        4    1    3    3  502    0  0.70979422711E+03 -0.39877827585E+03 -0.40910363986E+02  0.81517312818E+03  0.12699999809E+01 0.  1.
       -4    1    3    3    0  502 -0.70979422711E+03  0.39877827585E+03  0.10750220122E+04  0.13485198915E+04  0.12699999809E+01 0. -1.
</event>
<event>
 5   0  0.3387881E-04  0.1985963E+04  0.7818609E-02  0.8613212E-01
       -2   -1    0    0    0  501  0.00000000000E+00  0.00000000000E+00  0.79584423245E+03  0.79584423246E+03  0.25500000920E-02 0.  1.
        2   -1    0    0  501    0  0.00000000000E+00  0.00000000000E+00 -0.12389514571E+04  0.12389514571E+04  0.25500000920E-02 0. -1.
    10030    2    1    2    0    0  0.00000000000E+00  0.00000000000E+00 -0.44310722466E+03  0.20347956896E+04  0.19859631129E+04 0.  0.
        1    1    3    3  502    0 -0.80463767956E+03 -0.55959319032E+03 -0.58177344104E+02  0.98182021645E+03  0.50400001928E-02 0.  1.
       -1    1    3    3    0  502  0.80463767956E+03  0.55959319032E+03 -0.38492988056E+03  0.10529754731E+04  0.50400001928E-02 0. -1.
</event>
<event>
 5   0  0.1650221E-04  0.2011988E+04  0.7818609E-02  0.8601036E-01
       -1   -1    0    0    0  501  0.00000000000E+00  0.00000000000E+00  0.56618520679E+03  0.56618520681E+03  0.50400001928E-02 0. -1.
        1   -1    0    0  501    0  0.00000000000E+00  0.00000000000E+00 -0.17874430361E+04  0.17874430361E+04  0.50400001928E-02 0.  1.
    10030    2    1    2    0    0  0.00000000000E+00  0.00000000000E+00 -0.12212578293E+04  0.23536282429E+04  0.20119878778E+04 0.  0.
        1    1    3    3  502    0 -0.45675942427E+03  0.85865126346E+03 -0.91141293548E+03  0.13328858552E+04  0.50400001928E-02 0. -1.
       -1    1    3    3    0  502  0.45675942427E+03 -0.85865126346E+03 -0.30984489384E+03  0.10207423878E+04  0.50400001928E-02 0.  1.
</event>
<event>
 5   0  0.3395569E-04  0.1991837E+04  0.7818609E-02  0.8610447E-01
        2   -1    0    0  501    0  0.00000000000E+00  0.00000000000E+00  0.12167222336E+04  0.12167222336E+04  0.25500000920E-02 0.  1.
       -2   -1    0    0    0  501  0.00000000000E+00  0.00000000000E+00 -0.81518457282E+03  0.81518457282E+03  0.25500000920E-02 0. -1.
    10030    2    1    2    0    0  0.00000000000E+00  0.00000000000E+00  0.40153766080E+03  0.20319068064E+04  0.19918365337E+04 0.  0.
        4    1    3    3  502    0 -0.16010354418E+02 -0.38067537531E+02  0.12158475768E+04  0.12165493873E+04  0.12699999809E+01 0.  1.
       -4    1    3    3    0  502  0.16010354418E+02  0.38067537531E+02 -0.81430991596E+03  0.81535741917E+03  0.12699999809E+01 0. -1.
</event>
<event>
 5   0  0.1222488E-04  0.1399300E+04  0.7818609E-02  0.8954325E-01
       -3   -1    0    0    0  501  0.00000000000E+00  0.00000000000E+00  0.42947071945E+03  0.42947073133E+03  0.10100000352E+00 0. -1.
        3   -1    0    0  501    0  0.00000000000E+00  0.00000000000E+00 -0.11397987729E+04  0.11397987774E+04  0.10100000352E+00 0.  1.
    10030    2    1    2    0    0  0.00000000000E+00  0.00000000000E+00 -0.71032805348E+03  0.15692695087E+04  0.13993001277E+04 0.  0.
        1    1    3    3  502    0 -0.24304536829E+02  0.21297155409E+03  0.39173884957E+03  0.44655001920E+03  0.50400001928E-02 0. -1.
       -1    1    3    3    0  502  0.24304536829E+02 -0.21297155409E+03 -0.11020669031E+04  0.11227194895E+04  0.50400001928E-02 0.  1.
</event>
<event>
 5   0  0.3431030E-04  0.2082754E+04  0.7818609E-02  0.8568878E-01
        2   -1    0    0  501    0  0.00000000000E+00  0.00000000000E+00  0.21790509605E+04  0.21790509605E+04  0.25500000920E-02 0. -1.
       -2   -1    0    0    0  501  0.00000000000E+00  0.00000000000E+00 -0.49767831820E+03  0.49767831820E+03  0.25500000920E-02 0.  1.
    10030    2    1    2    0    0  0.00000000000E+00  0.00000000000E+00  0.16813726423E+04  0.26767292787E+04  0.20827543468E+04 0.  0.
        3    1    3    3  502    0 -0.27552568479E+03  0.56032401367E+03 -0.23041449847E+03  0.66555860342E+03  0.10100000352E+00 0.  1.
       -3    1    3    3    0  502  0.27552568479E+03 -0.56032401367E+03  0.19117871408E+04  0.20111706753E+04  0.10100000352E+00 0. -1.
</event>
<event>
 5   0  0.3371947E-04  0.2341652E+04  0.7818609E-02  0.8461677E-01
        2   -1    0    0  501    0  0.00000000000E+00  0.00000000000E+00  0.80893303696E+03  0.80893303697E+03  0.25500000920E-02 0. -1.
       -2   -1    0    0    0  501  0.00000000000E+00  0.00000000000E+00 -0.16946188680E+04  0.16946188680E+04  0.25500000920E-02 0.  1.
    10030    2    1    2    0    0  0.00000000000E+00  0.00000000000E+00 -0.88568583100E+03  0.25035519049E+04  0.23416517140E+04 0.  0.
        2    1    3    3  502    0  0.16380938689E+03  0.36686786148E+03 -0.16186082561E+04  0.16677284641E+04  0.25500000920E-02 0.  1.
       -2    1    3    3    0  502 -0.16380938689E+03 -0.36686786148E+03  0.73292242514E+03  0.83582344087E+03  0.25500000920E-02 0. -1.
</event>
<event>
 5   0  0.3387881E-04  0.1979854E+04  0.7818609E-02  0.8616098E-01
        2   -1    0    0  501    0  0.00000000000E+00  0.00000000000E+00  0.54202759686E+03  0.54202759686E+03  0.25500000920E-02 0. -1.
       -2   -1    0    0    0  501  0.00000000000E+00  0.00000000000E+00 -0.18079438307E+04  0.18079438307E+04  0.25500000920E-02 0.  1.
    10030    2    1    2    0    0  0.00000000000E+00  0.00000000000E+00 -0.12659162339E+04  0.23499714276E+04  0.19798539843E+04 0.  0.
        1    1    3    3  502    0  0.32533286412E+03  0.93425423772E+03 -0.67547311652E+03  0.11978883021E+04  0.50400001928E-02 0.  1.
       -1    1    3    3    0  502 -0.32533286412E+03 -0.93425423772E+03 -0.59044311736E+03  0.11520831255E+04  0.50400001928E-02 0. -1.
</event>
<event>
 5   0  0.1696052E-04  0.2017902E+04  0.7818609E-02  0.8598296E-01
        1   -1    0    0  501    0  0.00000000000E+00  0.00000000000E+00  0.10472031669E+04  0.10472031669E+04  0.50400001928E-02 0.  1.
       -1   -1    0    0    0  501  0.00000000000E+00  0.00000000000E+00 -0.97209615227E+03  0.97209615228E+03  0.50400001928E-02 0. -1.
    10030    2    1    2    0    0  0.00000000000E+00  0.00000000000E+00  0.75107014586E+02  0.20192993191E+04  0.20179020483E+04 0.  0.
        4    1    3    3  502    0  0.71643150412E+03 -0.35516776141E+03  0.65325372683E+03  0.10325503781E+04  0.12699999809E+01 0.  1.
       -4    1    3    3    0  502 -0.71643150412E+03  0.35516776141E+03 -0.57814671224E+03  0.98674894103E+03  0.12699999809E+01 0. -1.
</event>
<event>
 5   0  0.3371947E-04  0.1979881E+04  0.7818609E-02  0.8616085E-01
       -2   -1    0    0    0  501  0.00000000000E+00  0.00000000000E+00  0.57104261437E+03  0.57104261437E+03  0.25500000920E-02 0. -1.
        2   -1    0    0  501    0  0.00000000000E+00  0.00000000000E+00 -0.17161284365E+04  0.17161284365E+04  0.25500000920E-02 0.  1.
    10030    2    1    2    0    0  0.00000000000E+00  0.00000000000E+00 -0.11450858221E+04  0.22871710509E+04  0.19798812782E+04 0.  0.
        2    1    3    3  502    0 -0.41589534643E+03  0.84799027713E+00 -0.16103095633E+04  0.16631495868E+04  0.25500000920E-02 0.  1.
       -2    1    3    3    0  502  0.41589534643E+03 -0.84799027713E+00  0.46522374119E+03  0.62402146409E+03  0.25500000920E-02 0. -1.
</event>
<event>
 5   0  0.1664168E-04  0.1974698E+04  0.7818609E-02  0.8618542E-01
        1   -1    0    0  501    0  0.00000000000E+00  0.00000000000E+00  0.13806786847E+04  0.13806786847E+04  0.50400001928E-02 0. -1.
       -1   -1    0    0    0  501  0.00000000000E+00  0.00000000000E+00 -0.70607193684E+03  0.70607193686E+03  0.50400001928E-02 0.  1.
    10030    2    1    2    0    0  0.00000000000E+00  0.00000000000E+00  0.67460674787E+03  0.20867506216E+04  0.19746984307E+04 0.  0.
        5    1    3    3  502    0  0.49298526719E+03 -0.68416113040E+03  0.87998584936E+03  0.12188142234E+04  0.46999998093E+01 0. -1.
       -5    1    3    3    0  502 -0.49298526719E+03  0.68416113040E+03 -0.20537910149E+03  0.86793639821E+03  0.46999998093E+01 0.  1.
</event>
<event>
 5   0  0.1696052E-04  0.2000081E+04  0.7818609E-02  0.8606583E-01
        1   -1    0    0  501    0  0.00000000000E+00  0.00000000000E+00  0.15722375512E+04  0.15722375512E+04  0.50400001928E-02 0.  1.
       -1   -1    0    0    0  501  0.00000000000E+00  0.00000000000E+00 -0.63608772080E+03  0.63608772082E+03  0.50400001928E-02 0. -1.
    10030    2    1    2    0    0  0.00000000000E+00  0.00000000000E+00  0.93614983037E+03  0.22083252720E+04  0.20000809989E+04 0.  0.
        4    1    3    3  502    0 -0.90226353656E+02  0.58592021742E+03 -0.42115899049E+03  0.72719997542E+03  0.12699999809E+01 0. -1.
       -4    1    3    3    0  502  0.90226353656E+02 -0.58592021742E+03  0.13573088209E+04  0.14811252966E+04  0.12699999809E+01 0.  1.
</event>
<event>
 5   0  0.1643565E-04  0.2066123E+04  0.7818609E-02  0.8576315E-01
       -1   -1    0    0    0  501  0.00000000000E+00  0.00000000000E+00  0.11452979441E+04  0.11452979441E+04  0.50400001928E-02 0. -1.
        1   -1    0    0  501    0  0.00000000000E+00  0.00000000000E+00 -0.93182373574E+03  0.93182373575E+03  0.50400001928E-02 0.  1.
    10030    2    1    2    0    0  0.00000000000E+00  0.00000000000E+00  0.21347420834E+03  0.20771216798E+04  0.20661227542E+04 0.  0.
        2    1    3    3  502    0 -0.21174363074E+03  0.18449172174E+03 -0.89270977903E+03  0.93584363551E+03  0.25500000920E-02 0.  1.
       -2    1    3    3    0  502  0.21174363074E+03 -0.18449172174E+03  0.11061839874E+04  0.11412780443E+04  0.25500000920E-02 0. -1.
</event>
<event>
 5   0  0.1664168E-04  0.2124333E+04  0.7818609E-02  0.8550600E-01
        1   -1    0    0  501    0  0.00000000000E+00  0.00000000000E+00  0.19666985151E+04  0.19666985151E+04  0.50400001928E-02 0.  1.
       -1   -1    0    0    0  501  0.00000000000E+00  0.00000000000E+00 -0.57365054794E+03  0.57365054796E+03  0.50400001928E-02 0. -1.
    10030    2    1    2    0    0  0.00000000000E+00  0.00000000000E+00  0.13930479672E+04  0.25403490631E+04  0.21243330067E+04 0.  0.
        5    1    3    3  502    0 -0.61025961569E+02  0.92773675028E+03  0.82377559090E+02  0.93339584210E+03  0.46999998093E+01 0. -1.
       -5    1    3    3    0  502  0.61025961569E+02 -0.92773675028E+03  0.13106704081E+04  0.16069532210E+04  0.46999998093E+01 0.  1.
</event>
<event>
 5   0  0.3431030E-04  0.1992599E+04  0.7818609E-02  0.8610089E-01
       -2   -1    0    0    0  501  0.00000000000E+00  0.00000000000E+00  0.67541541608E+03  0.67541541609E+03  0.25500000920E-02 0.  1.
        2   -1    0    0  501    0  0.00000000000E+00  0.00000000000E+00 -0.14696332995E+04  0.14696332995E+04  0.25500000920E-02 0. -1.
    10030    2    1    2    0    0  0.00000000000E+00  0.00000000000E+00 -0.79421788341E+03  0.21450487156E+04  0.19925992939E+04 0.  0.
        3    1    3    3  502    0 -0.73260807943E+03  0.46495231960E+03  0.12995979392E+03  0.87737381758E+03  0.10100000352E+00 0.  1.
       -3    1    3    3    0  502  0.73260807943E+03 -0.46495231960E+03 -0.92417767734E+03  0.12676748980E+04  0.10100000352E+00 0. -1.
</event>
<event>
 5   0  0.3395569E-04  0.1968399E+04  0.7818609E-02  0.8621539E-01
       -2   -1    0    0    0  501  0.00000000000E+00  0.00000000000E+00  0.12501434922E+04  0.12501434922E+04  0.25500000920E-02 0. -1.
        2   -1    0    0  501    0  0.00000000000E+00  0.00000000000E+00 -0.77483035859E+03  0.77483035859E+03  0.25500000920E-02 0.  1.
    10030    2    1    2    0    0  0.00000000000E+00  0.00000000000E+00  0.47531313365E+03  0.20249738508E+04  0.19683994822E+04 0.  0.
        4    1    3    3  502    0 -0.51923422138E+03 -0.91345317035E+02 -0.61731310319E+03  0.81180368555E+03  0.12699999809E+01 0.  1.
       -4    1    3    3    0  502  0.51923422138E+03  0.91345317035E+02  0.10926262368E+04  0.12131701653E+04  0.12699999809E+01 0. -1.
</event>
<event>
 5   0  0.3431030E-04  0.1914521E+04  0.7818609E-02  0.8647662E-01
        2   -1    0    0  501    0  0.00000000000E+00  0.00000000000E+00  0.11534888647E+04  0.11534888648E+04  0.25500000920E-02 0.  1.
       -2   -1    0    0    0  501  0.00000000000E+00  0.00000000000E+00 -0.79441371149E+03  0.79441371150E+03  0.25500000920E-02 0. -1.
    10030    2    1    2    0    0  0.00000000000E+00  0.00000000000E+00  0.35907515325E+03  0.19479025763E+04  0.19145206922E+04 0.  0.
        3    1    3    3  502    0 -0.15406958144E+03 -0.79129365422E+03 -0.34566477805E+03  0.87713581168E+03  0.10100000352E+00 0. -1.
       -3    1    3    3    0  502  0.15406958144E+03  0.79129365422E+03  0.70473993130E+03  0.10707667646E+04  0.10100000352E+00 0.  1.
</event>
<event>
 5   0  0.1643565E-04  0.2064968E+04  0.7818609E-02  0.8576834E-01
        1   -1    0    0  501    0  0.00000000000E+00  0.00000000000E+00  0.62742705617E+03  0.62742705619E+03  0.50400001928E-02 0.  1.
       -1   -1    0    0    0  501  0.00000000000E+00  0.00000000000E+00 -0.16990384612E+04  0.16990384612E+04  0.50400001928E-02 0. -1.
    10030    2    1    2    0    0  0.00000000000E+00  0.00000000000E+00 -0.10716114050E+04  0.23264655174E+04  0.20649675058E+04 0.  0.
        2    1    3    3  502    0 -0.39348566057E+03  0.51471313459E+03 -0.14415127553E+04  0.15804175397E+04  0.25500000920E-02 0. -1.
       -2    1    3    3    0  502  0.39348566057E+03 -0.51471313459E+03  0.36990135033E+03  0.74604797767E+03  0.25500000920E-02 0.  1.
</event>
<event>
 5   0  0.1643565E-04  0.2059757E+04  0.7818609E-02  0.8579181E-01
       -1   -1    0    0    0  501  0.00000000000E+00  0.00000000000E+00  0.69726012215E+03  0.69726012217E+03  0.50400001928E-02 0. -1.
        1   -1    0    0  501    0  0.00000000000E+00  0.00000000000E+00 -0.15211680246E+04  0.15211680246E+04  0.50400001928E-02 0.  1.
    10030    2    1    2    0    0  0.00000000000E+00  0.00000000000E+00 -0.82390790245E+03  0.22184281468E+04  0.20597570756E+04 0.  0.
        2    1    3    3  502    0 -0.13941907539E+03  0.90269571212E+03  0.10046134264E+03  0.91890680084E+03  0.25500000920E-02 0. -1.
       -2    1    3    3    0  502  0.13941907539E+03 -0.90269571212E+03 -0.92436924508E+03  0.12995213459E+04  0.25500000920E-02 0.  1.
</event>
<event>
 5   0  0.1222488E-04  0.1634441E+04  0.7818609E-02  0.8799665E-01
       -3   -1    0    0    0  501  0.00000000000E+00  0.00000000000E+00  0.14765388068E+04  0.14765388103E+04  0.10100000352E+00 0. -1.
        3   -1    0    0  501    0  0.00000000000E+00  0.00000000000E+00 -0.45230723507E+03  0.45230724634E+03  0.10100000352E+00 0.  1.
    10030    2    1    2    0    0  0.00000000000E+00  0.00000000000E+00  0.10242315718E+04  0.19288460566E+04  0.16344408211E+04 0.  0.
        5    1    3    3  502    0  0.81316954208E+03  0.31505392841E+02  0.60034798465E+03  0.10112749807E+04  0.46999998093E+01 0.  1.
       -5    1    3    3    0  502 -0.81316954208E+03 -0.31505392841E+02  0.42388358713E+03  0.91757107593E+03  0.46999998093E+01 0. -1.
</event>
<event>
 5   0  0.1222488E-04  0.1832678E+04  0.7818609E-02  0.8689112E-01
       -3   -1    0    0    0  501  0.00000000000E+00  0.00000000000E+00  0.17862930995E+04  0.17862931023E+04  0.10100000352E+00 0. -1.
        3   -1    0    0  501    0  0.00000000000E+00  0.00000000000E+00 -0.47006683001E+03  0.47006684086E+03  0.10100000352E+00 0.  1.
    10030    2    1    2    0    0  0.00000000000E+00  0.00000000000E+00  0.13162262695E+04  0.22563599432E+04  0.18326779861E+04 0.  0.
        1    1    3    3  502    0  0.72198234173E+03 -0.51349282636E+03  0.94617750957E+03  0.12962196049E+04  0.50400001928E-02 0. -1.
       -1    1    3    3    0  502 -0.72198234173E+03  0.51349282636E+03  0.37004875991E+03  0.96014033830E+03  0.50400001928E-02 0.  1.
</event>
<event>
 5   0  0.1696052E-04  0.2014303E+04  0.7818609E-02  0.8599962E-01
        1   -1    0    0  501    0  0.00000000000E+00  0.00000000000E+00  0.26532900777E+04  0.26532900778E+04  0.50400001928E-02 0.  1.
       -1   -1    0    0    0  501  0.00000000000E+00  0.00000000000E+00 -0.38230066496E+03  0.38230066499E+03  0.50400001928E-02 0. -1.
    10030    2    1    2    0    0  0.00000000000E+00  0.00000000000E+00  0.22709894128E+04  0.30355907427E+04  0.20143034142E+04 0.  0.
        4    1    3    3  502    0  0.99561406927E+03 -0.10574025325E+03  0.13000605624E+04  0.16409105567E+04  0.12699999809E+01 0.  1.
       -4    1    3    3    0  502 -0.99561406927E+03  0.10574025325E+03  0.97092885036E+03  0.13946801861E+04  0.12699999809E+01 0. -1.
</event>
<event>
 5   0  0.1650221E-04  0.1029758E+04  0.7818609E-02  0.9276495E-01
        1   -1    0    0  501    0  0.00000000000E+00  0.00000000000E+00  0.89747260801E+03  0.89747260803E+03  0.50400001928E-02 0.  1.
       -1   -1    0    0    0  501  0.00000000000E+00  0.00000000000E+00 -0.29538576637E+03  0.29538576642E+03  0.50400001928E-02 0. -1.
    10030    2    1    2    0    0  0.00000000000E+00  0.00000000000E+00  0.60208684164E+03  0.11928583744E+04  0.10297584846E+04 0.  0.
        1    1    3    3  502    0  0.25749656230E+03 -0.41373231096E+03  0.49356478839E+03  0.69360298809E+03  0.50400001928E-02 0.  1.
       -1    1    3    3    0  502 -0.25749656230E+03  0.41373231096E+03  0.10852205325E+03  0.49925538635E+03  0.50400001928E-02 0. -1.
</event>
<event>
 5   0  0.3395569E-04  0.1954566E+04  0.7818609E-02  0.8628162E-01
       -2   -1    0    0    0  501  0.00000000000E+00  0.00000000000E+00  0.50998718382E+03  0.50998718383E+03  0.25500000920E-02 0. -1.
        2   -1    0    0  501    0  0.00000000000E+00  0.00000000000E+00 -0.18727572523E+04  0.18727572523E+04  0.25500000920E-02 0.  1.
    10030    2    1    2    0    0  0.00000000000E+00  0.00000000000E+00 -0.13627700685E+04  0.23827444361E+04  0.19545661381E+04 0.  0.
        4    1    3    3  502    0  0.59400474471E+03 -0.43820378003E+03  0.99403811096E+02  0.74481334583E+03  0.12699999809E+01 0. -1.
       -4    1    3    3    0  502 -0.59400474471E+03  0.43820378003E+03 -0.14621738796E+04  0.16379310903E+04  0.12699999809E+01 0.  1.
</event>
<event>
 5   0  0.3460648E-04  0.2019633E+04  0.7818609E-02  0.8597496E-01
        2   -1    0    0  501    0  0.00000000000E+00  0.00000000000E+00  0.13844742494E+04  0.13844742494E+04  0.25500000920E-02 0. -1.
       -2   -1    0    0    0  501  0.00000000000E+00  0.00000000000E+00 -0.73654642466E+03  0.73654642466E+03  0.25500000920E-02 0.  1.
    10030    2    1    2    0    0  0.00000000000E+00  0.00000000000E+00  0.64792782475E+03  0.21210206741E+04  0.20196331929E+04 0.  0.
        5    1    3    3  502    0 -0.93376353711E+03  0.38008174367E+03  0.26335181903E+03  0.10419945996E+04  0.46999998093E+01 0.  1.
       -5    1    3    3    0  502  0.93376353711E+03 -0.38008174367E+03  0.38457600572E+03  0.10790260744E+04  0.46999998093E+01 0. -1.
</event>
<event>
 5   0  0.1664168E-04  0.1970239E+04  0.7818609E-02  0.8620663E-01
       -1   -1    0    0    0  501  0.00000000000E+00  0.00000000000E+00  0.45164144477E+03  0.45164144479E+03  0.50400001928E-02 0. -1.
        1   -1    0    0  501    0  0.00000000000E+00  0.00000000000E+00 -0.21487398888E+04  0.21487398888E+04  0.50400001928E-02 0.  1.
    10030    2    1    2    0    0  0.00000000000E+00  0.00000000000E+00 -0.16970984441E+04  0.26003813336E+04  0.19702385519E+04 0.  0.
        5    1    3    3  502    0 -0.75721838279E+03 -0.20419912140E+02 -0.17326964191E+02  0.75770638491E+03  0.46999998093E+01 0. -1.
       -5    1    3    3    0  502  0.75721838279E+03  0.20419912140E+02 -0.16797714799E+04  0.18426749487E+04  0.46999998093E+01 0.  1.
</event>
<event>
 5   0  0.3387881E-04  0.1993020E+04  0.7818609E-02  0.8609891E-01
       -2   -1    0    0    0  501  0.00000000000E+00  0.00000000000E+00  0.12505876340E+04  0.12505876340E+04  0.25500000920E-02 0.  1.
        2   -1    0    0  501    0  0.00000000000E+00  0.00000000000E+00 -0.79405232672E+03  0.79405232673E+03  0.25500000920E-02 0. -1.
    10030    2    1    2    0    0  0.00000000000E+00  0.00000000000E+00  0.45653530731E+03  0.20446399608E+04  0.19930198399E+04 0.  0.
        1    1    3    3  502    0  0.79631867340E+03  0.20826438420E+03  0.80454118645E+03  0.11509926169E+04  0.50400001928E-02 0.  1.
       -1    1    3    3    0  502 -0.79631867340E+03 -0.20826438420E+03 -0.34800587915E+03  0.89364734391E+03  0.50400001928E-02 0. -1.
</event>
<event>
 5   0  0.3371947E-04  0.1974812E+04  0.7818609E-02  0.8618488E-01
       -2   -1    0    0    0  501  0.00000000000E+00  0.00000000000E+00  0.61002877398E+03  0.61002877398E+03  0.25500000920E-02 0. -1.
        2   -1    0    0  501    0  0.00000000000E+00  0.00000000000E+00 -0.15982373830E+04  0.15982373830E+04  0.25500000920E-02 0.  1.
    10030    2    1    2    0    0  0.00000000000E+00  0.00000000000E+00 -0.98820860907E+03  0.22082661570E+04  0.19748121848E+04 0.  0.
        2    1    3    3  502    0 -0.28304546222E+03 -0.78899185547E+03 -0.10776671612E+04  0.13652799684E+04  0.25500000920E-02 0.  1.
       -2    1    3    3    0  502  0.28304546222E+03  0.78899185547E+03  0.89458552159E+02  0.84298618864E+03  0.25500000920E-02 0. -1.
</event>
<event>
 5   0  0.3371947E-04  0.1981357E+04  0.7818609E-02  0.8615387E-01
       -2   -1    0    0    0  501  0.00000000000E+00  0.00000000000E+00  0.94356199486E+03  0.94356199487E+03  0.25500000920E-02 0. -1.
        2   -1    0    0  501    0  0.00000000000E+00  0.00000000000E+00 -0.10401477523E+04  0.10401477523E+04  0.25500000920E-02 0.  1.
    10030    2    1    2    0    0  0.00000000000E+00  0.00000000000E+00 -0.96585757397E+02  0.19837097471E+04  0.19813569977E+04 0.  0.
        2    1    3    3  502    0 -0.95826473708E+03  0.20279144608E+03 -0.19695559842E+03  0.99909318119E+03  0.25500000920E-02 0. -1.
       -2    1    3    3    0  502  0.95826473708E+03 -0.20279144608E+03  0.10036984102E+03  0.98461656594E+03  0.25500000920E-02 0.  1.
</event>
<event>
 5   0  0.1696052E-04  0.2037773E+04  0.7818609E-02  0.8589162E-01
        1   -1    0    0  501    0  0.00000000000E+00  0.00000000000E+00  0.22334306968E+04  0.22334306968E+04  0.50400001928E-02 0. -1.
       -1   -1    0    0    0  501  0.00000000000E+00  0.00000000000E+00 -0.46481382518E+03  0.46481382521E+03  0.50400001928E-02 0.  1.
    10030    2    1    2    0    0  0.00000000000E+00  0.00000000000E+00  0.17686168716E+04  0.26982445220E+04  0.20377727700E+04 0.  0.
        4    1    3    3  502    0  0.15690060313E+03 -0.86939785014E+03  0.21218833169E+03  0.90856806134E+03  0.12699999809E+01 0.  1.
       -4    1    3    3    0  502 -0.15690060313E+03  0.86939785014E+03  0.15564285399E+04  0.17896764606E+04  0.12699999809E+01 0. -1.
</event>
<event>
 5   0  0.1650221E-04  0.1971456E+04  0.7818609E-02  0.8620084E-01
        1   -1    0    0  501    0  0.00000000000E+00  0.00000000000E+00  0.23729728622E+04  0.23729728622E+04  0.50400001928E-02 0. -1.
       -1   -1    0    0    0  501  0.00000000000E+00  0.00000000000E+00 -0.40946919849E+03  0.40946919852E+03  0.50400001928E-02 0.  1.
    10030    2    1    2    0    0  0.00000000000E+00  0.00000000000E+00  0.19635036637E+04  0.27824420607E+04  0.19714556003E+04 0.  0.
        1    1    3    3  502    0 -0.57264360031E+03  0.58897013062E+03  0.21278130355E+03  0.84857668534E+03  0.50400001928E-02 0.  1.
       -1    1    3    3    0  502  0.57264360031E+03 -0.58897013062E+03  0.17507223601E+04  0.19338653754E+04  0.50400001928E-02 0. -1.
</event>
<event>
 5   0  0.3460648E-04  0.1993277E+04  0.7818609E-02  0.8609770E-01
       -2   -1    0    0    0  501  0.00000000000E+00  0.00000000000E+00  0.86594631387E+03  0.86594631388E+03  0.25500000920E-02 0. -1.
        2   -1    0    0  501    0  0.00000000000E+00  0.00000000000E+00 -0.11470555434E+04  0.11470555434E+04  0.25500000920E-02 0.  1.
    10030    2    1    2    0    0  0.00000000000E+00  0.00000000000E+00 -0.28110922950E+03  0.20130018573E+04  0.19932772207E+04 0.  0.
        5    1    3    3  502    0  0.87638971393E+03 -0.55358149977E+02  0.33542983315E+03  0.94003123268E+03  0.46999998093E+01 0. -1.
       -5    1    3    3    0  502 -0.87638971393E+03  0.55358149977E+02 -0.61653906265E+03  0.10729706246E+04  0.46999998093E+01 0.  1.
</event>
<event>
 5   0  0.1664168E-04  0.2040104E+04  0.7818609E-02  0.8588097E-01
        1   -1    0    0  501    0  0.00000000000E+00  0.00000000000E+00  0.11710777862E+04  0.11710777862E+04  0.50400001928E-02 0. -1.
       -1   -1    0    0    0  501  0.00000000000E+00  0.00000000000E+00 -0.88850271007E+03  0.88850271009E+03  0.50400001928E-02 0.  1.
    10030    2    1    2    0    0  0.00000000000E+00  0.00000000000E+00  0.28257507610E+03  0.20595804963E+04  0.20401037099E+04 0.  0.
        5    1    3    3  502    0  0.38934592577E+03 -0.27962885636E+03 -0.76769788627E+03  0.90507716898E+03  0.46999998093E+01 0.  1.
       -5    1    3    3    0  502 -0.38934592577E+03  0.27962885636E+03  0.10502729624E+04  0.11545033273E+04  0.46999998093E+01 0. -1.
</event>
<event>
 5   0  0.3371947E-04  0.2023631E+04  0.7818609E-02  0.8595652E-01
       -2   -1    0    0    0  501  0.00000000000E+00  0.00000000000E+00  0.73556928630E+03  0.73556928631E+03  0.25500000920E-02 0. -1.
        2   -1    0    0  501    0  0.00000000000E+00  0.00000000000E+00 -0.13918068530E+04  0.13918068530E+04  0.25500000920E-02 0.  1.
    10030    2    1    2    0    0  0.00000000000E+00  0.00000000000E+00 -0.65623756667E+03  0.21273761393E+04  0.20236307702E+04 0.  0.
        2    1    3    3  502    0  0.10740528525E+03 -0.29789232924E+03  0.68213433263E+03  0.75205251338E+03  0.25500000920E-02 0. -1.
       -2    1    3    3    0  502 -0.10740528525E+03  0.29789232924E+03 -0.13383718993E+04  0.13753236259E+04  0.25500000920E-02 0.  1.
</event>
<event>
 5   0  0.3395569E-04  0.2328024E+04  0.7818609E-02  0.8466953E-01
        2   -1    0    0  501    0  0.00000000000E+00  0.00000000000E+00  0.22805918277E+04  0.22805918277E+04  0.25500000920E-02 0. -1.
       -2   -1    0    0    0  501  0.00000000000E+00  0.00000000000E+00 -0.59411061485E+03  0.59411061486E+03  0.25500000920E-02 0.  1.
    10030    2    1    2    0    0  0.00000000000E+00  0.00000000000E+00  0.16864812128E+04  0.28747024425E+04  0.23280238942E+04 0.  0.
        4    1    3    3  502    0 -0.63324452184E+03 -0.64228510039E+03  0.17518180552E+04  0.19703798837E+04  0.12699999809E+01 0. -1.
       -4    1    3    3    0  502  0.63324452184E+03  0.64228510039E+03 -0.65336842345E+02  0.90432255888E+03  0.12699999809E+01 0.  1.
</event>
<event>
 5   0  0.1696052E-04  0.1987038E+04  0.7818609E-02  0.8612705E-01
       -1   -1    0    0    0  501  0.00000000000E+00  0.00000000000E+00  0.51616664977E+03  0.51616664979E+03  0.50400001928E-02 0.  1.
        1   -1    0    0  501    0  0.00000000000E+00  0.00000000000E+00 -0.19123280586E+04  0.19123280586E+04  0.50400001928E-02 0. -1.
    10030    2    1    2    0    0  0.00000000000E+00  0.00000000000E+00 -0.13961614088E+04  0.24284947083E+04  0.19870379637E+04 0.  0.
        4    1    3    3  502    0  0.31842617674E+03 -0.72542328065E+03 -0.14308153554E+04  0.16355024795E+04  0.12699999809E+01 0. -1.
       -4    1    3    3    0  502 -0.31842617674E+03  0.72542328065E+03  0.34653946634E+02  0.79299222888E+03  0.12699999809E+01 0.  1.
</event>
<event>
 5   0  0.3460648E-04  0.1963059E+04  0.7818609E-02  0.8624089E-01
        2   -1    0    0  501    0  0.00000000000E+00  0.00000000000E+00  0.13295430860E+04  0.13295430860E+04  0.25500000920E-02 0.  1.
       -2   -1    0    0    0  501  0.00000000000E+00  0.00000000000E+00 -0.72461003193E+03  0.72461003193E+03  0.25500000920E-02 0. -1.
    10030    2    1    2    0    0  0.00000000000E+00  0.00000000000E+00  0.60493305404E+03  0.20541531179E+04  0.19630591005E+04 0.  0.
        5    1    3    3  502    0 -0.23070156427E+03 -0.79622220004E+03  0.85238664933E+03  0.11890240088E+04  0.46999998093E+01 0.  1.
       -5    1    3    3    0  502  0.23070156427E+03  0.79622220004E+03 -0.24745359528E+03  0.86512910909E+03  0.46999998093E+01 0. -1.
</event>
<event>
 5   0  0.3431030E-04  0.2017589E+04  0.7818609E-02  0.8598441E-01
        2   -1    0    0  501    0  0.00000000000E+00  0.00000000000E+00  0.17504037295E+04  0.17504037295E+04  0.25500000920E-02 0.  1.
       -2   -1    0    0    0  501  0.00000000000E+00  0.00000000000E+00 -0.58138971348E+03  0.58138971348E+03  0.25500000920E-02 0. -1.
    10030    2    1    2    0    0  0.00000000000E+00  0.00000000000E+00  0.11690140160E+04  0.23317934430E+04  0.20175893762E+04 0.  0.
        3    1    3    3  502    0  0.33344911653E+03 -0.62286382215E+03  0.14167298968E+04  0.15831207361E+04  0.10100000352E+00 0.  1.
       -3    1    3    3    0  502 -0.33344911653E+03  0.62286382215E+03 -0.24771588079E+03  0.74867270690E+03  0.10100000352E+00 0. -1.
</event>
<event>
 5   0  0.3395569E-04  0.1950105E+04  0.7818609E-02  0.8630310E-01
       -2   -1    0    0    0  501  0.00000000000E+00  0.00000000000E+00  0.67419440006E+03  0.67419440006E+03  0.25500000920E-02 0.  1.
        2   -1    0    0  501    0  0.00000000000E+00  0.00000000000E+00 -0.14101686337E+04  0.14101686337E+04  0.25500000920E-02 0. -1.
    10030    2    1    2    0    0  0.00000000000E+00  0.00000000000E+00 -0.73597423361E+03  0.20843630337E+04  0.19501054289E+04 0.  0.
        4    1    3    3  502    0 -0.33272222879E+03  0.77186078365E+03 -0.89623194396E+03  0.12287011277E+04  0.12699999809E+01 0.  1.
       -4    1    3    3    0  502  0.33272222879E+03 -0.77186078365E+03  0.16025771035E+03  0.85566190606E+03  0.12699999809E+01 0. -1.
</event>
<event>
 5   0  0.1643565E-04  0.2013599E+04  0.7818609E-02  0.8600289E-01
       -1   -1    0    0    0  501  0.00000000000E+00  0.00000000000E+00  0.69984536217E+03  0.69984536218E+03  0.50400001928E-02 0. -1.
        1   -1    0    0  501    0  0.00000000000E+00  0.00000000000E+00 -0.14483850743E+04  0.14483850744E+04  0.50400001928E-02 0.  1.
    10030    2    1    2    0    0  0.00000000000E+00  0.00000000000E+00 -0.74853971218E+03  0.21482304365E+04  0.20135993414E+04 0.  0.
        2    1    3    3  502    0  0.16362610425E+03 -0.80214670105E+03  0.25094408800E+03  0.85626267424E+03  0.25500000920E-02 0. -1.
       -2    1    3    3    0  502 -0.16362610425E+03  0.80214670105E+03 -0.99948380018E+03  0.12919677623E+04  0.25500000920E-02 0.  1.
</event>
<event>
 5   0  0.3460648E-04  0.2144380E+04  0.7818609E-02  0.8541942E-01
       -2   -1    0    0    0  501  0.00000000000E+00  0.00000000000E+00  0.67317007136E+03  0.67317007137E+03  0.25500000920E-02 0.  1.
        2   -1    0    0  501    0  0.00000000000E+00  0.00000000000E+00 -0.17077282118E+04  0.17077282118E+04  0.25500000920E-02 0. -1.
    10030    2    1    2    0    0  0.00000000000E+00  0.00000000000E+00 -0.10345581404E+04  0.23808982832E+04  0.21443801176E+04 0.  0.
        5    1    3    3  502    0  0.60427242706E+03  0.10301498365E+03  0.45941117562E+03  0.76605350416E+03  0.46999998093E+01 0.  1.
       -5    1    3    3    0  502 -0.60427242706E+03 -0.10301498365E+03 -0.14939693161E+04  0.16148447790E+04  0.46999998093E+01 0. -1.
</event>
<event>
 5   0  0.1664168E-04  0.1955054E+04  0.7818609E-02  0.8627928E-01
       -1   -1    0    0    0  501  0.00000000000E+00  0.00000000000E+00  0.81087726728E+03  0.81087726730E+03  0.50400001928E-02 0.  1.
        1   -1    0    0  501    0  0.00000000000E+00  0.00000000000E+00 -0.11784261848E+04  0.11784261848E+04  0.50400001928E-02 0. -1.
    10030    2    1    2    0    0  0.00000000000E+00  0.00000000000E+00 -0.36754891749E+03  0.19893034521E+04  0.19550539680E+04 0.  0.
        5    1    3    3  502    0 -0.30568541252E+03 -0.59424056435E+03 -0.90969488341E+03  0.11287746855E+04  0.46999998093E+01 0. -1.
       -5    1    3    3    0  502  0.30568541252E+03  0.59424056435E+03  0.54214596592E+03  0.86052876657E+03  0.46999998093E+01 0.  1.
</event>
<event>
 5   0  0.3395569E-04  0.1809604E+04  0.7818609E-02  0.8701209E-01
       -2   -1    0    0    0  501  0.00000000000E+00  0.00000000000E+00  0.87406999785E+03  0.87406999785E+03  0.25500000920E-02 0.  1.
        2   -1    0    0  501    0  0.00000000000E+00  0.00000000000E+00 -0.93661435338E+03  0.93661435339E+03  0.25500000920E-02 0. -1.
    10030    2    1    2    0    0  0.00000000000E+00  0.00000000000E+00 -0.62544355535E+02  0.18106843512E+04  0.18096038305E+04 0.  0.
        4    1    3    3  502    0 -0.77082317765E+02  0.48683153257E+03  0.72794188964E+03  0.87911753049E+03  0.12699999809E+01 0.  1.
       -4    1    3    3    0  502  0.77082317765E+02 -0.48683153257E+03 -0.79048624518E+03  0.93156682075E+03  0.12699999809E+01 0. -1.
</event>
<event>
 5   0  0.1650221E-04  0.2102848E+04  0.7818609E-02  0.8559990E-01
       -1   -1    0    0    0  501  0.00000000000E+00  0.00000000000E+00  0.14799198326E+04  0.14799198326E+04  0.50400001928E-02 0. -1.
        1   -1    0    0  501    0  0.00000000000E+00  0.00000000000E+00 -0.74699505973E+03  0.74699505975E+03  0.50400001928E-02 0.  1.
    10030    2    1    2    0    0  0.00000000000E+00  0.00000000000E+00  0.73292477283E+03  0.22269148923E+04  0.21028483576E+04 0.  0.
        1    1    3    3  502    0  0.86378241643E+03 -0.40975466304E+03 -0.96931614072E+02  0.96094468345E+03  0.50400001928E-02 0.  1.
       -1    1    3    3    0  502 -0.86378241643E+03  0.40975466304E+03  0.82985638690E+03  0.12659702089E+04  0.50400001928E-02 0. -1.
</event>
<event>
 5   0  0.3460648E-04  0.1950887E+04  0.7818609E-02  0.8629933E-01
       -2   -1    0    0    0  501  0.00000000000E+00  0.00000000000E+00  0.13559773180E+04  0.13559773180E+04  0.25500000920E-02 0.  1.
        2   -1    0    0  501    0  0.00000000000E+00  0.00000000000E+00 -0.70170036060E+03  0.70170036061E+03  0.25500000920E-02 0. -1.
    10030    2    1    2    0    0  0.00000000000E+00  0.00000000000E+00  0.65427695738E+03  0.20576776786E+04  0.19508867451E+04 0.  0.
        5    1    3    3  502    0  0.28183465664E+03  0.21933576863E+02 -0.65753648108E+03  0.71574308898E+03  0.46999998093E+01 0. -1.
       -5    1    3    3    0  502 -0.28183465664E+03 -0.21933576863E+02  0.13118134385E+04  0.13419345896E+04  0.46999998093E+01 0.  1.
</event>
<event>
 5   0  0.1664168E-04  0.1986925E+04  0.7818609E-02  0.8612758E-01
        1   -1    0    0  501    0  0.00000000000E+00  0.00000000000E+00  0.11757049993E+04  0.11757049994E+04  0.50400001928E-02 0.  1.
       -1   -1    0    0    0  501  0.00000000000E+00  0.00000000000E+00 -0.83946855141E+03  0.83946855142E+03  0.50400001928E-02 0. -1.
    10030    2    1    2    0    0  0.00000000000E+00  0.00000000000E+00  0.33623644794E+03  0.20151735508E+04  0.19869246314E+04 0.  0.
        5    1    3    3  502    0  0.83179185128E+03  0.17487553412E+02 -0.38252037201E+03  0.91571143019E+03  0.46999998093E+01 0. -1.
       -5    1    3    3    0  502 -0.83179185128E+03 -0.17487553412E+02  0.71875681996E+03  0.10994621206E+04  0.46999998093E+01 0.  1.
</event>
<event>
 5   0  0.1664168E-04  0.1987598E+04  0.7818609E-02  0.8612441E-01
       -1   -1    0    0    0  501  0.00000000000E+00  0.00000000000E+00  0.58148145187E+03  0.58148145189E+03  0.50400001928E-02 0. -1.
        1   -1    0    0  501    0  0.00000000000E+00  0.00000000000E+00 -0.16984838809E+04  0.16984838809E+04  0.50400001928E-02 0.  1.
    10030    2    1    2    0    0  0.00000000000E+00  0.00000000000E+00 -0.11170024291E+04  0.22799653328E+04  0.19875984233E+04 0.  0.
        5    1    3    3  502    0  0.21719171957E+03 -0.78594592108E+03  0.93157655967E+02  0.82072143434E+03  0.46999998093E+01 0. -1.
       -5    1    3    3    0  502 -0.21719171957E+03  0.78594592108E+03 -0.12101600850E+04  0.14592438985E+04  0.46999998093E+01 0.  1.
</event>
<event>
 5   0  0.3460648E-04  0.1716325E+04  0.7818609E-02  0.8752108E-01
       -2   -1    0    0    0  501  0.00000000000E+00  0.00000000000E+00  0.54574526072E+03  0.54574526073E+03  0.25500000920E-02 0.  1.
        2   -1    0    0  501    0  0.00000000000E+00  0.00000000000E+00 -0.13494257535E+04  0.13494257535E+04  0.25500000920E-02 0. -1.
    10030    2    1    2    0    0  0.00000000000E+00  0.00000000000E+00 -0.80368049277E+03  0.18951710142E+04  0.17163248057E+04 0.  0.
        5    1    3    3  502    0 -0.14485098883E+03 -0.79964507480E+03 -0.70626115590E+03  0.10766805306E+04  0.46999998093E+01 0.  1.
       -5    1    3    3    0  502  0.14485098883E+03  0.79964507480E+03 -0.97419336872E+02  0.81849048364E+03  0.46999998093E+01 0. -1.
</event>
<event>
 5   0  0.1696052E-04  0.1972900E+04  0.7818609E-02  0.8619397E-01
       -1   -1    0    0    0  501  0.00000000000E+00  0.00000000000E+00  0.13624589579E+04  0.13624589579E+04  0.50400001928E-02 0. -1.
        1   -1    0    0  501    0  0.00000000000E+00  0.00000000000E+00 -0.71421143291E+03  0.71421143292E+03  0.50400001928E-02 0.  1.
    10030    2    1    2    0    0  0.00000000000E+00  0.00000000000E+00  0.64824752497E+03  0.20766703908E+04  0.19729001643E+04 0.  0.
        4    1    3    3  502    0  0.65176215865E+02  0.83086162848E+03  0.87961540692E+03  0.12117358878E+04  0.12699999809E+01 0. -1.
       -4    1    3    3    0  502 -0.65176215865E+02 -0.83086162848E+03 -0.23136788195E+03  0.86493450301E+03  0.12699999809E+01 0.  1.
</event>
<event>
 5   0  0.1696052E-04  0.1940797E+04  0.7818609E-02  0.8634811E-01
        1   -1    0    0  501    0  0.00000000000E+00  0.00000000000E+00  0.12471521668E+04  0.12471521668E+04  0.50400001928E-02 0. -1.
       -1   -1    0    0    0  501  0.00000000000E+00  0.00000000000E+00 -0.75505870617E+03  0.75505870618E+03  0.50400001928E-02 0.  1.
    10030    2    1    2    0    0  0.00000000000E+00  0.00000000000E+00  0.49209346062E+03  0.20022108730E+04  0.19407968482E+04 0.  0.
        4    1    3    3  502    0  0.62194050158E+03  0.44520221854E+03 -0.37005836456E+03  0.84968218116E+03  0.12699999809E+01 0.  1.
       -4    1    3    3    0  502 -0.62194050158E+03 -0.44520221854E+03  0.86215182518E+03  0.11525286918E+04  0.12699999809E+01 0. -1.
</event>
<event>
 5   0  0.1664168E-04  0.1965499E+04  0.7818609E-02  0.8622923E-01
        1   -1    0    0  501    0  0.00000000000E+00  0.00000000000E+00  0.15710202443E+04  0.15710202443E+04  0.50400001928E-02 0. -1.
       -1   -1    0    0    0  501  0.00000000000E+00  0.00000000000E+00 -0.61475728505E+03  0.61475728507E+03  0.50400001928E-02 0.  1.
    10030    2    1    2    0    0  0.00000000000E+00  0.00000000000E+00  0.95626295925E+03  0.21857775294E+04  0.19654985527E+04 0.  0.
        5    1    3    3  502    0  0.39771996035E+03 -0.34113056956E+03  0.14027067254E+04  0.14973842125E+04  0.46999998093E+01 0. -1.
       -5    1    3    3    0  502 -0.39771996035E+03  0.34113056956E+03 -0.44644376618E+03  0.68839331687E+03  0.46999998093E+01 0.  1.
</event>
<event>
 5   0  0.1696052E-04  0.2161195E+04  0.7818609E-02  0.8534755E-01
       -1   -1    0    0    0  501  0.00000000000E+00  0.00000000000E+00  0.67240442337E+03  0.67240442338E+03  0.50400001928E-02 0.  1.
        1   -1    0    0  501    0  0.00000000000E+00  0.00000000000E+00 -0.17365903947E+04  0.17365903947E+04  0.50400001928E-02 0. -1.
    10030    2    1    2    0    0  0.00000000000E+00  0.00000000000E+00 -0.10641859713E+04  0.24089948181E+04  0.21611950981E+04 0.  0.
        4    1    3    3  502    0  0.52018747826E+03 -0.25617169390E+03 -0.15484945267E+04  0.16534980682E+04  0.12699999809E+01 0. -1.
       -4    1    3    3    0  502 -0.52018747826E+03  0.25617169390E+03  0.48430855544E+03  0.75549674987E+03  0.12699999809E+01 0.  1.
</event>
<event>
 5   0  0.1696052E-04  0.1915490E+04  0.7818609E-02  0.8647184E-01
        1   -1    0    0  501    0  0.00000000000E+00  0.00000000000E+00  0.11545019102E+04  0.11545019103E+04  0.50400001928E-02 0. -1.
       -1   -1    0    0    0  501  0.00000000000E+00  0.00000000000E+00 -0.79452032224E+03  0.79452032226E+03  0.50400001928E-02 0.  1.
    10030    2    1    2    0    0  0.00000000000E+00  0.00000000000E+00  0.35998158800E+03  0.19490222325E+04  0.19154897335E+04 0.  0.
        4    1    3    3  502    0  0.82990313398E+03  0.13074982617E+03 -0.28788372927E+03  0.88809536837E+03  0.12699999809E+01 0.  1.
       -4    1    3    3    0  502 -0.82990313398E+03 -0.13074982617E+03  0.64786531728E+03  0.10609268641E+04  0.12699999809E+01 0. -1.
</event>
<event>
 5   0  0.1696052E-04  0.1955875E+04  0.7818609E-02  0.8627533E-01
        1   -1    0    0  501    0  0.00000000000E+00  0.00000000000E+00  0.82131651808E+03  0.82131651809E+03  0.50400001928E-02 0. -1.
       -1   -1    0    0    0  501  0.00000000000E+00  0.00000000000E+00 -0.11644249940E+04  0.11644249940E+04  0.50400001928E-02 0.  1.
    10030    2    1    2    0    0  0.00000000000E+00  0.00000000000E+00 -0.34310847595E+03  0.19857415121E+04  0.19558747216E+04 0.  0.
        4    1    3    3  502    0 -0.34413432687E+03 -0.32538331402E+03 -0.10402229303E+04  0.11429646073E+04  0.12699999809E+01 0.  1.
       -4    1    3    3    0  502  0.34413432687E+03  0.32538331402E+03  0.69711445433E+03  0.84277690483E+03  0.12699999809E+01 0. -1.
</event>
<event>
 5   0  0.1650221E-04  0.2117995E+04  0.7818609E-02  0.8553357E-01
       -1   -1    0    0    0  501  0.00000000000E+00  0.00000000000E+00  0.55446649477E+03  0.55446649479E+03  0.50400001928E-02 0.  1.
        1   -1    0    0  501    0  0.00000000000E+00  0.00000000000E+00 -0.20226219873E+04  0.20226219874E+04  0.50400001928E-02 0. -1.
    10030    2    1    2    0    0  0.00000000000E+00  0.00000000000E+00 -0.14681554926E+04  0.25770884821E+04  0.21179953953E+04 0.  0.
        1    1    3    3  502    0  0.13322724561E+03  0.55534427046E+03 -0.18191910727E+04  0.19067283280E+04  0.50400001928E-02 0. -1.
       -1    1    3    3    0  502 -0.13322724561E+03 -0.55534427046E+03  0.35103558015E+03  0.67036015414E+03  0.50400001928E-02 0.  1.
</event>
<event>
 5   0  0.3371947E-04  0.2043737E+04  0.7818609E-02  0.8586441E-01
        2   -1    0    0  501    0  0.00000000000E+00  0.00000000000E+00  0.10699834227E+04  0.10699834227E+04  0.25500000920E-02 0. -1.
       -2   -1    0    0    0  501  0.00000000000E+00  0.00000000000E+00 -0.97591749750E+03  0.97591749751E+03  0.25500000920E-02 0.  1.
    10030    2    1    2    0    0  0.00000000000E+00  0.00000000000E+00  0.94065925151E+02  0.20459009202E+04  0.20437373062E+04 0.  0.
        2    1    3    3  502    0  0.44580191035E+03 -0.27929450466E+03  0.92401449900E+03  0.10632720997E+04  0.25500000920E-02 0. -1.
       -2    1    3    3    0  502 -0.44580191035E+03  0.27929450466E+03 -0.82994857385E+03  0.98262882048E+03  0.25500000920E-02 0.  1.
</event>
<event>
 5   0  0.1650221E-04  0.1979326E+04  0.7818609E-02  0.8616348E-01
        1   -1    0    0  501    0  0.00000000000E+00  0.00000000000E+00  0.68488432768E+03  0.68488432770E+03  0.50400001928E-02 0.  1.
       -1   -1    0    0    0  501  0.00000000000E+00  0.00000000000E+00 -0.14300705354E+04  0.14300705354E+04  0.50400001928E-02 0. -1.
    10030    2    1    2    0    0  0.00000000000E+00  0.00000000000E+00 -0.74518620768E+03  0.21149548631E+04  0.19793260441E+04 0.  0.
        1    1    3    3  502    0  0.48358618133E+03 -0.26424096395E+03  0.50577808361E+03  0.74799087674E+03  0.50400001928E-02 0.  1.
       -1    1    3    3    0  502 -0.48358618133E+03  0.26424096395E+03 -0.12509642913E+04  0.13669639863E+04  0.50400001928E-02 0. -1.
</event>
<event>
 5   0  0.1650221E-04  0.2033187E+04  0.7818609E-02  0.8591260E-01
        1   -1    0    0  501    0  0.00000000000E+00  0.00000000000E+00  0.12397224303E+04  0.12397224303E+04  0.50400001928E-02 0. -1.
       -1   -1    0    0    0  501  0.00000000000E+00  0.00000000000E+00 -0.83362358979E+03  0.83362358980E+03  0.50400001928E-02 0.  1.
    10030    2    1    2    0    0  0.00000000000E+00  0.00000000000E+00  0.40609884048E+03  0.20733460201E+04  0.20331865263E+04 0.  0.
        1    1    3    3  502    0  0.77872568310E+03  0.55758265106E+03 -0.14448972085E+03  0.96860176634E+03  0.50400001928E-02 0. -1.
       -1    1    3    3    0  502 -0.77872568310E+03 -0.55758265106E+03  0.55058856134E+03  0.11047442537E+04  0.50400001928E-02 0.  1.
</event>
<event>
 5   0  0.3460648E-04  0.2074147E+04  0.7818609E-02  0.8572718E-01
        2   -1    0    0  501    0  0.00000000000E+00  0.00000000000E+00  0.86079726102E+03  0.86079726103E+03  0.25500000920E-02 0. -1.
       -2   -1    0    0    0  501  0.00000000000E+00  0.00000000000E+00 -0.12494474867E+04  0.12494474867E+04  0.25500000920E-02 0.  1.
    10030    2    1    2    0    0  0.00000000000E+00  0.00000000000E+00 -0.38865022569E+03  0.21102447477E+04  0.20741465468E+04 0.  0.
        5    1    3    3  502    0 -0.51459789725E+03  0.11510498916E+03 -0.11028609288E+04  0.12224501923E+04  0.46999998093E+01 0.  1.
       -5    1    3    3    0  502  0.51459789725E+03 -0.11510498916E+03  0.71421070306E+03  0.88779455548E+03  0.46999998093E+01 0. -1.
</event>
<event>
 5   0  0.1222488E-04  0.1371395E+04  0.7818609E-02  0.8974788E-01
        4   -1    0    0  501    0  0.00000000000E+00  0.00000000000E+00  0.40358865394E+03  0.40359065213E+03  0.12699999809E+01 0.  1.
       -4   -1    0    0    0  501  0.00000000000E+00  0.00000000000E+00 -0.11649962948E+04  0.11649969870E+04  0.12699999809E+01 0. -1.
    10030    2    1    2    0    0  0.00000000000E+00  0.00000000000E+00 -0.76140764082E+03  0.15685876391E+04  0.13713954886E+04 0.  0.
        1    1    3    3  502    0 -0.45142434099E+03  0.47183338847E+03 -0.14140647037E+03  0.66813656688E+03  0.50400001928E-02 0.  1.
       -1    1    3    3    0  502  0.45142434099E+03 -0.47183338847E+03 -0.62000117045E+03  0.90045107225E+03  0.50400001928E-02 0. -1.
</event>
<event>
 5   0  0.1708578E-04  0.1966408E+04  0.7818609E-02  0.8622489E-01
       -1   -1    0    0    0  501  0.00000000000E+00  0.00000000000E+00  0.46157719032E+03  0.46157719035E+03  0.50400001928E-02 0. -1.
        1   -1    0    0  501    0  0.00000000000E+00  0.00000000000E+00 -0.20943192637E+04  0.20943192637E+04  0.50400001928E-02 0.  1.
    10030    2    1    2    0    0  0.00000000000E+00  0.00000000000E+00 -0.16327420733E+04  0.25558964540E+04  0.19664078940E+04 0.  0.
        3    1    3    3  502    0  0.91646190528E+03 -0.21075597762E+02 -0.35436685832E+03  0.98281355562E+03  0.10100000352E+00 0. -1.
       -3    1    3    3    0  502 -0.91646190528E+03  0.21075597762E+02 -0.12783752150E+04  0.15730828984E+04  0.10100000352E+00 0.  1.
</event>
<event>
 5   0  0.1696052E-04  0.1960098E+04  0.7818609E-02  0.8625507E-01
       -1   -1    0    0    0  501  0.00000000000E+00  0.00000000000E+00  0.11676789300E+04  0.11676789300E+04  0.50400001928E-02 0. -1.
        1   -1    0    0  501    0  0.00000000000E+00  0.00000000000E+00 -0.82256849468E+03  0.82256849470E+03  0.50400001928E-02 0.  1.
    10030    2    1    2    0    0  0.00000000000E+00  0.00000000000E+00  0.34511043530E+03  0.19902474247E+04  0.19600978544E+04 0.  0.
        4    1    3    3  502    0  0.83386487249E+03 -0.31097768572E+03  0.58930296000E+03  0.10673880916E+04  0.12699999809E+01 0. -1.
       -4    1    3    3    0  502 -0.83386487249E+03  0.31097768572E+03 -0.24419252470E+03  0.92285933306E+03  0.12699999809E+01 0.  1.
</event>
<event>
 5   0  0.1696052E-04  0.1847476E+04  0.7818609E-02  0.8681452E-01
       -1   -1    0    0    0  501  0.00000000000E+00  0.00000000000E+00  0.35155221072E+03  0.35155221076E+03  0.50400001928E-02 0.  1.
        1   -1    0    0  501    0  0.00000000000E+00  0.00000000000E+00 -0.24272113349E+04  0.24272113349E+04  0.50400001928E-02 0. -1.
    10030    2    1    2    0    0  0.00000000000E+00  0.00000000000E+00 -0.20756591242E+04  0.27787635457E+04  0.18474755866E+04 0.  0.
        4    1    3    3  502    0  0.66509134127E+03 -0.12639716480E+03 -0.92564993455E+02  0.68329541665E+03  0.12699999809E+01 0.  1.
       -4    1    3    3    0  502 -0.66509134127E+03  0.12639716480E+03 -0.19830941307E+04  0.20954681290E+04  0.12699999809E+01 0. -1.
</event>
<event>
 5   0  0.3395569E-04  0.1056414E+04  0.7818609E-02  0.9248747E-01
       -2   -1    0    0    0  501  0.00000000000E+00  0.00000000000E+00  0.19484268768E+03  0.19484268770E+03  0.25500000920E-02 0.  1.
        2   -1    0    0  501    0  0.00000000000E+00  0.00000000000E+00 -0.14319379790E+04  0.14319379790E+04  0.25500000920E-02 0. -1.
    10030    2    1    2    0    0  0.00000000000E+00  0.00000000000E+00 -0.12370952914E+04  0.16267806667E+04  0.10564140182E+04 0.  0.
        4    1    3    3  502    0  0.39222107926E+03 -0.29392661848E+03 -0.31533505909E+03  0.58281047045E+03  0.12699999809E+01 0.  1.
       -4    1    3    3    0  502 -0.39222107926E+03  0.29392661848E+03 -0.92176023227E+03  0.10439701963E+04  0.12699999809E+01 0. -1.
</event>
<event>
 5   0  0.1222488E-04  0.1977623E+04  0.7818609E-02  0.8617155E-01
        3   -1    0    0  501    0  0.00000000000E+00  0.00000000000E+00  0.16258034370E+04  0.16258034401E+04  0.10100000352E+00 0. -1.
       -3   -1    0    0    0  501  0.00000000000E+00  0.00000000000E+00 -0.60139368381E+03  0.60139369229E+03  0.10100000352E+00 0.  1.
    10030    2    1    2    0    0  0.00000000000E+00  0.00000000000E+00  0.10244097531E+04  0.22271971324E+04  0.19776227457E+04 0.  0.
        5    1    3    3  502    0  0.48074933479E+03 -0.85987315473E+03  0.41648406746E+03  0.10695713317E+04  0.46999998093E+01 0.  1.
       -5    1    3    3    0  502 -0.48074933479E+03  0.85987315473E+03  0.60792568569E+03  0.11576258007E+04  0.46999998093E+01 0. -1.
</event>
<event>
 5   0  0.1708578E-04  0.2022484E+04  0.7818609E-02  0.8596180E-01
       -1   -1    0    0    0  501  0.00000000000E+00  0.00000000000E+00  0.81028706620E+03  0.81028706621E+03  0.50400001928E-02 0.  1.
        1   -1    0    0  501    0  0.00000000000E+00  0.00000000000E+00 -0.12620352010E+04  0.12620352010E+04  0.50400001928E-02 0. -1.
    10030    2    1    2    0    0  0.00000000000E+00  0.00000000000E+00 -0.45174813482E+03  0.20723222672E+04  0.20224844133E+04 0.  0.
        3    1    3    3  502    0  0.44186117148E+03  0.27084646912E+03  0.66386190271E+03  0.84220647158E+03  0.10100000352E+00 0.  1.
       -3    1    3    3    0  502 -0.44186117148E+03 -0.27084646912E+03 -0.11156100375E+04  0.12301157957E+04  0.10100000352E+00 0. -1.
</event>
<event>
 5   0  0.3371947E-04  0.1108496E+04  0.7818609E-02  0.9196951E-01
       -2   -1    0    0    0  501  0.00000000000E+00  0.00000000000E+00  0.28682487701E+03  0.28682487702E+03  0.25500000920E-02 0. -1.
        2   -1    0    0  501    0  0.00000000000E+00  0.00000000000E+00 -0.10710040015E+04  0.10710040015E+04  0.25500000920E-02 0.  1.
    10030    2    1    2    0    0  0.00000000000E+00  0.00000000000E+00 -0.78417912446E+03  0.13578288785E+04  0.11084955408E+04 0.  0.
        2    1    3    3  502    0  0.29951666621E+03  0.18428958555E+03  0.13265757381E+03  0.37586023542E+03  0.25500000920E-02 0. -1.
       -2    1    3    3    0  502 -0.29951666621E+03 -0.18428958555E+03 -0.91683669827E+03  0.98196864307E+03  0.25500000920E-02 0.  1.
</event>
<event>
 5   0  0.3460648E-04  0.2025953E+04  0.7818609E-02  0.8594582E-01
       -2   -1    0    0    0  501  0.00000000000E+00  0.00000000000E+00  0.74183745959E+03  0.74183745960E+03  0.25500000920E-02 0. -1.
        2   -1    0    0  501    0  0.00000000000E+00  0.00000000000E+00 -0.13832156839E+04  0.13832156839E+04  0.25500000920E-02 0.  1.
    10030    2    1    2    0    0  0.00000000000E+00  0.00000000000E+00 -0.64137822427E+03  0.21250531435E+04  0.20259528218E+04 0.  0.
        5    1    3    3  502    0  0.99462694999E+03  0.14059234858E+02 -0.11996855524E+03  0.10019455953E+04  0.46999998093E+01 0. -1.
       -5    1    3    3    0  502 -0.99462694999E+03 -0.14059234858E+02 -0.52140966903E+03  0.11231075481E+04  0.46999998093E+01 0.  1.
</event>
<event>
 5   0  0.3431030E-04  0.1792872E+04  0.7818609E-02  0.8710099E-01
        2   -1    0    0  501    0  0.00000000000E+00  0.00000000000E+00  0.17651405007E+04  0.17651405007E+04  0.25500000920E-02 0.  1.
       -2   -1    0    0    0  501  0.00000000000E+00  0.00000000000E+00 -0.45525958305E+03  0.45525958306E+03  0.25500000920E-02 0. -1.
    10030    2    1    2    0    0  0.00000000000E+00  0.00000000000E+00  0.13098809177E+04  0.22204000838E+04  0.17928715831E+04 0.  0.
        3    1    3    3  502    0 -0.77700236269E+03 -0.24098303664E+03  0.11212854726E+04  0.13853110181E+04  0.10100000352E+00 0.  1.
       -3    1    3    3    0  502  0.77700236269E+03  0.24098303664E+03  0.18859544511E+03  0.83508906573E+03  0.10100000352E+00 0. -1.
</event>
<event>
 5   0  0.1643565E-04  0.1990520E+04  0.7818609E-02  0.8611066E-01
        1   -1    0    0  501    0  0.00000000000E+00  0.00000000000E+00  0.11233281315E+04  0.11233281315E+04  0.50400001928E-02 0.  1.
       -1   -1    0    0    0  501  0.00000000000E+00  0.00000000000E+00 -0.88179281132E+03  0.88179281134E+03  0.50400001928E-02 0. -1.
    10030    2    1    2    0    0  0.00000000000E+00  0.00000000000E+00  0.24153532013E+03  0.20051209428E+04  0.19905202045E+04 0.  0.
        2    1    3    3  502    0  0.61806005581E+02  0.21771214026E+03  0.10970641286E+04  0.11201643900E+04  0.25500000920E-02 0.  1.
       -2    1    3    3    0  502 -0.61806005581E+02 -0.21771214026E+03 -0.85552880844E+03  0.88495655284E+03  0.25500000920E-02 0. -1.
</event>
<event>
 5   0  0.3431030E-04  0.1931570E+04  0.7818609E-02  0.8639300E-01
        2   -1    0    0  501    0  0.00000000000E+00  0.00000000000E+00  0.11365962811E+04  0.11365962811E+04  0.25500000920E-02 0.  1.
       -2   -1    0    0    0  501  0.00000000000E+00  0.00000000000E+00 -0.82064383195E+03  0.82064383195E+03  0.25500000920E-02 0. -1.
    10030    2    1    2    0    0  0.00000000000E+00  0.00000000000E+00  0.31595244918E+03  0.19572401131E+04  0.19315700635E+04 0.  0.
        3    1    3    3  502    0  0.70466735147E+03  0.58058588323E+03  0.47696889860E+03  0.10301142580E+04  0.10100000352E+00 0.  1.
       -3    1    3    3    0  502 -0.70466735147E+03 -0.58058588323E+03 -0.16101644942E+03  0.92712585512E+03  0.10100000352E+00 0. -1.
</event>
<event>
 5   0  0.1664168E-04  0.1972090E+04  0.7818609E-02  0.8619782E-01
       -1   -1    0    0    0  501  0.00000000000E+00  0.00000000000E+00  0.10642695331E+04  0.10642695331E+04  0.50400001928E-02 0.  1.
        1   -1    0    0  501    0  0.00000000000E+00  0.00000000000E+00 -0.91357010401E+03  0.91357010403E+03  0.50400001928E-02 0. -1.
    10030    2    1    2    0    0  0.00000000000E+00  0.00000000000E+00  0.15069942908E+03  0.19778396371E+04  0.19720900873E+04 0.  0.
        5    1    3    3  502    0 -0.72113317382E+03  0.46511268632E+03 -0.41176155730E+03  0.95180488306E+03  0.46999998093E+01 0. -1.
       -5    1    3    3    0  502  0.72113317382E+03 -0.46511268632E+03  0.56246098638E+03  0.10260347541E+04  0.46999998093E+01 0.  1.
</event>
<event>
 5   0  0.1708578E-04  0.1901861E+04  0.7818609E-02  0.8653931E-01
       -1   -1    0    0    0  501  0.00000000000E+00  0.00000000000E+00  0.13704394968E+04  0.13704394969E+04  0.50400001928E-02 0. -1.
        1   -1    0    0  501    0  0.00000000000E+00  0.00000000000E+00 -0.65983822887E+03  0.65983822889E+03  0.50400001928E-02 0.  1.
    10030    2    1    2    0    0  0.00000000000E+00  0.00000000000E+00  0.71060126797E+03  0.20302777257E+04  0.19018605316E+04 0.  0.
        3    1    3    3  502    0 -0.52655551668E+03 -0.38532957379E+03 -0.38316588501E+03  0.75667410305E+03  0.10100000352E+00 0.  1.
       -3    1    3    3    0  502  0.52655551668E+03  0.38532957379E+03  0.10937671530E+04  0.12736036227E+04  0.10100000352E+00 0. -1.
</event>
<event>
 5   0  0.1696052E-04  0.2135719E+04  0.7818609E-02  0.8545670E-01
        1   -1    0    0  501    0  0.00000000000E+00  0.00000000000E+00  0.18452084938E+04  0.18452084938E+04  0.50400001928E-02 0.  1.
       -1   -1    0    0    0  501  0.00000000000E+00  0.00000000000E+00 -0.61799199487E+03  0.61799199489E+03  0.50400001928E-02 0. -1.
    10030    2    1    2    0    0  0.00000000000E+00  0.00000000000E+00  0.12272164990E+04  0.24632004887E+04  0.21357191558E+04 0.  0.
        4    1    3    3  502    0  0.19334351307E+03  0.37443007247E+03 -0.51803822566E+03  0.66779099227E+03  0.12699999809E+01 0. -1.
       -4    1    3    3    0  502 -0.19334351307E+03 -0.37443007247E+03  0.17452547246E+04  0.17954094965E+04  0.12699999809E+01 0.  1.
</event>
<event>
 5   0  0.3395569E-04  0.2064731E+04  0.7818609E-02  0.8576941E-01
       -2   -1    0    0    0  501  0.00000000000E+00  0.00000000000E+00  0.68229647125E+03  0.68229647125E+03  0.25500000920E-02 0. -1.
        2   -1    0    0  501    0  0.00000000000E+00  0.00000000000E+00 -0.15620454144E+04  0.15620454144E+04  0.25500000920E-02 0.  1.
    10030    2    1    2    0    0  0.00000000000E+00  0.00000000000E+00 -0.87974894315E+03  0.22443418856E+04  0.20647305627E+04 0.  0.
        4    1    3    3  502    0 -0.52334264072E+03 -0.13551975887E+03 -0.13958842592E+04  0.14969126904E+04  0.12699999809E+01 0.  1.
       -4    1    3    3    0  502  0.52334264072E+03  0.13551975887E+03  0.51613531602E+03  0.74742919530E+03  0.12699999809E+01 0. -1.
</event>
<event>
 5   0  0.1696052E-04  0.1953863E+04  0.7818609E-02  0.8628500E-01
       -1   -1    0    0    0  501  0.00000000000E+00  0.00000000000E+00  0.43844240423E+03  0.43844240426E+03  0.50400001928E-02 0.  1.
        1   -1    0    0  501    0  0.00000000000E+00  0.00000000000E+00 -0.21767856354E+04  0.21767856354E+04  0.50400001928E-02 0. -1.
    10030    2    1    2    0    0  0.00000000000E+00  0.00000000000E+00 -0.17383432311E+04  0.26152280396E+04  0.19538629711E+04 0.  0.
        4    1    3    3  502    0 -0.57747615920E+03  0.43062148904E+03  0.14110700107E+02  0.72049587509E+03  0.12699999809E+01 0. -1.
       -4    1    3    3    0  502  0.57747615920E+03 -0.43062148904E+03 -0.17524539312E+04  0.18947321645E+04  0.12699999809E+01 0.  1.
</event>
<event>
 5   0  0.3460648E-04  0.2019671E+04  0.7818609E-02  0.8597479E-01
       -2   -1    0    0    0  501  0.00000000000E+00  0.00000000000E+00  0.55029802621E+03  0.55029802621E+03  0.25500000920E-02 0. -1.
        2   -1    0    0  501    0  0.00000000000E+00  0.00000000000E+00 -0.18531195416E+04  0.18531195416E+04  0.25500000920E-02 0.  1.
    10030    2    1    2    0    0  0.00000000000E+00  0.00000000000E+00 -0.13028215154E+04  0.24034175679E+04  0.20196712862E+04 0.  0.
        5    1    3    3  502    0 -0.29431307994E+03 -0.25854901248E+03 -0.17589961562E+04  0.18020980407E+04  0.46999998093E+01 0.  1.
       -5    1    3    3    0  502  0.29431307994E+03  0.25854901248E+03  0.45617464074E+03  0.60131952715E+03  0.46999998093E+01 0. -1.
</event>
<event>
 5   0  0.1708578E-04  0.2007583E+04  0.7818609E-02  0.8603084E-01
        1   -1    0    0  501    0  0.00000000000E+00  0.00000000000E+00  0.18053737425E+04  0.18053737425E+04  0.50400001928E-02 0. -1.
       -1   -1    0    0    0  501  0.00000000000E+00  0.00000000000E+00 -0.55811012682E+03  0.55811012684E+03  0.50400001928E-02 0.  1.
    10030    2    1    2    0    0  0.00000000000E+00  0.00000000000E+00  0.12472636156E+04  0.23634838693E+04  0.20075829929E+04 0.  0.
        3    1    3    3  502    0 -0.67719393483E+03  0.22620318984E+03  0.14542914119E+04  0.16200996974E+04  0.10100000352E+00 0. -1.
       -3    1    3    3    0  502  0.67719393483E+03 -0.22620318984E+03 -0.20702779627E+03  0.74338417194E+03  0.10100000352E+00 0.  1.
</event>
<event>
 5   0  0.3371947E-04  0.1941857E+04  0.7818609E-02  0.8634297E-01
       -2   -1    0    0    0  501  0.00000000000E+00  0.00000000000E+00  0.87524455442E+03  0.87524455443E+03  0.25500000920E-02 0.  1.
        2   -1    0    0  501    0  0.00000000000E+00  0.00000000000E+00 -0.10770731700E+04  0.10770731700E+04  0.25500000920E-02 0. -1.
    10030    2    1    2    0    0  0.00000000000E+00  0.00000000000E+00 -0.20182861558E+03  0.19523177244E+04  0.19418572829E+04 0.  0.
        2    1    3    3  502    0  0.51957325503E+03 -0.72990822033E+03  0.27524019072E+03  0.93727239372E+03  0.25500000920E-02 0.  1.
       -2    1    3    3    0  502 -0.51957325503E+03  0.72990822033E+03 -0.47706880630E+03  0.10150453307E+04  0.25500000920E-02 0. -1.
</event>
<event>
 5   0  0.3395569E-04  0.2113127E+04  0.7818609E-02  0.8555483E-01
        2   -1    0    0  501    0  0.00000000000E+00  0.00000000000E+00  0.16483860727E+04  0.16483860727E+04  0.25500000920E-02 0.  1.
       -2   -1    0    0    0  501  0.00000000000E+00  0.00000000000E+00 -0.67722404950E+03  0.67722404950E+03  0.25500000920E-02 0. -1.
    10030    2    1    2    0    0  0.00000000000E+00  0.00000000000E+00  0.97116202319E+03  0.23256101222E+04  0.21131272477E+04 0.  0.
        4    1    3    3  502    0 -0.14086436064E+03  0.83333515078E+03 -0.21223849014E+03  0.87139946707E+03  0.12699999809E+01 0. -1.
       -4    1    3    3    0  502  0.14086436064E+03 -0.83333515078E+03  0.11834005133E+04  0.14542106551E+04  0.12699999809E+01 0.  1.
</event>
<event>
 5   0  0.3371947E-04  0.2029488E+04  0.7818609E-02  0.8592957E-01
       -2   -1    0    0    0  501  0.00000000000E+00  0.00000000000E+00  0.13073721333E+04  0.13073721333E+04  0.25500000920E-02 0. -1.
        2   -1    0    0  501    0  0.00000000000E+00  0.00000000000E+00 -0.78761477847E+03  0.78761477847E+03  0.25500000920E-02 0.  1.
    10030    2    1    2    0    0  0.00000000000E+00  0.00000000000E+00  0.51975735483E+03  0.20949869118E+04  0.20294882243E+04 0.  0.
        2    1    3    3  502    0 -0.84046721318E+03  0.11240146806E+03  0.83526017262E+03  0.11902431610E+04  0.25500000920E-02 0. -1.
       -2    1    3    3    0  502  0.84046721318E+03 -0.11240146806E+03 -0.31550281779E+03  0.90474375073E+03  0.25500000920E-02 0.  1.
</event>
<event>
 5   0  0.1696052E-04  0.2006943E+04  0.7818609E-02  0.8603381E-01
        1   -1    0    0  501    0  0.00000000000E+00  0.00000000000E+00  0.24865054824E+04  0.24865054824E+04  0.50400001928E-02 0. -1.
       -1   -1    0    0    0  501  0.00000000000E+00  0.00000000000E+00 -0.40496806929E+03  0.40496806933E+03  0.50400001928E-02 0.  1.
    10030    2    1    2    0    0  0.00000000000E+00  0.00000000000E+00  0.20815374131E+04  0.28914735517E+04  0.20069432723E+04 0.  0.
        4    1    3    3  502    0 -0.78833930801E+03 -0.51329643146E+03  0.15439991738E+04  0.18080064029E+04  0.12699999809E+01 0.  1.
       -4    1    3    3    0  502  0.78833930801E+03  0.51329643146E+03  0.53753823929E+03  0.10834671489E+04  0.12699999809E+01 0. -1.
</event>
<event>
 5   0  0.3460648E-04  0.1940995E+04  0.7818609E-02  0.8634715E-01
       -2   -1    0    0    0  501  0.00000000000E+00  0.00000000000E+00  0.87459996931E+03  0.87459996931E+03  0.25500000920E-02 0.  1.
        2   -1    0    0  501    0  0.00000000000E+00  0.00000000000E+00 -0.10769100807E+04  0.10769100807E+04  0.25500000920E-02 0. -1.
    10030    2    1    2    0    0  0.00000000000E+00  0.00000000000E+00 -0.20231011140E+03  0.19515100500E+04  0.19409951299E+04 0.  0.
        5    1    3    3  502    0  0.30411888981E+03  0.66737442991E+03  0.53787167438E+03  0.90950808514E+03  0.46999998093E+01 0. -1.
       -5    1    3    3    0  502 -0.30411888981E+03 -0.66737442991E+03 -0.74018178578E+03  0.10420019649E+04  0.46999998093E+01 0.  1.
</event>
<event>
 5   0  0.1643565E-04  0.1025506E+04  0.7818609E-02  0.9281004E-01
       -1   -1    0    0    0  501  0.00000000000E+00  0.00000000000E+00  0.52919875482E+03  0.52919875484E+03  0.50400001928E-02 0.  1.
        1   -1    0    0  501    0  0.00000000000E+00  0.00000000000E+00 -0.49681863428E+03  0.49681863431E+03  0.50400001928E-02 0. -1.
    10030    2    1    2    0    0  0.00000000000E+00  0.00000000000E+00  0.32380120537E+02  0.10260173891E+04  0.10255063192E+04 0.  0.
        2    1    3    3  502    0 -0.35858820598E+02  0.26455911764E+03 -0.42179336162E+03  0.49918635965E+03  0.25500000920E-02 0. -1.
       -2    1    3    3    0  502  0.35858820598E+02 -0.26455911764E+03  0.45417348216E+03  0.52683102950E+03  0.25500000920E-02 0.  1.
</event>
<event>
 5   0  0.1650221E-04  0.2128092E+04  0.7818609E-02  0.8548969E-01
        1   -1    0    0  501    0  0.00000000000E+00  0.00000000000E+00  0.15316384680E+04  0.15316384680E+04  0.50400001928E-02 0. -1.
       -1   -1    0    0    0  501  0.00000000000E+00  0.00000000000E+00 -0.73920442223E+03  0.73920442224E+03  0.50400001928E-02 0.  1.
    10030    2    1    2    0    0  0.00000000000E+00  0.00000000000E+00  0.79243404578E+03  0.22708428903E+04  0.21280920364E+04 0.  0.
        1    1    3    3  502    0  0.26166883383E+03 -0.88707363526E+03  0.95765053050E+03  0.13313394577E+04  0.50400001928E-02 0. -1.
       -1    1    3    3    0  502 -0.26166883383E+03  0.88707363526E+03 -0.16521648472E+03  0.93950343258E+03  0.50400001928E-02 0.  1.
</event>
<event>
 5   0  0.1664168E-04  0.1968261E+04  0.7818609E-02  0.8621605E-01
       -1   -1    0    0    0  501  0.00000000000E+00  0.00000000000E+00  0.38878419295E+03  0.38878419299E+03  0.50400001928E-02 0. -1.
        1   -1    0    0  501    0  0.00000000000E+00  0.00000000000E+00 -0.24911322066E+04  0.24911322066E+04  0.50400001928E-02 0.  1.
    10030    2    1    2    0    0  0.00000000000E+00  0.00000000000E+00 -0.21023480136E+04  0.28799163996E+04  0.19682609832E+04 0.  0.
        5    1    3    3  502    0  0.22205056089E+02 -0.83713288260E+03 -0.29482808700E+03  0.88782330366E+03  0.46999998093E+01 0. -1.
       -5    1    3    3    0  502 -0.22205056089E+02  0.83713288260E+03 -0.18075199266E+04  0.19920930959E+04  0.46999998093E+01 0.  1.
</event>
<event>
 5   0  0.1696052E-04  0.2001826E+04  0.7818609E-02  0.8605767E-01
        1   -1    0    0  501    0  0.00000000000E+00  0.00000000000E+00  0.84687310171E+03  0.84687310172E+03  0.50400001928E-02 0. -1.
       -1   -1    0    0    0  501  0.00000000000E+00  0.00000000000E+00 -0.11829721260E+04  0.11829721260E+04  0.50400001928E-02 0.  1.
    10030    2    1    2    0    0  0.00000000000E+00  0.00000000000E+00 -0.33609902430E+03  0.20298452277E+04  0.20018264396E+04 0.  0.
        4    1    3    3  502    0 -0.63318707493E+03 -0.95619753884E+02  0.61197469021E+03  0.88576726263E+03  0.12699999809E+01 0. -1.
       -4    1    3    3    0  502  0.63318707493E+03  0.95619753884E+02 -0.94807371451E+03  0.11440779651E+04  0.12699999809E+01 0.  1.
</event>
<event>
 5   0  0.3387881E-04  0.1975494E+04  0.7818609E-02  0.8618164E-01
        2   -1    0    0  501    0  0.00000000000E+00  0.00000000000E+00  0.78103025345E+03  0.78103025346E+03  0.25500000920E-02 0.  1.
       -2   -1    0    0    0  501  0.00000000000E+00  0.00000000000E+00 -0.12491761336E+04  0.12491761336E+04  0.25500000920E-02 0. -1.
    10030    2    1    2    0    0  0.00000000000E+00  0.00000000000E+00 -0.46814588011E+03  0.20302063870E+04  0.19754942189E+04 0.  0.
        1    1    3    3  502    0  0.80423935203E+03  0.22812525926E+03  0.30661820911E+03  0.89042506448E+03  0.50400001928E-02 0.  1.
       -1    1    3    3    0  502 -0.80423935203E+03 -0.22812525926E+03 -0.77476408922E+03  0.11397813226E+04  0.50400001928E-02 0. -1.
</event>
<event>
 5   0  0.1650221E-04  0.2029959E+04  0.7818609E-02  0.8592740E-01
       -1   -1    0    0    0  501  0.00000000000E+00  0.00000000000E+00  0.92767308290E+03  0.92767308292E+03  0.50400001928E-02 0.  1.
        1   -1    0    0  501    0  0.00000000000E+00  0.00000000000E+00 -0.11105028498E+04  0.11105028498E+04  0.50400001928E-02 0. -1.
    10030    2    1    2    0    0  0.00000000000E+00  0.00000000000E+00 -0.18282976690E+03  0.20381759327E+04  0.20299592137E+04 0.  0.
        1    1    3    3  502    0 -0.50733859510E+03 -0.10288373602E+03  0.78516311091E+03  0.94045660398E+03  0.50400001928E-02 0.  1.
       -1    1    3    3    0  502  0.50733859510E+03  0.10288373602E+03 -0.96799287781E+03  0.10977193288E+04  0.50400001928E-02 0. -1.
</event>
<event>
 5   0  0.3431030E-04  0.1960489E+04  0.7818609E-02  0.8625320E-01
       -2   -1    0    0    0  501  0.00000000000E+00  0.00000000000E+00  0.80004878618E+03  0.80004878619E+03  0.25500000920E-02 0. -1.
        2   -1    0    0  501    0  0.00000000000E+00  0.00000000000E+00 -0.12010253475E+04  0.12010253475E+04  0.25500000920E-02 0.  1.
    10030    2    1    2    0    0  0.00000000000E+00  0.00000000000E+00 -0.40097656133E+03  0.20010741337E+04  0.19604885834E+04 0.  0.
        3    1    3    3  502    0 -0.95890983668E+02 -0.54357083159E+03  0.62635229812E+03  0.83485420360E+03  0.10100000352E+00 0. -1.
       -3    1    3    3    0  502  0.95890983668E+02  0.54357083159E+03 -0.10273288595E+04  0.11662199301E+04  0.10100000352E+00 0.  1.
</event>
<event>
 5   0  0.3387881E-04  0.2018171E+04  0.7818609E-02  0.8598172E-01
        2   -1    0    0  501    0  0.00000000000E+00  0.00000000000E+00  0.10648703155E+04  0.10648703155E+04  0.25500000920E-02 0.  1.
       -2   -1    0    0    0  501  0.00000000000E+00  0.00000000000E+00 -0.95622297922E+03  0.95622297922E+03  0.25500000920E-02 0. -1.
    10030    2    1    2    0    0  0.00000000000E+00  0.00000000000E+00  0.10864733629E+03  0.20210932947E+04  0.20181709200E+04 0.  0.
        1    1    3    3  502    0  0.25065974687E+03  0.97562221071E+03  0.11428071241E+03  0.10137697411E+04  0.50400001928E-02 0.  1.
       -1    1    3    3    0  502 -0.25065974687E+03 -0.97562221071E+03 -0.56333761264E+01  0.10073235536E+04  0.50400001928E-02 0. -1.
</event>
<event>
 5   0  0.3387881E-04  0.1697955E+04  0.7818609E-02  0.8762531E-01
       -2   -1    0    0    0  501  0.00000000000E+00  0.00000000000E+00  0.97905249353E+03  0.97905249353E+03  0.25500000920E-02 0. -1.
        2   -1    0    0  501    0  0.00000000000E+00  0.00000000000E+00 -0.73618442403E+03  0.73618442403E+03  0.25500000920E-02 0.  1.
    10030    2    1    2    0    0  0.00000000000E+00  0.00000000000E+00  0.24286806950E+03  0.17152369176E+04  0.16979554718E+04 0.  0.
        1    1    3    3  502    0 -0.28618342998E+03  0.57308948051E+03 -0.44139972884E+03  0.77792430795E+03  0.50400001928E-02 0.  1.
       -1    1    3    3    0  502  0.28618342998E+03 -0.57308948051E+03  0.68426779833E+03  0.93731260961E+03  0.50400001928E-02 0. -1.
</event>
<event>
 5   0  0.3460648E-04  0.2004206E+04  0.7818609E-02  0.8604657E-01
       -2   -1    0    0    0  501  0.00000000000E+00  0.00000000000E+00  0.42194369058E+03  0.42194369058E+03  0.25500000920E-02 0. -1.
        2   -1    0    0  501    0  0.00000000000E+00  0.00000000000E+00 -0.23799642380E+04  0.23799642380E+04  0.25500000920E-02 0.  1.
    10030    2    1    2    0    0  0.00000000000E+00  0.00000000000E+00 -0.19580205474E+04  0.28019079286E+04  0.20042064704E+04 0.  0.
        5    1    3    3  502    0 -0.40266875333E+03 -0.77229242452E+03 -0.16718541561E+04  0.18851249622E+04  0.46999998093E+01 0.  1.
       -5    1    3    3    0  502  0.40266875333E+03  0.77229242452E+03 -0.28616639129E+03  0.91678296635E+03  0.46999998093E+01 0. -1.
</event>
<event>
 5   0  0.1664168E-04  0.1536862E+04  0.7818609E-02  0.8860303E-01
       -1   -1    0    0    0  501  0.00000000000E+00  0.00000000000E+00  0.10262574307E+04  0.10262574307E+04  0.50400001928E-02 0.  1.
        1   -1    0    0  501    0  0.00000000000E+00  0.00000000000E+00 -0.57537854363E+03  0.57537854366E+03  0.50400001928E-02 0. -1.
    10030    2    1    2    0    0  0.00000000000E+00  0.00000000000E+00  0.45087888705E+03  0.16016359744E+04  0.15368623958E+04 0.  0.
        5    1    3    3  502    0 -0.40648897894E+03 -0.36056758192E+03  0.79168303010E+03  0.96022204790E+03  0.46999998093E+01 0.  1.
       -5    1    3    3    0  502  0.40648897894E+03  0.36056758192E+03 -0.34080414305E+03  0.64141392645E+03  0.46999998093E+01 0. -1.
</event>
<event>
 5   0  0.3431030E-04  0.1972552E+04  0.7818609E-02  0.8619562E-01
        2   -1    0    0  501    0  0.00000000000E+00  0.00000000000E+00  0.17232066031E+04  0.17232066031E+04  0.25500000920E-02 0.  1.
       -2   -1    0    0    0  501  0.00000000000E+00  0.00000000000E+00 -0.56449448520E+03  0.56449448520E+03  0.25500000920E-02 0. -1.
    10030    2    1    2    0    0  0.00000000000E+00  0.00000000000E+00  0.11587121179E+04  0.22877010883E+04  0.19725522800E+04 0.  0.
        3    1    3    3  502    0  0.74729398695E+03 -0.61010399042E+03  0.34148947629E+03  0.10233720021E+04  0.10100000352E+00 0. -1.
       -3    1    3    3    0  502 -0.74729398695E+03  0.61010399042E+03  0.81722264162E+03  0.12643290862E+04  0.10100000352E+00 0.  1.
</event>
<event>
 5   0  0.1643565E-04  0.2022931E+04  0.7818609E-02  0.8595974E-01
        1   -1    0    0  501    0  0.00000000000E+00  0.00000000000E+00  0.69216323398E+03  0.69216323399E+03  0.50400001928E-02 0. -1.
       -1   -1    0    0    0  501  0.00000000000E+00  0.00000000000E+00 -0.14780648881E+04  0.14780648881E+04  0.50400001928E-02 0.  1.
    10030    2    1    2    0    0  0.00000000000E+00  0.00000000000E+00 -0.78590165411E+03  0.21702281221E+04  0.20229307185E+04 0.  0.
        2    1    3    3  502    0 -0.21826326765E+03 -0.24930054359E+03 -0.14181885600E+04  0.14563819577E+04  0.25500000920E-02 0.  1.
       -2    1    3    3    0  502  0.21826326765E+03  0.24930054359E+03  0.63228690588E+03  0.71384616438E+03  0.25500000920E-02 0. -1.
</event>
<event>
 5   0  0.1650221E-04  0.2013578E+04  0.7818609E-02  0.8600299E-01
       -1   -1    0    0    0  501  0.00000000000E+00  0.00000000000E+00  0.63652813672E+03  0.63652813674E+03  0.50400001928E-02 0.  1.
        1   -1    0    0  501    0  0.00000000000E+00  0.00000000000E+00 -0.15924267242E+04  0.15924267243E+04  0.50400001928E-02 0. -1.
    10030    2    1    2    0    0  0.00000000000E+00  0.00000000000E+00 -0.95589858753E+03  0.22289548610E+04  0.20135783230E+04 0.  0.
        1    1    3    3  502    0  0.30358892661E+03 -0.45856187379E+03  0.45556778026E+03  0.71413390263E+03  0.50400001928E-02 0.  1.
       -1    1    3    3    0  502 -0.30358892661E+03  0.45856187379E+03 -0.14114663678E+04  0.15148209584E+04  0.50400001928E-02 0. -1.
</event>
<event>
 5   0  0.1708578E-04  0.1930175E+04  0.7818609E-02  0.8639981E-01
       -1   -1    0    0    0  501  0.00000000000E+00  0.00000000000E+00  0.58458885117E+03  0.58458885119E+03  0.50400001928E-02 0. -1.
        1   -1    0    0  501    0  0.00000000000E+00  0.00000000000E+00 -0.15932458468E+04  0.15932458468E+04  0.50400001928E-02 0.  1.
    10030    2    1    2    0    0  0.00000000000E+00  0.00000000000E+00 -0.10086569956E+04  0.21778346980E+04  0.19301748721E+04 0.  0.
        3    1    3    3  502    0  0.37548035824E+03 -0.29632262455E+01  0.49878846687E+03  0.62432701769E+03  0.10100000352E+00 0. -1.
       -3    1    3    3    0  502 -0.37548035824E+03  0.29632262455E+01 -0.15074454625E+04  0.15535076803E+04  0.10100000352E+00 0.  1.
</event>
<event>
 5   0  0.1708578E-04  0.2089363E+04  0.7818609E-02  0.8565944E-01
        1   -1    0    0  501    0  0.00000000000E+00  0.00000000000E+00  0.10141443522E+04  0.10141443522E+04  0.50400001928E-02 0. -1.
       -1   -1    0    0    0  501  0.00000000000E+00  0.00000000000E+00 -0.10761382277E+04  0.10761382277E+04  0.50400001928E-02 0.  1.
    10030    2    1    2    0    0  0.00000000000E+00  0.00000000000E+00 -0.61993875463E+02  0.20902825799E+04  0.20893630664E+04 0.  0.
        3    1    3    3  502    0 -0.62647639185E+03  0.76184359533E+03  0.31336547405E+03  0.10349281443E+04  0.10100000352E+00 0. -1.
       -3    1    3    3    0  502  0.62647639185E+03 -0.76184359533E+03 -0.37535934951E+03  0.10553544356E+04  0.10100000352E+00 0.  1.
</event>
<event>
 5   0  0.3371947E-04  0.1786141E+04  0.7818609E-02  0.8713704E-01
       -2   -1    0    0    0  501  0.00000000000E+00  0.00000000000E+00  0.38177660995E+03  0.38177660995E+03  0.25500000920E-02 0. -1.
        2   -1    0    0  501    0  0.00000000000E+00  0.00000000000E+00 -0.20891142158E+04  0.20891142158E+04  0.25500000920E-02 0.  1.
    10030    2    1    2    0    0  0.00000000000E+00  0.00000000000E+00 -0.17073376059E+04  0.24708908258E+04  0.17861410282E+04 0.  0.
        2    1    3    3  502    0 -0.68748126565E+03 -0.48512953831E+03 -0.43959595909E+03  0.94932911407E+03  0.25500000920E-02 0. -1.
       -2    1    3    3    0  502  0.68748126565E+03  0.48512953831E+03 -0.12677416468E+04  0.15215617117E+04  0.25500000920E-02 0.  1.
</event>
<event>
 5   0  0.1664168E-04  0.1207914E+04  0.7818609E-02  0.9105957E-01
        1   -1    0    0  501    0  0.00000000000E+00  0.00000000000E+00  0.10999340319E+04  0.10999340319E+04  0.50400001928E-02 0.  1.
       -1   -1    0    0    0  501  0.00000000000E+00  0.00000000000E+00 -0.33162369270E+03  0.33162369274E+03  0.50400001928E-02 0. -1.
    10030    2    1    2    0    0  0.00000000000E+00  0.00000000000E+00  0.76831033924E+03  0.14315577247E+04  0.12079142112E+04 0.  0.
        5    1    3    3  502    0  0.81711914720E+02 -0.92624984880E+02  0.10847833238E+04  0.10918027177E+04  0.46999998093E+01 0.  1.
       -5    1    3    3    0  502 -0.81711914720E+02  0.92624984880E+02 -0.31647298454E+03  0.33975500699E+03  0.46999998093E+01 0. -1.
</event>
<event>
 5   0  0.3460648E-04  0.1913930E+04  0.7818609E-02  0.8647953E-01
       -2   -1    0    0    0  501  0.00000000000E+00  0.00000000000E+00  0.81356106641E+03  0.81356106642E+03  0.25500000920E-02 0.  1.
        2   -1    0    0  501    0  0.00000000000E+00  0.00000000000E+00 -0.11256467002E+04  0.11256467002E+04  0.25500000920E-02 0. -1.
    10030    2    1    2    0    0  0.00000000000E+00  0.00000000000E+00 -0.31208563383E+03  0.19392077667E+04  0.19139303330E+04 0.  0.
        5    1    3    3  502    0 -0.59944590857E+03 -0.94768515287E+02 -0.90570909529E+03  0.10902511289E+04  0.46999998093E+01 0.  1.
       -5    1    3    3    0  502  0.59944590857E+03  0.94768515287E+02  0.59362346146E+03  0.84895663776E+03  0.46999998093E+01 0. -1.
</event>
<event>
 5   0  0.1643565E-04  0.2345085E+04  0.7818609E-02  0.8460354E-01
       -1   -1    0    0    0  501  0.00000000000E+00  0.00000000000E+00  0.11794251168E+04  0.11794251168E+04  0.50400001928E-02 0. -1.
        1   -1    0    0  501    0  0.00000000000E+00  0.00000000000E+00 -0.11657000149E+04  0.11657000149E+04  0.50400001928E-02 0.  1.
    10030    2    1    2    0    0  0.00000000000E+00  0.00000000000E+00  0.13725101864E+02  0.23451251317E+04  0.23450849675E+04 0.  0.
        2    1    3    3  502    0  0.23570692242E+03 -0.18909399266E+03  0.11398168976E+04  0.11791933053E+04  0.25500000920E-02 0. -1.
       -2    1    3    3    0  502 -0.23570692242E+03  0.18909399266E+03 -0.11260917957E+04  0.11659318264E+04  0.25500000920E-02 0.  1.
</event>
<event>
 5   0  0.1222488E-04  0.1803826E+04  0.7818609E-02  0.8704267E-01
       -4   -1    0    0    0  501  0.00000000000E+00  0.00000000000E+00  0.79605101166E+03  0.79605202472E+03  0.12699999809E+01 0.  1.
        4   -1    0    0  501    0  0.00000000000E+00  0.00000000000E+00 -0.10218513623E+04  0.10218521515E+04  0.12699999809E+01 0. -1.
    10030    2    1    2    0    0  0.00000000000E+00  0.00000000000E+00 -0.22580035066E+03  0.18179041762E+04  0.18038264317E+04 0.  0.
        5    1    3    3  502    0 -0.51637016761E+03 -0.31947259062E+03  0.55918103746E+03  0.82547344524E+03  0.46999998093E+01 0.  1.
       -5    1    3    3    0  502  0.51637016761E+03  0.31947259062E+03 -0.78498138812E+03  0.99243073100E+03  0.46999998093E+01 0. -1.
</event>
<event>
 5   0  0.1650221E-04  0.2037754E+04  0.7818609E-02  0.8589170E-01
        1   -1    0    0  501    0  0.00000000000E+00  0.00000000000E+00  0.13865337549E+04  0.13865337549E+04  0.50400001928E-02 0.  1.
       -1   -1    0    0    0  501  0.00000000000E+00  0.00000000000E+00 -0.74870876990E+03  0.74870876991E+03  0.50400001928E-02 0. -1.
    10030    2    1    2    0    0  0.00000000000E+00  0.00000000000E+00  0.63782498496E+03  0.21352425248E+04  0.20377536476E+04 0.  0.
        1    1    3    3  502    0  0.86780654170E+03 -0.36549109112E+03 -0.88855408902E+02  0.94581563490E+03  0.50400001928E-02 0. -1.
       -1    1    3    3    0  502 -0.86780654170E+03  0.36549109112E+03  0.72668039386E+03  0.11894268899E+04  0.50400001928E-02 0.  1.
</event>
<event>
 5   0  0.1643565E-04  0.2005200E+04  0.7818609E-02  0.8604193E-01
       -1   -1    0    0    0  501  0.00000000000E+00  0.00000000000E+00  0.57543177815E+03  0.57543177817E+03  0.50400001928E-02 0.  1.
        1   -1    0    0  501    0  0.00000000000E+00  0.00000000000E+00 -0.17468747161E+04  0.17468747161E+04  0.50400001928E-02 0. -1.
    10030    2    1    2    0    0  0.00000000000E+00  0.00000000000E+00 -0.11714429380E+04  0.23223064943E+04  0.20052004629E+04 0.  0.
        2    1    3    3  502    0 -0.29201984547E+02 -0.15124190107E+03 -0.17330889749E+04  0.17399207636E+04  0.25500000920E-02 0. -1.
       -2    1    3    3    0  502  0.29201984547E+02  0.15124190107E+03  0.56164603694E+03  0.58238573073E+03  0.25500000920E-02 0.  1.
</event>
<event>
 5   0  0.3387881E-04  0.1886985E+04  0.7818609E-02  0.8661362E-01
       -2   -1    0    0    0  501  0.00000000000E+00  0.00000000000E+00  0.41839925420E+03  0.41839925421E+03  0.25500000920E-02 0. -1.
        2   -1    0    0  501    0  0.00000000000E+00  0.00000000000E+00 -0.21275798104E+04  0.21275798104E+04  0.25500000920E-02 0.  1.
    10030    2    1    2    0    0  0.00000000000E+00  0.00000000000E+00 -0.17091805562E+04  0.25459790646E+04  0.18869846909E+04 0.  0.
        1    1    3    3  502    0  0.17096330022E+03 -0.26630565356E+03 -0.20538366768E+04  0.20780741676E+04  0.50400001928E-02 0.  1.
       -1    1    3    3    0  502 -0.17096330022E+03  0.26630565356E+03  0.34465612060E+03  0.46790489699E+03  0.50400001928E-02 0. -1.
</event>
<event>
 5   0  0.3387881E-04  0.1710808E+04  0.7818609E-02  0.8755224E-01
       -2   -1    0    0    0  501  0.00000000000E+00  0.00000000000E+00  0.42855735823E+03  0.42855735824E+03  0.25500000920E-02 0. -1.
        2   -1    0    0  501    0  0.00000000000E+00  0.00000000000E+00 -0.17073935862E+04  0.17073935862E+04  0.25500000920E-02 0.  1.
    10030    2    1    2    0    0  0.00000000000E+00  0.00000000000E+00 -0.12788362280E+04  0.21359509445E+04  0.17108080954E+04 0.  0.
        1    1    3    3  502    0  0.25851820789E+03 -0.34367810627E+03  0.28377430433E+03  0.51524184648E+03  0.50400001928E-02 0. -1.
       -1    1    3    3    0  502 -0.25851820789E+03  0.34367810627E+03 -0.15626105323E+04  0.16207090980E+04  0.50400001928E-02 0.  1.
</event>
<event>
 5   0  0.1222488E-04  0.1962770E+04  0.7818609E-02  0.8624227E-01
        3   -1    0    0  501    0  0.00000000000E+00  0.00000000000E+00  0.42453144190E+03  0.42453145391E+03  0.10100000352E+00 0.  1.
       -3   -1    0    0    0  501  0.00000000000E+00  0.00000000000E+00 -0.22686575848E+04  0.22686575870E+04  0.10100000352E+00 0. -1.
    10030    2    1    2    0    0  0.00000000000E+00  0.00000000000E+00 -0.18441261429E+04  0.26931890409E+04  0.19627699762E+04 0.  0.
        5    1    3    3  502    0 -0.44018301608E+03 -0.11406097642E+03  0.27124122489E+03  0.52949493488E+03  0.46999998093E+01 0.  1.
       -5    1    3    3    0  502  0.44018301608E+03  0.11406097642E+03 -0.21153673677E+04  0.21636941060E+04  0.46999998093E+01 0. -1.
</event>
<event>
 5   0  0.1696052E-04  0.1856167E+04  0.7818609E-02  0.8676988E-01
       -1   -1    0    0    0  501  0.00000000000E+00  0.00000000000E+00  0.46330786903E+03  0.46330786906E+03  0.50400001928E-02 0. -1.
        1   -1    0    0  501    0  0.00000000000E+00  0.00000000000E+00 -0.18591070147E+04  0.18591070147E+04  0.50400001928E-02 0.  1.
    10030    2    1    2    0    0  0.00000000000E+00  0.00000000000E+00 -0.13957991456E+04  0.23224148837E+04  0.18561669206E+04 0.  0.
        4    1    3    3  502    0 -0.39930060686E+03 -0.35385371031E+03 -0.16480484968E+04  0.17322583189E+04  0.12699999809E+01 0.  1.
       -4    1    3    3    0  502  0.39930060686E+03  0.35385371031E+03  0.25224935112E+03  0.59015656481E+03  0.12699999809E+01 0. -1.
</event>
<event>
 5   0  0.3460648E-04  0.1978058E+04  0.7818609E-02  0.8616948E-01
       -2   -1    0    0    0  501  0.00000000000E+00  0.00000000000E+00  0.46048041870E+03  0.46048041870E+03  0.25500000920E-02 0.  1.
        2   -1    0    0  501    0  0.00000000000E+00  0.00000000000E+00 -0.21242563264E+04  0.21242563264E+04  0.25500000920E-02 0. -1.
    10030    2    1    2    0    0  0.00000000000E+00  0.00000000000E+00 -0.16637759077E+04  0.25847367451E+04  0.19780580806E+04 0.  0.
        5    1    3    3  502    0 -0.11210554127E+03 -0.73589342715E+03  0.19025887285E+02  0.74464143243E+03  0.46999998093E+01 0.  1.
       -5    1    3    3    0  502  0.11210554127E+03  0.73589342715E+03 -0.16828017950E+04  0.18400953127E+04  0.46999998093E+01 0. -1.
</event>
<event>
 5   0  0.1664168E-04  0.2006342E+04  0.7818609E-02  0.8603661E-01
        1   -1    0    0  501    0  0.00000000000E+00  0.00000000000E+00  0.14725148736E+04  0.14725148736E+04  0.50400001928E-02 0.  1.
       -1   -1    0    0    0  501  0.00000000000E+00  0.00000000000E+00 -0.68342377495E+03  0.68342377497E+03  0.50400001928E-02 0. -1.
    10030    2    1    2    0    0  0.00000000000E+00  0.00000000000E+00  0.78909109862E+03  0.21559386485E+04  0.20063416196E+04 0.  0.
        5    1    3    3  502    0  0.43011423310E+03  0.64782592774E+01 -0.57927652452E+03  0.72154251657E+03  0.46999998093E+01 0. -1.
       -5    1    3    3    0  502 -0.43011423310E+03 -0.64782592774E+01  0.13683676231E+04  0.14343961320E+04  0.46999998093E+01 0.  1.
</event>
<event>
 5   0  0.1643565E-04  0.2082868E+04  0.7818609E-02  0.8568828E-01
        1   -1    0    0  501    0  0.00000000000E+00  0.00000000000E+00  0.10826283950E+04  0.10826283950E+04  0.50400001928E-02 0.  1.
       -1   -1    0    0    0  501  0.00000000000E+00  0.00000000000E+00 -0.10018069108E+04  0.10018069108E+04  0.50400001928E-02 0. -1.
    10030    2    1    2    0    0  0.00000000000E+00  0.00000000000E+00  0.80821484203E+02  0.20844353058E+04  0.20828678383E+04 0.  0.
        2    1    3    3  502    0 -0.51072518664E+03 -0.74044889698E+03 -0.48484596153E+03  0.10218514529E+04  0.25500000920E-02 0. -1.
       -2    1    3    3    0  502  0.51072518664E+03  0.74044889698E+03  0.56566744573E+03  0.10625838529E+04  0.25500000920E-02 0.  1.
</event>
<event>
 5   0  0.3460648E-04  0.2099983E+04  0.7818609E-02  0.8561251E-01
        2   -1    0    0  501    0  0.00000000000E+00  0.00000000000E+00  0.10515420970E+04  0.10515420970E+04  0.25500000920E-02 0. -1.
       -2   -1    0    0    0  501  0.00000000000E+00  0.00000000000E+00 -0.10484430826E+04  0.10484430826E+04  0.25500000920E-02 0.  1.
    10030    2    1    2    0    0  0.00000000000E+00  0.00000000000E+00  0.30990144652E+01  0.20999851796E+04  0.20999828930E+04 0.  0.
        5    1    3    3  502    0 -0.18564982045E+03 -0.71276028898E+03 -0.74676064357E+03  0.10488882849E+04  0.46999998093E+01 0.  1.
       -5    1    3    3    0  502  0.18564982045E+03  0.71276028898E+03  0.74985965804E+03  0.10510968947E+04  0.46999998093E+01 0. -1.
</event>
<event>
 5   0  0.3387881E-04  0.1815996E+04  0.7818609E-02  0.8697839E-01
        2   -1    0    0  501    0  0.00000000000E+00  0.00000000000E+00  0.20759652839E+04  0.20759652839E+04  0.25500000920E-02 0.  1.
       -2   -1    0    0    0  501  0.00000000000E+00  0.00000000000E+00 -0.39714557519E+03  0.39714557520E+03  0.25500000920E-02 0. -1.
    10030    2    1    2    0    0  0.00000000000E+00  0.00000000000E+00  0.16788197087E+04  0.24731108591E+04  0.18159960647E+04 0.  0.
        1    1    3    3  502    0 -0.51633034738E+03  0.65422294665E+03  0.34866105135E+03  0.90342084341E+03  0.50400001928E-02 0. -1.
       -1    1    3    3    0  502  0.51633034738E+03 -0.65422294665E+03  0.13301586573E+04  0.15696900157E+04  0.50400001928E-02 0.  1.
</event>
<event>
 5   0  0.1643565E-04  0.2008445E+04  0.7818609E-02  0.8602683E-01
       -1   -1    0    0    0  501  0.00000000000E+00  0.00000000000E+00  0.41662341120E+03  0.41662341123E+03  0.50400001928E-02 0.  1.
        1   -1    0    0  501    0  0.00000000000E+00  0.00000000000E+00 -0.24205614521E+04  0.24205614521E+04  0.50400001928E-02 0. -1.
    10030    2    1    2    0    0  0.00000000000E+00  0.00000000000E+00 -0.20039380409E+04  0.28371848633E+04  0.20084447408E+04 0.  0.
        2    1    3    3  502    0 -0.55802133841E+02 -0.13203061254E+02 -0.24182468284E+04  0.24189266053E+04  0.25500000920E-02 0. -1.
       -2    1    3    3    0  502  0.55802133841E+02  0.13203061254E+02  0.41430878751E+03  0.41825825799E+03  0.25500000920E-02 0.  1.
</event>
<event>
 5   0  0.1222488E-04  0.1979487E+04  0.7818609E-02  0.8616271E-01
        3   -1    0    0  501    0  0.00000000000E+00  0.00000000000E+00  0.83650233062E+03  0.83650233672E+03  0.10100000352E+00 0.  1.
       -3   -1    0    0    0  501  0.00000000000E+00  0.00000000000E+00 -0.11710576824E+04  0.11710576867E+04  0.10100000352E+00 0. -1.
    10030    2    1    2    0    0  0.00000000000E+00  0.00000000000E+00 -0.33455535173E+03  0.20075600234E+04  0.19794872983E+04 0.  0.
        2    1    3    3  502    0 -0.79096870899E+03 -0.99068019290E+02  0.42768197110E+03  0.90463132792E+03  0.25500000920E-02 0.  1.
       -2    1    3    3    0  502  0.79096870899E+03  0.99068019290E+02 -0.76223732283E+03  0.11029286955E+04  0.25500000920E-02 0. -1.
</event>
<event>
 5   0  0.1708578E-04  0.1976090E+04  0.7818609E-02  0.8617882E-01
        1   -1    0    0  501    0  0.00000000000E+00  0.00000000000E+00  0.68340654725E+03  0.68340654727E+03  0.50400001928E-02 0.  1.
       -1   -1    0    0    0  501  0.00000000000E+00  0.00000000000E+00 -0.14284800310E+04  0.14284800310E+04  0.50400001928E-02 0. -1.
    10030    2    1    2    0    0  0.00000000000E+00  0.00000000000E+00 -0.74507348378E+03  0.21118865783E+04  0.19760896800E+04 0.  0.
        3    1    3    3  502    0  0.31277943638E+03 -0.70316758004E+03 -0.10347612056E+04  0.12895760483E+04  0.10100000352E+00 0. -1.
       -3    1    3    3    0  502 -0.31277943638E+03  0.70316758004E+03  0.28968772182E+03  0.82231053004E+03  0.10100000352E+00 0.  1.
</event>
<event>
 5   0  0.1708578E-04  0.1972425E+04  0.7818609E-02  0.8619622E-01
       -1   -1    0    0    0  501  0.00000000000E+00  0.00000000000E+00  0.73983389369E+03  0.73983389371E+03  0.50400001928E-02 0.  1.
        1   -1    0    0  501    0  0.00000000000E+00  0.00000000000E+00 -0.13146400679E+04  0.13146400679E+04  0.50400001928E-02 0. -1.
    10030    2    1    2    0    0  0.00000000000E+00  0.00000000000E+00 -0.57480617420E+03  0.20544739616E+04  0.19724251877E+04 0.  0.
        3    1    3    3  502    0 -0.16807692127E+03 -0.39061542868E+03 -0.12142408880E+04  0.12865501191E+04  0.10100000352E+00 0. -1.
       -3    1    3    3    0  502  0.16807692127E+03  0.39061542868E+03  0.63943471378E+03  0.76792384256E+03  0.10100000352E+00 0.  1.
</event>
<event>
 5   0  0.1664168E-04  0.2020519E+04  0.7818609E-02  0.8597087E-01
       -1   -1    0    0    0  501  0.00000000000E+00  0.00000000000E+00  0.13128362524E+04  0.13128362524E+04  0.50400001928E-02 0.  1.
        1   -1    0    0  501    0  0.00000000000E+00  0.00000000000E+00 -0.77741947788E+03  0.77741947789E+03  0.50400001928E-02 0. -1.
    10030    2    1    2    0    0  0.00000000000E+00  0.00000000000E+00  0.53541677454E+03  0.20902557303E+04  0.20205192144E+04 0.  0.
        5    1    3    3  502    0 -0.36664829870E+02  0.46218477979E+03  0.11962638274E+04  0.12829763502E+04  0.46999998093E+01 0.  1.
       -5    1    3    3    0  502  0.36664829870E+02 -0.46218477979E+03 -0.66084705282E+03  0.80727938016E+03  0.46999998093E+01 0. -1.
</event>
<event>
 5   0  0.1696052E-04  0.2059544E+04  0.7818609E-02  0.8579277E-01
        1   -1    0    0  501    0  0.00000000000E+00  0.00000000000E+00  0.13255355755E+04  0.13255355755E+04  0.50400001928E-02 0. -1.
       -1   -1    0    0    0  501  0.00000000000E+00  0.00000000000E+00 -0.80000116045E+03  0.80000116047E+03  0.50400001928E-02 0.  1.
    10030    2    1    2    0    0  0.00000000000E+00  0.00000000000E+00  0.52553441503E+03  0.21255367360E+04  0.20595436374E+04 0.  0.
        4    1    3    3  502    0  0.96490068684E+03 -0.13578377780E+03  0.60654400933E+03  0.11477664475E+04  0.12699999809E+01 0. -1.
       -4    1    3    3    0  502 -0.96490068684E+03  0.13578377780E+03 -0.81009594305E+02  0.97777028849E+03  0.12699999809E+01 0.  1.
</event>
<event>
 5   0  0.1664168E-04  0.2071642E+04  0.7818609E-02  0.8573839E-01
        1   -1    0    0  501    0  0.00000000000E+00  0.00000000000E+00  0.10687761403E+04  0.10687761403E+04  0.50400001928E-02 0. -1.
       -1   -1    0    0    0  501  0.00000000000E+00  0.00000000000E+00 -0.10038815935E+04  0.10038815935E+04  0.50400001928E-02 0.  1.
    10030    2    1    2    0    0  0.00000000000E+00  0.00000000000E+00  0.64894546759E+02  0.20726577338E+04  0.20716415663E+04 0.  0.
        5    1    3    3  502    0 -0.80886817771E+03  0.38814547344E+03  0.55036707921E+03  0.10525448443E+04  0.46999998093E+01 0. -1.
       -5    1    3    3    0  502  0.80886817771E+03 -0.38814547344E+03 -0.48547253245E+03  0.10201128894E+04  0.46999998093E+01 0.  1.
</event>
<event>
 5   0  0.3395569E-04  0.1833781E+04  0.7818609E-02  0.8688539E-01
        2   -1    0    0  501    0  0.00000000000E+00  0.00000000000E+00  0.13565483349E+04  0.13565483349E+04  0.25500000920E-02 0. -1.
       -2   -1    0    0    0  501  0.00000000000E+00  0.00000000000E+00 -0.61972590712E+03  0.61972590712E+03  0.25500000920E-02 0.  1.
    10030    2    1    2    0    0  0.00000000000E+00  0.00000000000E+00  0.73682242782E+03  0.19762742421E+04  0.18337809547E+04 0.  0.
        4    1    3    3  502    0  0.78261101345E+03 -0.31600132328E+03 -0.17686456309E+02  0.84418674375E+03  0.12699999809E+01 0.  1.
       -4    1    3    3    0  502 -0.78261101345E+03  0.31600132328E+03  0.75450888413E+03  0.11320874983E+04  0.12699999809E+01 0. -1.
</event>
<event>
 5   0  0.1664168E-04  0.1438322E+04  0.7818609E-02  0.8926537E-01
       -1   -1    0    0    0  501  0.00000000000E+00  0.00000000000E+00  0.32490501310E+03  0.32490501314E+03  0.50400001928E-02 0.  1.
        1   -1    0    0  501    0  0.00000000000E+00  0.00000000000E+00 -0.15918263773E+04  0.15918263773E+04  0.50400001928E-02 0. -1.
    10030    2    1    2    0    0  0.00000000000E+00  0.00000000000E+00 -0.12669213642E+04  0.19167313904E+04  0.14383217582E+04 0.  0.
        5    1    3    3  502    0  0.45632549722E+03  0.51099346800E+03 -0.92488352886E+03  0.11509904064E+04  0.46999998093E+01 0. -1.
       -5    1    3    3    0  502 -0.45632549722E+03 -0.51099346800E+03 -0.34203783529E+03  0.76574098396E+03  0.46999998093E+01 0.  1.
</event>
<event>
 5   0  0.3431030E-04  0.1954776E+04  0.7818609E-02  0.8628061E-01
        2   -1    0    0  501    0  0.00000000000E+00  0.00000000000E+00  0.10429468954E+04  0.10429468954E+04  0.25500000920E-02 0.  1.
       -2   -1    0    0    0  501  0.00000000000E+00  0.00000000000E+00 -0.91594966397E+03  0.91594966397E+03  0.25500000920E-02 0. -1.
    10030    2    1    2    0    0  0.00000000000E+00  0.00000000000E+00  0.12699723144E+03  0.19588965594E+04  0.19547755456E+04 0.  0.
        3    1    3    3  502    0  0.52999377460E+01 -0.82971586598E+03  0.58114383973E+03  0.10130077395E+04  0.10100000352E+00 0.  1.
       -3    1    3    3    0  502 -0.52999377460E+01  0.82971586598E+03 -0.45414660829E+03  0.94588881990E+03  0.10100000352E+00 0. -1.
</event>
<event>
 5   0  0.3431030E-04  0.1394800E+04  0.7818609E-02  0.8957591E-01
       -2   -1    0    0    0  501  0.00000000000E+00  0.00000000000E+00  0.90834408814E+03  0.90834408814E+03  0.25500000920E-02 0.  1.
        2   -1    0    0  501    0  0.00000000000E+00  0.00000000000E+00 -0.53544356963E+03  0.53544356963E+03  0.25500000920E-02 0. -1.
    10030    2    1    2    0    0  0.00000000000E+00  0.00000000000E+00  0.37290051851E+03  0.14437876578E+04  0.13948003456E+04 0.  0.
        3    1    3    3  502    0  0.25486168513E+03  0.17390037007E+02 -0.48527102080E+03  0.54840210226E+03  0.10100000352E+00 0. -1.
       -3    1    3    3    0  502 -0.25486168513E+03 -0.17390037007E+02  0.85817153931E+03  0.89538555551E+03  0.10100000352E+00 0.  1.
</event>
<event>
 5   0  0.1222488E-04  0.1097802E+04  0.7818609E-02  0.9207337E-01
       -4   -1    0    0    0  501  0.00000000000E+00  0.00000000000E+00  0.80515669852E+03  0.80515770013E+03  0.12699999809E+01 0. -1.
        4   -1    0    0  501    0  0.00000000000E+00  0.00000000000E+00 -0.37420097658E+03  0.37420313170E+03  0.12699999809E+01 0.  1.
    10030    2    1    2    0    0  0.00000000000E+00  0.00000000000E+00  0.43095572194E+03  0.11793608318E+04  0.10978019573E+04 0.  0.
        5    1    3    3  502    0  0.19061252293E+02 -0.25024527192E+03  0.73988704924E+03  0.78130721428E+03  0.46999998093E+01 0. -1.
       -5    1    3    3    0  502 -0.19061252293E+02  0.25024527192E+03 -0.30893132730E+03  0.39805361755E+03  0.46999998093E+01 0.  1.
</event>
<event>
 5   0  0.3460648E-04  0.2000117E+04  0.7818609E-02  0.8606566E-01
       -2   -1    0    0    0  501  0.00000000000E+00  0.00000000000E+00  0.46395900379E+03  0.46395900380E+03  0.25500000920E-02 0. -1.
        2   -1    0    0  501    0  0.00000000000E+00  0.00000000000E+00 -0.21556160048E+04  0.21556160048E+04  0.25500000920E-02 0.  1.
    10030    2    1    2    0    0  0.00000000000E+00  0.00000000000E+00 -0.16916570010E+04  0.26195750086E+04  0.20001174507E+04 0.  0.
        5    1    3    3  502    0  0.59364954074E+03  0.76433313330E+03 -0.11757883694E+04  0.15228674583E+04  0.46999998093E+01 0.  1.
       -5    1    3    3    0  502 -0.59364954074E+03 -0.76433313330E+03 -0.51586863165E+03  0.10967075503E+04  0.46999998093E+01 0. -1.
</event>
<event>
 5   0  0.1664168E-04  0.1870995E+04  0.7818609E-02  0.8669430E-01
        1   -1    0    0  501    0  0.00000000000E+00  0.00000000000E+00  0.69494791853E+03  0.69494791855E+03  0.50400001928E-02 0. -1.
       -1   -1    0    0    0  501  0.00000000000E+00  0.00000000000E+00 -0.12593109613E+04  0.12593109613E+04  0.50400001928E-02 0.  1.
    10030    2    1    2    0    0  0.00000000000E+00  0.00000000000E+00 -0.56436304281E+03  0.19542588799E+04  0.18709949561E+04 0.  0.
        5    1    3    3  502    0 -0.32043348544E+03  0.17958078007E+03  0.61645888849E+03  0.71761446916E+03  0.46999998093E+01 0. -1.
       -5    1    3    3    0  502  0.32043348544E+03 -0.17958078007E+03 -0.11808219313E+04  0.12366444107E+04  0.46999998093E+01 0.  1.
</event>
<event>
 5   0  0.1643565E-04  0.1997012E+04  0.7818609E-02  0.8608019E-01
        1   -1    0    0  501    0  0.00000000000E+00  0.00000000000E+00  0.15680239017E+04  0.15680239017E+04  0.50400001928E-02 0. -1.
       -1   -1    0    0    0  501  0.00000000000E+00  0.00000000000E+00 -0.63584117986E+03  0.63584117988E+03  0.50400001928E-02 0.  1.
    10030    2    1    2    0    0  0.00000000000E+00  0.00000000000E+00  0.93218272188E+03  0.22038650816E+04  0.19970119356E+04 0.  0.
        2    1    3    3  502    0 -0.34343063910E+03 -0.61639051486E+03  0.12457637949E+04  0.14317155106E+04  0.25500000920E-02 0. -1.
       -2    1    3    3    0  502  0.34343063910E+03  0.61639051486E+03 -0.31358107299E+03  0.77214957102E+03  0.25500000920E-02 0.  1.
</event>
<event>
 5   0  0.3460648E-04  0.1971749E+04  0.7818609E-02  0.8619944E-01
       -2   -1    0    0    0  501  0.00000000000E+00  0.00000000000E+00  0.10622410239E+04  0.10622410239E+04  0.25500000920E-02 0.  1.
        2   -1    0    0  501    0  0.00000000000E+00  0.00000000000E+00 -0.91499790817E+03  0.91499790818E+03  0.25500000920E-02 0. -1.
    10030    2    1    2    0    0  0.00000000000E+00  0.00000000000E+00  0.14724311576E+03  0.19772389321E+04  0.19717487821E+04 0.  0.
        5    1    3    3  502    0 -0.36347685362E+03  0.59074760555E+03  0.77616351630E+03  0.10409371021E+04  0.46999998093E+01 0.  1.
       -5    1    3    3    0  502  0.36347685362E+03 -0.59074760555E+03 -0.62892040054E+03  0.93630182997E+03  0.46999998093E+01 0. -1.
</event>
<event>
 5   0  0.3387881E-04  0.1918938E+04  0.7818609E-02  0.8645487E-01
       -2   -1    0    0    0  501  0.00000000000E+00  0.00000000000E+00  0.69771277704E+03  0.69771277704E+03  0.25500000920E-02 0.  1.
        2   -1    0    0  501    0  0.00000000000E+00  0.00000000000E+00 -0.13194267489E+04  0.13194267489E+04  0.25500000920E-02 0. -1.
    10030    2    1    2    0    0  0.00000000000E+00  0.00000000000E+00 -0.62171397189E+03  0.20171395260E+04  0.19189381450E+04 0.  0.
        1    1    3    3  502    0 -0.33523007343E+03  0.36138379837E+03  0.55443517163E+03  0.74187317745E+03  0.50400001928E-02 0.  1.
       -1    1    3    3    0  502  0.33523007343E+03 -0.36138379837E+03 -0.11761491435E+04  0.12752663485E+04  0.50400001928E-02 0. -1.
</event>
<event>
 5   0  0.1643565E-04  0.1774016E+04  0.7818609E-02  0.8720241E-01
       -1   -1    0    0    0  501  0.00000000000E+00  0.00000000000E+00  0.92090719301E+03  0.92090719303E+03  0.50400001928E-02 0.  1.
        1   -1    0    0  501    0  0.00000000000E+00  0.00000000000E+00 -0.85435676059E+03  0.85435676060E+03  0.50400001928E-02 0. -1.
    10030    2    1    2    0    0  0.00000000000E+00  0.00000000000E+00  0.66550432426E+02  0.17752639536E+04  0.17740161062E+04 0.  0.
        2    1    3    3  502    0  0.26079316397E+02  0.75142154496E+03  0.50421097649E+03  0.90528624081E+03  0.25500000920E-02 0.  1.
       -2    1    3    3    0  502 -0.26079316397E+02 -0.75142154496E+03 -0.43766054406E+03  0.86997771283E+03  0.25500000920E-02 0. -1.
</event>
<event>
 5   0  0.3387881E-04  0.1993952E+04  0.7818609E-02  0.8609454E-01
        2   -1    0    0  501    0  0.00000000000E+00  0.00000000000E+00  0.20329217964E+04  0.20329217964E+04  0.25500000920E-02 0.  1.
       -2   -1    0    0    0  501  0.00000000000E+00  0.00000000000E+00 -0.48893207781E+03  0.48893207781E+03  0.25500000920E-02 0. -1.
    10030    2    1    2    0    0  0.00000000000E+00  0.00000000000E+00  0.15439897186E+04  0.25218538742E+04  0.19939515320E+04 0.  0.
        1    1    3    3  502    0 -0.80696334838E+03 -0.57619545856E+03  0.90324676819E+03  0.13412851212E+04  0.50400001928E-02 0. -1.
       -1    1    3    3    0  502  0.80696334838E+03  0.57619545856E+03  0.64074295043E+03  0.11805687530E+04  0.50400001928E-02 0.  1.
</event>
<event>
 5   0  0.1696052E-04  0.1962341E+04  0.7818609E-02  0.8624433E-01
       -1   -1    0    0    0  501  0.00000000000E+00  0.00000000000E+00  0.39443279775E+03  0.39443279779E+03  0.50400001928E-02 0. -1.
        1   -1    0    0  501    0  0.00000000000E+00  0.00000000000E+00 -0.24407089180E+04  0.24407089180E+04  0.50400001928E-02 0.  1.
    10030    2    1    2    0    0  0.00000000000E+00  0.00000000000E+00 -0.20462761203E+04  0.28351417158E+04  0.19623410989E+04 0.  0.
        4    1    3    3  502    0 -0.62555498441E+03 -0.17650682613E+03 -0.20850432340E+04  0.21840056316E+04  0.12699999809E+01 0.  1.
       -4    1    3    3    0  502  0.62555498441E+03  0.17650682613E+03  0.38767113739E+02  0.65113608424E+03  0.12699999809E+01 0. -1.
</event>
<event>
 5   0  0.3431030E-04  0.1983321E+04  0.7818609E-02  0.8614459E-01
       -2   -1    0    0    0  501  0.00000000000E+00  0.00000000000E+00  0.99459917648E+03  0.99459917648E+03  0.25500000920E-02 0. -1.
        2   -1    0    0  501    0  0.00000000000E+00  0.00000000000E+00 -0.98873027441E+03  0.98873027441E+03  0.25500000920E-02 0.  1.
    10030    2    1    2    0    0  0.00000000000E+00  0.00000000000E+00  0.58689020690E+01  0.19833294509E+04  0.19833207675E+04 0.  0.
        3    1    3    3  502    0  0.21196409582E+03 -0.48268611629E+03 -0.83699520029E+03  0.98917927611E+03  0.10100000352E+00 0.  1.
       -3    1    3    3    0  502 -0.21196409582E+03  0.48268611629E+03  0.84286410236E+03  0.99415017478E+03  0.10100000352E+00 0. -1.
</event>
<event>
 5   0  0.1696052E-04  0.1754990E+04  0.7818609E-02  0.8730609E-01
       -1   -1    0    0    0  501  0.00000000000E+00  0.00000000000E+00  0.17240315471E+04  0.17240315472E+04  0.50400001928E-02 0. -1.
        1   -1    0    0  501    0  0.00000000000E+00  0.00000000000E+00 -0.44662588871E+03  0.44662588874E+03  0.50400001928E-02 0.  1.
    10030    2    1    2    0    0  0.00000000000E+00  0.00000000000E+00  0.12774056584E+04  0.21706574359E+04  0.17549895976E+04 0.  0.
        4    1    3    3  502    0 -0.17469815282E+03  0.46546564551E+03  0.15330207331E+04  0.16116239923E+04  0.12699999809E+01 0. -1.
       -4    1    3    3    0  502  0.17469815282E+03 -0.46546564551E+03 -0.25561507462E+03  0.55903344357E+03  0.12699999809E+01 0.  1.
</event>
<event>
 5   0  0.3431030E-04  0.1978361E+04  0.7818609E-02  0.8616805E-01
        2   -1    0    0  501    0  0.00000000000E+00  0.00000000000E+00  0.11566626693E+04  0.11566626693E+04  0.25500000920E-02 0.  1.
       -2   -1    0    0    0  501  0.00000000000E+00  0.00000000000E+00 -0.84594972818E+03  0.84594972818E+03  0.25500000920E-02 0. -1.
    10030    2    1    2    0    0  0.00000000000E+00  0.00000000000E+00  0.31071294115E+03  0.20026123975E+04  0.19783614136E+04 0.  0.
        3    1    3    3  502    0 -0.92082084423E+02  0.96690491594E+03  0.34498738965E+03  0.10307281581E+04  0.10100000352E+00 0.  1.
       -3    1    3    3    0  502  0.92082084423E+02 -0.96690491594E+03 -0.34274448505E+02  0.97188423938E+03  0.10100000352E+00 0. -1.
</event>
<event>
 5   0  0.3395569E-04  0.1985443E+04  0.7818609E-02  0.8613457E-01
        2   -1    0    0  501    0  0.00000000000E+00  0.00000000000E+00  0.14410131375E+04  0.14410131375E+04  0.25500000920E-02 0. -1.
       -2   -1    0    0    0  501  0.00000000000E+00  0.00000000000E+00 -0.68389083260E+03  0.68389083260E+03  0.25500000920E-02 0.  1.
    10030    2    1    2    0    0  0.00000000000E+00  0.00000000000E+00  0.75712230490E+03  0.21249039701E+04  0.19854426956E+04 0.  0.
        4    1    3    3  502    0  0.52304817574E+03 -0.72193016007E+03 -0.88843656241E+02  0.89591146790E+03  0.12699999809E+01 0.  1.
       -4    1    3    3    0  502 -0.52304817574E+03  0.72193016007E+03  0.84596596114E+03  0.12289925022E+04  0.12699999809E+01 0. -1.
</event>
<event>
 5   0  0.3371947E-04  0.2009890E+04  0.7818609E-02  0.8602011E-01
       -2   -1    0    0    0  501  0.00000000000E+00  0.00000000000E+00  0.61005586278E+03  0.61005586278E+03  0.25500000920E-02 0.  1.
        2   -1    0    0  501    0  0.00000000000E+00  0.00000000000E+00 -0.16554456416E+04  0.16554456416E+04  0.25500000920E-02 0. -1.
    10030    2    1    2    0    0  0.00000000000E+00  0.00000000000E+00 -0.10453897789E+04  0.22655015044E+04  0.20098898668E+04 0.  0.
        2    1    3    3  502    0  0.97469516020E+03 -0.22494464175E+03 -0.63129984687E+03  0.11828652687E+04  0.25500000920E-02 0. -1.
       -2    1    3    3    0  502 -0.97469516020E+03  0.22494464175E+03 -0.41408993199E+03  0.10826362357E+04  0.25500000920E-02 0.  1.
</event>
<event>
 5   0  0.3371947E-04  0.1991852E+04  0.7818609E-02  0.8610440E-01
        2   -1    0    0  501    0  0.00000000000E+00  0.00000000000E+00  0.15230555107E+04  0.15230555107E+04  0.25500000920E-02 0.  1.
       -2   -1    0    0    0  501  0.00000000000E+00  0.00000000000E+00 -0.65123580228E+03  0.65123580228E+03  0.25500000920E-02 0. -1.
    10030    2    1    2    0    0  0.00000000000E+00  0.00000000000E+00  0.87181970838E+03  0.21742913129E+04  0.19918516786E+04 0.  0.
        2    1    3    3  502    0 -0.12518014428E+03  0.72916535147E+02  0.15114925895E+04  0.15184191574E+04  0.25500000920E-02 0.  1.
       -2    1    3    3    0  502  0.12518014428E+03 -0.72916535147E+02 -0.63967288107E+03  0.65587215553E+03  0.25500000920E-02 0. -1.
</event>
<event>
 5   0  0.1696052E-04  0.2942745E+04  0.7818609E-02  0.8260272E-01
        1   -1    0    0  501    0  0.00000000000E+00  0.00000000000E+00  0.15770848267E+04  0.15770848267E+04  0.50400001928E-02 0.  1.
       -1   -1    0    0    0  501  0.00000000000E+00  0.00000000000E+00 -0.13727460843E+04  0.13727460843E+04  0.50400001928E-02 0. -1.
    10030    2    1    2    0    0  0.00000000000E+00  0.00000000000E+00  0.20433874235E+03  0.29498309110E+04  0.29427449910E+04 0.  0.
        4    1    3    3  502    0  0.92839516592E+03 -0.11273213135E+04  0.28194580339E+03  0.14873688100E+04  0.12699999809E+01 0. -1.
       -4    1    3    3    0  502 -0.92839516592E+03  0.11273213135E+04 -0.77607061033E+02  0.14624621010E+04  0.12699999809E+01 0.  1.
</event>
<event>
 5   0  0.3371947E-04  0.2138775E+04  0.7818609E-02  0.8544352E-01
        2   -1    0    0  501    0  0.00000000000E+00  0.00000000000E+00  0.11195897531E+04  0.11195897531E+04  0.25500000920E-02 0.  1.
       -2   -1    0    0    0  501  0.00000000000E+00  0.00000000000E+00 -0.10214364668E+04  0.10214364668E+04  0.25500000920E-02 0. -1.
    10030    2    1    2    0    0  0.00000000000E+00  0.00000000000E+00  0.98153286228E+02  0.21410262199E+04  0.21387751651E+04 0.  0.
        2    1    3    3  502    0  0.88530253372E+03  0.44747767604E+03 -0.35083468955E+03  0.10521795598E+04  0.25500000920E-02 0. -1.
       -2    1    3    3    0  502 -0.88530253372E+03 -0.44747767604E+03  0.44898797577E+03  0.10888466601E+04  0.25500000920E-02 0.  1.
</event>
<event>
 5   0  0.3460648E-04  0.1933666E+04  0.7818609E-02  0.8638278E-01
        2   -1    0    0  501    0  0.00000000000E+00  0.00000000000E+00  0.20045631898E+04  0.20045631898E+04  0.25500000920E-02 0. -1.
       -2   -1    0    0    0  501  0.00000000000E+00  0.00000000000E+00 -0.46631912814E+03  0.46631912815E+03  0.25500000920E-02 0.  1.
    10030    2    1    2    0    0  0.00000000000E+00  0.00000000000E+00  0.15382440616E+04  0.24708823179E+04  0.19336661128E+04 0.  0.
        5    1    3    3  502    0 -0.36725790947E+03  0.30737430882E+03  0.18423308137E+04  0.19035656686E+04  0.46999998093E+01 0. -1.
       -5    1    3    3    0  502  0.36725790947E+03 -0.30737430882E+03 -0.30408675204E+03  0.56731664928E+03  0.46999998093E+01 0.  1.
</event>
<event>
 5   0  0.3460648E-04  0.1872940E+04  0.7818609E-02  0.8668444E-01
       -2   -1    0    0    0  501  0.00000000000E+00  0.00000000000E+00  0.70030112560E+03  0.70030112560E+03  0.25500000920E-02 0.  1.
        2   -1    0    0  501    0  0.00000000000E+00  0.00000000000E+00 -0.12522839995E+04  0.12522839995E+04  0.25500000920E-02 0. -1.
    10030    2    1    2    0    0  0.00000000000E+00  0.00000000000E+00 -0.55198287391E+03  0.19525851251E+04  0.18729398222E+04 0.  0.
        5    1    3    3  502    0 -0.22616446791E+03  0.69511406652E+03 -0.88621985316E+03  0.11488000915E+04  0.46999998093E+01 0. -1.
       -5    1    3    3    0  502  0.22616446791E+03 -0.69511406652E+03  0.33423697925E+03  0.80378503365E+03  0.46999998093E+01 0.  1.
</event>
<event>
 5   0  0.3431030E-04  0.2121250E+04  0.7818609E-02  0.8551940E-01
        2   -1    0    0  501    0  0.00000000000E+00  0.00000000000E+00  0.89278470242E+03  0.89278470242E+03  0.25500000920E-02 0. -1.
       -2   -1    0    0    0  501  0.00000000000E+00  0.00000000000E+00 -0.12600181188E+04  0.12600181188E+04  0.25500000920E-02 0.  1.
    10030    2    1    2    0    0  0.00000000000E+00  0.00000000000E+00 -0.36723341637E+03  0.21528028212E+04  0.21212495386E+04 0.  0.
        3    1    3    3  502    0  0.45081898707E+02  0.23279206594E+03  0.86554026717E+03  0.89743216337E+03  0.10100000352E+00 0. -1.
       -3    1    3    3    0  502 -0.45081898707E+02 -0.23279206594E+03 -0.12327736835E+04  0.12553706578E+04  0.10100000352E+00 0.  1.
</event>
<event>
 5   0  0.1664168E-04  0.1958438E+04  0.7818609E-02  0.8626303E-01
        1   -1    0    0  501    0  0.00000000000E+00  0.00000000000E+00  0.11105948109E+04  0.11105948109E+04  0.50400001928E-02 0.  1.
       -1   -1    0    0    0  501  0.00000000000E+00  0.00000000000E+00 -0.86338371493E+03  0.86338371494E+03  0.50400001928E-02 0. -1.
    10030    2    1    2    0    0  0.00000000000E+00  0.00000000000E+00  0.24721109596E+03  0.19739785258E+04  0.19584376157E+04 0.  0.
        5    1    3    3  502    0  0.74809300594E+03  0.60075182277E+03 -0.73655116186E+02  0.96228533411E+03  0.46999998093E+01 0. -1.
       -5    1    3    3    0  502 -0.74809300594E+03 -0.60075182277E+03  0.32086621214E+03  0.10116931917E+04  0.46999998093E+01 0.  1.
</event>
<event>
 5   0  0.1650221E-04  0.1971249E+04  0.7818609E-02  0.8620182E-01
       -1   -1    0    0    0  501  0.00000000000E+00  0.00000000000E+00  0.84110797498E+03  0.84110797500E+03  0.50400001928E-02 0. -1.
        1   -1    0    0  501    0  0.00000000000E+00  0.00000000000E+00 -0.11549712427E+04  0.11549712427E+04  0.50400001928E-02 0.  1.
    10030    2    1    2    0    0  0.00000000000E+00  0.00000000000E+00 -0.31386326769E+03  0.19960792177E+04  0.19712488662E+04 0.  0.
        1    1    3    3  502    0  0.71513039205E+03 -0.37196463287E+03 -0.73124991153E+03  0.10883453491E+04  0.50400001928E-02 0.  1.
       -1    1    3    3    0  502 -0.71513039205E+03  0.37196463287E+03  0.41738664383E+03  0.90773386861E+03  0.50400001928E-02 0. -1.
</event>
<event>
 5   0  0.3431030E-04  0.2002433E+04  0.7818609E-02  0.8605484E-01
       -2   -1    0    0    0  501  0.00000000000E+00  0.00000000000E+00  0.38761926852E+03  0.38761926853E+03  0.25500000920E-02 0.  1.
        2   -1    0    0  501    0  0.00000000000E+00  0.00000000000E+00 -0.25861314225E+04  0.25861314225E+04  0.25500000920E-02 0. -1.
    10030    2    1    2    0    0  0.00000000000E+00  0.00000000000E+00 -0.21985121540E+04  0.29737506911E+04  0.20024328906E+04 0.  0.
        3    1    3    3  502    0 -0.46712145247E+03 -0.27340479641E+03 -0.23501405244E+04  0.24116619018E+04  0.10100000352E+00 0. -1.
       -3    1    3    3    0  502  0.46712145247E+03  0.27340479641E+03  0.15162837041E+03  0.56208878923E+03  0.10100000352E+00 0.  1.
</event>
<event>
 5   0  0.1643565E-04  0.1975040E+04  0.7818609E-02  0.8618380E-01
       -1   -1    0    0    0  501  0.00000000000E+00  0.00000000000E+00  0.13228676315E+04  0.13228676315E+04  0.50400001928E-02 0.  1.
        1   -1    0    0  501    0  0.00000000000E+00  0.00000000000E+00 -0.73718291574E+03  0.73718291576E+03  0.50400001928E-02 0. -1.
    10030    2    1    2    0    0  0.00000000000E+00  0.00000000000E+00  0.58568471577E+03  0.20600505473E+04  0.19750396632E+04 0.  0.
        2    1    3    3  502    0  0.64427691834E+03  0.65469923840E+03 -0.85354565961E+02  0.92250162179E+03  0.25500000920E-02 0. -1.
       -2    1    3    3    0  502 -0.64427691834E+03 -0.65469923840E+03  0.67103928173E+03  0.11375489255E+04  0.25500000920E-02 0.  1.
</event>
<event>
 5   0  0.3395569E-04  0.2028652E+04  0.7818609E-02  0.8593341E-01
        2   -1    0    0  501    0  0.00000000000E+00  0.00000000000E+00  0.18465453956E+04  0.18465453956E+04  0.25500000920E-02 0. -1.
       -2   -1    0    0    0  501  0.00000000000E+00  0.00000000000E+00 -0.55717925469E+03  0.55717925469E+03  0.25500000920E-02 0.  1.
    10030    2    1    2    0    0  0.00000000000E+00  0.00000000000E+00  0.12893661409E+04  0.24037246503E+04  0.20286515593E+04 0.  0.
        4    1    3    3  502    0  0.15782297129E+03 -0.10017913240E+04  0.62216311312E+03  0.11897825428E+04  0.12699999809E+01 0.  1.
       -4    1    3    3    0  502 -0.15782297129E+03  0.10017913240E+04  0.66720302780E+03  0.12139421074E+04  0.12699999809E+01 0. -1.
</event>
<event>
 5   0  0.1696052E-04  0.2166647E+04  0.7818609E-02  0.8532440E-01
        1   -1    0    0  501    0  0.00000000000E+00  0.00000000000E+00  0.99471421429E+03  0.99471421431E+03  0.50400001928E-02 0.  1.
       -1   -1    0    0    0  501  0.00000000000E+00  0.00000000000E+00 -0.11798262940E+04  0.11798262940E+04  0.50400001928E-02 0. -1.
    10030    2    1    2    0    0  0.00000000000E+00  0.00000000000E+00 -0.18511207971E+03  0.21745405083E+04  0.21666471656E+04 0.  0.
        4    1    3    3  502    0 -0.53578186493E+03 -0.15384444583E+03  0.83972958404E+03  0.10079075888E+04  0.12699999809E+01 0.  1.
       -4    1    3    3    0  502  0.53578186493E+03  0.15384444583E+03 -0.10248416637E+04  0.11666329195E+04  0.12699999809E+01 0. -1.
</event>
<event>
 5   0  0.3395569E-04  0.2005777E+04  0.7818609E-02  0.8603925E-01
       -2   -1    0    0    0  501  0.00000000000E+00  0.00000000000E+00  0.91385773927E+03  0.91385773927E+03  0.25500000920E-02 0. -1.
        2   -1    0    0  501    0  0.00000000000E+00  0.00000000000E+00 -0.11005925251E+04  0.11005925251E+04  0.25500000920E-02 0.  1.
    10030    2    1    2    0    0  0.00000000000E+00  0.00000000000E+00 -0.18673478588E+03  0.20144502644E+04  0.20057766545E+04 0.  0.
        4    1    3    3  502    0 -0.61710216922E+03 -0.14237932980E+03  0.68761757899E+03  0.93482966825E+03  0.12699999809E+01 0. -1.
       -4    1    3    3    0  502  0.61710216922E+03  0.14237932980E+03 -0.87435236487E+03  0.10796205962E+04  0.12699999809E+01 0.  1.
</event>
<event>
 5   0  0.3387881E-04  0.1987067E+04  0.7818609E-02  0.8612691E-01
       -2   -1    0    0    0  501  0.00000000000E+00  0.00000000000E+00  0.46796611490E+03  0.46796611491E+03  0.25500000920E-02 0. -1.
        2   -1    0    0  501    0  0.00000000000E+00  0.00000000000E+00 -0.21093590118E+04  0.21093590118E+04  0.25500000920E-02 0.  1.
    10030    2    1    2    0    0  0.00000000000E+00  0.00000000000E+00 -0.16413928969E+04  0.25773251267E+04  0.19870667243E+04 0.  0.
        1    1    3    3  502    0 -0.75818054747E+03  0.35251007902E+03 -0.12461731812E+03  0.84535825209E+03  0.50400001928E-02 0. -1.
       -1    1    3    3    0  502  0.75818054747E+03 -0.35251007902E+03 -0.15167755788E+04  0.17319668746E+04  0.50400001928E-02 0.  1.
</event>
<event>
 5   0  0.3371947E-04  0.2008405E+04  0.7818609E-02  0.8602701E-01
        2   -1    0    0  501    0  0.00000000000E+00  0.00000000000E+00  0.18648168795E+04  0.18648168795E+04  0.25500000920E-02 0. -1.
       -2   -1    0    0    0  501  0.00000000000E+00  0.00000000000E+00 -0.54076250061E+03  0.54076250061E+03  0.25500000920E-02 0.  1.
    10030    2    1    2    0    0  0.00000000000E+00  0.00000000000E+00  0.13240543789E+04  0.24055793801E+04  0.20084053764E+04 0.  0.
        2    1    3    3  502    0 -0.13823999642E+03 -0.98597641031E+03  0.81894354619E+03  0.12891579850E+04  0.25500000920E-02 0.  1.
       -2    1    3    3    0  502  0.13823999642E+03  0.98597641031E+03  0.50511083274E+03  0.11164213952E+04  0.25500000920E-02 0. -1.
</event>
<event>
 5   0  0.1708578E-04  0.1999490E+04  0.7818609E-02  0.8606859E-01
       -1   -1    0    0    0  501  0.00000000000E+00  0.00000000000E+00  0.58211106917E+03  0.58211106920E+03  0.50400001928E-02 0. -1.
        1   -1    0    0  501    0  0.00000000000E+00  0.00000000000E+00 -0.17170085046E+04  0.17170085046E+04  0.50400001928E-02 0.  1.
    10030    2    1    2    0    0  0.00000000000E+00  0.00000000000E+00 -0.11348974354E+04  0.22991195738E+04  0.19994895913E+04 0.  0.
        3    1    3    3  502    0  0.13358626531E+03 -0.22350894325E+03 -0.16773329648E+04  0.16974237606E+04  0.10100000352E+00 0.  1.
       -3    1    3    3    0  502 -0.13358626531E+03  0.22350894325E+03  0.54243552934E+03  0.60169581325E+03  0.10100000352E+00 0. -1.
</event>
<event>
 5   0  0.1650221E-04  0.2043390E+04  0.7818609E-02  0.8586599E-01
       -1   -1    0    0    0  501  0.00000000000E+00  0.00000000000E+00  0.63839848151E+03  0.63839848153E+03  0.50400001928E-02 0.  1.
        1   -1    0    0  501    0  0.00000000000E+00  0.00000000000E+00 -0.16351232679E+04  0.16351232679E+04  0.50400001928E-02 0. -1.
    10030    2    1    2    0    0  0.00000000000E+00  0.00000000000E+00 -0.99672478638E+03  0.22735217494E+04  0.20433895481E+04 0.  0.
        1    1    3    3  502    0  0.75028578066E+03 -0.24776438538E+03 -0.12190330534E+04  0.14527069659E+04  0.50400001928E-02 0. -1.
       -1    1    3    3    0  502 -0.75028578066E+03  0.24776438538E+03  0.22230826703E+03  0.82081478358E+03  0.50400001928E-02 0.  1.
</event>
<event>
 5   0  0.1643565E-04  0.1954917E+04  0.7818609E-02  0.8627993E-01
        1   -1    0    0  501    0  0.00000000000E+00  0.00000000000E+00  0.11691540349E+04  0.11691540350E+04  0.50400001928E-02 0.  1.
       -1   -1    0    0    0  501  0.00000000000E+00  0.00000000000E+00 -0.81719366052E+03  0.81719366054E+03  0.50400001928E-02 0. -1.
    10030    2    1    2    0    0  0.00000000000E+00  0.00000000000E+00  0.35196037442E+03  0.19863476955E+04  0.19549171497E+04 0.  0.
        2    1    3    3  502    0  0.56431392003E+03  0.16417485307E+03  0.96957633373E+03  0.11337909197E+04  0.25500000920E-02 0.  1.
       -2    1    3    3    0  502 -0.56431392003E+03 -0.16417485307E+03 -0.61761595930E+03  0.85255677577E+03  0.25500000920E-02 0. -1.
</event>
<event>
 5   0  0.3371947E-04  0.1936820E+04  0.7818609E-02  0.8636743E-01
       -2   -1    0    0    0  501  0.00000000000E+00  0.00000000000E+00  0.14439393855E+04  0.14439393855E+04  0.25500000920E-02 0.  1.
        2   -1    0    0  501    0  0.00000000000E+00  0.00000000000E+00 -0.64948578079E+03  0.64948578080E+03  0.25500000920E-02 0. -1.
    10030    2    1    2    0    0  0.00000000000E+00  0.00000000000E+00  0.79445360468E+03  0.20934251663E+04  0.19368201767E+04 0.  0.
        2    1    3    3  502    0 -0.22686060640E+03 -0.22049636840E+03  0.13865111492E+04  0.14221454040E+04  0.25500000920E-02 0.  1.
       -2    1    3    3    0  502  0.22686060640E+03  0.22049636840E+03 -0.59205754452E+03  0.67127976228E+03  0.25500000920E-02 0. -1.
</event>
<event>
 5   0  0.3460648E-04  0.2046260E+04  0.7818609E-02  0.8585293E-01
       -2   -1    0    0    0  501  0.00000000000E+00  0.00000000000E+00  0.10938456572E+04  0.10938456572E+04  0.25500000920E-02 0.  1.
        2   -1    0    0  501    0  0.00000000000E+00  0.00000000000E+00 -0.95698607170E+03  0.95698607171E+03  0.25500000920E-02 0. -1.
    10030    2    1    2    0    0  0.00000000000E+00  0.00000000000E+00  0.13685958545E+03  0.20508317289E+04  0.20462600602E+04 0.  0.
        5    1    3    3  502    0 -0.59000779380E+03  0.25450056410E+03  0.86638269497E+03  0.10786662125E+04  0.46999998093E+01 0.  1.
       -5    1    3    3    0  502  0.59000779380E+03 -0.25450056410E+03 -0.72952310952E+03  0.97216551635E+03  0.46999998093E+01 0. -1.
</event>
<event>
 5   0  0.1650221E-04  0.1881538E+04  0.7818609E-02  0.8664101E-01
        1   -1    0    0  501    0  0.00000000000E+00  0.00000000000E+00  0.62132812659E+03  0.62132812661E+03  0.50400001928E-02 0.  1.
       -1   -1    0    0    0  501  0.00000000000E+00  0.00000000000E+00 -0.14244420224E+04  0.14244420224E+04  0.50400001928E-02 0. -1.
    10030    2    1    2    0    0  0.00000000000E+00  0.00000000000E+00 -0.80311389578E+03  0.20457701490E+04  0.18815375555E+04 0.  0.
        1    1    3    3  502    0 -0.88913287844E+03 -0.15122165580E+03 -0.11057703479E+03  0.90865424962E+03  0.50400001928E-02 0.  1.
       -1    1    3    3    0  502  0.88913287844E+03  0.15122165580E+03 -0.69253686099E+03  0.11371158994E+04  0.50400001928E-02 0. -1.
</event>
<event>
 5   0  0.3387881E-04  0.1985809E+04  0.7818609E-02  0.8613284E-01
       -2   -1    0    0    0  501  0.00000000000E+00  0.00000000000E+00  0.14871969426E+04  0.14871969426E+04  0.25500000920E-02 0.  1.
        2   -1    0    0  501    0  0.00000000000E+00  0.00000000000E+00 -0.66289777068E+03  0.66289777069E+03  0.25500000920E-02 0. -1.
    10030    2    1    2    0    0  0.00000000000E+00  0.00000000000E+00  0.82429917197E+03  0.21500947133E+04  0.19858091931E+04 0.  0.
        1    1    3    3  502    0 -0.69899197666E+03 -0.31870252311E+03 -0.26893688309E+03  0.81393373734E+03  0.50400001928E-02 0. -1.
       -1    1    3    3    0  502  0.69899197666E+03  0.31870252311E+03  0.10932360551E+04  0.13361609760E+04  0.50400001928E-02 0.  1.
</event>
<event>
 5   0  0.1650221E-04  0.1823005E+04  0.7818609E-02  0.8694161E-01
        1   -1    0    0  501    0  0.00000000000E+00  0.00000000000E+00  0.86419843936E+03  0.86419843938E+03  0.50400001928E-02 0. -1.
       -1   -1    0    0    0  501  0.00000000000E+00  0.00000000000E+00 -0.96139546973E+03  0.96139546975E+03  0.50400001928E-02 0.  1.
    10030    2    1    2    0    0  0.00000000000E+00  0.00000000000E+00 -0.97197030373E+02  0.18255939091E+04  0.18230046238E+04 0.  0.
        1    1    3    3  502    0  0.86001497118E+03 -0.26475941910E+02 -0.34987418643E+03  0.92883726913E+03  0.50400001928E-02 0.  1.
       -1    1    3    3    0  502 -0.86001497118E+03  0.26475941910E+02  0.25267715606E+03  0.89675664000E+03  0.50400001928E-02 0. -1.
</event>
<event>
 5   0  0.3460648E-04  0.1725215E+04  0.7818609E-02  0.8747113E-01
       -2   -1    0    0    0  501  0.00000000000E+00  0.00000000000E+00  0.63384136624E+03  0.63384136625E+03  0.25500000920E-02 0. -1.
        2   -1    0    0  501    0  0.00000000000E+00  0.00000000000E+00 -0.11739395772E+04  0.11739395772E+04  0.25500000920E-02 0.  1.
    10030    2    1    2    0    0  0.00000000000E+00  0.00000000000E+00 -0.54009821091E+03  0.18077809434E+04  0.17252147292E+04 0.  0.
        5    1    3    3  502    0  0.58742774497E+03  0.16837932479E+03  0.36789488877E+03  0.71329635619E+03  0.46999998093E+01 0. -1.
       -5    1    3    3    0  502 -0.58742774497E+03 -0.16837932479E+03 -0.90799309968E+03  0.10944845872E+04  0.46999998093E+01 0.  1.
</event>
<event>
 5   0  0.3387881E-04  0.1970323E+04  0.7818609E-02  0.8620622E-01
        2   -1    0    0  501    0  0.00000000000E+00  0.00000000000E+00  0.17224266818E+04  0.17224266818E+04  0.25500000920E-02 0.  1.
       -2   -1    0    0    0  501  0.00000000000E+00  0.00000000000E+00 -0.56347458839E+03  0.56347458840E+03  0.25500000920E-02 0. -1.
    10030    2    1    2    0    0  0.00000000000E+00  0.00000000000E+00  0.11589520934E+04  0.22859012702E+04  0.19703234918E+04 0.  0.
        1    1    3    3  502    0 -0.23860542545E+03 -0.95488774817E+03  0.62870460127E+03  0.11679095155E+04  0.50400001928E-02 0.  1.
       -1    1    3    3    0  502  0.23860542545E+03  0.95488774817E+03  0.53024749211E+03  0.11179917547E+04  0.50400001928E-02 0. -1.
</event>
<event>
 5   0  0.3460648E-04  0.2012970E+04  0.7818609E-02  0.8600581E-01
       -2   -1    0    0    0  501  0.00000000000E+00  0.00000000000E+00  0.50343755408E+03  0.50343755409E+03  0.25500000920E-02 0.  1.
        2   -1    0    0  501    0  0.00000000000E+00  0.00000000000E+00 -0.20121897955E+04  0.20121897955E+04  0.25500000920E-02 0. -1.
    10030    2    1    2    0    0  0.00000000000E+00  0.00000000000E+00 -0.15087522414E+04  0.25156273496E+04  0.20129698547E+04 0.  0.
        5    1    3    3  502    0 -0.55444904045E+03 -0.67758418846E+03 -0.13747857251E+04  0.16299055036E+04  0.46999998093E+01 0. -1.
       -5    1    3    3    0  502  0.55444904045E+03  0.67758418846E+03 -0.13396651634E+03  0.88572184596E+03  0.46999998093E+01 0.  1.
</event>
<event>
 5   0  0.3460648E-04  0.1803269E+04  0.7818609E-02  0.8704563E-01
        2   -1    0    0  501    0  0.00000000000E+00  0.00000000000E+00  0.17683292009E+04  0.17683292009E+04  0.25500000920E-02 0.  1.
       -2   -1    0    0    0  501  0.00000000000E+00  0.00000000000E+00 -0.45972483622E+03  0.45972483623E+03  0.25500000920E-02 0. -1.
    10030    2    1    2    0    0  0.00000000000E+00  0.00000000000E+00  0.13086043647E+04  0.22280540372E+04  0.18032690895E+04 0.  0.
        5    1    3    3  502    0 -0.83490185172E+03  0.24997161429E+03  0.93975714186E+03  0.12816834577E+04  0.46999998093E+01 0. -1.
       -5    1    3    3    0  502  0.83490185172E+03 -0.24997161429E+03  0.36884722285E+03  0.94637057951E+03  0.46999998093E+01 0.  1.
</event>
<event>
 5   0  0.1222488E-04  0.1958402E+04  0.7818609E-02  0.8626320E-01
       -4   -1    0    0    0  501  0.00000000000E+00  0.00000000000E+00  0.87490970953E+03  0.87491063128E+03  0.12699999809E+01 0.  1.
        4   -1    0    0  501    0  0.00000000000E+00  0.00000000000E+00 -0.10959223085E+04  0.10959230444E+04  0.12699999809E+01 0. -1.
    10030    2    1    2    0    0  0.00000000000E+00  0.00000000000E+00 -0.22101259900E+03  0.19708336757E+04  0.19584021059E+04 0.  0.
        5    1    3    3  502    0 -0.69049594492E+03 -0.63732634177E+02 -0.80624579941E+03  0.10634382341E+04  0.46999998093E+01 0. -1.
       -5    1    3    3    0  502  0.69049594492E+03  0.63732634177E+02  0.58523320041E+03  0.90739544162E+03  0.46999998093E+01 0.  1.
</event>
<event>
 5   0  0.3387881E-04  0.1969262E+04  0.7818609E-02  0.8621128E-01
       -2   -1    0    0    0  501  0.00000000000E+00  0.00000000000E+00  0.85147676206E+03  0.85147676206E+03  0.25500000920E-02 0.  1.
        2   -1    0    0  501    0  0.00000000000E+00  0.00000000000E+00 -0.11386082463E+04  0.11386082463E+04  0.25500000920E-02 0. -1.
    10030    2    1    2    0    0  0.00000000000E+00  0.00000000000E+00 -0.28713148419E+03  0.19900850083E+04  0.19692622606E+04 0.  0.
        1    1    3    3  502    0 -0.65662569839E+03 -0.72266190881E+03 -0.15334625767E+02  0.97654118859E+03  0.50400001928E-02 0. -1.
       -1    1    3    3    0  502  0.65662569839E+03  0.72266190881E+03 -0.27179685843E+03  0.10135438197E+04  0.50400001928E-02 0.  1.
</event>
<event>
 5   0  0.1643565E-04  0.1981363E+04  0.7818609E-02  0.8615384E-01
       -1   -1    0    0    0  501  0.00000000000E+00  0.00000000000E+00  0.79718943016E+03  0.79718943018E+03  0.50400001928E-02 0.  1.
        1   -1    0    0  501    0  0.00000000000E+00  0.00000000000E+00 -0.12311369566E+04  0.12311369566E+04  0.50400001928E-02 0. -1.
    10030    2    1    2    0    0  0.00000000000E+00  0.00000000000E+00 -0.43394752643E+03  0.20283263868E+04  0.19813625301E+04 0.  0.
        2    1    3    3  502    0 -0.65153662817E+03 -0.19311920735E+03 -0.95493097904E+03  0.11720444449E+04  0.25500000920E-02 0. -1.
       -2    1    3    3    0  502  0.65153662817E+03  0.19311920735E+03  0.52098345261E+03  0.85628194188E+03  0.25500000920E-02 0.  1.
</event>
<event>
 5   0  0.3395569E-04  0.1999068E+04  0.7818609E-02  0.8607057E-01
        2   -1    0    0  501    0  0.00000000000E+00  0.00000000000E+00  0.79244303435E+03  0.79244303435E+03  0.25500000920E-02 0. -1.
       -2   -1    0    0    0  501  0.00000000000E+00  0.00000000000E+00 -0.12607440959E+04  0.12607440959E+04  0.25500000920E-02 0.  1.
    10030    2    1    2    0    0  0.00000000000E+00  0.00000000000E+00 -0.46830106158E+03  0.20531871303E+04  0.19990676596E+04 0.  0.
        4    1    3    3  502    0  0.80769436418E+02 -0.45716809360E+03 -0.11432922711E+04  0.12339551036E+04  0.12699999809E+01 0.  1.
       -4    1    3    3    0  502 -0.80769436418E+02  0.45716809360E+03  0.67499120953E+03  0.81923202666E+03  0.12699999809E+01 0. -1.
</event>
<event>
 5   0  0.1708578E-04  0.1919579E+04  0.7818609E-02  0.8645172E-01
       -1   -1    0    0    0  501  0.00000000000E+00  0.00000000000E+00  0.10058562286E+04  0.10058562286E+04  0.50400001928E-02 0. -1.
        1   -1    0    0  501    0  0.00000000000E+00  0.00000000000E+00 -0.91583211800E+03  0.91583211801E+03  0.50400001928E-02 0.  1.
    10030    2    1    2    0    0  0.00000000000E+00  0.00000000000E+00  0.90024110560E+02  0.19216883466E+04  0.19195785373E+04 0.  0.
        3    1    3    3  502    0 -0.42349931743E+03  0.26737902979E+03 -0.77463823050E+03  0.92244653817E+03  0.10100000352E+00 0.  1.
       -3    1    3    3    0  502  0.42349931743E+03 -0.26737902979E+03  0.86466234106E+03  0.99924180841E+03  0.10100000352E+00 0. -1.
</event>
<event>
 5   0  0.3431030E-04  0.1985495E+04  0.7818609E-02  0.8613432E-01
       -2   -1    0    0    0  501  0.00000000000E+00  0.00000000000E+00  0.71970309036E+03  0.71970309037E+03  0.25500000920E-02 0.  1.
        2   -1    0    0  501    0  0.00000000000E+00  0.00000000000E+00 -0.13693809947E+04  0.13693809947E+04  0.25500000920E-02 0. -1.
    10030    2    1    2    0    0  0.00000000000E+00  0.00000000000E+00 -0.64967790431E+03  0.20890840850E+04  0.19854951360E+04 0.  0.
        3    1    3    3  502    0 -0.72494797537E+03  0.66678581421E+03 -0.45538826965E+03  0.10851411776E+04  0.10100000352E+00 0.  1.
       -3    1    3    3    0  502  0.72494797537E+03 -0.66678581421E+03 -0.19428963466E+03  0.10039429074E+04  0.10100000352E+00 0. -1.
</event>
<event>
 5   0  0.1696052E-04  0.2048917E+04  0.7818609E-02  0.8584086E-01
       -1   -1    0    0    0  501  0.00000000000E+00  0.00000000000E+00  0.93591645992E+03  0.93591645994E+03  0.50400001928E-02 0. -1.
        1   -1    0    0  501    0  0.00000000000E+00  0.00000000000E+00 -0.11213774907E+04  0.11213774907E+04  0.50400001928E-02 0.  1.
    10030    2    1    2    0    0  0.00000000000E+00  0.00000000000E+00 -0.18546103074E+03  0.20572939506E+04  0.20489174228E+04 0.  0.
        4    1    3    3  502    0 -0.20369149491E+03  0.77198076634E+03  0.55182025838E+03  0.97054198218E+03  0.12699999809E+01 0. -1.
       -4    1    3    3    0  502  0.20369149491E+03 -0.77198076634E+03 -0.73728128912E+03  0.10867519684E+04  0.12699999809E+01 0.  1.
</event>
<event>
 5   0  0.3387881E-04  0.1971642E+04  0.7818609E-02  0.8619995E-01
        2   -1    0    0  501    0  0.00000000000E+00  0.00000000000E+00  0.12795381036E+04  0.12795381036E+04  0.25500000920E-02 0.  1.
       -2   -1    0    0    0  501  0.00000000000E+00  0.00000000000E+00 -0.75952611444E+03  0.75952611444E+03  0.25500000920E-02 0. -1.
    10030    2    1    2    0    0  0.00000000000E+00  0.00000000000E+00  0.52001198917E+03  0.20390642180E+04  0.19716415537E+04 0.  0.
        1    1    3    3  502    0  0.15859279810E+03  0.70004865956E+03 -0.43884041565E+03  0.84130892768E+03  0.50400001928E-02 0. -1.
       -1    1    3    3    0  502 -0.15859279810E+03 -0.70004865956E+03  0.95885240482E+03  0.11977552904E+04  0.50400001928E-02 0.  1.
</event>
<event>
 5   0  0.1664168E-04  0.2093823E+04  0.7818609E-02  0.8563969E-01
        1   -1    0    0  501    0  0.00000000000E+00  0.00000000000E+00  0.15867854266E+04  0.15867854266E+04  0.50400001928E-02 0.  1.
       -1   -1    0    0    0  501  0.00000000000E+00  0.00000000000E+00 -0.69071978415E+03  0.69071978416E+03  0.50400001928E-02 0. -1.
    10030    2    1    2    0    0  0.00000000000E+00  0.00000000000E+00  0.89606564243E+03  0.22775052107E+04  0.20938233807E+04 0.  0.
        5    1    3    3  502    0  0.90104515253E+03  0.37508970333E+03  0.85997410083E+03  0.13008275045E+04  0.46999998093E+01 0.  1.
       -5    1    3    3    0  502 -0.90104515253E+03 -0.37508970333E+03  0.36091541599E+02  0.97667770622E+03  0.46999998093E+01 0. -1.
</event>
<event>
 5   0  0.1696052E-04  0.1941885E+04  0.7818609E-02  0.8634284E-01
       -1   -1    0    0    0  501  0.00000000000E+00  0.00000000000E+00  0.59062327545E+03  0.59062327547E+03  0.50400001928E-02 0.  1.
        1   -1    0    0  501    0  0.00000000000E+00  0.00000000000E+00 -0.15961597158E+04  0.15961597159E+04  0.50400001928E-02 0. -1.
    10030    2    1    2    0    0  0.00000000000E+00  0.00000000000E+00 -0.10055364404E+04  0.21867829913E+04  0.19418847335E+04 0.  0.
        4    1    3    3  502    0 -0.12217149652E+02  0.93391793899E+03 -0.80150793308E+03  0.12307593409E+04  0.12699999809E+01 0. -1.
       -4    1    3    3    0  502  0.12217149652E+02 -0.93391793899E+03 -0.20402850732E+03  0.95602365044E+03  0.12699999809E+01 0.  1.
</event>
<event>
 5   0  0.3431030E-04  0.2519795E+04  0.7818609E-02  0.8395967E-01
        2   -1    0    0  501    0  0.00000000000E+00  0.00000000000E+00  0.25703739235E+04  0.25703739235E+04  0.25500000920E-02 0. -1.
       -2   -1    0    0    0  501  0.00000000000E+00  0.00000000000E+00 -0.61755282541E+03  0.61755282541E+03  0.25500000920E-02 0.  1.
    10030    2    1    2    0    0  0.00000000000E+00  0.00000000000E+00  0.19528210981E+04  0.31879267489E+04  0.25197949749E+04 0.  0.
        3    1    3    3  502    0 -0.10965813431E+03 -0.52375531115E+03 -0.46663918319E+03  0.70999765483E+03  0.10100000352E+00 0.  1.
       -3    1    3    3    0  502  0.10965813431E+03  0.52375531115E+03  0.24194602813E+04  0.24779290941E+04  0.10100000352E+00 0. -1.
</event>
<event>
 5   0  0.1664168E-04  0.2052815E+04  0.7818609E-02  0.8582318E-01
        1   -1    0    0  501    0  0.00000000000E+00  0.00000000000E+00  0.11764985145E+04  0.11764985145E+04  0.50400001928E-02 0. -1.
       -1   -1    0    0    0  501  0.00000000000E+00  0.00000000000E+00 -0.89546438933E+03  0.89546438935E+03  0.50400001928E-02 0.  1.
    10030    2    1    2    0    0  0.00000000000E+00  0.00000000000E+00  0.28103412517E+03  0.20719629039E+04  0.20528151635E+04 0.  0.
        5    1    3    3  502    0 -0.57033125726E+03 -0.23353147334E+03 -0.68791630524E+03  0.92361551799E+03  0.46999998093E+01 0.  1.
       -5    1    3    3    0  502  0.57033125726E+03  0.23353147334E+03  0.96895043041E+03  0.11483473859E+04  0.46999998093E+01 0. -1.
</event>
<event>
 5   0  0.1708578E-04  0.2034186E+04  0.7818609E-02  0.8590802E-01
       -1   -1    0    0    0  501  0.00000000000E+00  0.00000000000E+00  0.71795146101E+03  0.71795146102E+03  0.50400001928E-02 0.  1.
        1   -1    0    0  501    0  0.00000000000E+00  0.00000000000E+00 -0.14408743334E+04  0.14408743334E+04  0.50400001928E-02 0. -1.
    10030    2    1    2    0    0  0.00000000000E+00  0.00000000000E+00 -0.72292287237E+03  0.21588257944E+04  0.20341856678E+04 0.  0.
        3    1    3    3  502    0  0.19757961901E+02 -0.99938722582E+03 -0.56089211576E+03  0.11461959605E+04  0.10100000352E+00 0. -1.
       -3    1    3    3    0  502 -0.19757961901E+02  0.99938722582E+03 -0.16203075661E+03  0.10126298339E+04  0.10100000352E+00 0.  1.
</event>
<event>
 5   0  0.1643565E-04  0.1143826E+04  0.7818609E-02  0.9163498E-01
        1   -1    0    0  501    0  0.00000000000E+00  0.00000000000E+00  0.12411537473E+04  0.12411537473E+04  0.50400001928E-02 0.  1.
       -1   -1    0    0    0  501  0.00000000000E+00  0.00000000000E+00 -0.26353266270E+03  0.26353266275E+03  0.50400001928E-02 0. -1.
    10030    2    1    2    0    0  0.00000000000E+00  0.00000000000E+00  0.97762108460E+03  0.15046864101E+04  0.11438261265E+04 0.  0.
        2    1    3    3  502    0  0.21267313402E+03 -0.40504893553E+03  0.37328699481E+02  0.45900755323E+03  0.25500000920E-02 0. -1.
       -2    1    3    3    0  502 -0.21267313402E+03  0.40504893553E+03  0.94029238512E+03  0.10456788568E+04  0.25500000920E-02 0.  1.
</event>
<event>
 5   0  0.3371947E-04  0.2075179E+04  0.7818609E-02  0.8572257E-01
       -2   -1    0    0    0  501  0.00000000000E+00  0.00000000000E+00  0.13110677929E+04  0.13110677929E+04  0.25500000920E-02 0.  1.
        2   -1    0    0  501    0  0.00000000000E+00  0.00000000000E+00 -0.82115635016E+03  0.82115635016E+03  0.25500000920E-02 0. -1.
    10030    2    1    2    0    0  0.00000000000E+00  0.00000000000E+00  0.48991144276E+03  0.21322241431E+04  0.20751786850E+04 0.  0.
        2    1    3    3  502    0  0.66037626936E+03  0.80015646440E+03  0.26102070762E+03  0.10698032504E+04  0.25500000920E-02 0. -1.
       -2    1    3    3    0  502 -0.66037626936E+03 -0.80015646440E+03  0.22889073514E+03  0.10624208927E+04  0.25500000920E-02 0.  1.
</event>
<event>
 5   0  0.1643565E-04  0.2161687E+04  0.7818609E-02  0.8534546E-01
       -1   -1    0    0    0  501  0.00000000000E+00  0.00000000000E+00  0.14122190410E+04  0.14122190410E+04  0.50400001928E-02 0. -1.
        1   -1    0    0  501    0  0.00000000000E+00  0.00000000000E+00 -0.82722460555E+03  0.82722460556E+03  0.50400001928E-02 0.  1.
    10030    2    1    2    0    0  0.00000000000E+00  0.00000000000E+00  0.58499443541E+03  0.22394436465E+04  0.21616866925E+04 0.  0.
        2    1    3    3  502    0 -0.43610758981E+03  0.36994956533E+03 -0.65764635011E+03  0.87152236494E+03  0.25500000920E-02 0.  1.
       -2    1    3    3    0  502  0.43610758981E+03 -0.36994956533E+03  0.12426407855E+04  0.13679212816E+04  0.25500000920E-02 0. -1.
</event>
<event>
 5   0  0.1643565E-04  0.1903245E+04  0.7818609E-02  0.8653243E-01
        1   -1    0    0  501    0  0.00000000000E+00  0.00000000000E+00  0.13796822826E+04  0.13796822826E+04  0.50400001928E-02 0.  1.
       -1   -1    0    0    0  501  0.00000000000E+00  0.00000000000E+00 -0.65637265310E+03  0.65637265312E+03  0.50400001928E-02 0. -1.
    10030    2    1    2    0    0  0.00000000000E+00  0.00000000000E+00  0.72330962947E+03  0.20360549357E+04  0.19032453549E+04 0.  0.
        2    1    3    3  502    0  0.35509262782E+02 -0.93582374041E+03  0.18086905029E+03  0.95380322616E+03  0.25500000920E-02 0.  1.
       -2    1    3    3    0  502 -0.35509262782E+02  0.93582374041E+03  0.54244057918E+03  0.10822517095E+04  0.25500000920E-02 0. -1.
</event>
<event>
 5   0  0.1708578E-04  0.1956262E+04  0.7818609E-02  0.8627347E-01
        1   -1    0    0  501    0  0.00000000000E+00  0.00000000000E+00  0.73437294763E+03  0.73437294765E+03  0.50400001928E-02 0.  1.
       -1   -1    0    0    0  501  0.00000000000E+00  0.00000000000E+00 -0.13027994615E+04  0.13027994615E+04  0.50400001928E-02 0. -1.
    10030    2    1    2    0    0  0.00000000000E+00  0.00000000000E+00 -0.56842651388E+03  0.20371724092E+04  0.19562624371E+04 0.  0.
        3    1    3    3  502    0  0.20933150732E+03  0.90863032501E+03 -0.59192030680E+03  0.11044448412E+04  0.10100000352E+00 0. -1.
       -3    1    3    3    0  502 -0.20933150732E+03 -0.90863032501E+03  0.23493792920E+02  0.93272756794E+03  0.10100000352E+00 0.  1.
</event>
<event>
 5   0  0.3387881E-04  0.1834650E+04  0.7818609E-02  0.8688087E-01
       -2   -1    0    0    0  501  0.00000000000E+00  0.00000000000E+00  0.11463858956E+04  0.11463858956E+04  0.25500000920E-02 0. -1.
        2   -1    0    0  501    0  0.00000000000E+00  0.00000000000E+00 -0.73403296963E+03  0.73403296963E+03  0.25500000920E-02 0.  1.
    10030    2    1    2    0    0  0.00000000000E+00  0.00000000000E+00  0.41235292593E+03  0.18804188652E+04  0.18346498775E+04 0.  0.
        1    1    3    3  502    0 -0.14000668299E+03 -0.90628795524E+03  0.22966797380E+03  0.94536083445E+03  0.50400001928E-02 0. -1.
       -1    1    3    3    0  502  0.14000668299E+03  0.90628795524E+03  0.18268495213E+03  0.93505803074E+03  0.50400001928E-02 0.  1.
</event>
<event>
 5   0  0.3395569E-04  0.1182588E+04  0.7818609E-02  0.9128235E-01
        2   -1    0    0  501    0  0.00000000000E+00  0.00000000000E+00  0.66754896041E+03  0.66754896042E+03  0.25500000920E-02 0.  1.
       -2   -1    0    0    0  501  0.00000000000E+00  0.00000000000E+00 -0.52374995796E+03  0.52374995797E+03  0.25500000920E-02 0. -1.
    10030    2    1    2    0    0  0.00000000000E+00  0.00000000000E+00  0.14379900245E+03  0.11912989184E+04  0.11825882461E+04 0.  0.
        4    1    3    3  502    0  0.16762896368E+03  0.24444687809E+03  0.58730604803E+03  0.65786301966E+03  0.12699999809E+01 0.  1.
       -4    1    3    3    0  502 -0.16762896368E+03 -0.24444687809E+03 -0.44350704558E+03  0.53343589873E+03  0.12699999809E+01 0. -1.
</event>
<event>
 5   0  0.1650221E-04  0.1991690E+04  0.7818609E-02  0.8610516E-01
       -1   -1    0    0    0  501  0.00000000000E+00  0.00000000000E+00  0.73049484180E+03  0.73049484182E+03  0.50400001928E-02 0. -1.
        1   -1    0    0  501    0  0.00000000000E+00  0.00000000000E+00 -0.13575828882E+04  0.13575828882E+04  0.50400001928E-02 0.  1.
    10030    2    1    2    0    0  0.00000000000E+00  0.00000000000E+00 -0.62708804637E+03  0.20880777300E+04  0.19916900333E+04 0.  0.
        1    1    3    3  502    0 -0.77646823235E+03 -0.17213004088E+03  0.31477230028E+03  0.85534394712E+03  0.50400001928E-02 0. -1.
       -1    1    3    3    0  502  0.77646823235E+03  0.17213004088E+03 -0.94186034665E+03  0.12327337829E+04  0.50400001928E-02 0.  1.
</event>
<event>
 5   0  0.3387881E-04  0.2149742E+04  0.7818609E-02  0.8539643E-01
        2   -1    0    0  501    0  0.00000000000E+00  0.00000000000E+00  0.49605356078E+03  0.49605356078E+03  0.25500000920E-02 0. -1.
       -2   -1    0    0    0  501  0.00000000000E+00  0.00000000000E+00 -0.23290792329E+04  0.23290792329E+04  0.25500000920E-02 0.  1.
    10030    2    1    2    0    0  0.00000000000E+00  0.00000000000E+00 -0.18330256721E+04  0.28251327936E+04  0.21497423537E+04 0.  0.
        1    1    3    3  502    0 -0.57854471911E+03  0.89109582861E+03 -0.70224915618E+03  0.12735460907E+04  0.50400001928E-02 0. -1.
       -1    1    3    3    0  502  0.57854471911E+03 -0.89109582861E+03 -0.11307765159E+04  0.15515867029E+04  0.50400001928E-02 0.  1.
</event>
<event>
 5   0  0.3395569E-04  0.2046241E+04  0.7818609E-02  0.8585302E-01
        2   -1    0    0  501    0  0.00000000000E+00  0.00000000000E+00  0.13512429685E+04  0.13512429685E+04  0.25500000920E-02 0.  1.
       -2   -1    0    0    0  501  0.00000000000E+00  0.00000000000E+00 -0.77467576162E+03  0.77467576163E+03  0.25500000920E-02 0. -1.
    10030    2    1    2    0    0  0.00000000000E+00  0.00000000000E+00  0.57656720692E+03  0.21259187302E+04  0.20462406269E+04 0.  0.
        4    1    3    3  502    0 -0.83076210372E+03 -0.55986233284E+03  0.72439082879E+02  0.10044204988E+04  0.12699999809E+01 0. -1.
       -4    1    3    3    0  502  0.83076210372E+03  0.55986233284E+03  0.50412812404E+03  0.11214982314E+04  0.12699999809E+01 0.  1.
</event>
<event>
 5   0  0.3460648E-04  0.2078183E+04  0.7818609E-02  0.8570915E-01
       -2   -1    0    0    0  501  0.00000000000E+00  0.00000000000E+00  0.38056215648E+03  0.38056215649E+03  0.25500000920E-02 0.  1.
        2   -1    0    0  501    0  0.00000000000E+00  0.00000000000E+00 -0.28371469659E+04  0.28371469659E+04  0.25500000920E-02 0. -1.
    10030    2    1    2    0    0  0.00000000000E+00  0.00000000000E+00 -0.24565848094E+04  0.32177091224E+04  0.20781826365E+04 0.  0.
        5    1    3    3  502    0 -0.57641351038E+03  0.49886020941E+02 -0.25646599238E+04  0.26291146352E+04  0.46999998093E+01 0. -1.
       -5    1    3    3    0  502  0.57641351038E+03 -0.49886020941E+02  0.10807511441E+03  0.58859448722E+03  0.46999998093E+01 0.  1.
</event>
<event>
 5   0  0.3387881E-04  0.1853904E+04  0.7818609E-02  0.8678148E-01
       -2   -1    0    0    0  501  0.00000000000E+00  0.00000000000E+00  0.60207473986E+03  0.60207473986E+03  0.25500000920E-02 0.  1.
        2   -1    0    0  501    0  0.00000000000E+00  0.00000000000E+00 -0.14271321622E+04  0.14271321622E+04  0.25500000920E-02 0. -1.
    10030    2    1    2    0    0  0.00000000000E+00  0.00000000000E+00 -0.82505742233E+03  0.20292069020E+04  0.18539042319E+04 0.  0.
        1    1    3    3  502    0 -0.42603533458E+03 -0.33207188136E+03 -0.12370608234E+04  0.13498508516E+04  0.50400001928E-02 0. -1.
       -1    1    3    3    0  502  0.42603533458E+03  0.33207188136E+03  0.41200340112E+03  0.67935605043E+03  0.50400001928E-02 0.  1.
</event>
<event>
 5   0  0.3460648E-04  0.2014616E+04  0.7818609E-02  0.8599817E-01
        2   -1    0    0  501    0  0.00000000000E+00  0.00000000000E+00  0.26171475813E+04  0.26171475813E+04  0.25500000920E-02 0. -1.
       -2   -1    0    0    0  501  0.00000000000E+00  0.00000000000E+00 -0.38770054266E+03  0.38770054267E+03  0.25500000920E-02 0.  1.
    10030    2    1    2    0    0  0.00000000000E+00  0.00000000000E+00  0.22294470387E+04  0.30048481240E+04  0.20146161297E+04 0.  0.
        5    1    3    3  502    0  0.43044536400E+03  0.87841339243E+03  0.75627911045E+03  0.12364762360E+04  0.46999998093E+01 0.  1.
       -5    1    3    3    0  502 -0.43044536400E+03 -0.87841339243E+03  0.14731679282E+04  0.17683718879E+04  0.46999998093E+01 0. -1.
</event>
<event>
 5   0  0.3387881E-04  0.1981138E+04  0.7818609E-02  0.8615490E-01
        2   -1    0    0  501    0  0.00000000000E+00  0.00000000000E+00  0.19490275630E+04  0.19490275630E+04  0.25500000920E-02 0. -1.
       -2   -1    0    0    0  501  0.00000000000E+00  0.00000000000E+00 -0.50344457689E+03  0.50344457690E+03  0.25500000920E-02 0.  1.
    10030    2    1    2    0    0  0.00000000000E+00  0.00000000000E+00  0.14455829861E+04  0.24524721399E+04  0.19811384170E+04 0.  0.
        1    1    3    3  502    0 -0.59795766274E+03  0.26769642137E+03 -0.19694573293E+03  0.68410698153E+03  0.50400001928E-02 0.  1.
       -1    1    3    3    0  502  0.59795766274E+03 -0.26769642137E+03  0.16425287190E+04  0.17683651583E+04  0.50400001928E-02 0. -1.
</event>
<event>
 5   0  0.1696052E-04  0.1986934E+04  0.7818609E-02  0.8612754E-01
        1   -1    0    0  501    0  0.00000000000E+00  0.00000000000E+00  0.10936050068E+04  0.10936050068E+04  0.50400001928E-02 0.  1.
       -1   -1    0    0    0  501  0.00000000000E+00  0.00000000000E+00 -0.90249871837E+03  0.90249871838E+03  0.50400001928E-02 0. -1.
    10030    2    1    2    0    0  0.00000000000E+00  0.00000000000E+00  0.19110628845E+03  0.19961037252E+04  0.19869344399E+04 0.  0.
        4    1    3    3  502    0 -0.32823099293E+03  0.26804939435E+03 -0.80714198793E+03  0.91162813916E+03  0.12699999809E+01 0. -1.
       -4    1    3    3    0  502  0.32823099293E+03 -0.26804939435E+03  0.99824827638E+03  0.10844755860E+04  0.12699999809E+01 0.  1.
</event>
<event>
 5   0  0.1708578E-04  0.2006896E+04  0.7818609E-02  0.8603403E-01
        1   -1    0    0  501    0  0.00000000000E+00  0.00000000000E+00  0.85183416547E+03  0.85183416549E+03  0.50400001928E-02 0.  1.
       -1   -1    0    0    0  501  0.00000000000E+00  0.00000000000E+00 -0.11820467978E+04  0.11820467978E+04  0.50400001928E-02 0. -1.
    10030    2    1    2    0    0  0.00000000000E+00  0.00000000000E+00 -0.33021263232E+03  0.20338809633E+04  0.20068959590E+04 0.  0.
        3    1    3    3  502    0 -0.47733465640E+03 -0.82329048402E+03  0.15737384142E+03  0.96458391623E+03  0.10100000352E+00 0. -1.
       -3    1    3    3    0  502  0.47733465640E+03  0.82329048402E+03 -0.48758647374E+03  0.10692970471E+04  0.10100000352E+00 0.  1.
</event>
<event>
 5   0  0.3387881E-04  0.1988216E+04  0.7818609E-02  0.8612150E-01
        2   -1    0    0  501    0  0.00000000000E+00  0.00000000000E+00  0.13556808226E+04  0.13556808226E+04  0.25500000920E-02 0. -1.
       -2   -1    0    0    0  501  0.00000000000E+00  0.00000000000E+00 -0.72897010622E+03  0.72897010623E+03  0.25500000920E-02 0.  1.
    10030    2    1    2    0    0  0.00000000000E+00  0.00000000000E+00  0.62671071633E+03  0.20846509288E+04  0.19882160780E+04 0.  0.
        1    1    3    3  502    0  0.48752817207E+02  0.40199346145E+03  0.12652872616E+04  0.13285057149E+04  0.50400001928E-02 0. -1.
       -1    1    3    3    0  502 -0.48752817207E+02 -0.40199346145E+03 -0.63857654527E+03  0.75614521385E+03  0.50400001928E-02 0.  1.
</event>
<event>
 5   0  0.1643565E-04  0.1946118E+04  0.7818609E-02  0.8632235E-01
       -1   -1    0    0    0  501  0.00000000000E+00  0.00000000000E+00  0.14886507649E+04  0.14886507649E+04  0.50400001928E-02 0. -1.
        1   -1    0    0  501    0  0.00000000000E+00  0.00000000000E+00 -0.63604154489E+03  0.63604154491E+03  0.50400001928E-02 0.  1.
    10030    2    1    2    0    0  0.00000000000E+00  0.00000000000E+00  0.85260922004E+03  0.21246923099E+04  0.19461179125E+04 0.  0.
        2    1    3    3  502    0  0.30528428281E+03 -0.82421308538E+03 -0.29520294057E+02  0.87943001496E+03  0.25500000920E-02 0.  1.
       -2    1    3    3    0  502 -0.30528428281E+03  0.82421308538E+03  0.88212951410E+03  0.12452622949E+04  0.25500000920E-02 0. -1.
</event>
<event>
 5   0  0.3371947E-04  0.1934684E+04  0.7818609E-02  0.8637782E-01
        2   -1    0    0  501    0  0.00000000000E+00  0.00000000000E+00  0.11364171404E+04  0.11364171404E+04  0.25500000920E-02 0. -1.
       -2   -1    0    0    0  501  0.00000000000E+00  0.00000000000E+00 -0.82342132628E+03  0.82342132629E+03  0.25500000920E-02 0.  1.
    10030    2    1    2    0    0  0.00000000000E+00  0.00000000000E+00  0.31299581414E+03  0.19598384667E+04  0.19346835493E+04 0.  0.
        2    1    3    3  502    0  0.65114931497E+03 -0.11762114754E+03  0.87130705171E+03  0.10940777592E+04  0.25500000920E-02 0. -1.
       -2    1    3    3    0  502 -0.65114931497E+03  0.11762114754E+03 -0.55831123757E+03  0.86576070755E+03  0.25500000920E-02 0.  1.
</event>
<event>
 5   0  0.1696052E-04  0.1904428E+04  0.7818609E-02  0.8652655E-01
        1   -1    0    0  501    0  0.00000000000E+00  0.00000000000E+00  0.91518320128E+03  0.91518320130E+03  0.50400001928E-02 0. -1.
       -1   -1    0    0    0  501  0.00000000000E+00  0.00000000000E+00 -0.99074323809E+03  0.99074323810E+03  0.50400001928E-02 0.  1.
    10030    2    1    2    0    0  0.00000000000E+00  0.00000000000E+00 -0.75560036806E+02  0.19059264394E+04  0.19044280698E+04 0.  0.
        4    1    3    3  502    0 -0.82688367931E+03 -0.34714365082E+03 -0.35813282397E+03  0.96566353660E+03  0.12699999809E+01 0.  1.
       -4    1    3    3    0  502  0.82688367931E+03  0.34714365082E+03  0.28257278716E+03  0.94026290279E+03  0.12699999809E+01 0. -1.
</event>
<event>
 5   0  0.3460648E-04  0.1946230E+04  0.7818609E-02  0.8632181E-01
       -2   -1    0    0    0  501  0.00000000000E+00  0.00000000000E+00  0.69734293013E+03  0.69734293014E+03  0.25500000920E-02 0.  1.
        2   -1    0    0  501    0  0.00000000000E+00  0.00000000000E+00 -0.13579442591E+04  0.13579442591E+04  0.25500000920E-02 0. -1.
    10030    2    1    2    0    0  0.00000000000E+00  0.00000000000E+00 -0.66060132899E+03  0.20552871893E+04  0.19462300261E+04 0.  0.
        5    1    3    3  502    0 -0.43298758695E+03  0.45470028799E+03 -0.11153973296E+04  0.12799858965E+04  0.46999998093E+01 0. -1.
       -5    1    3    3    0  502  0.43298758695E+03 -0.45470028799E+03  0.45479600062E+03  0.77530129275E+03  0.46999998093E+01 0.  1.
</event>
<event>
 5   0  0.1650221E-04  0.2037773E+04  0.7818609E-02  0.8589161E-01
        1   -1    0    0  501    0  0.00000000000E+00  0.00000000000E+00  0.13019237209E+04  0.13019237209E+04  0.50400001928E-02 0.  1.
       -1   -1    0    0    0  501  0.00000000000E+00  0.00000000000E+00 -0.79738165712E+03  0.79738165714E+03  0.50400001928E-02 0. -1.
    10030    2    1    2    0    0  0.00000000000E+00  0.00000000000E+00  0.50454206382E+03  0.20993053781E+04  0.20377733869E+04 0.  0.
        1    1    3    3  502    0  0.22692125212E+03 -0.85364103420E+03  0.77547843547E+03  0.11753991126E+04  0.50400001928E-02 0. -1.
       -1    1    3    3    0  502 -0.22692125212E+03  0.85364103420E+03 -0.27093637165E+03  0.92390626551E+03  0.50400001928E-02 0.  1.
</event>
<event>
 5   0  0.3387881E-04  0.2045487E+04  0.7818609E-02  0.8585645E-01
        2   -1    0    0  501    0  0.00000000000E+00  0.00000000000E+00  0.29943991283E+04  0.29943991283E+04  0.25500000920E-02 0. -1.
       -2   -1    0    0    0  501  0.00000000000E+00  0.00000000000E+00 -0.34932014687E+03  0.34932014688E+03  0.25500000920E-02 0.  1.
    10030    2    1    2    0    0  0.00000000000E+00  0.00000000000E+00  0.26450789814E+04  0.33437192752E+04  0.20454866837E+04 0.  0.
        1    1    3    3  502    0 -0.85128846827E+03  0.26790210322E+03  0.50595045898E+03  0.10258895945E+04  0.50400001928E-02 0.  1.
       -1    1    3    3    0  502  0.85128846827E+03 -0.26790210322E+03  0.21391285224E+04  0.23178296807E+04  0.50400001928E-02 0. -1.
</event>
<event>
 5   0  0.1643565E-04  0.1973129E+04  0.7818609E-02  0.8619288E-01
       -1   -1    0    0    0  501  0.00000000000E+00  0.00000000000E+00  0.83349222732E+03  0.83349222734E+03  0.50400001928E-02 0.  1.
        1   -1    0    0  501    0  0.00000000000E+00  0.00000000000E+00 -0.11677482519E+04  0.11677482519E+04  0.50400001928E-02 0. -1.
    10030    2    1    2    0    0  0.00000000000E+00  0.00000000000E+00 -0.33425602459E+03  0.20012404793E+04  0.19731285731E+04 0.  0.
        2    1    3    3  502    0 -0.13051701592E+03 -0.69949607327E+03  0.52596715035E+03  0.88485642407E+03  0.25500000920E-02 0.  1.
       -2    1    3    3    0  502  0.13051701592E+03  0.69949607327E+03 -0.86022317494E+03  0.11163840552E+04  0.25500000920E-02 0. -1.
</event>
<event>
 5   0  0.1643565E-04  0.2014446E+04  0.7818609E-02  0.8599896E-01
        1   -1    0    0  501    0  0.00000000000E+00  0.00000000000E+00  0.79247104282E+03  0.79247104284E+03  0.50400001928E-02 0.  1.
       -1   -1    0    0    0  501  0.00000000000E+00  0.00000000000E+00 -0.12801710576E+04  0.12801710576E+04  0.50400001928E-02 0. -1.
    10030    2    1    2    0    0  0.00000000000E+00  0.00000000000E+00 -0.48770001474E+03  0.20726421004E+04  0.20144463190E+04 0.  0.
        2    1    3    3  502    0 -0.72883828984E+03 -0.60012146894E+03  0.11721163301E+03  0.95136196957E+03  0.25500000920E-02 0. -1.
       -2    1    3    3    0  502  0.72883828984E+03  0.60012146894E+03 -0.60491164775E+03  0.11212801308E+04  0.25500000920E-02 0.  1.
</event>
<event>
 5   0  0.1664168E-04  0.1975792E+04  0.7818609E-02  0.8618023E-01
       -1   -1    0    0    0  501  0.00000000000E+00  0.00000000000E+00  0.89161876592E+03  0.89161876594E+03  0.50400001928E-02 0. -1.
        1   -1    0    0  501    0  0.00000000000E+00  0.00000000000E+00 -0.10945691738E+04  0.10945691739E+04  0.50400001928E-02 0.  1.
    10030    2    1    2    0    0  0.00000000000E+00  0.00000000000E+00 -0.20295040793E+03  0.19861879398E+04  0.19757919081E+04 0.  0.
        5    1    3    3  502    0 -0.62221681235E+03 -0.72543498034E+03  0.14985359915E+03  0.96741297461E+03  0.46999998093E+01 0. -1.
       -5    1    3    3    0  502  0.62221681235E+03  0.72543498034E+03 -0.35280400707E+03  0.10187749652E+04  0.46999998093E+01 0.  1.
</event>
<event>
 5   0  0.1664168E-04  0.1948445E+04  0.7818609E-02  0.8631111E-01
        1   -1    0    0  501    0  0.00000000000E+00  0.00000000000E+00  0.17384384040E+04  0.17384384040E+04  0.50400001928E-02 0. -1.
       -1   -1    0    0    0  501  0.00000000000E+00  0.00000000000E+00 -0.54595546063E+03  0.54595546065E+03  0.50400001928E-02 0.  1.
    10030    2    1    2    0    0  0.00000000000E+00  0.00000000000E+00  0.11924829434E+04  0.22843938647E+04  0.19484454723E+04 0.  0.
        5    1    3    3  502    0 -0.21127859021E+03  0.67342558043E+03  0.13835511194E+04  0.15531826825E+04  0.46999998093E+01 0. -1.
       -5    1    3    3    0  502  0.21127859021E+03 -0.67342558043E+03 -0.19106817605E+03  0.73121118219E+03  0.46999998093E+01 0.  1.
</event>
<event>
 5   0  0.1696052E-04  0.1968084E+04  0.7818609E-02  0.8621689E-01
        1   -1    0    0  501    0  0.00000000000E+00  0.00000000000E+00  0.11435340277E+04  0.11435340277E+04  0.50400001928E-02 0. -1.
       -1   -1    0    0    0  501  0.00000000000E+00  0.00000000000E+00 -0.84679493040E+03  0.84679493042E+03  0.50400001928E-02 0.  1.
    10030    2    1    2    0    0  0.00000000000E+00  0.00000000000E+00  0.29673909728E+03  0.19903289581E+04  0.19680841622E+04 0.  0.
        4    1    3    3  502    0  0.95511446231E+03 -0.11983224254E+03 -0.58228003358E+02  0.96436275112E+03  0.12699999809E+01 0. -1.
       -4    1    3    3    0  502 -0.95511446231E+03  0.11983224254E+03  0.35496710064E+03  0.10259662070E+04  0.12699999809E+01 0.  1.
</event>
<event>
 5   0  0.3395569E-04  0.1876329E+04  0.7818609E-02  0.8666730E-01
        2   -1    0    0  501    0  0.00000000000E+00  0.00000000000E+00  0.12143655614E+04  0.12143655614E+04  0.25500000920E-02 0.  1.
       -2   -1    0    0    0  501  0.00000000000E+00  0.00000000000E+00 -0.72478353291E+03  0.72478353292E+03  0.25500000920E-02 0. -1.
    10030    2    1    2    0    0  0.00000000000E+00  0.00000000000E+00  0.48958202847E+03  0.19391490943E+04  0.18763285020E+04 0.  0.
        4    1    3    3  502    0  0.22869745227E+03  0.49741741668E+03  0.10321539803E+04  0.11683621284E+04  0.12699999809E+01 0.  1.
       -4    1    3    3    0  502 -0.22869745227E+03 -0.49741741668E+03 -0.54257195180E+03  0.77078696595E+03  0.12699999809E+01 0. -1.
</event>
<event>
 5   0  0.3387881E-04  0.2017520E+04  0.7818609E-02  0.8598473E-01
       -2   -1    0    0    0  501  0.00000000000E+00  0.00000000000E+00  0.59758523173E+03  0.59758523174E+03  0.25500000920E-02 0. -1.
        2   -1    0    0  501    0  0.00000000000E+00  0.00000000000E+00 -0.17028470799E+04  0.17028470799E+04  0.25500000920E-02 0.  1.
    10030    2    1    2    0    0  0.00000000000E+00  0.00000000000E+00 -0.11052618482E+04  0.23004323116E+04  0.20175195333E+04 0.  0.
        1    1    3    3  502    0  0.68824700835E+02 -0.34324762669E+03 -0.16313616599E+04  0.16685013149E+04  0.50400001928E-02 0.  1.
       -1    1    3    3    0  502 -0.68824700835E+02  0.34324762669E+03  0.52609981171E+03  0.63193099669E+03  0.50400001928E-02 0. -1.
</event>
<event>
 5   0  0.3460648E-04  0.2010512E+04  0.7818609E-02  0.8601722E-01
        2   -1    0    0  501    0  0.00000000000E+00  0.00000000000E+00  0.23268978276E+04  0.23268978276E+04  0.25500000920E-02 0.  1.
       -2   -1    0    0    0  501  0.00000000000E+00  0.00000000000E+00 -0.43428600646E+03  0.43428600647E+03  0.25500000920E-02 0. -1.
    10030    2    1    2    0    0  0.00000000000E+00  0.00000000000E+00  0.18926118211E+04  0.27611838341E+04  0.20105115419E+04 0.  0.
        5    1    3    3  502    0 -0.17814557665E+03 -0.54816799204E+03  0.20773966454E+04  0.21558810047E+04  0.46999998093E+01 0.  1.
       -5    1    3    3    0  502  0.17814557665E+03  0.54816799204E+03 -0.18478482429E+03  0.60530282938E+03  0.46999998093E+01 0. -1.
</event>
<event>
 5   0  0.3371947E-04  0.1868550E+04  0.7818609E-02  0.8670672E-01
       -2   -1    0    0    0  501  0.00000000000E+00  0.00000000000E+00  0.82702742187E+03  0.82702742187E+03  0.25500000920E-02 0.  1.
        2   -1    0    0  501    0  0.00000000000E+00  0.00000000000E+00 -0.10554299523E+04  0.10554299523E+04  0.25500000920E-02 0. -1.
    10030    2    1    2    0    0  0.00000000000E+00  0.00000000000E+00 -0.22840253045E+03  0.18824573742E+04  0.18685497183E+04 0.  0.
        2    1    3    3  502    0 -0.47000539347E+03 -0.30942566424E+03 -0.86555400035E+03  0.10323919019E+04  0.25500000920E-02 0. -1.
       -2    1    3    3    0  502  0.47000539347E+03  0.30942566424E+03  0.63715146990E+03  0.85006547229E+03  0.25500000920E-02 0.  1.
</event>
<event>
 5   0  0.1643565E-04  0.2044552E+04  0.7818609E-02  0.8586070E-01
        1   -1    0    0  501    0  0.00000000000E+00  0.00000000000E+00  0.16183804580E+04  0.16183804581E+04  0.50400001928E-02 0. -1.
       -1   -1    0    0    0  501  0.00000000000E+00  0.00000000000E+00 -0.64573709619E+03  0.64573709621E+03  0.50400001928E-02 0.  1.
    10030    2    1    2    0    0  0.00000000000E+00  0.00000000000E+00  0.97264336186E+03  0.22641175543E+04  0.20445520757E+04 0.  0.
        2    1    3    3  502    0 -0.79269098861E+03  0.12955400401E+03  0.11866138044E+04  0.14328976112E+04  0.25500000920E-02 0. -1.
       -2    1    3    3    0  502  0.79269098861E+03 -0.12955400401E+03 -0.21397044258E+03  0.83121994303E+03  0.25500000920E-02 0.  1.
</event>
<event>
 5   0  0.1650221E-04  0.1895447E+04  0.7818609E-02  0.8657126E-01
        1   -1    0    0  501    0  0.00000000000E+00  0.00000000000E+00  0.13020106412E+04  0.13020106412E+04  0.50400001928E-02 0. -1.
       -1   -1    0    0    0  501  0.00000000000E+00  0.00000000000E+00 -0.68984040459E+03  0.68984040461E+03  0.50400001928E-02 0.  1.
    10030    2    1    2    0    0  0.00000000000E+00  0.00000000000E+00  0.61217023657E+03  0.19918510458E+04  0.18954466993E+04 0.  0.
        1    1    3    3  502    0  0.54287135152E+03 -0.75439513270E+03  0.50087242532E+03  0.10557909391E+04  0.50400001928E-02 0.  1.
       -1    1    3    3    0  502 -0.54287135152E+03  0.75439513270E+03  0.11129781125E+03  0.93606010670E+03  0.50400001928E-02 0. -1.
</event>
<event>
 5   0  0.3460648E-04  0.1876908E+04  0.7818609E-02  0.8666437E-01
        2   -1    0    0  501    0  0.00000000000E+00  0.00000000000E+00  0.16663263014E+04  0.16663263014E+04  0.25500000920E-02 0. -1.
       -2   -1    0    0    0  501  0.00000000000E+00  0.00000000000E+00 -0.52852520032E+03  0.52852520033E+03  0.25500000920E-02 0.  1.
    10030    2    1    2    0    0  0.00000000000E+00  0.00000000000E+00  0.11378011011E+04  0.21948515017E+04  0.18769075015E+04 0.  0.
        5    1    3    3  502    0  0.71288021011E+03 -0.46533268856E+03  0.10711329988E+03  0.85803732670E+03  0.46999998093E+01 0. -1.
       -5    1    3    3    0  502 -0.71288021011E+03  0.46533268856E+03  0.10306878012E+04  0.13368141750E+04  0.46999998093E+01 0.  1.
</event>
<event>
 5   0  0.3387881E-04  0.1966861E+04  0.7818609E-02  0.8622273E-01
       -2   -1    0    0    0  501  0.00000000000E+00  0.00000000000E+00  0.93568677492E+03  0.93568677492E+03  0.25500000920E-02 0.  1.
        2   -1    0    0  501    0  0.00000000000E+00  0.00000000000E+00 -0.10336102833E+04  0.10336102833E+04  0.25500000920E-02 0. -1.
    10030    2    1    2    0    0  0.00000000000E+00  0.00000000000E+00 -0.97923508349E+02  0.19692970582E+04  0.19668609229E+04 0.  0.
        1    1    3    3  502    0  0.85925329154E+02 -0.74068609040E+03 -0.69095514655E+03  0.10165717197E+04  0.50400001928E-02 0.  1.
       -1    1    3    3    0  502 -0.85925329154E+02  0.74068609040E+03  0.59303163820E+03  0.95272533850E+03  0.50400001928E-02 0. -1.
</event>
<event>
 5   0  0.1664168E-04  0.2241821E+04  0.7818609E-02  0.8501220E-01
        1   -1    0    0  501    0  0.00000000000E+00  0.00000000000E+00  0.12639674745E+04  0.12639674745E+04  0.50400001928E-02 0.  1.
       -1   -1    0    0    0  501  0.00000000000E+00  0.00000000000E+00 -0.99404498353E+03  0.99404498355E+03  0.50400001928E-02 0. -1.
    10030    2    1    2    0    0  0.00000000000E+00  0.00000000000E+00  0.26992249099E+03  0.22580124581E+04  0.22418211592E+04 0.  0.
        5    1    3    3  502    0 -0.34250026196E+03  0.69534278419E+03  0.95050692951E+03  0.12264964452E+04  0.46999998093E+01 0.  1.
       -5    1    3    3    0  502  0.34250026196E+03 -0.69534278419E+03 -0.68058443851E+03  0.10315160129E+04  0.46999998093E+01 0. -1.
</event>
<event>
 5   0  0.1708578E-04  0.2029075E+04  0.7818609E-02  0.8593147E-01
       -1   -1    0    0    0  501  0.00000000000E+00  0.00000000000E+00  0.10250581534E+04  0.10250581534E+04  0.50400001928E-02 0. -1.
        1   -1    0    0  501    0  0.00000000000E+00  0.00000000000E+00 -0.10041248662E+04  0.10041248662E+04  0.50400001928E-02 0.  1.
    10030    2    1    2    0    0  0.00000000000E+00  0.00000000000E+00  0.20933287202E+02  0.20291830197E+04  0.20290750417E+04 0.  0.
        3    1    3    3  502    0  0.86466968273E+03  0.16158633599E+03 -0.49505265671E+03  0.10093765142E+04  0.10100000352E+00 0.  1.
       -3    1    3    3    0  502 -0.86466968273E+03 -0.16158633599E+03  0.51598594391E+03  0.10198065055E+04  0.10100000352E+00 0. -1.
</event>
<event>
 5   0  0.3460648E-04  0.1983532E+04  0.7818609E-02  0.8614359E-01
        2   -1    0    0  501    0  0.00000000000E+00  0.00000000000E+00  0.54174789183E+03  0.54174789183E+03  0.25500000920E-02 0.  1.
       -2   -1    0    0    0  501  0.00000000000E+00  0.00000000000E+00 -0.18156042573E+04  0.18156042573E+04  0.25500000920E-02 0. -1.
    10030    2    1    2    0    0  0.00000000000E+00  0.00000000000E+00 -0.12738563654E+04  0.23573521491E+04  0.19835319798E+04 0.  0.
        5    1    3    3  502    0  0.31917715234E+03 -0.36548787710E+03  0.39102075327E+03  0.62319720986E+03  0.46999998093E+01 0.  1.
       -5    1    3    3    0  502 -0.31917715234E+03  0.36548787710E+03 -0.16648771187E+04  0.17341549392E+04  0.46999998093E+01 0. -1.
</event>
<event>
 5   0  0.1708578E-04  0.2404563E+04  0.7818609E-02  0.8437797E-01
        1   -1    0    0  501    0  0.00000000000E+00  0.00000000000E+00  0.11592197011E+04  0.11592197011E+04  0.50400001928E-02 0. -1.
       -1   -1    0    0    0  501  0.00000000000E+00  0.00000000000E+00 -0.12469432962E+04  0.12469432962E+04  0.50400001928E-02 0.  1.
    10030    2    1    2    0    0  0.00000000000E+00  0.00000000000E+00 -0.87723595139E+02  0.24061629973E+04  0.24045633575E+04 0.  0.
        3    1    3    3  502    0  0.92343098461E+03  0.68536417160E+03  0.30713128401E+03  0.11902850360E+04  0.10100000352E+00 0. -1.
       -3    1    3    3    0  502 -0.92343098461E+03 -0.68536417160E+03 -0.39485487915E+03  0.12158779613E+04  0.10100000352E+00 0.  1.
</event>
<event>
 5   0  0.3460648E-04  0.1963786E+04  0.7818609E-02  0.8623741E-01
       -2   -1    0    0    0  501  0.00000000000E+00  0.00000000000E+00  0.59873199129E+03  0.59873199129E+03  0.25500000920E-02 0. -1.
        2   -1    0    0  501    0  0.00000000000E+00  0.00000000000E+00 -0.16102602584E+04  0.16102602584E+04  0.25500000920E-02 0.  1.
    10030    2    1    2    0    0  0.00000000000E+00  0.00000000000E+00 -0.10115282671E+04  0.22089922497E+04  0.19637864762E+04 0.  0.
        5    1    3    3  502    0  0.75460848357E+02  0.20327898770E+02 -0.16067435732E+04  0.16086499193E+04  0.46999998093E+01 0.  1.
       -5    1    3    3    0  502 -0.75460848357E+02 -0.20327898770E+02  0.59521530603E+03  0.60034233037E+03  0.46999998093E+01 0. -1.
</event>
<event>
 5   0  0.1643565E-04  0.2027693E+04  0.7818609E-02  0.8593782E-01
        1   -1    0    0  501    0  0.00000000000E+00  0.00000000000E+00  0.13045494542E+04  0.13045494542E+04  0.50400001928E-02 0. -1.
       -1   -1    0    0    0  501  0.00000000000E+00  0.00000000000E+00 -0.78792339976E+03  0.78792339977E+03  0.50400001928E-02 0.  1.
    10030    2    1    2    0    0  0.00000000000E+00  0.00000000000E+00  0.51662605446E+03  0.20924728540E+04  0.20276933113E+04 0.  0.
        2    1    3    3  502    0 -0.54408142245E+03 -0.89753848059E+02 -0.61963389661E+03  0.82947363631E+03  0.25500000920E-02 0.  1.
       -2    1    3    3    0  502  0.54408142245E+03  0.89753848059E+02  0.11362599511E+04  0.12629992177E+04  0.25500000920E-02 0. -1.
</event>
<event>
 5   0  0.3387881E-04  0.1894178E+04  0.7818609E-02  0.8657760E-01
       -2   -1    0    0    0  501  0.00000000000E+00  0.00000000000E+00  0.52387645606E+03  0.52387645607E+03  0.25500000920E-02 0. -1.
        2   -1    0    0  501    0  0.00000000000E+00  0.00000000000E+00 -0.17121921872E+04  0.17121921872E+04  0.25500000920E-02 0.  1.
    10030    2    1    2    0    0  0.00000000000E+00  0.00000000000E+00 -0.11883157312E+04  0.22360686433E+04  0.18941775789E+04 0.  0.
        1    1    3    3  502    0  0.81846075442E+03  0.40361609400E+03 -0.29506296333E+03  0.95908608071E+03  0.50400001928E-02 0. -1.
       -1    1    3    3    0  502 -0.81846075442E+03 -0.40361609400E+03 -0.89325276783E+03  0.12769825626E+04  0.50400001928E-02 0.  1.
</event>
<event>
 5   0  0.1643565E-04  0.1921049E+04  0.7818609E-02  0.8644449E-01
       -1   -1    0    0    0  501  0.00000000000E+00  0.00000000000E+00  0.85715715268E+03  0.85715715270E+03  0.50400001928E-02 0. -1.
        1   -1    0    0  501    0  0.00000000000E+00  0.00000000000E+00 -0.10763576745E+04  0.10763576745E+04  0.50400001928E-02 0.  1.
    10030    2    1    2    0    0  0.00000000000E+00  0.00000000000E+00 -0.21920052183E+03  0.19335148272E+04  0.19210493795E+04 0.  0.
        2    1    3    3  502    0  0.60079951478E+03 -0.10184660091E+02  0.64462458274E+03  0.88125174436E+03  0.25500000920E-02 0. -1.
       -2    1    3    3    0  502 -0.60079951478E+03  0.10184660091E+02 -0.86382510458E+03  0.10522630829E+04  0.25500000920E-02 0.  1.
</event>
<event>
 5   0  0.3395569E-04  0.1997276E+04  0.7818609E-02  0.8607895E-01
        2   -1    0    0  501    0  0.00000000000E+00  0.00000000000E+00  0.13415853547E+04  0.13415853547E+04  0.25500000920E-02 0. -1.
       -2   -1    0    0    0  501  0.00000000000E+00  0.00000000000E+00 -0.74335743253E+03  0.74335743254E+03  0.25500000920E-02 0.  1.
    10030    2    1    2    0    0  0.00000000000E+00  0.00000000000E+00  0.59822792217E+03  0.20849427872E+04  0.19972755892E+04 0.  0.
        4    1    3    3  502    0  0.67436794111E+03  0.70953852799E+03  0.50542170796E+03  0.11016668092E+04  0.12699999809E+01 0. -1.
       -4    1    3    3    0  502 -0.67436794111E+03 -0.70953852799E+03  0.92806214203E+02  0.98327597804E+03  0.12699999809E+01 0.  1.
</event>
<event>
 5   0  0.1696052E-04  0.1984004E+04  0.7818609E-02  0.8614136E-01
       -1   -1    0    0    0  501  0.00000000000E+00  0.00000000000E+00  0.65601579889E+03  0.65601579891E+03  0.50400001928E-02 0.  1.
        1   -1    0    0  501    0  0.00000000000E+00  0.00000000000E+00 -0.15000679737E+04  0.15000679737E+04  0.50400001928E-02 0. -1.
    10030    2    1    2    0    0  0.00000000000E+00  0.00000000000E+00 -0.84405217485E+03  0.21560837727E+04  0.19840043248E+04 0.  0.
        4    1    3    3  502    0 -0.68754095983E+03  0.62960369631E+03 -0.53571708797E+02  0.93380133151E+03  0.12699999809E+01 0. -1.
       -4    1    3    3    0  502  0.68754095983E+03 -0.62960369631E+03 -0.79048046605E+03  0.12222824412E+04  0.12699999809E+01 0.  1.
</event>
<event>
 5   0  0.1643565E-04  0.1312684E+04  0.7818609E-02  0.9019567E-01
       -1   -1    0    0    0  501  0.00000000000E+00  0.00000000000E+00  0.77377206572E+03  0.77377206574E+03  0.50400001928E-02 0.  1.
        1   -1    0    0  501    0  0.00000000000E+00  0.00000000000E+00 -0.55673357116E+03  0.55673357118E+03  0.50400001928E-02 0. -1.
    10030    2    1    2    0    0  0.00000000000E+00  0.00000000000E+00  0.21703849457E+03  0.13305056369E+04  0.13126840982E+04 0.  0.
        2    1    3    3  502    0 -0.25507436294E+03 -0.41715391717E+03  0.55230435163E+03  0.73764518440E+03  0.25500000920E-02 0.  1.
       -2    1    3    3    0  502  0.25507436294E+03  0.41715391717E+03 -0.33526585707E+03  0.59286045252E+03  0.25500000920E-02 0. -1.
</event>
<event>
 5   0  0.1664168E-04  0.2025688E+04  0.7818609E-02  0.8594704E-01
        1   -1    0    0  501    0  0.00000000000E+00  0.00000000000E+00  0.15949394679E+04  0.15949394679E+04  0.50400001928E-02 0. -1.
       -1   -1    0    0    0  501  0.00000000000E+00  0.00000000000E+00 -0.64319235282E+03  0.64319235284E+03  0.50400001928E-02 0.  1.
    10030    2    1    2    0    0  0.00000000000E+00  0.00000000000E+00  0.95174711512E+03  0.22381318208E+04  0.20256879019E+04 0.  0.
        5    1    3    3  502    0 -0.82627223932E+03  0.27937057750E+03  0.10447039653E+04  0.13609563543E+04  0.46999998093E+01 0. -1.
       -5    1    3    3    0  502  0.82627223932E+03 -0.27937057750E+03 -0.92956850225E+02  0.87717546651E+03  0.46999998093E+01 0.  1.
</event>
<event>
 5   0  0.1643565E-04  0.1885453E+04  0.7818609E-02  0.8662131E-01
        1   -1    0    0  501    0  0.00000000000E+00  0.00000000000E+00  0.17797399744E+04  0.17797399744E+04  0.50400001928E-02 0. -1.
       -1   -1    0    0    0  501  0.00000000000E+00  0.00000000000E+00 -0.49936142332E+03  0.49936142334E+03  0.50400001928E-02 0.  1.
    10030    2    1    2    0    0  0.00000000000E+00  0.00000000000E+00  0.12803785511E+04  0.22791013977E+04  0.18854532471E+04 0.  0.
        2    1    3    3  502    0  0.23739789120E+03 -0.49756584819E+03 -0.28419602353E+03  0.62023939880E+03  0.25500000920E-02 0.  1.
       -2    1    3    3    0  502 -0.23739789120E+03  0.49756584819E+03  0.15645745746E+04  0.16588619989E+04  0.25500000920E-02 0. -1.
</event>
<event>
 5   0  0.1708578E-04  0.2017542E+04  0.7818609E-02  0.8598463E-01
       -1   -1    0    0    0  501  0.00000000000E+00  0.00000000000E+00  0.72549371360E+03  0.72549371362E+03  0.50400001928E-02 0.  1.
        1   -1    0    0  501    0  0.00000000000E+00  0.00000000000E+00 -0.14026577565E+04  0.14026577565E+04  0.50400001928E-02 0. -1.
    10030    2    1    2    0    0  0.00000000000E+00  0.00000000000E+00 -0.67716404286E+03  0.21281514701E+04  0.20175424503E+04 0.  0.
        3    1    3    3  502    0  0.50063619585E+03 -0.31311521861E+03 -0.12013101684E+04  0.13385902553E+04  0.10100000352E+00 0. -1.
       -3    1    3    3    0  502 -0.50063619585E+03  0.31311521861E+03  0.52414612555E+03  0.78956121476E+03  0.10100000352E+00 0.  1.
</event>
<event>
 5   0  0.1664168E-04  0.1995140E+04  0.7818609E-02  0.8608896E-01
        1   -1    0    0  501    0  0.00000000000E+00  0.00000000000E+00  0.22450842507E+04  0.22450842507E+04  0.50400001928E-02 0.  1.
       -1   -1    0    0    0  501  0.00000000000E+00  0.00000000000E+00 -0.44325527294E+03  0.44325527297E+03  0.50400001928E-02 0. -1.
    10030    2    1    2    0    0  0.00000000000E+00  0.00000000000E+00  0.18018289778E+04  0.26883395237E+04  0.19951395263E+04 0.  0.
        5    1    3    3  502    0 -0.16997921363E+03  0.60839561819E+03 -0.13940086206E+03  0.64691023461E+03  0.46999998093E+01 0. -1.
       -5    1    3    3    0  502  0.16997921363E+03 -0.60839561819E+03  0.19412298398E+04  0.20414292891E+04  0.46999998093E+01 0.  1.
</event>
<event>
 5   0  0.1664168E-04  0.1315870E+04  0.7818609E-02  0.9017074E-01
        1   -1    0    0  501    0  0.00000000000E+00  0.00000000000E+00  0.13505896708E+04  0.13505896708E+04  0.50400001928E-02 0.  1.
       -1   -1    0    0    0  501  0.00000000000E+00  0.00000000000E+00 -0.32051067491E+03  0.32051067495E+03  0.50400001928E-02 0. -1.
    10030    2    1    2    0    0  0.00000000000E+00  0.00000000000E+00  0.10300789959E+04  0.16711003458E+04  0.13158699130E+04 0.  0.
        5    1    3    3  502    0  0.57697790185E+03  0.56284672713E+02  0.11995201541E+03  0.59201523596E+03  0.46999998093E+01 0. -1.
       -5    1    3    3    0  502 -0.57697790185E+03 -0.56284672713E+02  0.91012698048E+03  0.10790851098E+04  0.46999998093E+01 0.  1.
</event>
<event>
 5   0  0.1664168E-04  0.2021326E+04  0.7818609E-02  0.8596715E-01
        1   -1    0    0  501    0  0.00000000000E+00  0.00000000000E+00  0.10881654431E+04  0.10881654432E+04  0.50400001928E-02 0. -1.
       -1   -1    0    0    0  501  0.00000000000E+00  0.00000000000E+00 -0.93868043984E+03  0.93868043985E+03  0.50400001928E-02 0.  1.
    10030    2    1    2    0    0  0.00000000000E+00  0.00000000000E+00  0.14948500331E+03  0.20268458830E+04  0.20213259181E+04 0.  0.
        5    1    3    3  502    0  0.36298669770E+03  0.89737668733E+03  0.36600650232E+03  0.10349043972E+04  0.46999998093E+01 0. -1.
       -5    1    3    3    0  502 -0.36298669770E+03 -0.89737668733E+03 -0.21652149901E+03  0.99194148578E+03  0.46999998093E+01 0.  1.
</event>
<event>
 5   0  0.3395569E-04  0.2014689E+04  0.7818609E-02  0.8599784E-01
        2   -1    0    0  501    0  0.00000000000E+00  0.00000000000E+00  0.17283082065E+04  0.17283082065E+04  0.25500000920E-02 0.  1.
       -2   -1    0    0    0  501  0.00000000000E+00  0.00000000000E+00 -0.58713080416E+03  0.58713080416E+03  0.25500000920E-02 0. -1.
    10030    2    1    2    0    0  0.00000000000E+00  0.00000000000E+00  0.11411774023E+04  0.23154390106E+04  0.20146890451E+04 0.  0.
        4    1    3    3  502    0 -0.87605242812E+03 -0.43722791624E+03  0.84281315580E+03  0.12918868898E+04  0.12699999809E+01 0.  1.
       -4    1    3    3    0  502  0.87605242812E+03  0.43722791624E+03  0.29836424650E+03  0.10235521208E+04  0.12699999809E+01 0. -1.
</event>
<event>
 5   0  0.1696052E-04  0.1998589E+04  0.7818609E-02  0.8607281E-01
       -1   -1    0    0    0  501  0.00000000000E+00  0.00000000000E+00  0.14364294354E+04  0.14364294354E+04  0.50400001928E-02 0. -1.
        1   -1    0    0  501    0  0.00000000000E+00  0.00000000000E+00 -0.69518855352E+03  0.69518855354E+03  0.50400001928E-02 0.  1.
    10030    2    1    2    0    0  0.00000000000E+00  0.00000000000E+00  0.74124088187E+03  0.21316179889E+04  0.19985888036E+04 0.  0.
        4    1    3    3  502    0  0.46882394035E+03  0.24497775487E+03 -0.53361853810E+03  0.75137230754E+03  0.12699999809E+01 0.  1.
       -4    1    3    3    0  502 -0.46882394035E+03 -0.24497775487E+03  0.12748594200E+04  0.13802456814E+04  0.12699999809E+01 0. -1.
</event>
<event>
 5   0  0.3431030E-04  0.1996397E+04  0.7818609E-02  0.8608307E-01
        2   -1    0    0  501    0  0.00000000000E+00  0.00000000000E+00  0.51501591467E+03  0.51501591467E+03  0.25500000920E-02 0.  1.
       -2   -1    0    0    0  501  0.00000000000E+00  0.00000000000E+00 -0.19346981481E+04  0.19346981481E+04  0.25500000920E-02 0. -1.
    10030    2    1    2    0    0  0.00000000000E+00  0.00000000000E+00 -0.14196822334E+04  0.24497140628E+04  0.19963970911E+04 0.  0.
        3    1    3    3  502    0  0.28086935725E+03 -0.65985153320E+03  0.14216153071E+03  0.73109613098E+03  0.10100000352E+00 0.  1.
       -3    1    3    3    0  502 -0.28086935725E+03  0.65985153320E+03 -0.15618437641E+04  0.17186179318E+04  0.10100000352E+00 0. -1.
</event>
<event>
 5   0  0.3387881E-04  0.2021240E+04  0.7818609E-02  0.8596754E-01
        2   -1    0    0  501    0  0.00000000000E+00  0.00000000000E+00  0.88406152741E+03  0.88406152742E+03  0.25500000920E-02 0. -1.
       -2   -1    0    0    0  501  0.00000000000E+00  0.00000000000E+00 -0.11552962607E+04  0.11552962607E+04  0.25500000920E-02 0.  1.
    10030    2    1    2    0    0  0.00000000000E+00  0.00000000000E+00 -0.27123473327E+03  0.20393577881E+04  0.20212401904E+04 0.  0.
        1    1    3    3  502    0 -0.68909161822E+03 -0.60523837892E+03 -0.56391287748E+03  0.10766422280E+04  0.50400001928E-02 0.  1.
       -1    1    3    3    0  502  0.68909161822E+03  0.60523837892E+03  0.29267814422E+03  0.96271556014E+03  0.50400001928E-02 0. -1.
</event>
<event>
 5   0  0.1696052E-04  0.1971525E+04  0.7818609E-02  0.8620051E-01
       -1   -1    0    0    0  501  0.00000000000E+00  0.00000000000E+00  0.73050573473E+03  0.73050573475E+03  0.50400001928E-02 0.  1.
        1   -1    0    0  501    0  0.00000000000E+00  0.00000000000E+00 -0.13302120567E+04  0.13302120567E+04  0.50400001928E-02 0. -1.
    10030    2    1    2    0    0  0.00000000000E+00  0.00000000000E+00 -0.59970632200E+03  0.20607177915E+04  0.19715248270E+04 0.  0.
        4    1    3    3  502    0  0.95103799798E+03 -0.11141820458E+03 -0.54462394600E+03  0.11015916418E+04  0.12699999809E+01 0. -1.
       -4    1    3    3    0  502 -0.95103799798E+03  0.11141820458E+03 -0.55082376006E+02  0.95912614966E+03  0.12699999809E+01 0.  1.
</event>
<event>
 5   0  0.3387881E-04  0.2030832E+04  0.7818609E-02  0.8592340E-01
       -2   -1    0    0    0  501  0.00000000000E+00  0.00000000000E+00  0.10249027433E+04  0.10249027433E+04  0.25500000920E-02 0. -1.
        2   -1    0    0  501    0  0.00000000000E+00  0.00000000000E+00 -0.10060169373E+04  0.10060169373E+04  0.25500000920E-02 0.  1.
    10030    2    1    2    0    0  0.00000000000E+00  0.00000000000E+00  0.18885805996E+02  0.20309196806E+04  0.20308318679E+04 0.  0.
        1    1    3    3  502    0 -0.42781079703E+03 -0.17958910244E+03  0.91269577249E+03  0.10238593150E+04  0.50400001928E-02 0. -1.
       -1    1    3    3    0  502  0.42781079703E+03  0.17958910244E+03 -0.89380996650E+03  0.10070603656E+04  0.50400001928E-02 0.  1.
</event>
<event>
 5   0  0.3431030E-04  0.2007745E+04  0.7818609E-02  0.8603008E-01
       -2   -1    0    0    0  501  0.00000000000E+00  0.00000000000E+00  0.10306471709E+04  0.10306471709E+04  0.25500000920E-02 0. -1.
        2   -1    0    0  501    0  0.00000000000E+00  0.00000000000E+00 -0.97779340281E+03  0.97779340282E+03  0.25500000920E-02 0.  1.
    10030    2    1    2    0    0  0.00000000000E+00  0.00000000000E+00  0.52853768119E+02  0.20084405738E+04  0.20077450081E+04 0.  0.
        3    1    3    3  502    0 -0.14116305396E+03 -0.73023489373E+03 -0.64803958534E+03  0.98647114615E+03  0.10100000352E+00 0.  1.
       -3    1    3    3    0  502  0.14116305396E+03  0.73023489373E+03  0.70089335346E+03  0.10219694276E+04  0.10100000352E+00 0. -1.
</event>
<event>
 5   0  0.1643565E-04  0.2018718E+04  0.7818609E-02  0.8597919E-01
        1   -1    0    0  501    0  0.00000000000E+00  0.00000000000E+00  0.27113097167E+04  0.27113097167E+04  0.50400001928E-02 0. -1.
       -1   -1    0    0    0  501  0.00000000000E+00  0.00000000000E+00 -0.37576134168E+03  0.37576134171E+03  0.50400001928E-02 0.  1.
    10030    2    1    2    0    0  0.00000000000E+00  0.00000000000E+00  0.23355483751E+04  0.30870710585E+04  0.20187177880E+04 0.  0.
        2    1    3    3  502    0 -0.33124999976E+03  0.46650490179E+03  0.24393786174E+04  0.25055780620E+04  0.25500000920E-02 0. -1.
       -2    1    3    3    0  502  0.33124999976E+03 -0.46650490179E+03 -0.10383024230E+03  0.58149299648E+03  0.25500000920E-02 0.  1.
</event>
<event>
 5   0  0.3431030E-04  0.1974027E+04  0.7818609E-02  0.8618861E-01
       -2   -1    0    0    0  501  0.00000000000E+00  0.00000000000E+00  0.89986808232E+03  0.89986808232E+03  0.25500000920E-02 0.  1.
        2   -1    0    0  501    0  0.00000000000E+00  0.00000000000E+00 -0.10825982667E+04  0.10825982667E+04  0.25500000920E-02 0. -1.
    10030    2    1    2    0    0  0.00000000000E+00  0.00000000000E+00 -0.18273018434E+03  0.19824663490E+04  0.19740269767E+04 0.  0.
        3    1    3    3  502    0 -0.90465965490E+03 -0.37050757996E+03  0.45270444966E+02  0.97863904551E+03  0.10100000352E+00 0. -1.
       -3    1    3    3    0  502  0.90465965490E+03  0.37050757996E+03 -0.22800062930E+03  0.10038273035E+04  0.10100000352E+00 0.  1.
</event>
<event>
 5   0  0.1696052E-04  0.1126246E+04  0.7818609E-02  0.9179981E-01
       -1   -1    0    0    0  501  0.00000000000E+00  0.00000000000E+00  0.37119945382E+03  0.37119945386E+03  0.50400001928E-02 0. -1.
        1   -1    0    0  501    0  0.00000000000E+00  0.00000000000E+00 -0.85427859754E+03  0.85427859755E+03  0.50400001928E-02 0.  1.
    10030    2    1    2    0    0  0.00000000000E+00  0.00000000000E+00 -0.48307914371E+03  0.12254780514E+04  0.11262464186E+04 0.  0.
        4    1    3    3  502    0 -0.51356072825E+03 -0.10158645419E+03 -0.15795239186E+02  0.52375140263E+03  0.12699999809E+01 0. -1.
       -4    1    3    3    0  502  0.51356072825E+03  0.10158645419E+03 -0.46728390453E+03  0.70172664878E+03  0.12699999809E+01 0.  1.
</event>
<event>
 5   0  0.1643565E-04  0.1865736E+04  0.7818609E-02  0.8672102E-01
        1   -1    0    0  501    0  0.00000000000E+00  0.00000000000E+00  0.29050040572E+04  0.29050040572E+04  0.50400001928E-02 0.  1.
       -1   -1    0    0    0  501  0.00000000000E+00  0.00000000000E+00 -0.29956669615E+03  0.29956669619E+03  0.50400001928E-02 0. -1.
    10030    2    1    2    0    0  0.00000000000E+00  0.00000000000E+00  0.26054373610E+04  0.32045707533E+04  0.18657357452E+04 0.  0.
        2    1    3    3  502    0  0.33804547797E+03 -0.67840838847E+03  0.22367625266E+04  0.23616983904E+04  0.25500000920E-02 0.  1.
       -2    1    3    3    0  502 -0.33804547797E+03  0.67840838847E+03  0.36867483440E+03  0.84287236296E+03  0.25500000920E-02 0. -1.
</event>
<event>
 5   0  0.1650221E-04  0.2008768E+04  0.7818609E-02  0.8602532E-01
        1   -1    0    0  501    0  0.00000000000E+00  0.00000000000E+00  0.15214555177E+04  0.15214555177E+04  0.50400001928E-02 0.  1.
       -1   -1    0    0    0  501  0.00000000000E+00  0.00000000000E+00 -0.66304060733E+03  0.66304060735E+03  0.50400001928E-02 0. -1.
    10030    2    1    2    0    0  0.00000000000E+00  0.00000000000E+00  0.85841491040E+03  0.21844961251E+04  0.20087675729E+04 0.  0.
        1    1    3    3  502    0  0.15679701302E+03  0.98950297252E+03  0.35165738247E+03  0.10617741523E+04  0.50400001928E-02 0.  1.
       -1    1    3    3    0  502 -0.15679701302E+03 -0.98950297252E+03  0.50675752793E+03  0.11227219727E+04  0.50400001928E-02 0. -1.
</event>
<event>
 5   0  0.3387881E-04  0.1961558E+04  0.7818609E-02  0.8624808E-01
       -2   -1    0    0    0  501  0.00000000000E+00  0.00000000000E+00  0.17123425593E+04  0.17123425593E+04  0.25500000920E-02 0. -1.
        2   -1    0    0  501    0  0.00000000000E+00  0.00000000000E+00 -0.56176095406E+03  0.56176095406E+03  0.25500000920E-02 0.  1.
    10030    2    1    2    0    0  0.00000000000E+00  0.00000000000E+00  0.11505816052E+04  0.22741035133E+04  0.19615577379E+04 0.  0.
        1    1    3    3  502    0 -0.48285446279E+02  0.46441600330E+03 -0.42464092284E+03  0.63113676950E+03  0.50400001928E-02 0.  1.
       -1    1    3    3    0  502  0.48285446279E+02 -0.46441600330E+03  0.15752225281E+04  0.16429667438E+04  0.50400001928E-02 0. -1.
</event>
<event>
 5   0  0.1650221E-04  0.1651868E+04  0.7818609E-02  0.8789302E-01
       -1   -1    0    0    0  501  0.00000000000E+00  0.00000000000E+00  0.40162720904E+03  0.40162720907E+03  0.50400001928E-02 0.  1.
        1   -1    0    0  501    0  0.00000000000E+00  0.00000000000E+00 -0.16985083961E+04  0.16985083961E+04  0.50400001928E-02 0. -1.
    10030    2    1    2    0    0  0.00000000000E+00  0.00000000000E+00 -0.12968811870E+04  0.21001356052E+04  0.16518682595E+04 0.  0.
        1    1    3    3  502    0  0.21367298895E+02 -0.19473151551E+03 -0.16685438436E+04  0.16800046079E+04  0.50400001928E-02 0. -1.
       -1    1    3    3    0  502 -0.21367298895E+02  0.19473151551E+03  0.37166265652E+03  0.42013099727E+03  0.50400001928E-02 0.  1.
</event>
<event>
 5   0  0.1696052E-04  0.2017189E+04  0.7818609E-02  0.8598626E-01
       -1   -1    0    0    0  501  0.00000000000E+00  0.00000000000E+00  0.12252342984E+04  0.12252342984E+04  0.50400001928E-02 0.  1.
        1   -1    0    0  501    0  0.00000000000E+00  0.00000000000E+00 -0.83026004264E+03  0.83026004265E+03  0.50400001928E-02 0. -1.
    10030    2    1    2    0    0  0.00000000000E+00  0.00000000000E+00  0.39497425579E+03  0.20554943411E+04  0.20171892136E+04 0.  0.
        4    1    3    3  502    0 -0.95431145740E+02 -0.38763131226E+03  0.11413025147E+04  0.12091063563E+04  0.12699999809E+01 0.  1.
       -4    1    3    3    0  502  0.95431145740E+02  0.38763131226E+03 -0.74632825893E+03  0.84638798479E+03  0.12699999809E+01 0. -1.
</event>
<event>
 5   0  0.3371947E-04  0.1992781E+04  0.7818609E-02  0.8610003E-01
        2   -1    0    0  501    0  0.00000000000E+00  0.00000000000E+00  0.12860156626E+04  0.12860156626E+04  0.25500000920E-02 0. -1.
       -2   -1    0    0    0  501  0.00000000000E+00  0.00000000000E+00 -0.77199200812E+03  0.77199200813E+03  0.25500000920E-02 0.  1.
    10030    2    1    2    0    0  0.00000000000E+00  0.00000000000E+00  0.51402365444E+03  0.20580076707E+04  0.19927807846E+04 0.  0.
        2    1    3    3  502    0  0.64972673114E+03 -0.75036615421E+03  0.16698260580E+03  0.10065174520E+04  0.25500000920E-02 0.  1.
       -2    1    3    3    0  502 -0.64972673114E+03  0.75036615421E+03  0.34704104863E+03  0.10514902187E+04  0.25500000920E-02 0. -1.
</event>
<event>
 5   0  0.3371947E-04  0.2018927E+04  0.7818609E-02  0.8597822E-01
       -2   -1    0    0    0  501  0.00000000000E+00  0.00000000000E+00  0.46763239429E+03  0.46763239430E+03  0.25500000920E-02 0.  1.
        2   -1    0    0  501    0  0.00000000000E+00  0.00000000000E+00 -0.21790983857E+04  0.21790983857E+04  0.25500000920E-02 0. -1.
    10030    2    1    2    0    0  0.00000000000E+00  0.00000000000E+00 -0.17114659914E+04  0.26467307800E+04  0.20189274336E+04 0.  0.
        2    1    3    3  502    0 -0.13795422572E+03  0.98626009389E+03 -0.63921968116E+03  0.11833605292E+04  0.25500000920E-02 0.  1.
       -2    1    3    3    0  502  0.13795422572E+03 -0.98626009389E+03 -0.10722463103E+04  0.14633702509E+04  0.25500000920E-02 0. -1.
</event>
<event>
 5   0  0.1222488E-04  0.1003020E+04  0.7818609E-02  0.9305239E-01
        4   -1    0    0  501    0  0.00000000000E+00  0.00000000000E+00  0.22779507704E+03  0.22779861725E+03  0.12699999809E+01 0.  1.
       -4   -1    0    0    0  501  0.00000000000E+00  0.00000000000E+00 -0.11041036632E+04  0.11041043936E+04  0.12699999809E+01 0. -1.
    10030    2    1    2    0    0  0.00000000000E+00  0.00000000000E+00 -0.87630858613E+03  0.13319030108E+04  0.10030198862E+04 0.  0.
        2    1    3    3  502    0 -0.21323483068E+03 -0.19988507442E+03 -0.97932415941E+03  0.10220073117E+04  0.25500000920E-02 0. -1.
       -2    1    3    3    0  502  0.21323483068E+03  0.19988507442E+03  0.10301557327E+03  0.30989569912E+03  0.25500000920E-02 0.  1.
</event>
<event>
 5   0  0.3387881E-04  0.1932205E+04  0.7818609E-02  0.8638990E-01
        2   -1    0    0  501    0  0.00000000000E+00  0.00000000000E+00  0.13550438973E+04  0.13550438973E+04  0.25500000920E-02 0.  1.
       -2   -1    0    0    0  501  0.00000000000E+00  0.00000000000E+00 -0.68879982972E+03  0.68879982972E+03  0.25500000920E-02 0. -1.
    10030    2    1    2    0    0  0.00000000000E+00  0.00000000000E+00  0.66624406761E+03  0.20438437271E+04  0.19322049640E+04 0.  0.
        1    1    3    3  502    0  0.13743826953E+03  0.47175263530E+03  0.12129962840E+04  0.13087397800E+04  0.50400001928E-02 0.  1.
       -1    1    3    3    0  502 -0.13743826953E+03 -0.47175263530E+03 -0.54675221636E+03  0.73510394704E+03  0.50400001928E-02 0. -1.
</event>
<event>
 5   0  0.1708578E-04  0.1942456E+04  0.7818609E-02  0.8634007E-01
        1   -1    0    0  501    0  0.00000000000E+00  0.00000000000E+00  0.21278344086E+04  0.21278344086E+04  0.50400001928E-02 0.  1.
       -1   -1    0    0    0  501  0.00000000000E+00  0.00000000000E+00 -0.44330689988E+03  0.44330689991E+03  0.50400001928E-02 0. -1.
    10030    2    1    2    0    0  0.00000000000E+00  0.00000000000E+00  0.16845275087E+04  0.25711413085E+04  0.19424558427E+04 0.  0.
        3    1    3    3  502    0 -0.78365707052E+03 -0.52846441457E+03  0.54660941603E+03  0.10918676227E+04  0.10100000352E+00 0.  1.
       -3    1    3    3    0  502  0.78365707052E+03  0.52846441457E+03  0.11379180927E+04  0.14792736858E+04  0.10100000352E+00 0. -1.
</event>
<event>
 5   0  0.3395569E-04  0.1893034E+04  0.7818609E-02  0.8658332E-01
       -2   -1    0    0    0  501  0.00000000000E+00  0.00000000000E+00  0.77443532489E+03  0.77443532489E+03  0.25500000920E-02 0.  1.
        2   -1    0    0  501    0  0.00000000000E+00  0.00000000000E+00 -0.11568354464E+04  0.11568354464E+04  0.25500000920E-02 0. -1.
    10030    2    1    2    0    0  0.00000000000E+00  0.00000000000E+00 -0.38240012153E+03  0.19312707713E+04  0.18930337924E+04 0.  0.
        4    1    3    3  502    0 -0.38251235640E+03  0.86462087411E+03 -0.23691206101E+03  0.97468656310E+03  0.12699999809E+01 0.  1.
       -4    1    3    3    0  502  0.38251235640E+03 -0.86462087411E+03 -0.14548806051E+03  0.95658420821E+03  0.12699999809E+01 0. -1.
</event>
<event>
 5   0  0.3460648E-04  0.2024503E+04  0.7818609E-02  0.8595250E-01
        2   -1    0    0  501    0  0.00000000000E+00  0.00000000000E+00  0.79255556947E+03  0.79255556947E+03  0.25500000920E-02 0.  1.
       -2   -1    0    0    0  501  0.00000000000E+00  0.00000000000E+00 -0.12928466776E+04  0.12928466776E+04  0.25500000920E-02 0. -1.
    10030    2    1    2    0    0  0.00000000000E+00  0.00000000000E+00 -0.50029110812E+03  0.20854022471E+04  0.20245027387E+04 0.  0.
        5    1    3    3  502    0 -0.97366956507E+03 -0.22615294213E+03 -0.85805886359E+02  0.10032757922E+04  0.46999998093E+01 0. -1.
       -5    1    3    3    0  502  0.97366956507E+03  0.22615294213E+03 -0.41448522176E+03  0.10821264548E+04  0.46999998093E+01 0.  1.
</event>
<event>
 5   0  0.3431030E-04  0.1771440E+04  0.7818609E-02  0.8721636E-01
        2   -1    0    0  501    0  0.00000000000E+00  0.00000000000E+00  0.75629420705E+03  0.75629420705E+03  0.25500000920E-02 0.  1.
       -2   -1    0    0    0  501  0.00000000000E+00  0.00000000000E+00 -0.10372949316E+04  0.10372949316E+04  0.25500000920E-02 0. -1.
    10030    2    1    2    0    0  0.00000000000E+00  0.00000000000E+00 -0.28100072460E+03  0.17935891387E+04  0.17714402590E+04 0.  0.
        3    1    3    3  502    0 -0.70634743236E+03  0.25738071722E+03 -0.61468130612E+03  0.97108426364E+03  0.10100000352E+00 0. -1.
       -3    1    3    3    0  502  0.70634743236E+03 -0.25738071722E+03  0.33368058152E+03  0.82250487506E+03  0.10100000352E+00 0.  1.
</event>
<event>
 5   0  0.1650221E-04  0.1995936E+04  0.7818609E-02  0.8608523E-01
        1   -1    0    0  501    0  0.00000000000E+00  0.00000000000E+00  0.13730526609E+04  0.13730526609E+04  0.50400001928E-02 0. -1.
       -1   -1    0    0    0  501  0.00000000000E+00  0.00000000000E+00 -0.72534739268E+03  0.72534739270E+03  0.50400001928E-02 0.  1.
    10030    2    1    2    0    0  0.00000000000E+00  0.00000000000E+00  0.64770526819E+03  0.20984000536E+04  0.19959360387E+04 0.  0.
        1    1    3    3  502    0 -0.73267149239E+03 -0.48697546760E+03  0.81919556978E+03  0.12020956715E+04  0.50400001928E-02 0. -1.
       -1    1    3    3    0  502  0.73267149239E+03  0.48697546760E+03 -0.17149030160E+03  0.89630438210E+03  0.50400001928E-02 0.  1.
</event>
<event>
 5   0  0.1643565E-04  0.2021464E+04  0.7818609E-02  0.8596651E-01
        1   -1    0    0  501    0  0.00000000000E+00  0.00000000000E+00  0.12024051910E+04  0.12024051910E+04  0.50400001928E-02 0. -1.
       -1   -1    0    0    0  501  0.00000000000E+00  0.00000000000E+00 -0.84961275470E+03  0.84961275471E+03  0.50400001928E-02 0.  1.
    10030    2    1    2    0    0  0.00000000000E+00  0.00000000000E+00  0.35279243632E+03  0.20520179457E+04  0.20214636149E+04 0.  0.
        2    1    3    3  502    0  0.88798408479E+03 -0.29669421709E+03  0.56298791654E+03  0.10924736095E+04  0.25500000920E-02 0. -1.
       -2    1    3    3    0  502 -0.88798408479E+03  0.29669421709E+03 -0.21019548022E+03  0.95954433624E+03  0.25500000920E-02 0.  1.
</event>
<event>
 5   0  0.1643565E-04  0.1832237E+04  0.7818609E-02  0.8689342E-01
        1   -1    0    0  501    0  0.00000000000E+00  0.00000000000E+00  0.16532962044E+04  0.16532962044E+04  0.50400001928E-02 0.  1.
       -1   -1    0    0    0  501  0.00000000000E+00  0.00000000000E+00 -0.50763607519E+03  0.50763607521E+03  0.50400001928E-02 0. -1.
    10030    2    1    2    0    0  0.00000000000E+00  0.00000000000E+00  0.11456601292E+04  0.21609322797E+04  0.18322366620E+04 0.  0.
        2    1    3    3  502    0 -0.21368968882E+02  0.60208892419E+03 -0.24112831736E+03  0.64893032823E+03  0.25500000920E-02 0. -1.
       -2    1    3    3    0  502  0.21368968882E+02 -0.60208892419E+03  0.13867884466E+04  0.15120019514E+04  0.25500000920E-02 0.  1.
</event>
<event>
 5   0  0.3371947E-04  0.1804635E+04  0.7818609E-02  0.8703839E-01
        2   -1    0    0  501    0  0.00000000000E+00  0.00000000000E+00  0.10075517414E+04  0.10075517414E+04  0.25500000920E-02 0.  1.
       -2   -1    0    0    0  501  0.00000000000E+00  0.00000000000E+00 -0.80807427123E+03  0.80807427123E+03  0.25500000920E-02 0. -1.
    10030    2    1    2    0    0  0.00000000000E+00  0.00000000000E+00  0.19947747021E+03  0.18156260127E+04  0.18046347433E+04 0.  0.
        2    1    3    3  502    0 -0.59760894436E+03 -0.54722465420E+03  0.49912674737E+03  0.95169258823E+03  0.25500000920E-02 0.  1.
       -2    1    3    3    0  502  0.59760894436E+03  0.54722465420E+03 -0.29964927716E+03  0.86393342444E+03  0.25500000920E-02 0. -1.
</event>
<event>
 5   0  0.3395569E-04  0.1074565E+04  0.7818609E-02  0.9230343E-01
        2   -1    0    0  501    0  0.00000000000E+00  0.00000000000E+00  0.42122930811E+03  0.42122930812E+03  0.25500000920E-02 0.  1.
       -2   -1    0    0    0  501  0.00000000000E+00  0.00000000000E+00 -0.68530998978E+03  0.68530998979E+03  0.25500000920E-02 0. -1.
    10030    2    1    2    0    0  0.00000000000E+00  0.00000000000E+00 -0.26408068168E+03  0.11065392979E+04  0.10745653128E+04 0.  0.
        4    1    3    3  502    0 -0.22787169995E+03  0.39308339492E+03 -0.42733238024E+03  0.62374244934E+03  0.12699999809E+01 0. -1.
       -4    1    3    3    0  502  0.22787169995E+03 -0.39308339492E+03  0.16325169856E+03  0.48279684857E+03  0.12699999809E+01 0.  1.
</event>
<event>
 5   0  0.3460648E-04  0.2058093E+04  0.7818609E-02  0.8579932E-01
       -2   -1    0    0    0  501  0.00000000000E+00  0.00000000000E+00  0.11893725764E+04  0.11893725764E+04  0.25500000920E-02 0. -1.
        2   -1    0    0  501    0  0.00000000000E+00  0.00000000000E+00 -0.89033197542E+03  0.89033197542E+03  0.25500000920E-02 0.  1.
    10030    2    1    2    0    0  0.00000000000E+00  0.00000000000E+00  0.29904060103E+03  0.20797045519E+04  0.20580927438E+04 0.  0.
        5    1    3    3  502    0  0.64364655394E+03 -0.25992813811E+03 -0.61810849707E+03  0.92947497413E+03  0.46999998093E+01 0.  1.
       -5    1    3    3    0  502 -0.64364655394E+03  0.25992813811E+03  0.91714909810E+03  0.11502295777E+04  0.46999998093E+01 0. -1.
</event>
<event>
 5   0  0.1650221E-04  0.1991974E+04  0.7818609E-02  0.8610382E-01
        1   -1    0    0  501    0  0.00000000000E+00  0.00000000000E+00  0.11981155325E+04  0.11981155325E+04  0.50400001928E-02 0. -1.
       -1   -1    0    0    0  501  0.00000000000E+00  0.00000000000E+00 -0.82795899238E+03  0.82795899239E+03  0.50400001928E-02 0.  1.
    10030    2    1    2    0    0  0.00000000000E+00  0.00000000000E+00  0.37015654012E+03  0.20260745249E+04  0.19919744266E+04 0.  0.
        1    1    3    3  502    0 -0.68129009219E+03  0.60938677176E+03 -0.21727171788E+03  0.93952936448E+03  0.50400001928E-02 0.  1.
       -1    1    3    3    0  502  0.68129009219E+03 -0.60938677176E+03  0.58742825800E+03  0.10865451604E+04  0.50400001928E-02 0. -1.
</event>
<event>
 5   0  0.1696052E-04  0.2032070E+04  0.7818609E-02  0.8591772E-01
       -1   -1    0    0    0  501  0.00000000000E+00  0.00000000000E+00  0.59115963077E+03  0.59115963079E+03  0.50400001928E-02 0. -1.
        1   -1    0    0  501    0  0.00000000000E+00  0.00000000000E+00 -0.17462743385E+04  0.17462743385E+04  0.50400001928E-02 0.  1.
    10030    2    1    2    0    0  0.00000000000E+00  0.00000000000E+00 -0.11551147077E+04  0.23374339693E+04  0.20320697756E+04 0.  0.
        4    1    3    3  502    0 -0.42117041812E+03  0.53654845009E+03  0.28863412895E+03  0.74066188891E+03  0.12699999809E+01 0. -1.
       -4    1    3    3    0  502  0.42117041812E+03 -0.53654845009E+03 -0.14437488367E+04  0.15967720804E+04  0.12699999809E+01 0.  1.
</event>
<event>
 5   0  0.3371947E-04  0.1972798E+04  0.7818609E-02  0.8619445E-01
       -2   -1    0    0    0  501  0.00000000000E+00  0.00000000000E+00  0.58260110474E+03  0.58260110475E+03  0.25500000920E-02 0.  1.
        2   -1    0    0  501    0  0.00000000000E+00  0.00000000000E+00 -0.16700672037E+04  0.16700672037E+04  0.25500000920E-02 0. -1.
    10030    2    1    2    0    0  0.00000000000E+00  0.00000000000E+00 -0.10874660990E+04  0.22526683085E+04  0.19727980109E+04 0.  0.
        2    1    3    3  502    0  0.12410112497E+03  0.30618056726E+03  0.51754728983E+03  0.61400555877E+03  0.25500000920E-02 0.  1.
       -2    1    3    3    0  502 -0.12410112497E+03 -0.30618056726E+03 -0.16050133888E+04  0.16386627497E+04  0.25500000920E-02 0. -1.
</event>
<event>
 5   0  0.3387881E-04  0.1747122E+04  0.7818609E-02  0.8734936E-01
       -2   -1    0    0    0  501  0.00000000000E+00  0.00000000000E+00  0.11559771381E+04  0.11559771381E+04  0.25500000920E-02 0. -1.
        2   -1    0    0  501    0  0.00000000000E+00  0.00000000000E+00 -0.66014210831E+03  0.66014210832E+03  0.25500000920E-02 0.  1.
    10030    2    1    2    0    0  0.00000000000E+00  0.00000000000E+00  0.49583502980E+03  0.18161192464E+04  0.17471224171E+04 0.  0.
        1    1    3    3  502    0  0.86755051133E+03  0.93664696383E+02  0.29067867135E+03  0.91973423067E+03  0.50400001928E-02 0.  1.
       -1    1    3    3    0  502 -0.86755051133E+03 -0.93664696383E+02  0.20515635845E+03  0.89638501577E+03  0.50400001928E-02 0. -1.
</event>
<event>
 5   0  0.3387881E-04  0.1955791E+04  0.7818609E-02  0.8627573E-01
       -2   -1    0    0    0  501  0.00000000000E+00  0.00000000000E+00  0.94106573531E+03  0.94106573532E+03  0.25500000920E-02 0. -1.
        2   -1    0    0  501    0  0.00000000000E+00  0.00000000000E+00 -0.10161663309E+04  0.10161663309E+04  0.25500000920E-02 0.  1.
    10030    2    1    2    0    0  0.00000000000E+00  0.00000000000E+00 -0.75100595550E+02  0.19572320662E+04  0.19557906998E+04 0.  0.
        1    1    3    3  502    0  0.78413349738E+03 -0.30616617716E+03 -0.53558788861E+03  0.99772614289E+03  0.50400001928E-02 0.  1.
       -1    1    3    3    0  502 -0.78413349738E+03  0.30616617716E+03  0.46048729306E+03  0.95950592330E+03  0.50400001928E-02 0. -1.
</event>
<event>
 5   0  0.1643565E-04  0.1955698E+04  0.7818609E-02  0.8627618E-01
        1   -1    0    0  501    0  0.00000000000E+00  0.00000000000E+00  0.21234031176E+04  0.21234031177E+04  0.50400001928E-02 0. -1.
       -1   -1    0    0    0  501  0.00000000000E+00  0.00000000000E+00 -0.45030969440E+03  0.45030969443E+03  0.50400001928E-02 0.  1.
    10030    2    1    2    0    0  0.00000000000E+00  0.00000000000E+00  0.16730934233E+04  0.25737128121E+04  0.19556983500E+04 0.  0.
        2    1    3    3  502    0  0.23641623369E+03  0.19403731709E+03  0.20588373759E+04  0.20814308675E+04  0.25500000920E-02 0. -1.
       -2    1    3    3    0  502 -0.23641623369E+03 -0.19403731709E+03 -0.38574395261E+03  0.49228194457E+03  0.25500000920E-02 0.  1.
</event>
<event>
 5   0  0.3460648E-04  0.1966738E+04  0.7818609E-02  0.8622332E-01
        2   -1    0    0  501    0  0.00000000000E+00  0.00000000000E+00  0.12791917551E+04  0.12791917551E+04  0.25500000920E-02 0.  1.
       -2   -1    0    0    0  501  0.00000000000E+00  0.00000000000E+00 -0.75595711146E+03  0.75595711146E+03  0.25500000920E-02 0. -1.
    10030    2    1    2    0    0  0.00000000000E+00  0.00000000000E+00  0.52323464368E+03  0.20351488666E+04  0.19667375058E+04 0.  0.
        5    1    3    3  502    0  0.30760465361E+03  0.92226259321E+03  0.10882240353E+03  0.97829101972E+03  0.46999998093E+01 0. -1.
       -5    1    3    3    0  502 -0.30760465361E+03 -0.92226259321E+03  0.41441224015E+03  0.10568578469E+04  0.46999998093E+01 0.  1.
</event>
<event>
 5   0  0.1696052E-04  0.2018817E+04  0.7818609E-02  0.8597873E-01
       -1   -1    0    0    0  501  0.00000000000E+00  0.00000000000E+00  0.68900593187E+03  0.68900593188E+03  0.50400001928E-02 0.  1.
        1   -1    0    0  501    0  0.00000000000E+00  0.00000000000E+00 -0.14788050648E+04  0.14788050648E+04  0.50400001928E-02 0. -1.
    10030    2    1    2    0    0  0.00000000000E+00  0.00000000000E+00 -0.78979913292E+03  0.21678109967E+04  0.20188169424E+04 0.  0.
        4    1    3    3  502    0 -0.20588157425E+03 -0.24576452466E+03  0.63287959732E+03  0.70945445365E+03  0.12699999809E+01 0.  1.
       -4    1    3    3    0  502  0.20588157425E+03  0.24576452466E+03 -0.14226787302E+04  0.14583565430E+04  0.12699999809E+01 0. -1.
</event>
<event>
 5   0  0.1650221E-04  0.2020284E+04  0.7818609E-02  0.8597195E-01
       -1   -1    0    0    0  501  0.00000000000E+00  0.00000000000E+00  0.82747637795E+03  0.82747637797E+03  0.50400001928E-02 0. -1.
        1   -1    0    0  501    0  0.00000000000E+00  0.00000000000E+00 -0.12331316989E+04  0.12331316989E+04  0.50400001928E-02 0.  1.
    10030    2    1    2    0    0  0.00000000000E+00  0.00000000000E+00 -0.40565532096E+03  0.20606080769E+04  0.20202844867E+04 0.  0.
        1    1    3    3  502    0 -0.53959101056E+03 -0.83258917327E+03 -0.39641627428E+03  0.10684142702E+04  0.50400001928E-02 0.  1.
       -1    1    3    3    0  502  0.53959101056E+03  0.83258917327E+03 -0.92390466791E+01  0.99219380674E+03  0.50400001928E-02 0. -1.
</event>
<event>
 5   0  0.1650221E-04  0.1569016E+04  0.7818609E-02  0.8839812E-01
       -1   -1    0    0    0  501  0.00000000000E+00  0.00000000000E+00  0.42472201963E+03  0.42472201966E+03  0.50400001928E-02 0. -1.
        1   -1    0    0  501    0  0.00000000000E+00  0.00000000000E+00 -0.14490727773E+04  0.14490727773E+04  0.50400001928E-02 0.  1.
    10030    2    1    2    0    0  0.00000000000E+00  0.00000000000E+00 -0.10243507577E+04  0.18737947969E+04  0.15690164009E+04 0.  0.
        1    1    3    3  502    0  0.16111127860E+02 -0.25311117204E+03  0.37441067346E+03  0.45222581337E+03  0.50400001928E-02 0. -1.
       -1    1    3    3    0  502 -0.16111127860E+02  0.25311117204E+03 -0.13987614311E+04  0.14215689836E+04  0.50400001928E-02 0.  1.
</event>
<event>
 5   0  0.1643565E-04  0.1987082E+04  0.7818609E-02  0.8612684E-01
       -1   -1    0    0    0  501  0.00000000000E+00  0.00000000000E+00  0.15777276802E+04  0.15777276802E+04  0.50400001928E-02 0. -1.
        1   -1    0    0  501    0  0.00000000000E+00  0.00000000000E+00 -0.62566194762E+03  0.62566194764E+03  0.50400001928E-02 0.  1.
    10030    2    1    2    0    0  0.00000000000E+00  0.00000000000E+00  0.95206573257E+03  0.22033896278E+04  0.19870824575E+04 0.  0.
        2    1    3    3  502    0 -0.32691699458E+03  0.40822702867E+03  0.14127379477E+04  0.15064370340E+04  0.25500000920E-02 0. -1.
       -2    1    3    3    0  502  0.32691699458E+03 -0.40822702867E+03 -0.46067221517E+03  0.69695259388E+03  0.25500000920E-02 0.  1.
</event>
<event>
 5   0  0.1708578E-04  0.1955950E+04  0.7818609E-02  0.8627497E-01
        1   -1    0    0  501    0  0.00000000000E+00  0.00000000000E+00  0.83522394766E+03  0.83522394767E+03  0.50400001928E-02 0.  1.
       -1   -1    0    0    0  501  0.00000000000E+00  0.00000000000E+00 -0.11451246567E+04  0.11451246567E+04  0.50400001928E-02 0. -1.
    10030    2    1    2    0    0  0.00000000000E+00  0.00000000000E+00 -0.30990070907E+03  0.19803486044E+04  0.19559504456E+04 0.  0.
        3    1    3    3  502    0  0.81934511002E+03 -0.34075585676E+03  0.26126698143E+03  0.92504130125E+03  0.10100000352E+00 0.  1.
       -3    1    3    3    0  502 -0.81934511002E+03  0.34075585676E+03 -0.57116769050E+03  0.10553073032E+04  0.10100000352E+00 0. -1.
</event>
<event>
 5   0  0.3431030E-04  0.1976317E+04  0.7818609E-02  0.8617774E-01
       -2   -1    0    0    0  501  0.00000000000E+00  0.00000000000E+00  0.56532609352E+03  0.56532609352E+03  0.25500000920E-02 0. -1.
        2   -1    0    0  501    0  0.00000000000E+00  0.00000000000E+00 -0.17272455610E+04  0.17272455610E+04  0.25500000920E-02 0.  1.
    10030    2    1    2    0    0  0.00000000000E+00  0.00000000000E+00 -0.11619194675E+04  0.22925716546E+04  0.19763167616E+04 0.  0.
        3    1    3    3  502    0 -0.65192158772E+03 -0.63786186910E+03 -0.13986520506E+03  0.92273062503E+03  0.10100000352E+00 0. -1.
       -3    1    3    3    0  502  0.65192158772E+03  0.63786186910E+03 -0.10220542625E+04  0.13698410295E+04  0.10100000352E+00 0.  1.
</event>
<event>
 5   0  0.1708578E-04  0.2012266E+04  0.7818609E-02  0.8600907E-01
       -1   -1    0    0    0  501  0.00000000000E+00  0.00000000000E+00  0.12280014882E+04  0.12280014882E+04  0.50400001928E-02 0. -1.
        1   -1    0    0  501    0  0.00000000000E+00  0.00000000000E+00 -0.82435023112E+03  0.82435023113E+03  0.50400001928E-02 0.  1.
    10030    2    1    2    0    0  0.00000000000E+00  0.00000000000E+00  0.40365125705E+03  0.20523517193E+04  0.20122656988E+04 0.  0.
        3    1    3    3  502    0 -0.28391401516E+03  0.51000246805E+03  0.10376590726E+04  0.11905654315E+04  0.10100000352E+00 0. -1.
       -3    1    3    3    0  502  0.28391401516E+03 -0.51000246805E+03 -0.63400781560E+03  0.86178628781E+03  0.10100000352E+00 0.  1.
</event>
<event>
 5   0  0.3395569E-04  0.2040367E+04  0.7818609E-02  0.8587977E-01
        2   -1    0    0  501    0  0.00000000000E+00  0.00000000000E+00  0.14449424903E+04  0.14449424903E+04  0.25500000920E-02 0. -1.
       -2   -1    0    0    0  501  0.00000000000E+00  0.00000000000E+00 -0.72028779211E+03  0.72028779211E+03  0.25500000920E-02 0.  1.
    10030    2    1    2    0    0  0.00000000000E+00  0.00000000000E+00  0.72465469818E+03  0.21652302824E+04  0.20403670612E+04 0.  0.
        4    1    3    3  502    0  0.69102783868E+03  0.33298882740E+02 -0.43331846912E+03  0.81633007908E+03  0.12699999809E+01 0.  1.
       -4    1    3    3    0  502 -0.69102783868E+03 -0.33298882740E+02  0.11579731673E+04  0.13489002033E+04  0.12699999809E+01 0. -1.
</event>
<event>
 5   0  0.3431030E-04  0.2081193E+04  0.7818609E-02  0.8569574E-01
        2   -1    0    0  501    0  0.00000000000E+00  0.00000000000E+00  0.73394865471E+03  0.73394865471E+03  0.25500000920E-02 0. -1.
       -2   -1    0    0    0  501  0.00000000000E+00  0.00000000000E+00 -0.14753631801E+04  0.14753631801E+04  0.25500000920E-02 0.  1.
    10030    2    1    2    0    0  0.00000000000E+00  0.00000000000E+00 -0.74141452539E+03  0.22093118348E+04  0.20811927554E+04 0.  0.
        3    1    3    3  502    0 -0.42770844176E+02  0.80135909517E+03  0.33251947605E+03  0.86866274047E+03  0.10100000352E+00 0. -1.
       -3    1    3    3    0  502  0.42770844176E+02 -0.80135909517E+03 -0.10739340014E+04  0.13406490943E+04  0.10100000352E+00 0.  1.
</event>
<event>
 5   0  0.3371947E-04  0.1952327E+04  0.7818609E-02  0.8629239E-01
       -2   -1    0    0    0  501  0.00000000000E+00  0.00000000000E+00  0.69576550184E+03  0.69576550184E+03  0.25500000920E-02 0.  1.
        2   -1    0    0  501    0  0.00000000000E+00  0.00000000000E+00 -0.13695637098E+04  0.13695637098E+04  0.25500000920E-02 0. -1.
    10030    2    1    2    0    0  0.00000000000E+00  0.00000000000E+00 -0.67379820800E+03  0.20653292117E+04  0.19523270032E+04 0.  0.
        2    1    3    3  502    0 -0.71267062500E+03 -0.65434767420E+03 -0.19968057541E+03  0.98789808719E+03  0.25500000920E-02 0.  1.
       -2    1    3    3    0  502  0.71267062500E+03  0.65434767420E+03 -0.47411763258E+03  0.10774311245E+04  0.25500000920E-02 0. -1.
</event>
<event>
 5   0  0.1664168E-04  0.1998109E+04  0.7818609E-02  0.8607505E-01
       -1   -1    0    0    0  501  0.00000000000E+00  0.00000000000E+00  0.10026418353E+04  0.10026418353E+04  0.50400001928E-02 0.  1.
        1   -1    0    0  501    0  0.00000000000E+00  0.00000000000E+00 -0.99548022908E+03  0.99548022909E+03  0.50400001928E-02 0. -1.
    10030    2    1    2    0    0  0.00000000000E+00  0.00000000000E+00  0.71616062228E+01  0.19981220644E+04  0.19981092302E+04 0.  0.
        5    1    3    3  502    0 -0.65310718847E+03 -0.13351751178E+03  0.74770392569E+03  0.10017280949E+04  0.46999998093E+01 0.  1.
       -5    1    3    3    0  502  0.65310718847E+03  0.13351751178E+03 -0.74054231946E+03  0.99639396952E+03  0.46999998093E+01 0. -1.
</event>
<event>
 5   0  0.1650221E-04  0.1982415E+04  0.7818609E-02  0.8614886E-01
        1   -1    0    0  501    0  0.00000000000E+00  0.00000000000E+00  0.90999998896E+03  0.90999998898E+03  0.50400001928E-02 0.  1.
       -1   -1    0    0    0  501  0.00000000000E+00  0.00000000000E+00 -0.10796622457E+04  0.10796622457E+04  0.50400001928E-02 0. -1.
    10030    2    1    2    0    0  0.00000000000E+00  0.00000000000E+00 -0.16966225675E+03  0.19896622347E+04  0.19824153265E+04 0.  0.
        1    1    3    3  502    0  0.47533395594E+03  0.61982730213E+03  0.52761624123E+03  0.94260657338E+03  0.50400001928E-02 0.  1.
       -1    1    3    3    0  502 -0.47533395594E+03 -0.61982730213E+03 -0.69727849798E+03  0.10470556613E+04  0.50400001928E-02 0. -1.
</event>
<event>
 5   0  0.3395569E-04  0.2094377E+04  0.7818609E-02  0.8563725E-01
        2   -1    0    0  501    0  0.00000000000E+00  0.00000000000E+00  0.20137314691E+04  0.20137314691E+04  0.25500000920E-02 0.  1.
       -2   -1    0    0    0  501  0.00000000000E+00  0.00000000000E+00 -0.54456285905E+03  0.54456285906E+03  0.25500000920E-02 0. -1.
    10030    2    1    2    0    0  0.00000000000E+00  0.00000000000E+00  0.14691686101E+04  0.25582943282E+04  0.20943766292E+04 0.  0.
        4    1    3    3  502    0 -0.20657766456E+03 -0.73721711231E+03 -0.13812051280E+03  0.77797319436E+03  0.12699999809E+01 0. -1.
       -4    1    3    3    0  502  0.20657766456E+03  0.73721711231E+03  0.16072891229E+04  0.17803211338E+04  0.12699999809E+01 0.  1.
</event>
<event>
 5   0  0.3395569E-04  0.2017859E+04  0.7818609E-02  0.8598316E-01
        2   -1    0    0  501    0  0.00000000000E+00  0.00000000000E+00  0.18768059312E+04  0.18768059312E+04  0.25500000920E-02 0. -1.
       -2   -1    0    0    0  501  0.00000000000E+00  0.00000000000E+00 -0.54237848231E+03  0.54237848232E+03  0.25500000920E-02 0.  1.
    10030    2    1    2    0    0  0.00000000000E+00  0.00000000000E+00  0.13344274489E+04  0.24191844136E+04  0.20178594129E+04 0.  0.
        4    1    3    3  502    0  0.77773082358E+03  0.34933748243E+03  0.20441813584E+02  0.85283139672E+03  0.12699999809E+01 0.  1.
       -4    1    3    3    0  502 -0.77773082358E+03 -0.34933748243E+03  0.13139856353E+04  0.15663530168E+04  0.12699999809E+01 0. -1.
</event>
<event>
 5   0  0.3460648E-04  0.2000434E+04  0.7818609E-02  0.8606418E-01
        2   -1    0    0  501    0  0.00000000000E+00  0.00000000000E+00  0.23804101009E+04  0.23804101009E+04  0.25500000920E-02 0. -1.
       -2   -1    0    0    0  501  0.00000000000E+00  0.00000000000E+00 -0.42027809255E+03  0.42027809256E+03  0.25500000920E-02 0.  1.
    10030    2    1    2    0    0  0.00000000000E+00  0.00000000000E+00  0.19601320084E+04  0.28006881935E+04  0.20004341696E+04 0.  0.
        5    1    3    3  502    0  0.69689335497E+03 -0.19348403998E+03  0.12805714603E+02  0.72338267760E+03  0.46999998093E+01 0.  1.
       -5    1    3    3    0  502 -0.69689335497E+03  0.19348403998E+03  0.19473262938E+04  0.20773055159E+04  0.46999998093E+01 0. -1.
</event>
<event>
 5   0  0.3431030E-04  0.2026388E+04  0.7818609E-02  0.8594382E-01
        2   -1    0    0  501    0  0.00000000000E+00  0.00000000000E+00  0.19824316077E+04  0.19824316077E+04  0.25500000920E-02 0. -1.
       -2   -1    0    0    0  501  0.00000000000E+00  0.00000000000E+00 -0.51782963748E+03  0.51782963749E+03  0.25500000920E-02 0.  1.
    10030    2    1    2    0    0  0.00000000000E+00  0.00000000000E+00  0.14646019703E+04  0.25002612452E+04  0.20263877623E+04 0.  0.
        3    1    3    3  502    0 -0.40654547248E+03  0.10637177503E+03  0.18698340646E+04  0.19164742668E+04  0.10100000352E+00 0. -1.
       -3    1    3    3    0  502  0.40654547248E+03 -0.10637177503E+03 -0.40523209437E+03  0.58378697847E+03  0.10100000352E+00 0.  1.
</event>
<event>
 5   0  0.3395569E-04  0.1873198E+04  0.7818609E-02  0.8668313E-01
       -2   -1    0    0    0  501  0.00000000000E+00  0.00000000000E+00  0.98827738729E+03  0.98827738729E+03  0.25500000920E-02 0. -1.
        2   -1    0    0  501    0  0.00000000000E+00  0.00000000000E+00 -0.88762329911E+03  0.88762329912E+03  0.25500000920E-02 0.  1.
    10030    2    1    2    0    0  0.00000000000E+00  0.00000000000E+00  0.10065408818E+03  0.18759006864E+04  0.18731983717E+04 0.  0.
        4    1    3    3  502    0 -0.11290976564E+03  0.57968786509E+03  0.77830749242E+03  0.97701115744E+03  0.12699999809E+01 0. -1.
       -4    1    3    3    0  502  0.11290976564E+03 -0.57968786509E+03 -0.67765340424E+03  0.89888952897E+03  0.12699999809E+01 0.  1.
</event>
<event>
 5   0  0.1664168E-04  0.1986526E+04  0.7818609E-02  0.8612946E-01
        1   -1    0    0  501    0  0.00000000000E+00  0.00000000000E+00  0.12835571010E+04  0.12835571010E+04  0.50400001928E-02 0.  1.
       -1   -1    0    0    0  501  0.00000000000E+00  0.00000000000E+00 -0.76862265939E+03  0.76862265941E+03  0.50400001928E-02 0. -1.
    10030    2    1    2    0    0  0.00000000000E+00  0.00000000000E+00  0.51493444156E+03  0.20521797604E+04  0.19865256831E+04 0.  0.
        5    1    3    3  502    0 -0.99233193489E+03  0.36044279271E+02  0.23374925979E+03  0.10201385521E+04  0.46999998093E+01 0.  1.
       -5    1    3    3    0  502  0.99233193489E+03 -0.36044279271E+02  0.28118518177E+03  0.10320412082E+04  0.46999998093E+01 0. -1.
</event>
<event>
 5   0  0.1643565E-04  0.2021372E+04  0.7818609E-02  0.8596693E-01
       -1   -1    0    0    0  501  0.00000000000E+00  0.00000000000E+00  0.40759262485E+03  0.40759262488E+03  0.50400001928E-02 0.  1.
        1   -1    0    0  501    0  0.00000000000E+00  0.00000000000E+00 -0.25061444041E+04  0.25061444041E+04  0.50400001928E-02 0. -1.
    10030    2    1    2    0    0  0.00000000000E+00  0.00000000000E+00 -0.20985517792E+04  0.29137370289E+04  0.20213717876E+04 0.  0.
        2    1    3    3  502    0 -0.70083050411E+03  0.23119931210E+03 -0.53861516089E+02  0.73994430894E+03  0.25500000920E-02 0.  1.
       -2    1    3    3    0  502  0.70083050411E+03 -0.23119931210E+03 -0.20446902631E+04  0.21737927200E+04  0.25500000920E-02 0. -1.
</event>
<event>
 5   0  0.3395569E-04  0.1943844E+04  0.7818609E-02  0.8633335E-01
        2   -1    0    0  501    0  0.00000000000E+00  0.00000000000E+00  0.17539285613E+04  0.17539285613E+04  0.25500000920E-02 0. -1.
       -2   -1    0    0    0  501  0.00000000000E+00  0.00000000000E+00 -0.53858106592E+03  0.53858106592E+03  0.25500000920E-02 0.  1.
    10030    2    1    2    0    0  0.00000000000E+00  0.00000000000E+00  0.12153474954E+04  0.22925096272E+04  0.19438443498E+04 0.  0.
        4    1    3    3  502    0  0.77974931279E+03 -0.44427233020E+03  0.16758704171E+03  0.91294793040E+03  0.12699999809E+01 0.  1.
       -4    1    3    3    0  502 -0.77974931279E+03  0.44427233020E+03  0.10477604537E+04  0.13795616968E+04  0.12699999809E+01 0. -1.
</event>
<event>
 5   0  0.3431030E-04  0.2069332E+04  0.7818609E-02  0.8574874E-01
        2   -1    0    0  501    0  0.00000000000E+00  0.00000000000E+00  0.10714027852E+04  0.10714027852E+04  0.25500000920E-02 0. -1.
       -2   -1    0    0    0  501  0.00000000000E+00  0.00000000000E+00 -0.99918921526E+03  0.99918921526E+03  0.25500000920E-02 0.  1.
    10030    2    1    2    0    0  0.00000000000E+00  0.00000000000E+00  0.72213569965E+02  0.20705920005E+04  0.20693323640E+04 0.  0.
        3    1    3    3  502    0  0.11325483266E+03  0.19834013359E+02 -0.99277690781E+03  0.99941284967E+03  0.10100000352E+00 0.  1.
       -3    1    3    3    0  502 -0.11325483266E+03 -0.19834013359E+02  0.10649904778E+04  0.10711791508E+04  0.10100000352E+00 0. -1.
</event>
<event>
 5   0  0.1222488E-04  0.1941115E+04  0.7818609E-02  0.8634657E-01
        3   -1    0    0  501    0  0.00000000000E+00  0.00000000000E+00  0.41049122246E+03  0.41049123489E+03  0.10100000352E+00 0.  1.
       -3   -1    0    0    0  501  0.00000000000E+00  0.00000000000E+00 -0.22947676236E+04  0.22947676258E+04  0.10100000352E+00 0. -1.
    10030    2    1    2    0    0  0.00000000000E+00  0.00000000000E+00 -0.18842764011E+04  0.27052588607E+04  0.19411151299E+04 0.  0.
        3    1    3    3  502    0 -0.57378740036E+03  0.62228682329E+03 -0.16039577241E+04  0.18136022888E+04  0.10100000352E+00 0. -1.
       -3    1    3    3    0  502  0.57378740036E+03 -0.62228682329E+03 -0.28031867705E+03  0.89165657186E+03  0.10100000352E+00 0.  1.
</event>
<event>
 5   0  0.3371947E-04  0.1469253E+04  0.7818609E-02  0.8905161E-01
        2   -1    0    0  501    0  0.00000000000E+00  0.00000000000E+00  0.14371295761E+04  0.14371295761E+04  0.25500000920E-02 0. -1.
       -2   -1    0    0    0  501  0.00000000000E+00  0.00000000000E+00 -0.37552363379E+03  0.37552363380E+03  0.25500000920E-02 0.  1.
    10030    2    1    2    0    0  0.00000000000E+00  0.00000000000E+00  0.10616059423E+04  0.18126532099E+04  0.14692530356E+04 0.  0.
        2    1    3    3  502    0  0.14198507821E+03 -0.54922045068E+03 -0.45061239468E+02  0.56906360030E+03  0.25500000920E-02 0.  1.
       -2    1    3    3    0  502 -0.14198507821E+03  0.54922045068E+03  0.11066671818E+04  0.12435896096E+04  0.25500000920E-02 0. -1.
</event>
<event>
 5   0  0.3395569E-04  0.2010238E+04  0.7818609E-02  0.8601849E-01
       -2   -1    0    0    0  501  0.00000000000E+00  0.00000000000E+00  0.44798136908E+03  0.44798136908E+03  0.25500000920E-02 0. -1.
        2   -1    0    0  501    0  0.00000000000E+00  0.00000000000E+00 -0.22551468318E+04  0.22551468318E+04  0.25500000920E-02 0.  1.
    10030    2    1    2    0    0  0.00000000000E+00  0.00000000000E+00 -0.18071654627E+04  0.27031282008E+04  0.20102375632E+04 0.  0.
        4    1    3    3  502    0 -0.41671703998E+03  0.42224082709E+03  0.18745145678E+03  0.62215759178E+03  0.12699999809E+01 0. -1.
       -4    1    3    3    0  502  0.41671703998E+03 -0.42224082709E+03 -0.19946169195E+04  0.20809706091E+04  0.12699999809E+01 0.  1.
</event>
<event>
 5   0  0.1650221E-04  0.1992665E+04  0.7818609E-02  0.8610058E-01
       -1   -1    0    0    0  501  0.00000000000E+00  0.00000000000E+00  0.12966179117E+04  0.12966179117E+04  0.50400001928E-02 0.  1.
        1   -1    0    0  501    0  0.00000000000E+00  0.00000000000E+00 -0.76559081882E+03  0.76559081884E+03  0.50400001928E-02 0. -1.
    10030    2    1    2    0    0  0.00000000000E+00  0.00000000000E+00  0.53102709287E+03  0.20622087305E+04  0.19926653194E+04 0.  0.
        1    1    3    3  502    0 -0.59609491948E+03  0.72434097949E+03  0.61290667002E+03  0.11205595003E+04  0.50400001928E-02 0.  1.
       -1    1    3    3    0  502  0.59609491948E+03 -0.72434097949E+03 -0.81879577142E+02  0.94164923022E+03  0.50400001928E-02 0. -1.
</event>
<event>
 5   0  0.3371947E-04  0.2010113E+04  0.7818609E-02  0.8601907E-01
        2   -1    0    0  501    0  0.00000000000E+00  0.00000000000E+00  0.15176889752E+04  0.15176889752E+04  0.25500000920E-02 0.  1.
       -2   -1    0    0    0  501  0.00000000000E+00  0.00000000000E+00 -0.66557687807E+03  0.66557687808E+03  0.25500000920E-02 0. -1.
    10030    2    1    2    0    0  0.00000000000E+00  0.00000000000E+00  0.85211209709E+03  0.21832658532E+04  0.20101131212E+04 0.  0.
        2    1    3    3  502    0 -0.39260839563E+03 -0.91058221824E+03  0.24812324084E+03  0.10221871018E+04  0.25500000920E-02 0. -1.
       -2    1    3    3    0  502  0.39260839563E+03  0.91058221824E+03  0.60398885625E+03  0.11610787514E+04  0.25500000920E-02 0.  1.
</event>
<event>
 5   0  0.1664168E-04  0.1940225E+04  0.7818609E-02  0.8635089E-01
       -1   -1    0    0    0  501  0.00000000000E+00  0.00000000000E+00  0.48282468757E+03  0.48282468760E+03  0.50400001928E-02 0.  1.
        1   -1    0    0  501    0  0.00000000000E+00  0.00000000000E+00 -0.19491934049E+04  0.19491934049E+04  0.50400001928E-02 0. -1.
    10030    2    1    2    0    0  0.00000000000E+00  0.00000000000E+00 -0.14663687174E+04  0.24320180925E+04  0.19402254475E+04 0.  0.
        5    1    3    3  502    0  0.41504649115E+03 -0.87293760189E+03 -0.62972196297E+03  0.11536271006E+04  0.46999998093E+01 0.  1.
       -5    1    3    3    0  502 -0.41504649115E+03  0.87293760189E+03 -0.83664675439E+03  0.12783909919E+04  0.46999998093E+01 0. -1.
</event>
<event>
 5   0  0.1708578E-04  0.1769194E+04  0.7818609E-02  0.8722856E-01
       -1   -1    0    0    0  501  0.00000000000E+00  0.00000000000E+00  0.45145504488E+03  0.45145504491E+03  0.50400001928E-02 0. -1.
        1   -1    0    0  501    0  0.00000000000E+00  0.00000000000E+00 -0.17333103961E+04  0.17333103961E+04  0.50400001928E-02 0.  1.
    10030    2    1    2    0    0  0.00000000000E+00  0.00000000000E+00 -0.12818553512E+04  0.21847654410E+04  0.17691938533E+04 0.  0.
        3    1    3    3  502    0 -0.53137626745E+03 -0.62924552551E+02  0.22894170723E+03  0.58200906559E+03  0.10100000352E+00 0. -1.
       -3    1    3    3    0  502  0.53137626745E+03  0.62924552551E+02 -0.15107970584E+04  0.16027563754E+04  0.10100000352E+00 0.  1.
</event>
<event>
 5   0  0.3460648E-04  0.1409963E+04  0.7818609E-02  0.8946638E-01
       -2   -1    0    0    0  501  0.00000000000E+00  0.00000000000E+00  0.56462087933E+03  0.56462087934E+03  0.25500000920E-02 0.  1.
        2   -1    0    0  501    0  0.00000000000E+00  0.00000000000E+00 -0.88023516877E+03  0.88023516877E+03  0.25500000920E-02 0. -1.
    10030    2    1    2    0    0  0.00000000000E+00  0.00000000000E+00 -0.31561428943E+03  0.14448560481E+04  0.14099633400E+04 0.  0.
        5    1    3    3  502    0 -0.49612333102E+03  0.15654396005E+03 -0.64532486470E+03  0.82892137263E+03  0.46999998093E+01 0. -1.
       -5    1    3    3    0  502  0.49612333102E+03 -0.15654396005E+03  0.32971057527E+03  0.61593467547E+03  0.46999998093E+01 0.  1.
</event>
<event>
 5   0  0.1664168E-04  0.1688004E+04  0.7818609E-02  0.8768236E-01
        1   -1    0    0  501    0  0.00000000000E+00  0.00000000000E+00  0.11302215375E+04  0.11302215375E+04  0.50400001928E-02 0. -1.
       -1   -1    0    0    0  501  0.00000000000E+00  0.00000000000E+00 -0.63026505155E+03  0.63026505157E+03  0.50400001928E-02 0.  1.
    10030    2    1    2    0    0  0.00000000000E+00  0.00000000000E+00  0.49995648596E+03  0.17604865891E+04  0.16880037152E+04 0.  0.
        5    1    3    3  502    0 -0.49129493155E+03 -0.16012149658E+03  0.94594628787E+03  0.10778896386E+04  0.46999998093E+01 0. -1.
       -5    1    3    3    0  502  0.49129493155E+03  0.16012149658E+03 -0.44598980191E+03  0.68259695051E+03  0.46999998093E+01 0.  1.
</event>
<event>
 5   0  0.3431030E-04  0.2016503E+04  0.7818609E-02  0.8598944E-01
       -2   -1    0    0    0  501  0.00000000000E+00  0.00000000000E+00  0.18559508474E+04  0.18559508474E+04  0.25500000920E-02 0. -1.
        2   -1    0    0  501    0  0.00000000000E+00  0.00000000000E+00 -0.54773574227E+03  0.54773574228E+03  0.25500000920E-02 0.  1.
    10030    2    1    2    0    0  0.00000000000E+00  0.00000000000E+00  0.13082151052E+04  0.24036865897E+04  0.20165025317E+04 0.  0.
        3    1    3    3  502    0  0.88905698711E+03 -0.29793373901E+03  0.10959289826E+04  0.14423062034E+04  0.10100000352E+00 0.  1.
       -3    1    3    3    0  502 -0.88905698711E+03  0.29793373901E+03  0.21228612252E+03  0.96138038631E+03  0.10100000352E+00 0. -1.
</event>
<event>
 5   0  0.1650221E-04  0.2004102E+04  0.7818609E-02  0.8604705E-01
        1   -1    0    0  501    0  0.00000000000E+00  0.00000000000E+00  0.10242888472E+04  0.10242888473E+04  0.50400001928E-02 0. -1.
       -1   -1    0    0    0  501  0.00000000000E+00  0.00000000000E+00 -0.98029585781E+03  0.98029585783E+03  0.50400001928E-02 0.  1.
    10030    2    1    2    0    0  0.00000000000E+00  0.00000000000E+00  0.43992989432E+02  0.20045847051E+04  0.20041019078E+04 0.  0.
        1    1    3    3  502    0  0.33793610995E+03  0.86504564044E+03  0.39838668156E+03  0.10105526817E+04  0.50400001928E-02 0. -1.
       -1    1    3    3    0  502 -0.33793610995E+03 -0.86504564044E+03 -0.35439369213E+03  0.99403202337E+03  0.50400001928E-02 0.  1.
</event>
<event>
 5   0  0.1664168E-04  0.2009631E+04  0.7818609E-02  0.8602131E-01
        1   -1    0    0  501    0  0.00000000000E+00  0.00000000000E+00  0.86297291370E+03  0.86297291372E+03  0.50400001928E-02 0.  1.
       -1   -1    0    0    0  501  0.00000000000E+00  0.00000000000E+00 -0.11699723952E+04  0.11699723952E+04  0.50400001928E-02 0. -1.
    10030    2    1    2    0    0  0.00000000000E+00  0.00000000000E+00 -0.30699948150E+03  0.20329453089E+04  0.20096312964E+04 0.  0.
        5    1    3    3  502    0 -0.17102236030E+03 -0.64312979861E+03  0.60807389007E+03  0.90146576827E+03  0.46999998093E+01 0.  1.
       -5    1    3    3    0  502  0.17102236030E+03  0.64312979861E+03 -0.91507337157E+03  0.11314795407E+04  0.46999998093E+01 0. -1.
</event>
<event>
 5   0  0.3431030E-04  0.1999984E+04  0.7818609E-02  0.8606628E-01
        2   -1    0    0  501    0  0.00000000000E+00  0.00000000000E+00  0.15838154500E+04  0.15838154500E+04  0.25500000920E-02 0.  1.
       -2   -1    0    0    0  501  0.00000000000E+00  0.00000000000E+00 -0.63137638243E+03  0.63137638244E+03  0.25500000920E-02 0. -1.
    10030    2    1    2    0    0  0.00000000000E+00  0.00000000000E+00  0.95243906760E+03  0.22151918325E+04  0.19999836692E+04 0.  0.
        3    1    3    3  502    0 -0.54250714380E+03  0.76831000483E+03  0.85242941542E+03  0.12693502996E+04  0.10100000352E+00 0. -1.
       -3    1    3    3    0  502  0.54250714380E+03 -0.76831000483E+03  0.10000965218E+03  0.94584153288E+03  0.10100000352E+00 0.  1.
</event>
<event>
 5   0  0.3460648E-04  0.1994163E+04  0.7818609E-02  0.8609354E-01
        2   -1    0    0  501    0  0.00000000000E+00  0.00000000000E+00  0.48866315531E+03  0.48866315532E+03  0.25500000920E-02 0.  1.
       -2   -1    0    0    0  501  0.00000000000E+00  0.00000000000E+00 -0.20344723444E+04  0.20344723444E+04  0.25500000920E-02 0. -1.
    10030    2    1    2    0    0  0.00000000000E+00  0.00000000000E+00 -0.15458091891E+04  0.25231354997E+04  0.19941631580E+04 0.  0.
        5    1    3    3  502    0  0.94692109263E+03  0.30614012388E+03 -0.85057399921E+03  0.13091522254E+04  0.46999998093E+01 0. -1.
       -5    1    3    3    0  502 -0.94692109263E+03 -0.30614012388E+03 -0.69523518988E+03  0.12139832743E+04  0.46999998093E+01 0.  1.
</event>
<event>
 5   0  0.3460648E-04  0.2004300E+04  0.7818609E-02  0.8604613E-01
        2   -1    0    0  501    0  0.00000000000E+00  0.00000000000E+00  0.16234416835E+04  0.16234416835E+04  0.25500000920E-02 0. -1.
       -2   -1    0    0    0  501  0.00000000000E+00  0.00000000000E+00 -0.61862701072E+03  0.61862701072E+03  0.25500000920E-02 0.  1.
    10030    2    1    2    0    0  0.00000000000E+00  0.00000000000E+00  0.10048146728E+04  0.22420686942E+04  0.20043002527E+04 0.  0.
        5    1    3    3  502    0 -0.82461551837E+03 -0.56849409456E+03  0.46519719987E+03  0.11043581002E+04  0.46999998093E+01 0.  1.
       -5    1    3    3    0  502  0.82461551837E+03  0.56849409456E+03  0.53961747288E+03  0.11377105940E+04  0.46999998093E+01 0. -1.
</event>
<event>
 5   0  0.1696052E-04  0.2020958E+04  0.7818609E-02  0.8596884E-01
       -1   -1    0    0    0  501  0.00000000000E+00  0.00000000000E+00  0.92472000207E+03  0.92472000208E+03  0.50400001928E-02 0.  1.
        1   -1    0    0  501    0  0.00000000000E+00  0.00000000000E+00 -0.11041918184E+04  0.11041918184E+04  0.50400001928E-02 0. -1.
    10030    2    1    2    0    0  0.00000000000E+00  0.00000000000E+00 -0.17947181637E+03  0.20289118205E+04  0.20209584465E+04 0.  0.
        4    1    3    3  502    0 -0.52177200267E+03  0.22272597981E+03  0.74974490099E+03  0.94019780595E+03  0.12699999809E+01 0.  1.
       -4    1    3    3    0  502  0.52177200267E+03 -0.22272597981E+03 -0.92921671736E+03  0.10887140146E+04  0.12699999809E+01 0. -1.
</event>
<event>
 5   0  0.1222488E-04  0.2029651E+04  0.7818609E-02  0.8592882E-01
        3   -1    0    0  501    0  0.00000000000E+00  0.00000000000E+00  0.13677352475E+04  0.13677352512E+04  0.10100000352E+00 0.  1.
       -3   -1    0    0    0  501  0.00000000000E+00  0.00000000000E+00 -0.75297546611E+03  0.75297547288E+03  0.10100000352E+00 0. -1.
    10030    2    1    2    0    0  0.00000000000E+00  0.00000000000E+00  0.61475978139E+03  0.21207107241E+04  0.20296512968E+04 0.  0.
        4    1    3    3  502    0  0.74040914790E+03  0.68381421074E+03  0.43128295444E+03  0.10962728587E+04  0.12699999809E+01 0. -1.
       -4    1    3    3    0  502 -0.74040914790E+03 -0.68381421074E+03  0.18347682695E+03  0.10244378654E+04  0.12699999809E+01 0.  1.
</event>
<event>
 5   0  0.1696052E-04  0.2105163E+04  0.7818609E-02  0.8558973E-01
        1   -1    0    0  501    0  0.00000000000E+00  0.00000000000E+00  0.17553640991E+04  0.17553640991E+04  0.50400001928E-02 0.  1.
       -1   -1    0    0    0  501  0.00000000000E+00  0.00000000000E+00 -0.63116682607E+03  0.63116682609E+03  0.50400001928E-02 0. -1.
    10030    2    1    2    0    0  0.00000000000E+00  0.00000000000E+00  0.11241972731E+04  0.23865309252E+04  0.21051627843E+04 0.  0.
        4    1    3    3  502    0  0.21769023845E+03 -0.18303633197E+03 -0.58677940152E+03  0.65207592938E+03  0.12699999809E+01 0. -1.
       -4    1    3    3    0  502 -0.21769023845E+03  0.18303633197E+03  0.17109766746E+04  0.17344549958E+04  0.12699999809E+01 0.  1.
</event>
<event>
 5   0  0.1708578E-04  0.2051273E+04  0.7818609E-02  0.8583017E-01
        1   -1    0    0  501    0  0.00000000000E+00  0.00000000000E+00  0.12552948140E+04  0.12552948140E+04  0.50400001928E-02 0.  1.
       -1   -1    0    0    0  501  0.00000000000E+00  0.00000000000E+00 -0.83799426732E+03  0.83799426733E+03  0.50400001928E-02 0. -1.
    10030    2    1    2    0    0  0.00000000000E+00  0.00000000000E+00  0.41730054668E+03  0.20932890813E+04  0.20512726371E+04 0.  0.
        3    1    3    3  502    0  0.22570238688E+03  0.11043758415E+03  0.12233983899E+04  0.12489362105E+04  0.10100000352E+00 0.  1.
       -3    1    3    3    0  502 -0.22570238688E+03 -0.11043758415E+03 -0.80609784319E+03  0.84435287081E+03  0.10100000352E+00 0. -1.
</event>
<event>
 5   0  0.1650221E-04  0.2016323E+04  0.7818609E-02  0.8599027E-01
        1   -1    0    0  501    0  0.00000000000E+00  0.00000000000E+00  0.14659343384E+04  0.14659343384E+04  0.50400001928E-02 0. -1.
       -1   -1    0    0    0  501  0.00000000000E+00  0.00000000000E+00 -0.69333884675E+03  0.69333884677E+03  0.50400001928E-02 0.  1.
    10030    2    1    2    0    0  0.00000000000E+00  0.00000000000E+00  0.77259549168E+03  0.21592731852E+04  0.20163226167E+04 0.  0.
        1    1    3    3  502    0 -0.28285645681E+03 -0.18212629209E+03  0.14040505091E+04  0.14437920880E+04  0.50400001928E-02 0. -1.
       -1    1    3    3    0  502  0.28285645681E+03  0.18212629209E+03 -0.63145501738E+03  0.71548109718E+03  0.50400001928E-02 0.  1.
</event>
<event>
 5   0  0.3431030E-04  0.2090353E+04  0.7818609E-02  0.8565505E-01
        2   -1    0    0  501    0  0.00000000000E+00  0.00000000000E+00  0.12138740815E+04  0.12138740816E+04  0.25500000920E-02 0.  1.
       -2   -1    0    0    0  501  0.00000000000E+00  0.00000000000E+00 -0.89992389784E+03  0.89992389784E+03  0.25500000920E-02 0. -1.
    10030    2    1    2    0    0  0.00000000000E+00  0.00000000000E+00  0.31395018371E+03  0.21137979794E+04  0.20903533624E+04 0.  0.
        3    1    3    3  502    0 -0.94858412620E+03 -0.41905142201E+03  0.25212702759E+02  0.10373290844E+04  0.10100000352E+00 0. -1.
       -3    1    3    3    0  502  0.94858412620E+03  0.41905142201E+03  0.28873748095E+03  0.10764688950E+04  0.10100000352E+00 0.  1.
</event>
<event>
 5   0  0.3460648E-04  0.2005212E+04  0.7818609E-02  0.8604188E-01
       -2   -1    0    0    0  501  0.00000000000E+00  0.00000000000E+00  0.12987904136E+04  0.12987904136E+04  0.25500000920E-02 0.  1.
        2   -1    0    0  501    0  0.00000000000E+00  0.00000000000E+00 -0.77396543828E+03  0.77396543828E+03  0.25500000920E-02 0. -1.
    10030    2    1    2    0    0  0.00000000000E+00  0.00000000000E+00  0.52482497532E+03  0.20727558519E+04  0.20052121002E+04 0.  0.
        5    1    3    3  502    0 -0.13413230223E+03  0.10215096935E+03  0.12840200572E+04  0.12950505366E+04  0.46999998093E+01 0.  1.
       -5    1    3    3    0  502  0.13413230223E+03 -0.10215096935E+03 -0.75919508190E+03  0.77770531528E+03  0.46999998093E+01 0. -1.
</event>
<event>
 5   0  0.3460648E-04  0.1995752E+04  0.7818609E-02  0.8608609E-01
        2   -1    0    0  501    0  0.00000000000E+00  0.00000000000E+00  0.10192308882E+04  0.10192308883E+04  0.25500000920E-02 0. -1.
       -2   -1    0    0    0  501  0.00000000000E+00  0.00000000000E+00 -0.97696866601E+03  0.97696866602E+03  0.25500000920E-02 0.  1.
    10030    2    1    2    0    0  0.00000000000E+00  0.00000000000E+00  0.42262222235E+02  0.19961995543E+04  0.19957521302E+04 0.  0.
        5    1    3    3  502    0 -0.54562609780E+03 -0.11745198468E+03  0.84849957301E+03  0.10156162773E+04  0.46999998093E+01 0. -1.
       -5    1    3    3    0  502  0.54562609780E+03  0.11745198468E+03 -0.80623735077E+03  0.98058327698E+03  0.46999998093E+01 0.  1.
</event>
<event>
 5   0  0.1650221E-04  0.1924887E+04  0.7818609E-02  0.8642567E-01
       -1   -1    0    0    0  501  0.00000000000E+00  0.00000000000E+00  0.10161811895E+04  0.10161811895E+04  0.50400001928E-02 0.  1.
        1   -1    0    0  501    0  0.00000000000E+00  0.00000000000E+00 -0.91154796696E+03  0.91154796698E+03  0.50400001928E-02 0. -1.
    10030    2    1    2    0    0  0.00000000000E+00  0.00000000000E+00  0.10463322252E+03  0.19277291565E+04  0.19248874225E+04 0.  0.
        1    1    3    3  502    0  0.34915255921E+03 -0.32879359051E+03  0.88798553378E+03  0.10092229897E+04  0.50400001928E-02 0.  1.
       -1    1    3    3    0  502 -0.34915255921E+03  0.32879359051E+03 -0.78335231126E+03  0.91850616675E+03  0.50400001928E-02 0. -1.
</event>
<event>
 5   0  0.3387881E-04  0.2228404E+04  0.7818609E-02  0.8506698E-01
        2   -1    0    0  501    0  0.00000000000E+00  0.00000000000E+00  0.11363590004E+04  0.11363590004E+04  0.25500000920E-02 0. -1.
       -2   -1    0    0    0  501  0.00000000000E+00  0.00000000000E+00 -0.10924773632E+04  0.10924773632E+04  0.25500000920E-02 0.  1.
    10030    2    1    2    0    0  0.00000000000E+00  0.00000000000E+00  0.43881637275E+02  0.22288363636E+04  0.22284043479E+04 0.  0.
        1    1    3    3  502    0 -0.97585298307E+03 -0.47760610122E+03  0.26907140235E+03  0.11192837228E+04  0.50400001928E-02 0. -1.
       -1    1    3    3    0  502  0.97585298307E+03  0.47760610122E+03 -0.22518976507E+03  0.11095526408E+04  0.50400001928E-02 0.  1.
</event>
<event>
 5   0  0.3387881E-04  0.2062137E+04  0.7818609E-02  0.8578108E-01
       -2   -1    0    0    0  501  0.00000000000E+00  0.00000000000E+00  0.16773486995E+04  0.16773486995E+04  0.25500000920E-02 0.  1.
        2   -1    0    0  501    0  0.00000000000E+00  0.00000000000E+00 -0.63379902337E+03  0.63379902338E+03  0.25500000920E-02 0. -1.
    10030    2    1    2    0    0  0.00000000000E+00  0.00000000000E+00  0.10435496761E+04  0.23111477229E+04  0.20621367245E+04 0.  0.
        1    1    3    3  502    0 -0.55263089152E+03  0.71123532770E+03  0.10842161825E+04  0.14095323069E+04  0.50400001928E-02 0.  1.
       -1    1    3    3    0  502  0.55263089152E+03 -0.71123532770E+03 -0.40666506389E+02  0.90161541602E+03  0.50400001928E-02 0. -1.
</event>
<event>
 5   0  0.1708578E-04  0.1926960E+04  0.7818609E-02  0.8641552E-01
        1   -1    0    0  501    0  0.00000000000E+00  0.00000000000E+00  0.77002343196E+03  0.77002343198E+03  0.50400001928E-02 0.  1.
       -1   -1    0    0    0  501  0.00000000000E+00  0.00000000000E+00 -0.12055397050E+04  0.12055397050E+04  0.50400001928E-02 0. -1.
    10030    2    1    2    0    0  0.00000000000E+00  0.00000000000E+00 -0.43551627302E+03  0.19755631370E+04  0.19269601148E+04 0.  0.
        3    1    3    3  502    0 -0.77652015738E+03  0.49817056308E+03 -0.50249763756E+03  0.10505528786E+04  0.10100000352E+00 0. -1.
       -3    1    3    3    0  502  0.77652015738E+03 -0.49817056308E+03  0.66981364533E+02  0.92501025839E+03  0.10100000352E+00 0.  1.
</event>
<event>
 5   0  0.3395569E-04  0.1986248E+04  0.7818609E-02  0.8613077E-01
       -2   -1    0    0    0  501  0.00000000000E+00  0.00000000000E+00  0.90562458796E+03  0.90562458796E+03  0.25500000920E-02 0. -1.
        2   -1    0    0  501    0  0.00000000000E+00  0.00000000000E+00 -0.10890774939E+04  0.10890774939E+04  0.25500000920E-02 0.  1.
    10030    2    1    2    0    0  0.00000000000E+00  0.00000000000E+00 -0.18345290599E+03  0.19947020819E+04  0.19862480779E+04 0.  0.
        4    1    3    3  502    0  0.18504568683E+03 -0.47284996669E+02 -0.10704595708E+04  0.10873652021E+04  0.12699999809E+01 0.  1.
       -4    1    3    3    0  502 -0.18504568683E+03  0.47284996669E+02  0.88700666482E+03  0.90733687981E+03  0.12699999809E+01 0. -1.
</event>
<event>
 5   0  0.1643565E-04  0.1951414E+04  0.7818609E-02  0.8629679E-01
       -1   -1    0    0    0  501  0.00000000000E+00  0.00000000000E+00  0.73720275508E+03  0.73720275510E+03  0.50400001928E-02 0.  1.
        1   -1    0    0  501    0  0.00000000000E+00  0.00000000000E+00 -0.12913731585E+04  0.12913731585E+04  0.50400001928E-02 0. -1.
    10030    2    1    2    0    0  0.00000000000E+00  0.00000000000E+00 -0.55417040337E+03  0.20285759136E+04  0.19514136930E+04 0.  0.
        2    1    3    3  502    0 -0.54105424864E+03 -0.25164996468E+03 -0.10795793784E+04  0.12335149123E+04  0.25500000920E-02 0. -1.
       -2    1    3    3    0  502  0.54105424864E+03  0.25164996468E+03  0.52540897500E+03  0.79506100125E+03  0.25500000920E-02 0.  1.
</event>
<event>
 5   0  0.3371947E-04  0.2003994E+04  0.7818609E-02  0.8604755E-01
       -2   -1    0    0    0  501  0.00000000000E+00  0.00000000000E+00  0.66897512447E+03  0.66897512447E+03  0.25500000920E-02 0.  1.
        2   -1    0    0  501    0  0.00000000000E+00  0.00000000000E+00 -0.15008005953E+04  0.15008005953E+04  0.25500000920E-02 0. -1.
    10030    2    1    2    0    0  0.00000000000E+00  0.00000000000E+00 -0.83182547079E+03  0.21697757197E+04  0.20039942765E+04 0.  0.
        2    1    3    3  502    0 -0.38610984583E+03  0.45200871924E+03  0.45741500769E+03  0.75008078537E+03  0.25500000920E-02 0.  1.
       -2    1    3    3    0  502  0.38610984583E+03 -0.45200871924E+03 -0.12892404785E+04  0.14196949344E+04  0.25500000920E-02 0. -1.
</event>
<event>
 5   0  0.1650221E-04  0.2010656E+04  0.7818609E-02  0.8601655E-01
        1   -1    0    0  501    0  0.00000000000E+00  0.00000000000E+00  0.14421045789E+04  0.14421045790E+04  0.50400001928E-02 0. -1.
       -1   -1    0    0    0  501  0.00000000000E+00  0.00000000000E+00 -0.70083971652E+03  0.70083971654E+03  0.50400001928E-02 0.  1.
    10030    2    1    2    0    0  0.00000000000E+00  0.00000000000E+00  0.74126486242E+03  0.21429442955E+04  0.20106557779E+04 0.  0.
        1    1    3    3  502    0  0.87536614801E+03  0.46678645508E+03  0.54422492741E+03  0.11315194472E+04  0.50400001928E-02 0. -1.
       -1    1    3    3    0  502 -0.87536614801E+03 -0.46678645508E+03  0.19703993501E+03  0.10114248483E+04  0.50400001928E-02 0.  1.
</event>
<event>
 5   0  0.3371947E-04  0.9954216E+03  0.7818609E-02  0.9313581E-01
       -2   -1    0    0    0  501  0.00000000000E+00  0.00000000000E+00  0.18882051947E+03  0.18882051948E+03  0.25500000920E-02 0.  1.
        2   -1    0    0  501    0  0.00000000000E+00  0.00000000000E+00 -0.13119126336E+04  0.13119126336E+04  0.25500000920E-02 0. -1.
    10030    2    1    2    0    0  0.00000000000E+00  0.00000000000E+00 -0.11230921141E+04  0.15007331530E+04  0.99542156894E+03 0.  0.
        2    1    3    3  502    0  0.18568604485E+03  0.45935732566E+03 -0.63270207414E+03  0.80361705713E+03  0.25500000920E-02 0. -1.
       -2    1    3    3    0  502 -0.18568604485E+03 -0.45935732566E+03 -0.49039003995E+03  0.69711609591E+03  0.25500000920E-02 0.  1.
</event>
<event>
 5   0  0.3460648E-04  0.1993866E+04  0.7818609E-02  0.8609494E-01
        2   -1    0    0  501    0  0.00000000000E+00  0.00000000000E+00  0.14629266559E+04  0.14629266559E+04  0.25500000920E-02 0.  1.
       -2   -1    0    0    0  501  0.00000000000E+00  0.00000000000E+00 -0.67937463279E+03  0.67937463280E+03  0.25500000920E-02 0. -1.
    10030    2    1    2    0    0  0.00000000000E+00  0.00000000000E+00  0.78355202307E+03  0.21423012887E+04  0.19938658527E+04 0.  0.
        5    1    3    3  502    0  0.89365546120E+02  0.27417354441E+03 -0.63357198912E+03  0.69612706361E+03  0.46999998093E+01 0. -1.
       -5    1    3    3    0  502 -0.89365546120E+02 -0.27417354441E+03  0.14171240122E+04  0.14461742251E+04  0.46999998093E+01 0.  1.
</event>
<event>
 5   0  0.3460648E-04  0.2041127E+04  0.7818609E-02  0.8587630E-01
       -2   -1    0    0    0  501  0.00000000000E+00  0.00000000000E+00  0.72294640080E+03  0.72294640080E+03  0.25500000920E-02 0. -1.
        2   -1    0    0  501    0  0.00000000000E+00  0.00000000000E+00 -0.14407013165E+04  0.14407013165E+04  0.25500000920E-02 0.  1.
    10030    2    1    2    0    0  0.00000000000E+00  0.00000000000E+00 -0.71775491575E+03  0.21636477174E+04  0.20411269744E+04 0.  0.
        5    1    3    3  502    0  0.48438121597E+03 -0.37973015969E+02  0.59246895987E+03  0.76623016825E+03  0.46999998093E+01 0. -1.
       -5    1    3    3    0  502 -0.48438121597E+03  0.37973015969E+02 -0.13102238756E+04  0.13974175491E+04  0.46999998093E+01 0.  1.
</event>
<event>
 5   0  0.1222488E-04  0.2043630E+04  0.7818609E-02  0.8586489E-01
       -4   -1    0    0    0  501  0.00000000000E+00  0.00000000000E+00  0.11281786708E+04  0.11281793856E+04  0.12699999809E+01 0. -1.
        4   -1    0    0  501    0  0.00000000000E+00  0.00000000000E+00 -0.92547811043E+03  0.92547898182E+03  0.12699999809E+01 0.  1.
    10030    2    1    2    0    0  0.00000000000E+00  0.00000000000E+00  0.20270056037E+03  0.20536583675E+04  0.20436303905E+04 0.  0.
        2    1    3    3  502    0  0.63760319173E+03 -0.63090235165E+02 -0.69853802554E+03  0.94787846321E+03  0.25500000920E-02 0.  1.
       -2    1    3    3    0  502 -0.63760319173E+03  0.63090235165E+02  0.90123858591E+03  0.11057799042E+04  0.25500000920E-02 0. -1.
</event>
<event>
 5   0  0.1708578E-04  0.1929853E+04  0.7818609E-02  0.8640137E-01
       -1   -1    0    0    0  501  0.00000000000E+00  0.00000000000E+00  0.98693638912E+03  0.98693638914E+03  0.50400001928E-02 0.  1.
        1   -1    0    0  501    0  0.00000000000E+00  0.00000000000E+00 -0.94340784047E+03  0.94340784048E+03  0.50400001928E-02 0. -1.
    10030    2    1    2    0    0  0.00000000000E+00  0.00000000000E+00  0.43528548653E+02  0.19303442296E+04  0.19298533909E+04 0.  0.
        3    1    3    3  502    0 -0.49523350152E+03 -0.18918474313E+03 -0.78468915383E+03  0.94698688818E+03  0.10100000352E+00 0. -1.
       -3    1    3    3    0  502  0.49523350152E+03  0.18918474313E+03  0.82821770248E+03  0.98335734144E+03  0.10100000352E+00 0.  1.
</event>
<event>
 5   0  0.1708578E-04  0.2293375E+04  0.7818609E-02  0.8480538E-01
        1   -1    0    0  501    0  0.00000000000E+00  0.00000000000E+00  0.10530636158E+04  0.10530636158E+04  0.50400001928E-02 0.  1.
       -1   -1    0    0    0  501  0.00000000000E+00  0.00000000000E+00 -0.12486356386E+04  0.12486356386E+04  0.50400001928E-02 0. -1.
    10030    2    1    2    0    0  0.00000000000E+00  0.00000000000E+00 -0.19557202273E+03  0.23016992544E+04  0.22933754690E+04 0.  0.
        3    1    3    3  502    0 -0.95690045350E+02  0.36237774598E+03  0.98985321573E+03  0.10584345112E+04  0.10100000352E+00 0.  1.
       -3    1    3    3    0  502  0.95690045350E+02 -0.36237774598E+03 -0.11854252385E+04  0.12432647432E+04  0.10100000352E+00 0. -1.
</event>
<event>
 5   0  0.1708578E-04  0.1806250E+04  0.7818609E-02  0.8702983E-01
       -1   -1    0    0    0  501  0.00000000000E+00  0.00000000000E+00  0.47699582172E+03  0.47699582175E+03  0.50400001928E-02 0. -1.
        1   -1    0    0  501    0  0.00000000000E+00  0.00000000000E+00 -0.17099417201E+04  0.17099417201E+04  0.50400001928E-02 0.  1.
    10030    2    1    2    0    0  0.00000000000E+00  0.00000000000E+00 -0.12329458984E+04  0.21869375419E+04  0.18062503214E+04 0.  0.
        3    1    3    3  502    0  0.46951862395E+03 -0.59367618619E+03 -0.19952353737E+02  0.75716395775E+03  0.10100000352E+00 0. -1.
       -3    1    3    3    0  502 -0.46951862395E+03  0.59367618619E+03 -0.12129935447E+04  0.14297735841E+04  0.10100000352E+00 0.  1.
</event>
<event>
 5   0  0.3387881E-04  0.1917777E+04  0.7818609E-02  0.8646058E-01
       -2   -1    0    0    0  501  0.00000000000E+00  0.00000000000E+00  0.36301926820E+03  0.36301926821E+03  0.25500000920E-02 0. -1.
        2   -1    0    0  501    0  0.00000000000E+00  0.00000000000E+00 -0.25328317494E+04  0.25328317494E+04  0.25500000920E-02 0.  1.
    10030    2    1    2    0    0  0.00000000000E+00  0.00000000000E+00 -0.21698124812E+04  0.28958510176E+04  0.19177765544E+04 0.  0.
        1    1    3    3  502    0 -0.99558314725E+02 -0.95059736199E+03 -0.96872883941E+03  0.13608757353E+04  0.50400001928E-02 0.  1.
       -1    1    3    3    0  502  0.99558314725E+02  0.95059736199E+03 -0.12010836418E+04  0.15349752823E+04  0.50400001928E-02 0. -1.
</event>
<event>
 5   0  0.1664168E-04  0.2061773E+04  0.7818609E-02  0.8578272E-01
       -1   -1    0    0    0  501  0.00000000000E+00  0.00000000000E+00  0.18283606956E+04  0.18283606956E+04  0.50400001928E-02 0. -1.
        1   -1    0    0  501    0  0.00000000000E+00  0.00000000000E+00 -0.58124600799E+03  0.58124600801E+03  0.50400001928E-02 0.  1.
    10030    2    1    2    0    0  0.00000000000E+00  0.00000000000E+00  0.12471146876E+04  0.24096067036E+04  0.20617733682E+04 0.  0.
        5    1    3    3  502    0 -0.97652428806E+03 -0.21002397142E+03  0.32560492116E+03  0.10505952638E+04  0.46999998093E+01 0. -1.
       -5    1    3    3    0  502  0.97652428806E+03  0.21002397142E+03  0.92150976644E+03  0.13590114398E+04  0.46999998093E+01 0.  1.
</event>
<event>
 5   0  0.3387881E-04  0.2044812E+04  0.7818609E-02  0.8585951E-01
       -2   -1    0    0    0  501  0.00000000000E+00  0.00000000000E+00  0.86517994295E+03  0.86517994295E+03  0.25500000920E-02 0. -1.
        2   -1    0    0  501    0  0.00000000000E+00  0.00000000000E+00 -0.12082045316E+04  0.12082045316E+04  0.25500000920E-02 0.  1.
    10030    2    1    2    0    0  0.00000000000E+00  0.00000000000E+00 -0.34302458865E+03  0.20733844745E+04  0.20448122923E+04 0.  0.
        1    1    3    3  502    0  0.30226214391E+03 -0.61263818283E+03 -0.94281616381E+03  0.11642981858E+04  0.50400001928E-02 0.  1.
       -1    1    3    3    0  502 -0.30226214391E+03  0.61263818283E+03  0.59979157516E+03  0.90908628874E+03  0.50400001928E-02 0. -1.
</event>
<event>
 5   0  0.3431030E-04  0.2049686E+04  0.7818609E-02  0.8583737E-01
       -2   -1    0    0    0  501  0.00000000000E+00  0.00000000000E+00  0.63654653384E+03  0.63654653384E+03  0.25500000920E-02 0.  1.
        2   -1    0    0  501    0  0.00000000000E+00  0.00000000000E+00 -0.16500023167E+04  0.16500023167E+04  0.25500000920E-02 0. -1.
    10030    2    1    2    0    0  0.00000000000E+00  0.00000000000E+00 -0.10134557829E+04  0.22865488505E+04  0.20496860789E+04 0.  0.
        3    1    3    3  502    0  0.75609580196E+03 -0.64532668726E+03 -0.22856192096E+03  0.10199842925E+04  0.10100000352E+00 0.  1.
       -3    1    3    3    0  502 -0.75609580196E+03  0.64532668726E+03 -0.78489386190E+03  0.12665645580E+04  0.10100000352E+00 0. -1.
</event>
<event>
 5   0  0.3371947E-04  0.2014557E+04  0.7818609E-02  0.8599845E-01
       -2   -1    0    0    0  501  0.00000000000E+00  0.00000000000E+00  0.61309127518E+03  0.61309127519E+03  0.25500000920E-02 0.  1.
        2   -1    0    0  501    0  0.00000000000E+00  0.00000000000E+00 -0.16549090161E+04  0.16549090161E+04  0.25500000920E-02 0. -1.
    10030    2    1    2    0    0  0.00000000000E+00  0.00000000000E+00 -0.10418177409E+04  0.22680002913E+04  0.20145573003E+04 0.  0.
        2    1    3    3  502    0 -0.25291510556E+03  0.95367230201E+03 -0.74929313460E+03  0.12389096463E+04  0.25500000920E-02 0. -1.
       -2    1    3    3    0  502  0.25291510556E+03 -0.95367230201E+03 -0.29252460634E+03  0.10290906450E+04  0.25500000920E-02 0.  1.
</event>
<event>
 5   0  0.1643565E-04  0.2029872E+04  0.7818609E-02  0.8592780E-01
       -1   -1    0    0    0  501  0.00000000000E+00  0.00000000000E+00  0.82485686211E+03  0.82485686213E+03  0.50400001928E-02 0.  1.
        1   -1    0    0  501    0  0.00000000000E+00  0.00000000000E+00 -0.12488173199E+04  0.12488173199E+04  0.50400001928E-02 0. -1.
    10030    2    1    2    0    0  0.00000000000E+00  0.00000000000E+00 -0.42396045774E+03  0.20736741820E+04  0.20298724451E+04 0.  0.
        2    1    3    3  502    0 -0.22471979962E+03  0.68474939330E+03 -0.94204434196E+03  0.11860979143E+04  0.25500000920E-02 0. -1.
       -2    1    3    3    0  502  0.22471979962E+03 -0.68474939330E+03  0.51808388422E+03  0.88757626774E+03  0.25500000920E-02 0.  1.
</event>
<event>
 5   0  0.3460648E-04  0.1376607E+04  0.7818609E-02  0.8970928E-01
       -2   -1    0    0    0  501  0.00000000000E+00  0.00000000000E+00  0.10389358219E+04  0.10389358219E+04  0.25500000920E-02 0.  1.
        2   -1    0    0  501    0  0.00000000000E+00  0.00000000000E+00 -0.45600668512E+03  0.45600668513E+03  0.25500000920E-02 0. -1.
    10030    2    1    2    0    0  0.00000000000E+00  0.00000000000E+00  0.58292913673E+03  0.14949425070E+04  0.13766069594E+04 0.  0.
        5    1    3    3  502    0  0.27183756363E+03 -0.12635757388E+03  0.96430327581E+03  0.10098340434E+04  0.46999998093E+01 0.  1.
       -5    1    3    3    0  502 -0.27183756363E+03  0.12635757388E+03 -0.38137413908E+03  0.48510846358E+03  0.46999998093E+01 0. -1.
</event>
<event>
 5   0  0.1222488E-04  0.2001670E+04  0.7818609E-02  0.8605840E-01
       -3   -1    0    0    0  501  0.00000000000E+00  0.00000000000E+00  0.46620100335E+03  0.46620101429E+03  0.10100000352E+00 0.  1.
        3   -1    0    0  501    0  0.00000000000E+00  0.00000000000E+00 -0.21485812860E+04  0.21485812884E+04  0.10100000352E+00 0. -1.
    10030    2    1    2    0    0  0.00000000000E+00  0.00000000000E+00 -0.16823802827E+04  0.26147823027E+04  0.20016700715E+04 0.  0.
        5    1    3    3  502    0 -0.46478055577E+03  0.78787349394E+03 -0.31075648151E+03  0.96610418086E+03  0.46999998093E+01 0.  1.
       -5    1    3    3    0  502  0.46478055577E+03 -0.78787349394E+03 -0.13716238012E+04  0.16486781218E+04  0.46999998093E+01 0. -1.
</event>
<event>
 5   0  0.3460648E-04  0.1975308E+04  0.7818609E-02  0.8618253E-01
       -2   -1    0    0    0  501  0.00000000000E+00  0.00000000000E+00  0.15000204037E+04  0.15000204037E+04  0.25500000920E-02 0.  1.
        2   -1    0    0  501    0  0.00000000000E+00  0.00000000000E+00 -0.65029834099E+03  0.65029834099E+03  0.25500000920E-02 0. -1.
    10030    2    1    2    0    0  0.00000000000E+00  0.00000000000E+00  0.84972206267E+03  0.21503187447E+04  0.19753083607E+04 0.  0.
        5    1    3    3  502    0  0.41897902012E+03 -0.39842916307E+03 -0.44679990518E+03  0.73071298234E+03  0.46999998093E+01 0. -1.
       -5    1    3    3    0  502 -0.41897902012E+03  0.39842916307E+03  0.12965219679E+04  0.14196057623E+04  0.46999998093E+01 0.  1.
</event>
<event>
 5   0  0.3387881E-04  0.1995185E+04  0.7818609E-02  0.8608875E-01
       -2   -1    0    0    0  501  0.00000000000E+00  0.00000000000E+00  0.99801510093E+03  0.99801510094E+03  0.25500000920E-02 0. -1.
        2   -1    0    0  501    0  0.00000000000E+00  0.00000000000E+00 -0.99716962634E+03  0.99716962635E+03  0.25500000920E-02 0.  1.
    10030    2    1    2    0    0  0.00000000000E+00  0.00000000000E+00  0.84547458867E+00  0.19951847273E+04  0.19951845481E+04 0.  0.
        1    1    3    3  502    0  0.27608609943E+03 -0.53654160603E+03 -0.79398901318E+03  0.99725572567E+03  0.50400001928E-02 0.  1.
       -1    1    3    3    0  502 -0.27608609943E+03  0.53654160603E+03  0.79483448777E+03  0.99792900162E+03  0.50400001928E-02 0. -1.
</event>
<event>
 5   0  0.3395569E-04  0.1757346E+04  0.7818609E-02  0.8729317E-01
        2   -1    0    0  501    0  0.00000000000E+00  0.00000000000E+00  0.94125209574E+03  0.94125209575E+03  0.25500000920E-02 0. -1.
       -2   -1    0    0    0  501  0.00000000000E+00  0.00000000000E+00 -0.82025477122E+03  0.82025477122E+03  0.25500000920E-02 0.  1.
    10030    2    1    2    0    0  0.00000000000E+00  0.00000000000E+00  0.12099732453E+03  0.17615068670E+04  0.17573463204E+04 0.  0.
        4    1    3    3  502    0  0.31529814377E+03  0.55818866282E+03  0.66281846452E+03  0.92212658164E+03  0.12699999809E+01 0. -1.
       -4    1    3    3    0  502 -0.31529814377E+03 -0.55818866282E+03 -0.54182113999E+03  0.83938028533E+03  0.12699999809E+01 0.  1.
</event>
<event>
 5   0  0.1643565E-04  0.1922006E+04  0.7818609E-02  0.8643979E-01
        1   -1    0    0  501    0  0.00000000000E+00  0.00000000000E+00  0.98703831778E+03  0.98703831779E+03  0.50400001928E-02 0.  1.
       -1   -1    0    0    0  501  0.00000000000E+00  0.00000000000E+00 -0.93565439236E+03  0.93565439237E+03  0.50400001928E-02 0. -1.
    10030    2    1    2    0    0  0.00000000000E+00  0.00000000000E+00  0.51383925415E+02  0.19226927102E+04  0.19220059703E+04 0.  0.
        2    1    3    3  502    0  0.95375972559E+03  0.10960172110E+03 -0.17411552344E+02  0.96019441448E+03  0.25500000920E-02 0.  1.
       -2    1    3    3    0  502 -0.95375972559E+03 -0.10960172110E+03  0.68795477760E+02  0.96249829569E+03  0.25500000920E-02 0. -1.
</event>
<event>
 5   0  0.1643565E-04  0.1993653E+04  0.7818609E-02  0.8609594E-01
        1   -1    0    0  501    0  0.00000000000E+00  0.00000000000E+00  0.12112996322E+04  0.12112996322E+04  0.50400001928E-02 0.  1.
       -1   -1    0    0    0  501  0.00000000000E+00  0.00000000000E+00 -0.82032832828E+03  0.82032832830E+03  0.50400001928E-02 0. -1.
    10030    2    1    2    0    0  0.00000000000E+00  0.00000000000E+00  0.39097130387E+03  0.20316279605E+04  0.19936533323E+04 0.  0.
        2    1    3    3  502    0  0.56606681928E+03 -0.32981434240E+03  0.96109797483E+03  0.11631502317E+04  0.25500000920E-02 0.  1.
       -2    1    3    3    0  502 -0.56606681928E+03  0.32981434240E+03 -0.57012667096E+03  0.86847772873E+03  0.25500000920E-02 0. -1.
</event>
<event>
 5   0  0.3460648E-04  0.2104617E+04  0.7818609E-02  0.8559212E-01
       -2   -1    0    0    0  501  0.00000000000E+00  0.00000000000E+00  0.80707320557E+03  0.80707320558E+03  0.25500000920E-02 0. -1.
        2   -1    0    0  501    0  0.00000000000E+00  0.00000000000E+00 -0.13720607771E+04  0.13720607771E+04  0.25500000920E-02 0.  1.
    10030    2    1    2    0    0  0.00000000000E+00  0.00000000000E+00 -0.56498757151E+03  0.21791339827E+04  0.21046172950E+04 0.  0.
        5    1    3    3  502    0 -0.51141789599E+03  0.21624894892E+03 -0.12080216431E+04  0.13295300871E+04  0.46999998093E+01 0.  1.
       -5    1    3    3    0  502  0.51141789599E+03 -0.21624894892E+03  0.64303407157E+03  0.84960389561E+03  0.46999998093E+01 0. -1.
</event>
<event>
 5   0  0.3431030E-04  0.2011383E+04  0.7818609E-02  0.8601317E-01
       -2   -1    0    0    0  501  0.00000000000E+00  0.00000000000E+00  0.16468339377E+04  0.16468339377E+04  0.25500000920E-02 0. -1.
        2   -1    0    0  501    0  0.00000000000E+00  0.00000000000E+00 -0.61415770891E+03  0.61415770891E+03  0.25500000920E-02 0.  1.
    10030    2    1    2    0    0  0.00000000000E+00  0.00000000000E+00  0.10326762288E+04  0.22609916467E+04  0.20113833629E+04 0.  0.
        3    1    3    3  502    0 -0.68376160909E+02  0.15155621336E+03 -0.59860099115E+03  0.62126302159E+03  0.10100000352E+00 0.  1.
       -3    1    3    3    0  502  0.68376160909E+02 -0.15155621336E+03  0.16312772200E+04  0.16397286251E+04  0.10100000352E+00 0. -1.
</event>
<event>
 5   0  0.1643565E-04  0.1984837E+04  0.7818609E-02  0.8613743E-01
       -1   -1    0    0    0  501  0.00000000000E+00  0.00000000000E+00  0.14157139306E+04  0.14157139306E+04  0.50400001928E-02 0.  1.
        1   -1    0    0  501    0  0.00000000000E+00  0.00000000000E+00 -0.69568777400E+03  0.69568777402E+03  0.50400001928E-02 0. -1.
    10030    2    1    2    0    0  0.00000000000E+00  0.00000000000E+00  0.72002615663E+03  0.21114017047E+04  0.19848373969E+04 0.  0.
        2    1    3    3  502    0  0.10166452412E+03 -0.27760382163E+03  0.13677844783E+04  0.13993691208E+04  0.25500000920E-02 0.  1.
       -2    1    3    3    0  502 -0.10166452412E+03  0.27760382163E+03 -0.64775832163E+03  0.71203258387E+03  0.25500000920E-02 0. -1.
</event>
<event>
 5   0  0.3395569E-04  0.1997142E+04  0.7818609E-02  0.8607958E-01
       -2   -1    0    0    0  501  0.00000000000E+00  0.00000000000E+00  0.10581499761E+04  0.10581499761E+04  0.25500000920E-02 0. -1.
        2   -1    0    0  501    0  0.00000000000E+00  0.00000000000E+00 -0.94234637988E+03  0.94234637988E+03  0.25500000920E-02 0.  1.
    10030    2    1    2    0    0  0.00000000000E+00  0.00000000000E+00  0.11580359617E+03  0.20004963559E+04  0.19971417569E+04 0.  0.
        4    1    3    3  502    0 -0.14876480656E+03 -0.97882727581E+03 -0.72348854880E+02  0.99270830219E+03  0.12699999809E+01 0.  1.
       -4    1    3    3    0  502  0.14876480656E+03  0.97882727581E+03  0.18815245105E+03  0.10077880537E+04  0.12699999809E+01 0. -1.
</event>
<event>
 5   0  0.1696052E-04  0.2113413E+04  0.7818609E-02  0.8555358E-01
        1   -1    0    0  501    0  0.00000000000E+00  0.00000000000E+00  0.19314914695E+04  0.19314914695E+04  0.50400001928E-02 0. -1.
       -1   -1    0    0    0  501  0.00000000000E+00  0.00000000000E+00 -0.57811709222E+03  0.57811709224E+03  0.50400001928E-02 0.  1.
    10030    2    1    2    0    0  0.00000000000E+00  0.00000000000E+00  0.13533743773E+04  0.25096085617E+04  0.21134126261E+04 0.  0.
        4    1    3    3  502    0  0.61648099907E+03 -0.60077313019E+03  0.14044888862E+04  0.16472910552E+04  0.12699999809E+01 0. -1.
       -4    1    3    3    0  502 -0.61648099907E+03  0.60077313019E+03 -0.51114508927E+02  0.86231750654E+03  0.12699999809E+01 0.  1.
</event>
<event>
 5   0  0.1708578E-04  0.1947632E+04  0.7818609E-02  0.8631504E-01
       -1   -1    0    0    0  501  0.00000000000E+00  0.00000000000E+00  0.40492699165E+03  0.40492699168E+03  0.50400001928E-02 0.  1.
        1   -1    0    0  501    0  0.00000000000E+00  0.00000000000E+00 -0.23419469155E+04  0.23419469155E+04  0.50400001928E-02 0. -1.
    10030    2    1    2    0    0  0.00000000000E+00  0.00000000000E+00 -0.19370199239E+04  0.27468739072E+04  0.19476319151E+04 0.  0.
        3    1    3    3  502    0 -0.32004742014E+03 -0.54109760130E+03 -0.20174094758E+04  0.21130920398E+04  0.10100000352E+00 0. -1.
       -3    1    3    3    0  502  0.32004742014E+03  0.54109760130E+03  0.80389551900E+02  0.63378186746E+03  0.10100000352E+00 0.  1.
</event>
<event>
 5   0  0.3387881E-04  0.2024669E+04  0.7818609E-02  0.8595173E-01
       -2   -1    0    0    0  501  0.00000000000E+00  0.00000000000E+00  0.15366790499E+04  0.15366790499E+04  0.25500000920E-02 0.  1.
        2   -1    0    0  501    0  0.00000000000E+00  0.00000000000E+00 -0.66690669381E+03  0.66690669382E+03  0.25500000920E-02 0. -1.
    10030    2    1    2    0    0  0.00000000000E+00  0.00000000000E+00  0.86977235608E+03  0.22035857437E+04  0.20246693998E+04 0.  0.
        1    1    3    3  502    0  0.26613286032E+03  0.30138442889E+03 -0.57627889348E+03  0.70267818837E+03  0.50400001928E-02 0. -1.
       -1    1    3    3    0  502 -0.26613286032E+03 -0.30138442889E+03  0.14460512496E+04  0.15009075553E+04  0.50400001928E-02 0.  1.
</event>
<event>
 5   0  0.1643565E-04  0.1600917E+04  0.7818609E-02  0.8819985E-01
       -1   -1    0    0    0  501  0.00000000000E+00  0.00000000000E+00  0.44058068253E+03  0.44058068256E+03  0.50400001928E-02 0.  1.
        1   -1    0    0  501    0  0.00000000000E+00  0.00000000000E+00 -0.14542934520E+04  0.14542934520E+04  0.50400001928E-02 0. -1.
    10030    2    1    2    0    0  0.00000000000E+00  0.00000000000E+00 -0.10137127695E+04  0.18948741346E+04  0.16009167395E+04 0.  0.
        2    1    3    3  502    0 -0.47458516644E+03  0.62123087975E+03 -0.30330600820E+03  0.83854243826E+03  0.25500000920E-02 0.  1.
       -2    1    3    3    0  502  0.47458516644E+03 -0.62123087975E+03 -0.71040676127E+03  0.10563316963E+04  0.25500000920E-02 0. -1.
</event>
<event>
 5   0  0.3387881E-04  0.1950942E+04  0.7818609E-02  0.8629907E-01
        2   -1    0    0  501    0  0.00000000000E+00  0.00000000000E+00  0.12827307880E+04  0.12827307880E+04  0.25500000920E-02 0.  1.
       -2   -1    0    0    0  501  0.00000000000E+00  0.00000000000E+00 -0.74181105480E+03  0.74181105481E+03  0.25500000920E-02 0. -1.
    10030    2    1    2    0    0  0.00000000000E+00  0.00000000000E+00  0.54091973322E+03  0.20245418428E+04  0.19509422123E+04 0.  0.
        1    1    3    3  502    0  0.14289684720E+03  0.85453959402E+03  0.73557200731E+03  0.11365401905E+04  0.50400001928E-02 0. -1.
       -1    1    3    3    0  502 -0.14289684720E+03 -0.85453959402E+03 -0.19465227409E+03  0.88800165232E+03  0.50400001928E-02 0.  1.
</event>
<event>
 5   0  0.3431030E-04  0.1342029E+04  0.7818609E-02  0.8996884E-01
       -2   -1    0    0    0  501  0.00000000000E+00  0.00000000000E+00  0.57981615901E+03  0.57981615902E+03  0.25500000920E-02 0.  1.
        2   -1    0    0  501    0  0.00000000000E+00  0.00000000000E+00 -0.77655671458E+03  0.77655671458E+03  0.25500000920E-02 0. -1.
    10030    2    1    2    0    0  0.00000000000E+00  0.00000000000E+00 -0.19674055556E+03  0.13563728736E+04  0.13420285116E+04 0.  0.
        3    1    3    3  502    0 -0.22430191082E+03 -0.56708742595E+03  0.18455144886E+03  0.63714891772E+03  0.10100000352E+00 0. -1.
       -3    1    3    3    0  502  0.22430191082E+03  0.56708742595E+03 -0.38129200442E+03  0.71922395588E+03  0.10100000352E+00 0.  1.
</event>
<event>
 5   0  0.1650221E-04  0.2036968E+04  0.7818609E-02  0.8589529E-01
       -1   -1    0    0    0  501  0.00000000000E+00  0.00000000000E+00  0.67183535522E+03  0.67183535524E+03  0.50400001928E-02 0. -1.
        1   -1    0    0  501    0  0.00000000000E+00  0.00000000000E+00 -0.15439944476E+04  0.15439944477E+04  0.50400001928E-02 0.  1.
    10030    2    1    2    0    0  0.00000000000E+00  0.00000000000E+00 -0.87215909243E+03  0.22158298029E+04  0.20369683927E+04 0.  0.
        1    1    3    3  502    0 -0.35026932443E+03  0.28876396751E+02  0.60378014165E+03  0.69862214781E+03  0.50400001928E-02 0. -1.
       -1    1    3    3    0  502  0.35026932443E+03 -0.28876396751E+02 -0.14759392341E+04  0.15172076551E+04  0.50400001928E-02 0.  1.
</event>
<event>
 5   0  0.1650221E-04  0.1635857E+04  0.7818609E-02  0.8798818E-01
        1   -1    0    0  501    0  0.00000000000E+00  0.00000000000E+00  0.12130385041E+04  0.12130385042E+04  0.50400001928E-02 0. -1.
       -1   -1    0    0    0  501  0.00000000000E+00  0.00000000000E+00 -0.55151338512E+03  0.55151338514E+03  0.50400001928E-02 0.  1.
    10030    2    1    2    0    0  0.00000000000E+00  0.00000000000E+00  0.66152511902E+03  0.17645518893E+04  0.16358569274E+04 0.  0.
        1    1    3    3  502    0 -0.78100013747E+03  0.24261831322E+03  0.31620604850E+03  0.87681875309E+03  0.50400001928E-02 0.  1.
       -1    1    3    3    0  502  0.78100013747E+03 -0.24261831322E+03  0.34531907052E+03  0.88773313621E+03  0.50400001928E-02 0. -1.
</event>
<event>
 5   0  0.3387881E-04  0.2007741E+04  0.7818609E-02  0.8603010E-01
        2   -1    0    0  501    0  0.00000000000E+00  0.00000000000E+00  0.13765830414E+04  0.13765830414E+04  0.25500000920E-02 0.  1.
       -2   -1    0    0    0  501  0.00000000000E+00  0.00000000000E+00 -0.73207025061E+03  0.73207025061E+03  0.25500000920E-02 0. -1.
    10030    2    1    2    0    0  0.00000000000E+00  0.00000000000E+00  0.64451279078E+03  0.21086532920E+04  0.20077405132E+04 0.  0.
        1    1    3    3  502    0  0.13168725476E+03 -0.39269157676E+03  0.12826617418E+04  0.13478758665E+04  0.50400001928E-02 0.  1.
       -1    1    3    3    0  502 -0.13168725476E+03  0.39269157676E+03 -0.63814895101E+03  0.76077742554E+03  0.50400001928E-02 0. -1.
</event>
<event>
 5   0  0.1643565E-04  0.2074021E+04  0.7818609E-02  0.8572775E-01
        1   -1    0    0  501    0  0.00000000000E+00  0.00000000000E+00  0.14416532176E+04  0.14416532176E+04  0.50400001928E-02 0.  1.
       -1   -1    0    0    0  501  0.00000000000E+00  0.00000000000E+00 -0.74594261520E+03  0.74594261521E+03  0.50400001928E-02 0. -1.
    10030    2    1    2    0    0  0.00000000000E+00  0.00000000000E+00  0.69571060245E+03  0.21875958329E+04  0.20740208016E+04 0.  0.
        2    1    3    3  502    0  0.99855599206E+03  0.17765286335E+03  0.57582998870E+03  0.11662996120E+04  0.25500000920E-02 0.  1.
       -2    1    3    3    0  502 -0.99855599206E+03 -0.17765286335E+03  0.11988061374E+03  0.10212962208E+04  0.25500000920E-02 0. -1.
</event>
<event>
 5   0  0.1650221E-04  0.1989987E+04  0.7818609E-02  0.8611317E-01
       -1   -1    0    0    0  501  0.00000000000E+00  0.00000000000E+00  0.12198006938E+04  0.12198006938E+04  0.50400001928E-02 0. -1.
        1   -1    0    0  501    0  0.00000000000E+00  0.00000000000E+00 -0.81161764627E+03  0.81161764629E+03  0.50400001928E-02 0.  1.
    10030    2    1    2    0    0  0.00000000000E+00  0.00000000000E+00  0.40818304748E+03  0.20314183401E+04  0.19899867015E+04 0.  0.
        1    1    3    3  502    0 -0.10045566374E+03 -0.28304829784E+03  0.11724210533E+04  0.12102804656E+04  0.50400001928E-02 0. -1.
       -1    1    3    3    0  502  0.10045566374E+03  0.28304829784E+03 -0.76423800580E+03  0.82113787443E+03  0.50400001928E-02 0.  1.
</event>
<event>
 5   0  0.3431030E-04  0.1426743E+04  0.7818609E-02  0.8934685E-01
       -2   -1    0    0    0  501  0.00000000000E+00  0.00000000000E+00  0.28018966352E+03  0.28018966354E+03  0.25500000920E-02 0.  1.
        2   -1    0    0  501    0  0.00000000000E+00  0.00000000000E+00 -0.18162652244E+04  0.18162652244E+04  0.25500000920E-02 0. -1.
    10030    2    1    2    0    0  0.00000000000E+00  0.00000000000E+00 -0.15360755608E+04  0.20964548879E+04  0.14267427828E+04 0.  0.
        3    1    3    3  502    0  0.62048916680E+03  0.14511312907E+03 -0.12392411904E+04  0.13934788712E+04  0.10100000352E+00 0. -1.
       -3    1    3    3    0  502 -0.62048916680E+03 -0.14511312907E+03 -0.29683437041E+03  0.70297601666E+03  0.10100000352E+00 0.  1.
</event>
<event>
 5   0  0.1696052E-04  0.2061190E+04  0.7818609E-02  0.8578535E-01
        1   -1    0    0  501    0  0.00000000000E+00  0.00000000000E+00  0.15929718111E+04  0.15929718111E+04  0.50400001928E-02 0. -1.
       -1   -1    0    0    0  501  0.00000000000E+00  0.00000000000E+00 -0.66675748571E+03  0.66675748573E+03  0.50400001928E-02 0.  1.
    10030    2    1    2    0    0  0.00000000000E+00  0.00000000000E+00  0.92621432541E+03  0.22597292969E+04  0.20611898308E+04 0.  0.
        4    1    3    3  502    0  0.83695081706E+03 -0.47683100203E+03  0.86483098217E+03  0.12945225820E+04  0.12699999809E+01 0. -1.
       -4    1    3    3    0  502 -0.83695081706E+03  0.47683100203E+03  0.61383343243E+02  0.96520671486E+03  0.12699999809E+01 0.  1.
</event>
<event>
 5   0  0.1650221E-04  0.1992108E+04  0.7818609E-02  0.8610319E-01
        1   -1    0    0  501    0  0.00000000000E+00  0.00000000000E+00  0.70923910886E+03  0.70923910888E+03  0.50400001928E-02 0.  1.
       -1   -1    0    0    0  501  0.00000000000E+00  0.00000000000E+00 -0.13988560545E+04  0.13988560545E+04  0.50400001928E-02 0. -1.
    10030    2    1    2    0    0  0.00000000000E+00  0.00000000000E+00 -0.68961694567E+03  0.21080951634E+04  0.19921078501E+04 0.  0.
        1    1    3    3  502    0  0.63946920297E+02  0.98713732325E+03 -0.46819077859E+03  0.10944093881E+04  0.50400001928E-02 0. -1.
       -1    1    3    3    0  502 -0.63946920297E+02 -0.98713732325E+03 -0.22142616708E+03  0.10136857753E+04  0.50400001928E-02 0.  1.
</event>
<event>
 5   0  0.1650221E-04  0.1784551E+04  0.7818609E-02  0.8714559E-01
        1   -1    0    0  501    0  0.00000000000E+00  0.00000000000E+00  0.76644557723E+03  0.76644557724E+03  0.50400001928E-02 0.  1.
       -1   -1    0    0    0  501  0.00000000000E+00  0.00000000000E+00 -0.10387630782E+04  0.10387630782E+04  0.50400001928E-02 0. -1.
    10030    2    1    2    0    0  0.00000000000E+00  0.00000000000E+00 -0.27231750093E+03  0.18052086554E+04  0.17845507749E+04 0.  0.
        1    1    3    3  502    0  0.22397102200E+03 -0.66079639968E+02  0.73498719870E+03  0.77119110458E+03  0.50400001928E-02 0.  1.
       -1    1    3    3    0  502 -0.22397102200E+03  0.66079639968E+02 -0.10073046996E+04  0.10340175508E+04  0.50400001928E-02 0. -1.
</event>
<event>
 5   0  0.3371947E-04  0.2011785E+04  0.7818609E-02  0.8601130E-01
       -2   -1    0    0    0  501  0.00000000000E+00  0.00000000000E+00  0.63616758738E+03  0.63616758738E+03  0.25500000920E-02 0.  1.
        2   -1    0    0  501    0  0.00000000000E+00  0.00000000000E+00 -0.15904930762E+04  0.15904930763E+04  0.25500000920E-02 0. -1.
    10030    2    1    2    0    0  0.00000000000E+00  0.00000000000E+00 -0.95432548887E+03  0.22266606636E+04  0.20117854190E+04 0.  0.
        2    1    3    3  502    0  0.48159272665E+02  0.37030607046E+03 -0.15109324418E+04  0.15563941484E+04  0.25500000920E-02 0. -1.
       -2    1    3    3    0  502 -0.48159272665E+02 -0.37030607046E+03  0.55660695296E+03  0.67026651524E+03  0.25500000920E-02 0.  1.
</event>
<event>
 5   0  0.3395569E-04  0.1971196E+04  0.7818609E-02  0.8620207E-01
       -2   -1    0    0    0  501  0.00000000000E+00  0.00000000000E+00  0.62631541913E+03  0.62631541914E+03  0.25500000920E-02 0. -1.
        2   -1    0    0  501    0  0.00000000000E+00  0.00000000000E+00 -0.15509814471E+04  0.15509814471E+04  0.25500000920E-02 0.  1.
    10030    2    1    2    0    0  0.00000000000E+00  0.00000000000E+00 -0.92466602796E+03  0.21772968662E+04  0.19711961801E+04 0.  0.
        4    1    3    3  502    0  0.32811740279E+03  0.49292216790E+03  0.40793435575E+03  0.71905865208E+03  0.12699999809E+01 0. -1.
       -4    1    3    3    0  502 -0.32811740279E+03 -0.49292216790E+03 -0.13326003837E+04  0.14582382141E+04  0.12699999809E+01 0.  1.
</event>
<event>
 5   0  0.3431030E-04  0.1982648E+04  0.7818609E-02  0.8614777E-01
       -2   -1    0    0    0  501  0.00000000000E+00  0.00000000000E+00  0.12888845134E+04  0.12888845134E+04  0.25500000920E-02 0.  1.
        2   -1    0    0  501    0  0.00000000000E+00  0.00000000000E+00 -0.76245999905E+03  0.76245999905E+03  0.25500000920E-02 0. -1.
    10030    2    1    2    0    0  0.00000000000E+00  0.00000000000E+00  0.52642451435E+03  0.20513445125E+04  0.19826476085E+04 0.  0.
        3    1    3    3  502    0  0.40627478537E+03  0.36107789603E+03  0.11209646868E+04  0.12457922329E+04  0.10100000352E+00 0.  1.
       -3    1    3    3    0  502 -0.40627478537E+03 -0.36107789603E+03 -0.59454017247E+03  0.80555227956E+03  0.10100000352E+00 0. -1.
</event>
<event>
 5   0  0.1708578E-04  0.1854862E+04  0.7818609E-02  0.8677657E-01
       -1   -1    0    0    0  501  0.00000000000E+00  0.00000000000E+00  0.11248074305E+04  0.11248074305E+04  0.50400001928E-02 0. -1.
        1   -1    0    0  501    0  0.00000000000E+00  0.00000000000E+00 -0.76468908847E+03  0.76468908849E+03  0.50400001928E-02 0.  1.
    10030    2    1    2    0    0  0.00000000000E+00  0.00000000000E+00  0.36011834202E+03  0.18894965190E+04  0.18548616862E+04 0.  0.
        3    1    3    3  502    0  0.37641806499E+03 -0.67517036238E+03  0.70205538886E+03  0.10442352978E+04  0.10100000352E+00 0. -1.
       -3    1    3    3    0  502 -0.37641806499E+03  0.67517036238E+03 -0.34193704684E+03  0.84526122122E+03  0.10100000352E+00 0.  1.
</event>
<event>
 5   0  0.3460648E-04  0.1254364E+04  0.7818609E-02  0.9066559E-01
        2   -1    0    0  501    0  0.00000000000E+00  0.00000000000E+00  0.15518091468E+04  0.15518091468E+04  0.25500000920E-02 0.  1.
       -2   -1    0    0    0  501  0.00000000000E+00  0.00000000000E+00 -0.25348306179E+03  0.25348306180E+03  0.25500000920E-02 0. -1.
    10030    2    1    2    0    0  0.00000000000E+00  0.00000000000E+00  0.12983260851E+04  0.18052922086E+04  0.12543641160E+04 0.  0.
        5    1    3    3  502    0 -0.42892138181E+03 -0.19084630567E+02 -0.87892426635E+01  0.42946142514E+03  0.46999998093E+01 0. -1.
       -5    1    3    3    0  502  0.42892138181E+03  0.19084630567E+02  0.13071153277E+04  0.13758307835E+04  0.46999998093E+01 0.  1.
</event>
<event>
 5   0  0.3371947E-04  0.2014605E+04  0.7818609E-02  0.8599822E-01
        2   -1    0    0  501    0  0.00000000000E+00  0.00000000000E+00  0.10864772403E+04  0.10864772403E+04  0.25500000920E-02 0.  1.
       -2   -1    0    0    0  501  0.00000000000E+00  0.00000000000E+00 -0.93389779704E+03  0.93389779704E+03  0.25500000920E-02 0. -1.
    10030    2    1    2    0    0  0.00000000000E+00  0.00000000000E+00  0.15257944326E+03  0.20203750374E+04  0.20146053720E+04 0.  0.
        2    1    3    3  502    0  0.73049073507E+03  0.53726058540E+03 -0.36359279063E+03  0.97696743449E+03  0.25500000920E-02 0. -1.
       -2    1    3    3    0  502 -0.73049073507E+03 -0.53726058540E+03  0.51617223390E+03  0.10434076029E+04  0.25500000920E-02 0.  1.
</event>
<event>
 5   0  0.1708578E-04  0.2017230E+04  0.7818609E-02  0.8598607E-01
        1   -1    0    0  501    0  0.00000000000E+00  0.00000000000E+00  0.11016691174E+04  0.11016691174E+04  0.50400001928E-02 0. -1.
       -1   -1    0    0    0  501  0.00000000000E+00  0.00000000000E+00 -0.92342049680E+03  0.92342049681E+03  0.50400001928E-02 0.  1.
    10030    2    1    2    0    0  0.00000000000E+00  0.00000000000E+00  0.17824862055E+03  0.20250896142E+04  0.20172296287E+04 0.  0.
        3    1    3    3  502    0 -0.29826309040E+03  0.15288709711E+03 -0.86588067528E+03  0.92848515851E+03  0.10100000352E+00 0.  1.
       -3    1    3    3    0  502  0.29826309040E+03 -0.15288709711E+03  0.10441292958E+04  0.10966044557E+04  0.10100000352E+00 0. -1.
</event>
<event>
 5   0  0.3460648E-04  0.2015994E+04  0.7818609E-02  0.8599179E-01
        2   -1    0    0  501    0  0.00000000000E+00  0.00000000000E+00  0.16700204385E+04  0.16700204385E+04  0.25500000920E-02 0.  1.
       -2   -1    0    0    0  501  0.00000000000E+00  0.00000000000E+00 -0.60841028601E+03  0.60841028602E+03  0.25500000920E-02 0. -1.
    10030    2    1    2    0    0  0.00000000000E+00  0.00000000000E+00  0.10616101525E+04  0.22784307246E+04  0.20159936633E+04 0.  0.
        5    1    3    3  502    0 -0.82049320286E+03  0.57260104586E+03  0.66901275225E+03  0.12036117340E+04  0.46999998093E+01 0.  1.
       -5    1    3    3    0  502  0.82049320286E+03 -0.57260104586E+03  0.39259740027E+03  0.10748189905E+04  0.46999998093E+01 0. -1.
</event>
<event>
 5   0  0.1222488E-04  0.2026723E+04  0.7818609E-02  0.8594228E-01
        3   -1    0    0  501    0  0.00000000000E+00  0.00000000000E+00  0.61398591174E+03  0.61398592005E+03  0.10100000352E+00 0.  1.
       -3   -1    0    0    0  501  0.00000000000E+00  0.00000000000E+00 -0.16725158971E+04  0.16725159002E+04  0.10100000352E+00 0. -1.
    10030    2    1    2    0    0  0.00000000000E+00  0.00000000000E+00 -0.10585299854E+04  0.22865018202E+04  0.20267226855E+04 0.  0.
        4    1    3    3  502    0  0.68627372201E+03 -0.33421106443E+03 -0.12812022862E+04  0.14913582963E+04  0.12699999809E+01 0. -1.
       -4    1    3    3    0  502 -0.68627372201E+03  0.33421106443E+03  0.22267230080E+03  0.79514352387E+03  0.12699999809E+01 0.  1.
</event>
<event>
 5   0  0.3460648E-04  0.2120474E+04  0.7818609E-02  0.8552278E-01
       -2   -1    0    0    0  501  0.00000000000E+00  0.00000000000E+00  0.91062258141E+03  0.91062258141E+03  0.25500000920E-02 0. -1.
        2   -1    0    0  501    0  0.00000000000E+00  0.00000000000E+00 -0.12344331417E+04  0.12344331417E+04  0.25500000920E-02 0.  1.
    10030    2    1    2    0    0  0.00000000000E+00  0.00000000000E+00 -0.32381056031E+03  0.21450557231E+04  0.21204741867E+04 0.  0.
        5    1    3    3  502    0 -0.90161123490E+02 -0.97297483961E+03 -0.57810095041E+03  0.11353553917E+04  0.46999998093E+01 0.  1.
       -5    1    3    3    0  502  0.90161123490E+02  0.97297483961E+03  0.25429039010E+03  0.10097003314E+04  0.46999998093E+01 0. -1.
</event>
<event>
 5   0  0.3387881E-04  0.1504386E+04  0.7818609E-02  0.8881541E-01
       -2   -1    0    0    0  501  0.00000000000E+00  0.00000000000E+00  0.29095370502E+03  0.29095370503E+03  0.25500000920E-02 0.  1.
        2   -1    0    0  501    0  0.00000000000E+00  0.00000000000E+00 -0.19446198107E+04  0.19446198107E+04  0.25500000920E-02 0. -1.
    10030    2    1    2    0    0  0.00000000000E+00  0.00000000000E+00 -0.16536661056E+04  0.22355735157E+04  0.15043860393E+04 0.  0.
        1    1    3    3  502    0 -0.28786052447E+03  0.68037322249E+03 -0.61655520000E+03  0.96224306602E+03  0.50400001928E-02 0.  1.
       -1    1    3    3    0  502  0.28786052447E+03 -0.68037322249E+03 -0.10371109056E+04  0.12733304497E+04  0.50400001928E-02 0. -1.
</event>
<event>
 5   0  0.3395569E-04  0.2049114E+04  0.7818609E-02  0.8583996E-01
       -2   -1    0    0    0  501  0.00000000000E+00  0.00000000000E+00  0.65477480616E+03  0.65477480616E+03  0.25500000920E-02 0. -1.
        2   -1    0    0  501    0  0.00000000000E+00  0.00000000000E+00 -0.16031724431E+04  0.16031724431E+04  0.25500000920E-02 0.  1.
    10030    2    1    2    0    0  0.00000000000E+00  0.00000000000E+00 -0.94839763690E+03  0.22579472492E+04  0.20491138823E+04 0.  0.
        4    1    3    3  502    0 -0.39072651141E+03  0.30967354683E+03 -0.14604890302E+04  0.15432416313E+04  0.12699999809E+01 0.  1.
       -4    1    3    3    0  502  0.39072651141E+03 -0.30967354683E+03  0.51209139330E+03  0.71470561794E+03  0.12699999809E+01 0. -1.
</event>
<event>
 5   0  0.1708578E-04  0.2036673E+04  0.7818609E-02  0.8589664E-01
        1   -1    0    0  501    0  0.00000000000E+00  0.00000000000E+00  0.14254825615E+04  0.14254825615E+04  0.50400001928E-02 0.  1.
       -1   -1    0    0    0  501  0.00000000000E+00  0.00000000000E+00 -0.72747953114E+03  0.72747953115E+03  0.50400001928E-02 0. -1.
    10030    2    1    2    0    0  0.00000000000E+00  0.00000000000E+00  0.69800303040E+03  0.21529620927E+04  0.20366731555E+04 0.  0.
        3    1    3    3  502    0 -0.78920764557E+03  0.53905699954E+02  0.10269091994E+04  0.12962627227E+04  0.10100000352E+00 0.  1.
       -3    1    3    3    0  502  0.78920764557E+03 -0.53905699954E+02 -0.32890616900E+03  0.85669936998E+03  0.10100000352E+00 0. -1.
</event>
<event>
 5   0  0.1696052E-04  0.2060452E+04  0.7818609E-02  0.8578867E-01
       -1   -1    0    0    0  501  0.00000000000E+00  0.00000000000E+00  0.14247145620E+04  0.14247145620E+04  0.50400001928E-02 0.  1.
        1   -1    0    0  501    0  0.00000000000E+00  0.00000000000E+00 -0.74496750145E+03  0.74496750146E+03  0.50400001928E-02 0. -1.
    10030    2    1    2    0    0  0.00000000000E+00  0.00000000000E+00  0.67974706058E+03  0.21696820635E+04  0.20604524237E+04 0.  0.
        4    1    3    3  502    0 -0.37205354388E+03  0.73869140281E+03 -0.30691583537E+03  0.88220619529E+03  0.12699999809E+01 0. -1.
       -4    1    3    3    0  502  0.37205354388E+03 -0.73869140281E+03  0.98666289595E+03  0.12874758682E+04  0.12699999809E+01 0.  1.
</event>
<event>
 5   0  0.3387881E-04  0.1559695E+04  0.7818609E-02  0.8845699E-01
       -2   -1    0    0    0  501  0.00000000000E+00  0.00000000000E+00  0.37547150131E+03  0.37547150132E+03  0.25500000920E-02 0. -1.
        2   -1    0    0  501    0  0.00000000000E+00  0.00000000000E+00 -0.16197281479E+04  0.16197281480E+04  0.25500000920E-02 0.  1.
    10030    2    1    2    0    0  0.00000000000E+00  0.00000000000E+00 -0.12442566466E+04  0.19951996493E+04  0.15596945335E+04 0.  0.
        1    1    3    3  502    0  0.36276094804E+03 -0.37078067585E+03 -0.13670369170E+04  0.14621435455E+04  0.50400001928E-02 0.  1.
       -1    1    3    3    0  502 -0.36276094804E+03  0.37078067585E+03  0.12278027038E+03  0.53305610382E+03  0.50400001928E-02 0. -1.
</event>
<event>
 5   0  0.1650221E-04  0.2007079E+04  0.7818609E-02  0.8603318E-01
        1   -1    0    0  501    0  0.00000000000E+00  0.00000000000E+00  0.18993664858E+04  0.18993664858E+04  0.50400001928E-02 0. -1.
       -1   -1    0    0    0  501  0.00000000000E+00  0.00000000000E+00 -0.53022474785E+03  0.53022474787E+03  0.50400001928E-02 0.  1.
    10030    2    1    2    0    0  0.00000000000E+00  0.00000000000E+00  0.13691417379E+04  0.24295912336E+04  0.20070785894E+04 0.  0.
        1    1    3    3  502    0  0.74129241771E+03 -0.65938387941E+03  0.50182950132E+03  0.11118158109E+04  0.50400001928E-02 0.  1.
       -1    1    3    3    0  502 -0.74129241771E+03  0.65938387941E+03  0.86731223659E+03  0.13177754227E+04  0.50400001928E-02 0. -1.
</event>
<event>
 5   0  0.3395569E-04  0.2009215E+04  0.7818609E-02  0.8602325E-01
        2   -1    0    0  501    0  0.00000000000E+00  0.00000000000E+00  0.13540785144E+04  0.13540785144E+04  0.25500000920E-02 0.  1.
       -2   -1    0    0    0  501  0.00000000000E+00  0.00000000000E+00 -0.74533051550E+03  0.74533051550E+03  0.25500000920E-02 0. -1.
    10030    2    1    2    0    0  0.00000000000E+00  0.00000000000E+00  0.60874799893E+03  0.20994090299E+04  0.20092148090E+04 0.  0.
        4    1    3    3  502    0 -0.44680054025E+03 -0.65609519530E+03  0.94776072278E+03  0.12362619579E+04  0.12699999809E+01 0.  1.
       -4    1    3    3    0  502  0.44680054025E+03  0.65609519530E+03 -0.33901272386E+03  0.86314707200E+03  0.12699999809E+01 0. -1.
</event>
<event>
 5   0  0.3460648E-04  0.1744712E+04  0.7818609E-02  0.8736267E-01
       -2   -1    0    0    0  501  0.00000000000E+00  0.00000000000E+00  0.63616753073E+03  0.63616753073E+03  0.25500000920E-02 0.  1.
        2   -1    0    0  501    0  0.00000000000E+00  0.00000000000E+00 -0.11962330290E+04  0.11962330290E+04  0.25500000920E-02 0. -1.
    10030    2    1    2    0    0  0.00000000000E+00  0.00000000000E+00 -0.56006549828E+03  0.18324005598E+04  0.17447115661E+04 0.  0.
        5    1    3    3  502    0  0.72527904181E+03  0.16746244862E+03  0.19770178523E+03  0.77018273550E+03  0.46999998093E+01 0.  1.
       -5    1    3    3    0  502 -0.72527904181E+03 -0.16746244862E+03 -0.75776728352E+03  0.10622178242E+04  0.46999998093E+01 0. -1.
</event>
<event>
 5   0  0.3460648E-04  0.2046523E+04  0.7818609E-02  0.8585173E-01
       -2   -1    0    0    0  501  0.00000000000E+00  0.00000000000E+00  0.15261911066E+04  0.15261911066E+04  0.25500000920E-02 0. -1.
        2   -1    0    0  501    0  0.00000000000E+00  0.00000000000E+00 -0.68606366739E+03  0.68606366740E+03  0.25500000920E-02 0.  1.
    10030    2    1    2    0    0  0.00000000000E+00  0.00000000000E+00  0.84012743919E+03  0.22122547740E+04  0.20465231665E+04 0.  0.
        5    1    3    3  502    0 -0.35814143894E+03  0.33825034843E+02  0.14555704580E+04  0.14993721591E+04  0.46999998093E+01 0. -1.
       -5    1    3    3    0  502  0.35814143894E+03 -0.33825034843E+02 -0.61544301879E+03  0.71288261491E+03  0.46999998093E+01 0.  1.
</event>
<event>
 5   0  0.1696052E-04  0.1282263E+04  0.7818609E-02  0.9043750E-01
        1   -1    0    0  501    0  0.00000000000E+00  0.00000000000E+00  0.40031377947E+03  0.40031377950E+03  0.50400001928E-02 0. -1.
       -1   -1    0    0    0  501  0.00000000000E+00  0.00000000000E+00 -0.10268181821E+04  0.10268181821E+04  0.50400001928E-02 0.  1.
    10030    2    1    2    0    0  0.00000000000E+00  0.00000000000E+00 -0.62650440260E+03  0.14271319616E+04  0.12822627926E+04 0.  0.
        4    1    3    3  502    0  0.39868785692E+03 -0.15948228786E+03  0.21662560412E+03  0.48095204819E+03  0.12699999809E+01 0. -1.
       -4    1    3    3    0  502 -0.39868785692E+03  0.15948228786E+03 -0.84313000672E+03  0.94617991340E+03  0.12699999809E+01 0.  1.
</event>
<event>
 5   0  0.1696052E-04  0.1939103E+04  0.7818609E-02  0.8635634E-01
       -1   -1    0    0    0  501  0.00000000000E+00  0.00000000000E+00  0.15717616939E+04  0.15717616939E+04  0.50400001928E-02 0.  1.
        1   -1    0    0  501    0  0.00000000000E+00  0.00000000000E+00 -0.59807392808E+03  0.59807392810E+03  0.50400001928E-02 0. -1.
    10030    2    1    2    0    0  0.00000000000E+00  0.00000000000E+00  0.97368776585E+03  0.21698356220E+04  0.19391025660E+04 0.  0.
        4    1    3    3  502    0 -0.45388342892E+03  0.19246514514E+03  0.14210327304E+04  0.15041238756E+04  0.12699999809E+01 0.  1.
       -4    1    3    3    0  502  0.45388342892E+03 -0.19246514514E+03 -0.44734496459E+03  0.66571174647E+03  0.12699999809E+01 0. -1.
</event>
<event>
 5   0  0.1650221E-04  0.2042428E+04  0.7818609E-02  0.8587037E-01
        1   -1    0    0  501    0  0.00000000000E+00  0.00000000000E+00  0.15931833458E+04  0.15931833458E+04  0.50400001928E-02 0. -1.
       -1   -1    0    0    0  501  0.00000000000E+00  0.00000000000E+00 -0.65458734375E+03  0.65458734377E+03  0.50400001928E-02 0.  1.
    10030    2    1    2    0    0  0.00000000000E+00  0.00000000000E+00  0.93859600206E+03  0.22477706896E+04  0.20424276286E+04 0.  0.
        1    1    3    3  502    0 -0.48105757440E+02 -0.92246203201E+03 -0.99449640253E+01  0.92376905486E+03  0.50400001928E-02 0.  1.
       -1    1    3    3    0  502  0.48105757440E+02  0.92246203201E+03  0.94854096608E+03  0.13240016347E+04  0.50400001928E-02 0. -1.
</event>
<event>
 5   0  0.3460648E-04  0.1119625E+04  0.7818609E-02  0.9186272E-01
       -2   -1    0    0    0  501  0.00000000000E+00  0.00000000000E+00  0.44496520247E+03  0.44496520247E+03  0.25500000920E-02 0. -1.
        2   -1    0    0  501    0  0.00000000000E+00  0.00000000000E+00 -0.70430276410E+03  0.70430276410E+03  0.25500000920E-02 0.  1.
    10030    2    1    2    0    0  0.00000000000E+00  0.00000000000E+00 -0.25933756163E+03  0.11492679666E+04  0.11196253338E+04 0.  0.
        5    1    3    3  502    0 -0.49679440458E+03  0.19616130056E+03  0.42351471769E+02  0.53581682824E+03  0.46999998093E+01 0. -1.
       -5    1    3    3    0  502  0.49679440458E+03 -0.19616130056E+03 -0.30168903340E+03  0.61345113834E+03  0.46999998093E+01 0.  1.
</event>
<event>
 5   0  0.3395569E-04  0.1492839E+04  0.7818609E-02  0.8889229E-01
        2   -1    0    0  501    0  0.00000000000E+00  0.00000000000E+00  0.23278600788E+04  0.23278600788E+04  0.25500000920E-02 0.  1.
       -2   -1    0    0    0  501  0.00000000000E+00  0.00000000000E+00 -0.23933643964E+03  0.23933643965E+03  0.25500000920E-02 0. -1.
    10030    2    1    2    0    0  0.00000000000E+00  0.00000000000E+00  0.20885236392E+04  0.25671965185E+04  0.14928385623E+04 0.  0.
        4    1    3    3  502    0  0.15135841457E+03  0.36580526419E+02 -0.21109193353E+03  0.26231454759E+03  0.12699999809E+01 0. -1.
       -4    1    3    3    0  502 -0.15135841457E+03 -0.36580526419E+02  0.22996155727E+04  0.23048819709E+04  0.12699999809E+01 0.  1.
</event>
<event>
 5   0  0.3387881E-04  0.1904635E+04  0.7818609E-02  0.8652553E-01
       -2   -1    0    0    0  501  0.00000000000E+00  0.00000000000E+00  0.48043169504E+03  0.48043169505E+03  0.25500000920E-02 0.  1.
        2   -1    0    0  501    0  0.00000000000E+00  0.00000000000E+00 -0.18876943861E+04  0.18876943861E+04  0.25500000920E-02 0. -1.
    10030    2    1    2    0    0  0.00000000000E+00  0.00000000000E+00 -0.14072626911E+04  0.23681260812E+04  0.19046345725E+04 0.  0.
        1    1    3    3  502    0  0.69521982855E+03 -0.59251911150E+01  0.10554215799E+03  0.70321039884E+03  0.50400001928E-02 0.  1.
       -1    1    3    3    0  502 -0.69521982855E+03  0.59251911150E+01 -0.15128048490E+04  0.16649156823E+04  0.50400001928E-02 0. -1.
</event>
<event>
 5   0  0.3387881E-04  0.2015905E+04  0.7818609E-02  0.8599221E-01
        2   -1    0    0  501    0  0.00000000000E+00  0.00000000000E+00  0.14931505889E+04  0.14931505889E+04  0.25500000920E-02 0. -1.
       -2   -1    0    0    0  501  0.00000000000E+00  0.00000000000E+00 -0.68041894608E+03  0.68041894608E+03  0.25500000920E-02 0.  1.
    10030    2    1    2    0    0  0.00000000000E+00  0.00000000000E+00  0.81273164285E+03  0.21735695350E+04  0.20159047101E+04 0.  0.
        1    1    3    3  502    0  0.71613576076E+02  0.83090496627E+03 -0.20397785460E+03  0.85856772153E+03  0.50400001928E-02 0.  1.
       -1    1    3    3    0  502 -0.71613576076E+02 -0.83090496627E+03  0.10167094975E+04  0.13150018135E+04  0.50400001928E-02 0. -1.
</event>
<event>
 5   0  0.1643565E-04  0.1527185E+04  0.7818609E-02  0.8866574E-01
       -1   -1    0    0    0  501  0.00000000000E+00  0.00000000000E+00  0.59763122348E+03  0.59763122350E+03  0.50400001928E-02 0.  1.
        1   -1    0    0  501    0  0.00000000000E+00  0.00000000000E+00 -0.97564152942E+03  0.97564152943E+03  0.50400001928E-02 0. -1.
    10030    2    1    2    0    0  0.00000000000E+00  0.00000000000E+00 -0.37801030594E+03  0.15732727529E+04  0.15271854385E+04 0.  0.
        2    1    3    3  502    0 -0.86776707929E+02 -0.63806354762E+03 -0.61177812286E+03  0.88821605449E+03  0.25500000920E-02 0. -1.
       -2    1    3    3    0  502  0.86776707929E+02  0.63806354762E+03  0.23376781692E+03  0.68505669844E+03  0.25500000920E-02 0.  1.
</event>
<event>
 5   0  0.1664168E-04  0.1923355E+04  0.7818609E-02  0.8643318E-01
        1   -1    0    0  501    0  0.00000000000E+00  0.00000000000E+00  0.88960862929E+03  0.88960862931E+03  0.50400001928E-02 0. -1.
       -1   -1    0    0    0  501  0.00000000000E+00  0.00000000000E+00 -0.10395848250E+04  0.10395848250E+04  0.50400001928E-02 0.  1.
    10030    2    1    2    0    0  0.00000000000E+00  0.00000000000E+00 -0.14997619570E+03  0.19291934543E+04  0.19233550179E+04 0.  0.
        5    1    3    3  502    0  0.87397090660E+03 -0.25386694958E+03 -0.38662071420E+03  0.98882315927E+03  0.46999998093E+01 0.  1.
       -5    1    3    3    0  502 -0.87397090660E+03  0.25386694958E+03  0.23664451850E+03  0.94037029504E+03  0.46999998093E+01 0. -1.
</event>
<event>
 5   0  0.3460648E-04  0.2087321E+04  0.7818609E-02  0.8566849E-01
        2   -1    0    0  501    0  0.00000000000E+00  0.00000000000E+00  0.11396965424E+04  0.11396965424E+04  0.25500000920E-02 0. -1.
       -2   -1    0    0    0  501  0.00000000000E+00  0.00000000000E+00 -0.95571646961E+03  0.95571646961E+03  0.25500000920E-02 0.  1.
    10030    2    1    2    0    0  0.00000000000E+00  0.00000000000E+00  0.18398007275E+03  0.20954130120E+04  0.20873205369E+04 0.  0.
        5    1    3    3  502    0  0.34077995894E+03  0.63056723970E+03  0.85352096872E+03  0.11145699432E+04  0.46999998093E+01 0. -1.
       -5    1    3    3    0  502 -0.34077995894E+03 -0.63056723970E+03 -0.66954089598E+03  0.98084306879E+03  0.46999998093E+01 0.  1.
</event>
<event>
 5   0  0.1696052E-04  0.2022649E+04  0.7818609E-02  0.8596104E-01
        1   -1    0    0  501    0  0.00000000000E+00  0.00000000000E+00  0.10823998974E+04  0.10823998974E+04  0.50400001928E-02 0. -1.
       -1   -1    0    0    0  501  0.00000000000E+00  0.00000000000E+00 -0.94491626782E+03  0.94491626783E+03  0.50400001928E-02 0.  1.
    10030    2    1    2    0    0  0.00000000000E+00  0.00000000000E+00  0.13748362962E+03  0.20273161653E+04  0.20226490268E+04 0.  0.
        4    1    3    3  502    0  0.68192302476E+02 -0.79629982880E+03  0.68987493781E+03  0.10557805881E+04  0.12699999809E+01 0. -1.
       -4    1    3    3    0  502 -0.68192302476E+02  0.79629982880E+03 -0.55239130819E+03  0.97153557718E+03  0.12699999809E+01 0.  1.
</event>
<event>
 5   0  0.3371947E-04  0.2001771E+04  0.7818609E-02  0.8605793E-01
       -2   -1    0    0    0  501  0.00000000000E+00  0.00000000000E+00  0.41519155586E+03  0.41519155587E+03  0.25500000920E-02 0. -1.
        2   -1    0    0  501    0  0.00000000000E+00  0.00000000000E+00 -0.24127941293E+04  0.24127941293E+04  0.25500000920E-02 0.  1.
    10030    2    1    2    0    0  0.00000000000E+00  0.00000000000E+00 -0.19976025734E+04  0.28279856851E+04  0.20017709644E+04 0.  0.
        2    1    3    3  502    0 -0.66777858950E+03 -0.72467581853E+03 -0.12462871422E+04  0.15888092797E+04  0.25500000920E-02 0.  1.
       -2    1    3    3    0  502  0.66777858950E+03  0.72467581853E+03 -0.75131543126E+03  0.12391764054E+04  0.25500000920E-02 0. -1.
</event>
<event>
 5   0  0.1650221E-04  0.2020799E+04  0.7818609E-02  0.8596958E-01
       -1   -1    0    0    0  501  0.00000000000E+00  0.00000000000E+00  0.71589223806E+03  0.71589223808E+03  0.50400001928E-02 0. -1.
        1   -1    0    0  501    0  0.00000000000E+00  0.00000000000E+00 -0.14260629713E+04  0.14260629713E+04  0.50400001928E-02 0.  1.
    10030    2    1    2    0    0  0.00000000000E+00  0.00000000000E+00 -0.71017073325E+03  0.21419552094E+04  0.20207992599E+04 0.  0.
        1    1    3    3  502    0 -0.10096802992E+03  0.82252205864E+02  0.70695909864E+03  0.71885404333E+03  0.50400001928E-02 0. -1.
       -1    1    3    3    0  502  0.10096802992E+03 -0.82252205864E+02 -0.14171298319E+04  0.14231011661E+04  0.50400001928E-02 0.  1.
</event>
<event>
 5   0  0.3431030E-04  0.9858130E+03  0.7818609E-02  0.9324243E-01
        2   -1    0    0  501    0  0.00000000000E+00  0.00000000000E+00  0.16477806794E+04  0.16477806794E+04  0.25500000920E-02 0.  1.
       -2   -1    0    0    0  501  0.00000000000E+00  0.00000000000E+00 -0.14744489001E+03  0.14744489003E+03  0.25500000920E-02 0. -1.
    10030    2    1    2    0    0  0.00000000000E+00  0.00000000000E+00  0.15003357894E+04  0.17952255694E+04  0.98581304729E+03 0.  0.
        3    1    3    3  502    0  0.46034812535E+03  0.99864920708E+01  0.42986454040E+03  0.62992353491E+03  0.10100000352E+00 0. -1.
       -3    1    3    3    0  502 -0.46034812535E+03 -0.99864920708E+01  0.10704712490E+04  0.11653020345E+04  0.10100000352E+00 0.  1.
</event>
<event>
 5   0  0.3460648E-04  0.2055250E+04  0.7818609E-02  0.8581216E-01
       -2   -1    0    0    0  501  0.00000000000E+00  0.00000000000E+00  0.96222307507E+03  0.96222307508E+03  0.25500000920E-02 0. -1.
        2   -1    0    0  501    0  0.00000000000E+00  0.00000000000E+00 -0.10974721380E+04  0.10974721380E+04  0.25500000920E-02 0.  1.
    10030    2    1    2    0    0  0.00000000000E+00  0.00000000000E+00 -0.13524906295E+03  0.20596952131E+04  0.20552498782E+04 0.  0.
        5    1    3    3  502    0 -0.80674739160E+03  0.60767974362E+03 -0.25744090985E+03  0.10423118232E+04  0.46999998093E+01 0.  1.
       -5    1    3    3    0  502  0.80674739160E+03 -0.60767974362E+03  0.12219184690E+03  0.10173833899E+04  0.46999998093E+01 0. -1.
</event>
<event>
 5   0  0.1650221E-04  0.1879138E+04  0.7818609E-02  0.8665311E-01
        1   -1    0    0  501    0  0.00000000000E+00  0.00000000000E+00  0.16943543833E+04  0.16943543833E+04  0.50400001928E-02 0.  1.
       -1   -1    0    0    0  501  0.00000000000E+00  0.00000000000E+00 -0.52101846783E+03  0.52101846785E+03  0.50400001928E-02 0. -1.
    10030    2    1    2    0    0  0.00000000000E+00  0.00000000000E+00  0.11733359155E+04  0.22153728512E+04  0.18791380203E+04 0.  0.
        1    1    3    3  502    0 -0.40645784194E+03 -0.84710124304E+03  0.58525739837E+03  0.11069393459E+04  0.50400001928E-02 0. -1.
       -1    1    3    3    0  502  0.40645784194E+03  0.84710124304E+03  0.58807851714E+03  0.11084335053E+04  0.50400001928E-02 0.  1.
</event>
<event>
 5   0  0.1696052E-04  0.2059295E+04  0.7818609E-02  0.8579389E-01
       -1   -1    0    0    0  501  0.00000000000E+00  0.00000000000E+00  0.17545044960E+04  0.17545044960E+04  0.50400001928E-02 0. -1.
        1   -1    0    0  501    0  0.00000000000E+00  0.00000000000E+00 -0.60425862691E+03  0.60425862694E+03  0.50400001928E-02 0.  1.
    10030    2    1    2    0    0  0.00000000000E+00  0.00000000000E+00  0.11502458691E+04  0.23587631229E+04  0.20592954889E+04 0.  0.
        4    1    3    3  502    0  0.21340191405E+03  0.87122269912E+03  0.11542169227E+04  0.14617755251E+04  0.12699999809E+01 0. -1.
       -4    1    3    3    0  502 -0.21340191405E+03 -0.87122269912E+03 -0.39710536369E+01  0.89698759777E+03  0.12699999809E+01 0.  1.
</event>
<event>
 5   0  0.1222488E-04  0.1990731E+04  0.7818609E-02  0.8610966E-01
       -3   -1    0    0    0  501  0.00000000000E+00  0.00000000000E+00  0.10892213429E+04  0.10892213475E+04  0.10100000352E+00 0.  1.
        3   -1    0    0  501    0  0.00000000000E+00  0.00000000000E+00 -0.90959722102E+03  0.90959722663E+03  0.10100000352E+00 0. -1.
    10030    2    1    2    0    0  0.00000000000E+00  0.00000000000E+00  0.17962412184E+03  0.19988185742E+04  0.19907312393E+04 0.  0.
        4    1    3    3  502    0  0.97922667196E+03  0.17704639137E+03  0.66898216420E+02  0.99735013112E+03  0.12699999809E+01 0. -1.
       -4    1    3    3    0  502 -0.97922667196E+03 -0.17704639137E+03  0.11272590542E+03  0.10014684431E+04  0.12699999809E+01 0.  1.
</event>
<event>
 5   0  0.1664168E-04  0.1497825E+04  0.7818609E-02  0.8885901E-01
       -1   -1    0    0    0  501  0.00000000000E+00  0.00000000000E+00  0.29719088968E+03  0.29719088972E+03  0.50400001928E-02 0. -1.
        1   -1    0    0  501    0  0.00000000000E+00  0.00000000000E+00 -0.18872373646E+04  0.18872373646E+04  0.50400001928E-02 0.  1.
    10030    2    1    2    0    0  0.00000000000E+00  0.00000000000E+00 -0.15900464749E+04  0.21844282544E+04  0.14978247581E+04 0.  0.
        5    1    3    3  502    0 -0.19476977987E+03 -0.66826600769E+03 -0.39209030224E+03  0.79891903175E+03  0.46999998093E+01 0. -1.
       -5    1    3    3    0  502  0.19476977987E+03  0.66826600769E+03 -0.11979561727E+04  0.13855092226E+04  0.46999998093E+01 0.  1.
</event>
<event>
 5   0  0.3460648E-04  0.1983344E+04  0.7818609E-02  0.8614448E-01
       -2   -1    0    0    0  501  0.00000000000E+00  0.00000000000E+00  0.95773041466E+03  0.95773041466E+03  0.25500000920E-02 0.  1.
        2   -1    0    0  501    0  0.00000000000E+00  0.00000000000E+00 -0.10268165102E+04  0.10268165102E+04  0.25500000920E-02 0. -1.
    10030    2    1    2    0    0  0.00000000000E+00  0.00000000000E+00 -0.69086095526E+02  0.19845469249E+04  0.19833440469E+04 0.  0.
        5    1    3    3  502    0  0.74520051137E+03 -0.64684304315E+03  0.63809940630E+02  0.98884959582E+03  0.46999998093E+01 0.  1.
       -5    1    3    3    0  502 -0.74520051137E+03  0.64684304315E+03 -0.13289603616E+03  0.99569732903E+03  0.46999998093E+01 0. -1.
</event>
<event>
 5   0  0.3460648E-04  0.1934748E+04  0.7818609E-02  0.8637751E-01
        2   -1    0    0  501    0  0.00000000000E+00  0.00000000000E+00  0.14916080871E+04  0.14916080871E+04  0.25500000920E-02 0. -1.
       -2   -1    0    0    0  501  0.00000000000E+00  0.00000000000E+00 -0.62738513477E+03  0.62738513477E+03  0.25500000920E-02 0.  1.
    10030    2    1    2    0    0  0.00000000000E+00  0.00000000000E+00  0.86422295232E+03  0.21189932219E+04  0.19347482945E+04 0.  0.
        5    1    3    3  502    0 -0.18212554820E+03  0.71845640227E+02 -0.60544665285E+03  0.63633265731E+03  0.46999998093E+01 0.  1.
       -5    1    3    3    0  502  0.18212554820E+03 -0.71845640227E+02  0.14696696052E+04  0.14826605646E+04  0.46999998093E+01 0. -1.
</event>
<event>
 5   0  0.3431030E-04  0.1982279E+04  0.7818609E-02  0.8614951E-01
       -2   -1    0    0    0  501  0.00000000000E+00  0.00000000000E+00  0.62558014793E+03  0.62558014793E+03  0.25500000920E-02 0.  1.
        2   -1    0    0  501    0  0.00000000000E+00  0.00000000000E+00 -0.15703140344E+04  0.15703140344E+04  0.25500000920E-02 0. -1.
    10030    2    1    2    0    0  0.00000000000E+00  0.00000000000E+00 -0.94473388652E+03  0.21958941824E+04  0.19822787755E+04 0.  0.
        3    1    3    3  502    0  0.38206332842E+03  0.84076109222E+03 -0.73717578378E+02  0.92643720384E+03  0.10100000352E+00 0.  1.
       -3    1    3    3    0  502 -0.38206332842E+03 -0.84076109222E+03 -0.87101630814E+03  0.12694569785E+04  0.10100000352E+00 0. -1.
</event>
<event>
 5   0  0.3460648E-04  0.2027172E+04  0.7818609E-02  0.8594021E-01
        2   -1    0    0  501    0  0.00000000000E+00  0.00000000000E+00  0.13941912460E+04  0.13941912460E+04  0.25500000920E-02 0.  1.
       -2   -1    0    0    0  501  0.00000000000E+00  0.00000000000E+00 -0.73688389793E+03  0.73688389793E+03  0.25500000920E-02 0. -1.
    10030    2    1    2    0    0  0.00000000000E+00  0.00000000000E+00  0.65730734803E+03  0.21310751439E+04  0.20271724937E+04 0.  0.
        5    1    3    3  502    0 -0.24783914862E+03  0.40074187118E+02  0.13609757732E+04  0.13839462884E+04  0.46999998093E+01 0.  1.
       -5    1    3    3    0  502  0.24783914862E+03 -0.40074187118E+02 -0.70366842517E+03  0.74712885545E+03  0.46999998093E+01 0. -1.
</event>
<event>
 5   0  0.1643565E-04  0.2000575E+04  0.7818609E-02  0.8606352E-01
       -1   -1    0    0    0  501  0.00000000000E+00  0.00000000000E+00  0.60676106556E+03  0.60676106558E+03  0.50400001928E-02 0. -1.
        1   -1    0    0  501    0  0.00000000000E+00  0.00000000000E+00 -0.16490432316E+04  0.16490432316E+04  0.50400001928E-02 0.  1.
    10030    2    1    2    0    0  0.00000000000E+00  0.00000000000E+00 -0.10422821661E+04  0.22558042972E+04  0.20005751457E+04 0.  0.
        2    1    3    3  502    0 -0.37427413679E+03 -0.69782440907E+03  0.16800662074E+03  0.80948518206E+03  0.25500000920E-02 0. -1.
       -2    1    3    3    0  502  0.37427413679E+03  0.69782440907E+03 -0.12102887868E+04  0.14463191151E+04  0.25500000920E-02 0.  1.
</event>
<event>
 5   0  0.3431030E-04  0.1860966E+04  0.7818609E-02  0.8674534E-01
       -2   -1    0    0    0  501  0.00000000000E+00  0.00000000000E+00  0.40677835379E+03  0.40677835380E+03  0.25500000920E-02 0. -1.
        2   -1    0    0  501    0  0.00000000000E+00  0.00000000000E+00 -0.21284276230E+04  0.21284276230E+04  0.25500000920E-02 0.  1.
    10030    2    1    2    0    0  0.00000000000E+00  0.00000000000E+00 -0.17216492692E+04  0.25352059768E+04  0.18609656468E+04 0.  0.
        3    1    3    3  502    0 -0.55999030838E+03 -0.21370858557E+03  0.10874902978E+03  0.60916899683E+03  0.10100000352E+00 0. -1.
       -3    1    3    3    0  502  0.55999030838E+03  0.21370858557E+03 -0.18303982990E+04  0.19260369800E+04  0.10100000352E+00 0.  1.
</event>
<event>
 5   0  0.3371947E-04  0.2001817E+04  0.7818609E-02  0.8605772E-01
       -2   -1    0    0    0  501  0.00000000000E+00  0.00000000000E+00  0.13895716080E+04  0.13895716080E+04  0.25500000920E-02 0.  1.
        2   -1    0    0  501    0  0.00000000000E+00  0.00000000000E+00 -0.72095420359E+03  0.72095420360E+03  0.25500000920E-02 0. -1.
    10030    2    1    2    0    0  0.00000000000E+00  0.00000000000E+00  0.66861740436E+03  0.21105258115E+04  0.20018166669E+04 0.  0.
        2    1    3    3  502    0  0.60185019603E+03  0.64547403028E+03 -0.16351667333E+03  0.89755115993E+03  0.25500000920E-02 0. -1.
       -2    1    3    3    0  502 -0.60185019603E+03 -0.64547403028E+03  0.83213407769E+03  0.12129746516E+04  0.25500000920E-02 0.  1.
</event>
<event>
 5   0  0.3431030E-04  0.1968528E+04  0.7818609E-02  0.8621478E-01
        2   -1    0    0  501    0  0.00000000000E+00  0.00000000000E+00  0.11815472965E+04  0.11815472965E+04  0.25500000920E-02 0.  1.
       -2   -1    0    0    0  501  0.00000000000E+00  0.00000000000E+00 -0.81992148852E+03  0.81992148852E+03  0.25500000920E-02 0. -1.
    10030    2    1    2    0    0  0.00000000000E+00  0.00000000000E+00  0.36162580796E+03  0.20014687850E+04  0.19685284027E+04 0.  0.
        3    1    3    3  502    0  0.32355277412E+03  0.17020228188E+03 -0.74832843825E+03  0.83285693615E+03  0.10100000352E+00 0. -1.
       -3    1    3    3    0  502 -0.32355277412E+03 -0.17020228188E+03  0.11099542462E+04  0.11686118488E+04  0.10100000352E+00 0.  1.
</event>
<event>
 5   0  0.1643565E-04  0.2005764E+04  0.7818609E-02  0.8603931E-01
        1   -1    0    0  501    0  0.00000000000E+00  0.00000000000E+00  0.16289673899E+04  0.16289673899E+04  0.50400001928E-02 0.  1.
       -1   -1    0    0    0  501  0.00000000000E+00  0.00000000000E+00 -0.61742926325E+03  0.61742926328E+03  0.50400001928E-02 0. -1.
    10030    2    1    2    0    0  0.00000000000E+00  0.00000000000E+00  0.10115381266E+04  0.22463966531E+04  0.20057638300E+04 0.  0.
        2    1    3    3  502    0 -0.34329543557E+03 -0.36974053981E+03  0.14764756952E+04  0.15603013496E+04  0.25500000920E-02 0.  1.
       -2    1    3    3    0  502  0.34329543557E+03  0.36974053981E+03 -0.46493756863E+03  0.68609530357E+03  0.25500000920E-02 0. -1.
</event>
<event>
 5   0  0.3371947E-04  0.1859922E+04  0.7818609E-02  0.8675067E-01
       -2   -1    0    0    0  501  0.00000000000E+00  0.00000000000E+00  0.10417950724E+04  0.10417950724E+04  0.25500000920E-02 0.  1.
        2   -1    0    0  501    0  0.00000000000E+00  0.00000000000E+00 -0.83013240355E+03  0.83013240355E+03  0.25500000920E-02 0. -1.
    10030    2    1    2    0    0  0.00000000000E+00  0.00000000000E+00  0.21166266883E+03  0.18719274759E+04  0.18599224150E+04 0.  0.
        2    1    3    3  502    0 -0.57434517149E+03  0.14980768548E+03  0.82635240885E+03  0.10174345297E+04  0.25500000920E-02 0.  1.
       -2    1    3    3    0  502  0.57434517149E+03 -0.14980768548E+03 -0.61468974002E+03  0.85449294622E+03  0.25500000920E-02 0. -1.
</event>
<event>
 5   0  0.1696052E-04  0.2154690E+04  0.7818609E-02  0.8537527E-01
       -1   -1    0    0    0  501  0.00000000000E+00  0.00000000000E+00  0.47479854257E+03  0.47479854259E+03  0.50400001928E-02 0.  1.
        1   -1    0    0  501    0  0.00000000000E+00  0.00000000000E+00 -0.24445573451E+04  0.24445573451E+04  0.50400001928E-02 0. -1.
    10030    2    1    2    0    0  0.00000000000E+00  0.00000000000E+00 -0.19697588025E+04  0.29193558877E+04  0.21546900146E+04 0.  0.
        4    1    3    3  502    0 -0.64109486474E+03 -0.77890589138E+03 -0.14971863273E+04  0.18053436030E+04  0.12699999809E+01 0. -1.
       -4    1    3    3    0  502  0.64109486474E+03  0.77890589138E+03 -0.47257247518E+03  0.11140122847E+04  0.12699999809E+01 0.  1.
</event>
<event>
 5   0  0.1696052E-04  0.2229930E+04  0.7818609E-02  0.8506073E-01
        1   -1    0    0  501    0  0.00000000000E+00  0.00000000000E+00  0.79088115502E+03  0.79088115503E+03  0.50400001928E-02 0. -1.
       -1   -1    0    0    0  501  0.00000000000E+00  0.00000000000E+00 -0.15718510120E+04  0.15718510120E+04  0.50400001928E-02 0.  1.
    10030    2    1    2    0    0  0.00000000000E+00  0.00000000000E+00 -0.78096985695E+03  0.23627321670E+04  0.22299303522E+04 0.  0.
        4    1    3    3  502    0 -0.36268661364E+03 -0.63658890353E+02  0.72459294587E+03  0.81279184552E+03  0.12699999809E+01 0. -1.
       -4    1    3    3    0  502  0.36268661364E+03  0.63658890353E+02 -0.15055628028E+04  0.15499403215E+04  0.12699999809E+01 0.  1.
</event>
<event>
 5   0  0.3395569E-04  0.2004837E+04  0.7818609E-02  0.8604363E-01
       -2   -1    0    0    0  501  0.00000000000E+00  0.00000000000E+00  0.13562115808E+04  0.13562115808E+04  0.25500000920E-02 0.  1.
        2   -1    0    0  501    0  0.00000000000E+00  0.00000000000E+00 -0.74091876090E+03  0.74091876091E+03  0.25500000920E-02 0. -1.
    10030    2    1    2    0    0  0.00000000000E+00  0.00000000000E+00  0.61529281985E+03  0.20971303417E+04  0.20048367554E+04 0.  0.
        4    1    3    3  502    0  0.10005749072E+04  0.60419837094E+02  0.30100681009E+03  0.10466171288E+04  0.12699999809E+01 0. -1.
       -4    1    3    3    0  502 -0.10005749072E+04 -0.60419837094E+02  0.31428600976E+03  0.10505132129E+04  0.12699999809E+01 0.  1.
</event>
<event>
 5   0  0.1708578E-04  0.2002203E+04  0.7818609E-02  0.8605591E-01
       -1   -1    0    0    0  501  0.00000000000E+00  0.00000000000E+00  0.66895425811E+03  0.66895425812E+03  0.50400001928E-02 0.  1.
        1   -1    0    0  501    0  0.00000000000E+00  0.00000000000E+00 -0.14981654596E+04  0.14981654596E+04  0.50400001928E-02 0. -1.
    10030    2    1    2    0    0  0.00000000000E+00  0.00000000000E+00 -0.82921120152E+03  0.21671197178E+04  0.20022029503E+04 0.  0.
        3    1    3    3  502    0  0.24448376654E+03 -0.96175525718E+03 -0.27159101185E+03  0.10288377786E+04  0.10100000352E+00 0.  1.
       -3    1    3    3    0  502 -0.24448376654E+03  0.96175525718E+03 -0.55762018967E+03  0.11382819391E+04  0.10100000352E+00 0. -1.
</event>
<event>
 5   0  0.1643565E-04  0.1750069E+04  0.7818609E-02  0.8733312E-01
       -1   -1    0    0    0  501  0.00000000000E+00  0.00000000000E+00  0.13157196487E+04  0.13157196487E+04  0.50400001928E-02 0. -1.
        1   -1    0    0  501    0  0.00000000000E+00  0.00000000000E+00 -0.58195155945E+03  0.58195155948E+03  0.50400001928E-02 0.  1.
    10030    2    1    2    0    0  0.00000000000E+00  0.00000000000E+00  0.73376808922E+03  0.18976712082E+04  0.17500686859E+04 0.  0.
        2    1    3    3  502    0 -0.39954163013E+03  0.79238850827E+02 -0.47288382606E+03  0.62412452494E+03  0.25500000920E-02 0.  1.
       -2    1    3    3    0  502  0.39954163013E+03 -0.79238850827E+02  0.12066519153E+04  0.12735466832E+04  0.25500000920E-02 0. -1.
</event>
<event>
 5   0  0.3431030E-04  0.1748747E+04  0.7818609E-02  0.8734040E-01
       -2   -1    0    0    0  501  0.00000000000E+00  0.00000000000E+00  0.48714299109E+03  0.48714299110E+03  0.25500000920E-02 0.  1.
        2   -1    0    0  501    0  0.00000000000E+00  0.00000000000E+00 -0.15694136961E+04  0.15694136961E+04  0.25500000920E-02 0. -1.
    10030    2    1    2    0    0  0.00000000000E+00  0.00000000000E+00 -0.10822707050E+04  0.20565566872E+04  0.17487468452E+04 0.  0.
        3    1    3    3  502    0 -0.26221148383E+03  0.82679247369E+03 -0.67096796533E+03  0.10966032453E+04  0.10100000352E+00 0. -1.
       -3    1    3    3    0  502  0.26221148383E+03 -0.82679247369E+03 -0.41130273964E+03  0.95995344191E+03  0.10100000352E+00 0.  1.
</event>
<event>
 5   0  0.3431030E-04  0.2007803E+04  0.7818609E-02  0.8602981E-01
        2   -1    0    0  501    0  0.00000000000E+00  0.00000000000E+00  0.94850288325E+03  0.94850288325E+03  0.25500000920E-02 0. -1.
       -2   -1    0    0    0  501  0.00000000000E+00  0.00000000000E+00 -0.10625352692E+04  0.10625352692E+04  0.25500000920E-02 0.  1.
    10030    2    1    2    0    0  0.00000000000E+00  0.00000000000E+00 -0.11403238593E+03  0.20110381524E+04  0.20078025464E+04 0.  0.
        3    1    3    3  502    0  0.93209401328E+03  0.37279942020E+03 -0.50753205299E+02  0.10051639445E+04  0.10100000352E+00 0.  1.
       -3    1    3    3    0  502 -0.93209401328E+03 -0.37279942020E+03 -0.63279180634E+02  0.10058742079E+04  0.10100000352E+00 0. -1.
</event>
<event>
 5   0  0.3371947E-04  0.2045314E+04  0.7818609E-02  0.8585723E-01
        2   -1    0    0  501    0  0.00000000000E+00  0.00000000000E+00  0.81530798638E+03  0.81530798639E+03  0.25500000920E-02 0. -1.
       -2   -1    0    0    0  501  0.00000000000E+00  0.00000000000E+00 -0.12827393358E+04  0.12827393358E+04  0.25500000920E-02 0.  1.
    10030    2    1    2    0    0  0.00000000000E+00  0.00000000000E+00 -0.46743134939E+03  0.20980473222E+04  0.20453142789E+04 0.  0.
        2    1    3    3  502    0 -0.85009153771E+03 -0.49477808272E+03  0.53442294890E+02  0.98504672606E+03  0.25500000920E-02 0.  1.
       -2    1    3    3    0  502  0.85009153771E+03  0.49477808272E+03 -0.52087364428E+03  0.11130005961E+04  0.25500000920E-02 0. -1.
</event>
<event>
 5   0  0.1650221E-04  0.2016250E+04  0.7818609E-02  0.8599061E-01
        1   -1    0    0  501    0  0.00000000000E+00  0.00000000000E+00  0.80961112328E+03  0.80961112330E+03  0.50400001928E-02 0. -1.
       -1   -1    0    0    0  501  0.00000000000E+00  0.00000000000E+00 -0.12553137054E+04  0.12553137054E+04  0.50400001928E-02 0.  1.
    10030    2    1    2    0    0  0.00000000000E+00  0.00000000000E+00 -0.44570258210E+03  0.20649248287E+04  0.20162499241E+04 0.  0.
        1    1    3    3  502    0  0.35861512432E+03 -0.55166785021E+03 -0.10050792068E+04  0.12013019755E+04  0.50400001928E-02 0.  1.
       -1    1    3    3    0  502 -0.35861512432E+03  0.55166785021E+03  0.55937662467E+03  0.86362285322E+03  0.50400001928E-02 0. -1.
</event>
<event>
 5   0  0.3395569E-04  0.2066414E+04  0.7818609E-02  0.8576184E-01
        2   -1    0    0  501    0  0.00000000000E+00  0.00000000000E+00  0.95207545385E+03  0.95207545386E+03  0.25500000920E-02 0. -1.
       -2   -1    0    0    0  501  0.00000000000E+00  0.00000000000E+00 -0.11212518588E+04  0.11212518588E+04  0.25500000920E-02 0.  1.
    10030    2    1    2    0    0  0.00000000000E+00  0.00000000000E+00 -0.16917640491E+03  0.20733273126E+04  0.20664136782E+04 0.  0.
        4    1    3    3  502    0  0.67912425805E+03  0.72328013339E+01 -0.86581555332E+03  0.11004091314E+04  0.12699999809E+01 0.  1.
       -4    1    3    3    0  502 -0.67912425805E+03 -0.72328013339E+01  0.69663914841E+03  0.97291818118E+03  0.12699999809E+01 0. -1.
</event>
<event>
 5   0  0.1708578E-04  0.1993864E+04  0.7818609E-02  0.8609495E-01
       -1   -1    0    0    0  501  0.00000000000E+00  0.00000000000E+00  0.13247616815E+04  0.13247616815E+04  0.50400001928E-02 0.  1.
        1   -1    0    0  501    0  0.00000000000E+00  0.00000000000E+00 -0.75022824935E+03  0.75022824936E+03  0.50400001928E-02 0. -1.
    10030    2    1    2    0    0  0.00000000000E+00  0.00000000000E+00  0.57453343212E+03  0.20749899308E+04  0.19938642252E+04 0.  0.
        3    1    3    3  502    0 -0.97749579652E+03 -0.19100984706E+02  0.84370655299E+02  0.98131610478E+03  0.10100000352E+00 0.  1.
       -3    1    3    3    0  502  0.97749579652E+03  0.19100984706E+02  0.49016277682E+03  0.10936738261E+04  0.10100000352E+00 0. -1.
</event>
<event>
 5   0  0.3431030E-04  0.1834393E+04  0.7818609E-02  0.8688221E-01
        2   -1    0    0  501    0  0.00000000000E+00  0.00000000000E+00  0.16725634191E+04  0.16725634191E+04  0.25500000920E-02 0. -1.
       -2   -1    0    0    0  501  0.00000000000E+00  0.00000000000E+00 -0.50297005992E+03  0.50297005992E+03  0.25500000920E-02 0.  1.
    10030    2    1    2    0    0  0.00000000000E+00  0.00000000000E+00  0.11695933592E+04  0.21755334790E+04  0.18343928948E+04 0.  0.
        3    1    3    3  502    0 -0.89512586504E+03 -0.12695092770E+03  0.40151757833E+03  0.98923365703E+03  0.10100000352E+00 0.  1.
       -3    1    3    3    0  502  0.89512586504E+03  0.12695092770E+03  0.76807578085E+03  0.11862998220E+04  0.10100000352E+00 0. -1.
</event>
<event>
 5   0  0.3431030E-04  0.1974813E+04  0.7818609E-02  0.8618488E-01
        2   -1    0    0  501    0  0.00000000000E+00  0.00000000000E+00  0.18148902766E+04  0.18148902766E+04  0.25500000920E-02 0. -1.
       -2   -1    0    0    0  501  0.00000000000E+00  0.00000000000E+00 -0.53720700880E+03  0.53720700881E+03  0.25500000920E-02 0.  1.
    10030    2    1    2    0    0  0.00000000000E+00  0.00000000000E+00  0.12776832678E+04  0.23520972854E+04  0.19748131829E+04 0.  0.
        3    1    3    3  502    0  0.27965512917E+03 -0.53727570270E+03 -0.28994641806E+03  0.67152148702E+03  0.10100000352E+00 0.  1.
       -3    1    3    3    0  502 -0.27965512917E+03  0.53727570270E+03  0.15676296859E+04  0.16805757984E+04  0.10100000352E+00 0. -1.
</event>
<event>
 5   0  0.1650221E-04  0.2059538E+04  0.7818609E-02  0.8579280E-01
       -1   -1    0    0    0  501  0.00000000000E+00  0.00000000000E+00  0.10893178713E+04  0.10893178713E+04  0.50400001928E-02 0.  1.
        1   -1    0    0  501    0  0.00000000000E+00  0.00000000000E+00 -0.97347549165E+03  0.97347549167E+03  0.50400001928E-02 0. -1.
    10030    2    1    2    0    0  0.00000000000E+00  0.00000000000E+00  0.11584237968E+03  0.20627933630E+04  0.20595380554E+04 0.  0.
        1    1    3    3  502    0  0.48557428580E+03  0.73266065675E+03  0.59528596087E+03  0.10615740201E+04  0.50400001928E-02 0.  1.
       -1    1    3    3    0  502 -0.48557428580E+03 -0.73266065675E+03 -0.47944358119E+03  0.10012193429E+04  0.50400001928E-02 0. -1.
</event>
<event>
 5   0  0.1650221E-04  0.2160038E+04  0.7818609E-02  0.8535248E-01
        1   -1    0    0  501    0  0.00000000000E+00  0.00000000000E+00  0.13007223725E+04  0.13007223725E+04  0.50400001928E-02 0.  1.
       -1   -1    0    0    0  501  0.00000000000E+00  0.00000000000E+00 -0.89676429060E+03  0.89676429062E+03  0.50400001928E-02 0. -1.
    10030    2    1    2    0    0  0.00000000000E+00  0.00000000000E+00  0.40395808193E+03  0.21974866632E+04  0.21600383105E+04 0.  0.
        1    1    3    3  502    0  0.10088253013E+04 -0.74988496169E+02 -0.18285089466E+03  0.10280010762E+04  0.50400001928E-02 0. -1.
       -1    1    3    3    0  502 -0.10088253013E+04  0.74988496169E+02  0.58680897659E+03  0.11694855869E+04  0.50400001928E-02 0.  1.
</event>
<event>
 5   0  0.3387881E-04  0.2012427E+04  0.7818609E-02  0.8600832E-01
       -2   -1    0    0    0  501  0.00000000000E+00  0.00000000000E+00  0.55350692672E+03  0.55350692672E+03  0.25500000920E-02 0. -1.
        2   -1    0    0  501    0  0.00000000000E+00  0.00000000000E+00 -0.18291839238E+04  0.18291839238E+04  0.25500000920E-02 0.  1.
    10030    2    1    2    0    0  0.00000000000E+00  0.00000000000E+00 -0.12756769971E+04  0.23826908505E+04  0.20124273622E+04 0.  0.
        1    1    3    3  502    0  0.37967097610E+03  0.48375574564E+03  0.30512215758E+03  0.68649049710E+03  0.50400001928E-02 0. -1.
       -1    1    3    3    0  502 -0.37967097610E+03 -0.48375574564E+03 -0.15807991547E+04  0.16962003534E+04  0.50400001928E-02 0.  1.
</event>
<event>
 5   0  0.1696052E-04  0.1952445E+04  0.7818609E-02  0.8629183E-01
        1   -1    0    0  501    0  0.00000000000E+00  0.00000000000E+00  0.12738989025E+04  0.12738989026E+04  0.50400001928E-02 0. -1.
       -1   -1    0    0    0  501  0.00000000000E+00  0.00000000000E+00 -0.74810512673E+03  0.74810512674E+03  0.50400001928E-02 0.  1.
    10030    2    1    2    0    0  0.00000000000E+00  0.00000000000E+00  0.52579377582E+03  0.20220040293E+04  0.19524449288E+04 0.  0.
        4    1    3    3  502    0 -0.43451702807E+03 -0.30838195693E+03  0.11100269706E+04  0.12312863061E+04  0.12699999809E+01 0. -1.
       -4    1    3    3    0  502  0.43451702807E+03  0.30838195693E+03 -0.58423319481E+03  0.79071772325E+03  0.12699999809E+01 0.  1.
</event>
<event>
 5   0  0.3460648E-04  0.1556589E+04  0.7818609E-02  0.8847670E-01
       -2   -1    0    0    0  501  0.00000000000E+00  0.00000000000E+00  0.52069839022E+03  0.52069839023E+03  0.25500000920E-02 0. -1.
        2   -1    0    0  501    0  0.00000000000E+00  0.00000000000E+00 -0.11633261999E+04  0.11633261999E+04  0.25500000920E-02 0.  1.
    10030    2    1    2    0    0  0.00000000000E+00  0.00000000000E+00 -0.64262780966E+03  0.16840245901E+04  0.15565886799E+04 0.  0.
        5    1    3    3  502    0  0.24824093158E+03 -0.23952644823E+02  0.47628289828E+03  0.53764744814E+03  0.46999998093E+01 0. -1.
       -5    1    3    3    0  502 -0.24824093158E+03  0.23952644823E+02 -0.11189107079E+04  0.11463771420E+04  0.46999998093E+01 0.  1.
</event>
<event>
 5   0  0.1643565E-04  0.1084807E+04  0.7818609E-02  0.9220128E-01
       -1   -1    0    0    0  501  0.00000000000E+00  0.00000000000E+00  0.10265941714E+04  0.10265941714E+04  0.50400001928E-02 0. -1.
        1   -1    0    0  501    0  0.00000000000E+00  0.00000000000E+00 -0.28657996539E+03  0.28657996543E+03  0.50400001928E-02 0.  1.
    10030    2    1    2    0    0  0.00000000000E+00  0.00000000000E+00  0.74001420602E+03  0.13131741369E+04  0.10848065674E+04 0.  0.
        2    1    3    3  502    0  0.31654989744E+03 -0.39725025998E+03  0.60029048530E+03  0.78635887060E+03  0.25500000920E-02 0.  1.
       -2    1    3    3    0  502 -0.31654989744E+03  0.39725025998E+03  0.13972372072E+03  0.52681526625E+03  0.25500000920E-02 0. -1.
</event>
<event>
 5   0  0.1664168E-04  0.1962827E+04  0.7818609E-02  0.8624200E-01
       -1   -1    0    0    0  501  0.00000000000E+00  0.00000000000E+00  0.77826813950E+03  0.77826813952E+03  0.50400001928E-02 0. -1.
        1   -1    0    0  501    0  0.00000000000E+00  0.00000000000E+00 -0.12375838637E+04  0.12375838637E+04  0.50400001928E-02 0.  1.
    10030    2    1    2    0    0  0.00000000000E+00  0.00000000000E+00 -0.45931572423E+03  0.20158520033E+04  0.19628266262E+04 0.  0.
        5    1    3    3  502    0 -0.45393472992E+03 -0.72074809658E+02 -0.11202037620E+04  0.12108385837E+04  0.46999998093E+01 0.  1.
       -5    1    3    3    0  502  0.45393472992E+03  0.72074809658E+02  0.66088803780E+03  0.80501341959E+03  0.46999998093E+01 0. -1.
</event>
<event>
 5   0  0.1650221E-04  0.2026944E+04  0.7818609E-02  0.8594126E-01
        1   -1    0    0  501    0  0.00000000000E+00  0.00000000000E+00  0.24290663350E+04  0.24290663350E+04  0.50400001928E-02 0.  1.
       -1   -1    0    0    0  501  0.00000000000E+00  0.00000000000E+00 -0.42284789328E+03  0.42284789331E+03  0.50400001928E-02 0. -1.
    10030    2    1    2    0    0  0.00000000000E+00  0.00000000000E+00  0.20062184418E+04  0.28519142283E+04  0.20269440865E+04 0.  0.
        1    1    3    3  502    0  0.54825188521E+03  0.32338848608E+03  0.21127381811E+04  0.22065409275E+04  0.50400001928E-02 0.  1.
       -1    1    3    3    0  502 -0.54825188521E+03 -0.32338848608E+03 -0.10651973938E+03  0.64537330087E+03  0.50400001928E-02 0. -1.
</event>
<event>
 5   0  0.3460648E-04  0.2005143E+04  0.7818609E-02  0.8604220E-01
       -2   -1    0    0    0  501  0.00000000000E+00  0.00000000000E+00  0.43545851903E+03  0.43545851904E+03  0.25500000920E-02 0. -1.
        2   -1    0    0  501    0  0.00000000000E+00  0.00000000000E+00 -0.23082568588E+04  0.23082568588E+04  0.25500000920E-02 0.  1.
    10030    2    1    2    0    0  0.00000000000E+00  0.00000000000E+00 -0.18727983398E+04  0.27437153779E+04  0.20051434994E+04 0.  0.
        5    1    3    3  502    0 -0.66530699875E+03  0.74341264282E+03 -0.10720805797E+04  0.14644707643E+04  0.46999998093E+01 0.  1.
       -5    1    3    3    0  502  0.66530699875E+03 -0.74341264282E+03 -0.80071776015E+03  0.12792446136E+04  0.46999998093E+01 0. -1.
</event>
<event>
 5   0  0.1643565E-04  0.2021809E+04  0.7818609E-02  0.8596492E-01
       -1   -1    0    0    0  501  0.00000000000E+00  0.00000000000E+00  0.16451338211E+04  0.16451338211E+04  0.50400001928E-02 0.  1.
        1   -1    0    0  501    0  0.00000000000E+00  0.00000000000E+00 -0.62118236923E+03  0.62118236925E+03  0.50400001928E-02 0. -1.
    10030    2    1    2    0    0  0.00000000000E+00  0.00000000000E+00  0.10239514518E+04  0.22663161903E+04  0.20218092143E+04 0.  0.
        2    1    3    3  502    0  0.33758657955E+03  0.61304429054E+03 -0.30572302256E+03  0.76371104967E+03  0.25500000920E-02 0. -1.
       -2    1    3    3    0  502 -0.33758657955E+03 -0.61304429054E+03  0.13296744744E+04  0.15026051407E+04  0.25500000920E-02 0.  1.
</event>
<event>
 5   0  0.1708578E-04  0.1993973E+04  0.7818609E-02  0.8609444E-01
       -1   -1    0    0    0  501  0.00000000000E+00  0.00000000000E+00  0.54298808572E+03  0.54298808574E+03  0.50400001928E-02 0.  1.
        1   -1    0    0  501    0  0.00000000000E+00  0.00000000000E+00 -0.18305776684E+04  0.18305776684E+04  0.50400001928E-02 0. -1.
    10030    2    1    2    0    0  0.00000000000E+00  0.00000000000E+00 -0.12875895827E+04  0.23735657542E+04  0.19939727821E+04 0.  0.
        3    1    3    3  502    0 -0.97943022462E+03  0.14471662599E+03 -0.78340540903E+03  0.12625175293E+04  0.10100000352E+00 0. -1.
       -3    1    3    3    0  502  0.97943022462E+03 -0.14471662599E+03 -0.50418417365E+03  0.11110482248E+04  0.10100000352E+00 0.  1.
</event>
<event>
 5   0  0.3431030E-04  0.1968142E+04  0.7818609E-02  0.8621662E-01
       -2   -1    0    0    0  501  0.00000000000E+00  0.00000000000E+00  0.66421578295E+03  0.66421578295E+03  0.25500000920E-02 0. -1.
        2   -1    0    0  501    0  0.00000000000E+00  0.00000000000E+00 -0.14579540878E+04  0.14579540878E+04  0.25500000920E-02 0.  1.
    10030    2    1    2    0    0  0.00000000000E+00  0.00000000000E+00 -0.79373830487E+03  0.21221698708E+04  0.19681423891E+04 0.  0.
        3    1    3    3  502    0 -0.61359287632E+03  0.76890599129E+03 -0.42505827704E+03  0.10716282893E+04  0.10100000352E+00 0. -1.
       -3    1    3    3    0  502  0.61359287632E+03 -0.76890599129E+03 -0.36868002782E+03  0.10505415815E+04  0.10100000352E+00 0.  1.
</event>
<event>
 5   0  0.3460648E-04  0.1950192E+04  0.7818609E-02  0.8630268E-01
        2   -1    0    0  501    0  0.00000000000E+00  0.00000000000E+00  0.82764447129E+03  0.82764447129E+03  0.25500000920E-02 0.  1.
       -2   -1    0    0    0  501  0.00000000000E+00  0.00000000000E+00 -0.11488166269E+04  0.11488166269E+04  0.25500000920E-02 0. -1.
    10030    2    1    2    0    0  0.00000000000E+00  0.00000000000E+00 -0.32117215561E+03  0.19764610982E+04  0.19501915083E+04 0.  0.
        5    1    3    3  502    0  0.60434379427E+01  0.76650278476E+02 -0.11457280987E+04  0.11483147454E+04  0.46999998093E+01 0. -1.
       -5    1    3    3    0  502 -0.60434379427E+01 -0.76650278476E+02  0.82455594311E+03  0.82814635279E+03  0.46999998093E+01 0.  1.
</event>
<event>
 5   0  0.3387881E-04  0.2033287E+04  0.7818609E-02  0.8591214E-01
       -2   -1    0    0    0  501  0.00000000000E+00  0.00000000000E+00  0.54383623042E+03  0.54383623043E+03  0.25500000920E-02 0. -1.
        2   -1    0    0  501    0  0.00000000000E+00  0.00000000000E+00 -0.19005068477E+04  0.19005068477E+04  0.25500000920E-02 0.  1.
    10030    2    1    2    0    0  0.00000000000E+00  0.00000000000E+00 -0.13566706172E+04  0.24443430781E+04  0.20332874661E+04 0.  0.
        1    1    3    3  502    0  0.73689212885E+03  0.70014342425E+03 -0.65572774339E+03  0.12096237835E+04  0.50400001928E-02 0.  1.
       -1    1    3    3    0  502 -0.73689212885E+03 -0.70014342425E+03 -0.70094287386E+03  0.12347192946E+04  0.50400001928E-02 0. -1.
</event>
<event>
 5   0  0.1696052E-04  0.2000143E+04  0.7818609E-02  0.8606554E-01
       -1   -1    0    0    0  501  0.00000000000E+00  0.00000000000E+00  0.59002699291E+03  0.59002699293E+03  0.50400001928E-02 0.  1.
        1   -1    0    0  501    0  0.00000000000E+00  0.00000000000E+00 -0.16950794154E+04  0.16950794154E+04  0.50400001928E-02 0. -1.
    10030    2    1    2    0    0  0.00000000000E+00  0.00000000000E+00 -0.11050524225E+04  0.22851064083E+04  0.20001426051E+04 0.  0.
        4    1    3    3  502    0  0.55554157363E+03 -0.39165706302E+03  0.28555239131E+03  0.73726757431E+03  0.12699999809E+01 0.  1.
       -4    1    3    3    0  502 -0.55554157363E+03  0.39165706302E+03 -0.13906048138E+04  0.15478388340E+04  0.12699999809E+01 0. -1.
</event>
<event>
 5   0  0.1664168E-04  0.1943973E+04  0.7818609E-02  0.8633273E-01
       -1   -1    0    0    0  501  0.00000000000E+00  0.00000000000E+00  0.13510082770E+04  0.13510082770E+04  0.50400001928E-02 0. -1.
        1   -1    0    0  501    0  0.00000000000E+00  0.00000000000E+00 -0.69929810199E+03  0.69929810201E+03  0.50400001928E-02 0.  1.
    10030    2    1    2    0    0  0.00000000000E+00  0.00000000000E+00  0.65171017503E+03  0.20503063790E+04  0.19439727610E+04 0.  0.
        5    1    3    3  502    0  0.86113317878E+03 -0.44406114418E+03  0.24419397259E+03  0.99919639592E+03  0.46999998093E+01 0. -1.
       -5    1    3    3    0  502 -0.86113317878E+03  0.44406114418E+03  0.40751620244E+03  0.10511099831E+04  0.46999998093E+01 0.  1.
</event>
<event>
 5   0  0.1650221E-04  0.2038347E+04  0.7818609E-02  0.8588899E-01
        1   -1    0    0  501    0  0.00000000000E+00  0.00000000000E+00  0.15612045213E+04  0.15612045213E+04  0.50400001928E-02 0.  1.
       -1   -1    0    0    0  501  0.00000000000E+00  0.00000000000E+00 -0.66532900918E+03  0.66532900920E+03  0.50400001928E-02 0. -1.
    10030    2    1    2    0    0  0.00000000000E+00  0.00000000000E+00  0.89587551215E+03  0.22265335305E+04  0.20383470336E+04 0.  0.
        1    1    3    3  502    0  0.55548773649E+03 -0.61483185456E+03 -0.20025252959E+03  0.85245874411E+03  0.50400001928E-02 0. -1.
       -1    1    3    3    0  502 -0.55548773649E+03  0.61483185456E+03  0.10961280417E+04  0.13740747864E+04  0.50400001928E-02 0.  1.
</event>
<event>
 5   0  0.3371947E-04  0.2030864E+04  0.7818609E-02  0.8592325E-01
        2   -1    0    0  501    0  0.00000000000E+00  0.00000000000E+00  0.13832512562E+04  0.13832512562E+04  0.25500000920E-02 0.  1.
       -2   -1    0    0    0  501  0.00000000000E+00  0.00000000000E+00 -0.74541896463E+03  0.74541896464E+03  0.25500000920E-02 0. -1.
    10030    2    1    2    0    0  0.00000000000E+00  0.00000000000E+00  0.63783229156E+03  0.21286702208E+04  0.20308635791E+04 0.  0.
        2    1    3    3  502    0 -0.19214913722E+03  0.96087169938E+03  0.59802212721E+03  0.11479661050E+04  0.25500000920E-02 0.  1.
       -2    1    3    3    0  502  0.19214913722E+03 -0.96087169938E+03  0.39810164350E+02  0.98070411583E+03  0.25500000920E-02 0. -1.
</event>
<event>
 5   0  0.1708578E-04  0.1960163E+04  0.7818609E-02  0.8625476E-01
        1   -1    0    0  501    0  0.00000000000E+00  0.00000000000E+00  0.17572872227E+04  0.17572872227E+04  0.50400001928E-02 0. -1.
       -1   -1    0    0    0  501  0.00000000000E+00  0.00000000000E+00 -0.54661510672E+03  0.54661510674E+03  0.50400001928E-02 0.  1.
    10030    2    1    2    0    0  0.00000000000E+00  0.00000000000E+00  0.12106721160E+04  0.23039023295E+04  0.19601629961E+04 0.  0.
        3    1    3    3  502    0 -0.28991387374E+03 -0.39230891962E+03  0.16044657717E+04  0.16769814445E+04  0.10100000352E+00 0. -1.
       -3    1    3    3    0  502  0.28991387374E+03  0.39230891962E+03 -0.39379365564E+03  0.62692088498E+03  0.10100000352E+00 0.  1.
</event>
<event>
 5   0  0.1643565E-04  0.1717259E+04  0.7818609E-02  0.8751582E-01
        1   -1    0    0  501    0  0.00000000000E+00  0.00000000000E+00  0.41493683186E+03  0.41493683189E+03  0.50400001928E-02 0.  1.
       -1   -1    0    0    0  501  0.00000000000E+00  0.00000000000E+00 -0.17767634021E+04  0.17767634021E+04  0.50400001928E-02 0. -1.
    10030    2    1    2    0    0  0.00000000000E+00  0.00000000000E+00 -0.13618265703E+04  0.21917002340E+04  0.17172589520E+04 0.  0.
        2    1    3    3  502    0  0.20095351536E+03  0.31007596348E+03  0.30827658566E+03  0.48121083917E+03  0.25500000920E-02 0.  1.
       -2    1    3    3    0  502 -0.20095351536E+03 -0.31007596348E+03 -0.16701031559E+04  0.17104893948E+04  0.25500000920E-02 0. -1.
</event>
<event>
 5   0  0.1696052E-04  0.1919598E+04  0.7818609E-02  0.8645162E-01
       -1   -1    0    0    0  501  0.00000000000E+00  0.00000000000E+00  0.48609761503E+03  0.48609761506E+03  0.50400001928E-02 0. -1.
        1   -1    0    0  501    0  0.00000000000E+00  0.00000000000E+00 -0.18951222509E+04  0.18951222509E+04  0.50400001928E-02 0.  1.
    10030    2    1    2    0    0  0.00000000000E+00  0.00000000000E+00 -0.14090246359E+04  0.23812198660E+04  0.19195982980E+04 0.  0.
        4    1    3    3  502    0  0.47707219849E+03  0.91512604589E+02 -0.17313708273E+04  0.17982266247E+04  0.12699999809E+01 0.  1.
       -4    1    3    3    0  502 -0.47707219849E+03 -0.91512604589E+02  0.32234619139E+03  0.58299324127E+03  0.12699999809E+01 0. -1.
</event>
<event>
 5   0  0.3387881E-04  0.1511949E+04  0.7818609E-02  0.8876546E-01
       -2   -1    0    0    0  501  0.00000000000E+00  0.00000000000E+00  0.36106646992E+03  0.36106646993E+03  0.25500000920E-02 0.  1.
        2   -1    0    0  501    0  0.00000000000E+00  0.00000000000E+00 -0.15828041273E+04  0.15828041273E+04  0.25500000920E-02 0. -1.
    10030    2    1    2    0    0  0.00000000000E+00  0.00000000000E+00 -0.12217376574E+04  0.19438705973E+04  0.15119490717E+04 0.  0.
        1    1    3    3  502    0 -0.54869787089E+02  0.43483399956E+03  0.18105315430E+03  0.47420622668E+03  0.50400001928E-02 0.  1.
       -1    1    3    3    0  502  0.54869787089E+02 -0.43483399956E+03 -0.14027908117E+04  0.14696643706E+04  0.50400001928E-02 0. -1.
</event>
<event>
 5   0  0.3431030E-04  0.2023806E+04  0.7818609E-02  0.8595571E-01
       -2   -1    0    0    0  501  0.00000000000E+00  0.00000000000E+00  0.11881890985E+04  0.11881890985E+04  0.25500000920E-02 0. -1.
        2   -1    0    0  501    0  0.00000000000E+00  0.00000000000E+00 -0.86177152753E+03  0.86177152753E+03  0.25500000920E-02 0.  1.
    10030    2    1    2    0    0  0.00000000000E+00  0.00000000000E+00  0.32641757100E+03  0.20499606261E+04  0.20238058548E+04 0.  0.
        3    1    3    3  502    0 -0.86483290127E+02  0.96615755469E+03 -0.12862527488E+03  0.97851124240E+03  0.10100000352E+00 0.  1.
       -3    1    3    3    0  502  0.86483290127E+02 -0.96615755469E+03  0.45504284588E+03  0.10714493837E+04  0.10100000352E+00 0. -1.
</event>
<event>
 5   0  0.1643565E-04  0.1243873E+04  0.7818609E-02  0.9075298E-01
       -1   -1    0    0    0  501  0.00000000000E+00  0.00000000000E+00  0.49241117321E+03  0.49241117323E+03  0.50400001928E-02 0. -1.
        1   -1    0    0  501    0  0.00000000000E+00  0.00000000000E+00 -0.78553230391E+03  0.78553230392E+03  0.50400001928E-02 0.  1.
    10030    2    1    2    0    0  0.00000000000E+00  0.00000000000E+00 -0.29312113070E+03  0.12779434772E+04  0.12438727964E+04 0.  0.
        2    1    3    3  502    0  0.27308935244E+03 -0.51998697173E+03  0.63592062888E+02  0.59076915598E+03  0.25500000920E-02 0. -1.
       -2    1    3    3    0  502 -0.27308935244E+03  0.51998697173E+03 -0.35671319359E+03  0.68717432117E+03  0.25500000920E-02 0.  1.
</event>
<event>
 5   0  0.1664168E-04  0.2027346E+04  0.7818609E-02  0.8593941E-01
       -1   -1    0    0    0  501  0.00000000000E+00  0.00000000000E+00  0.64315099423E+03  0.64315099425E+03  0.50400001928E-02 0.  1.
        1   -1    0    0  501    0  0.00000000000E+00  0.00000000000E+00 -0.15976548553E+04  0.15976548554E+04  0.50400001928E-02 0. -1.
    10030    2    1    2    0    0  0.00000000000E+00  0.00000000000E+00 -0.95450386112E+03  0.22408058496E+04  0.20273463529E+04 0.  0.
        5    1    3    3  502    0  0.23955198655E+03  0.55190599844E+03 -0.13789450140E+04  0.15044922156E+04  0.46999998093E+01 0. -1.
       -5    1    3    3    0  502 -0.23955198655E+03 -0.55190599844E+03  0.42444115284E+03  0.73631363398E+03  0.46999998093E+01 0.  1.
</event>
<event>
 5   0  0.3460648E-04  0.1963468E+04  0.7818609E-02  0.8623893E-01
        2   -1    0    0  501    0  0.00000000000E+00  0.00000000000E+00  0.11317473937E+04  0.11317473937E+04  0.25500000920E-02 0.  1.
       -2   -1    0    0    0  501  0.00000000000E+00  0.00000000000E+00 -0.85160523630E+03  0.85160523630E+03  0.25500000920E-02 0. -1.
    10030    2    1    2    0    0  0.00000000000E+00  0.00000000000E+00  0.28014215743E+03  0.19833526300E+04  0.19634683666E+04 0.  0.
        5    1    3    3  502    0 -0.47948872669E+03 -0.61368312897E+03  0.74383943649E+03  0.10769566468E+04  0.46999998093E+01 0.  1.
       -5    1    3    3    0  502  0.47948872669E+03  0.61368312897E+03 -0.46369727906E+03  0.90639598323E+03  0.46999998093E+01 0. -1.
</event>
<event>
 5   0  0.3387881E-04  0.1718209E+04  0.7818609E-02  0.8751047E-01
       -2   -1    0    0    0  501  0.00000000000E+00  0.00000000000E+00  0.72373688850E+03  0.72373688851E+03  0.25500000920E-02 0.  1.
        2   -1    0    0  501    0  0.00000000000E+00  0.00000000000E+00 -0.10197916875E+04  0.10197916875E+04  0.25500000920E-02 0. -1.
    10030    2    1    2    0    0  0.00000000000E+00  0.00000000000E+00 -0.29605479899E+03  0.17435285760E+04  0.17182093735E+04 0.  0.
        1    1    3    3  502    0 -0.17551178121E+03 -0.68947022395E+03 -0.63667014582E+03  0.95473684838E+03  0.50400001928E-02 0. -1.
       -1    1    3    3    0  502  0.17551178121E+03  0.68947022395E+03  0.34061534683E+03  0.78879172763E+03  0.50400001928E-02 0.  1.
</event>
<event>
 5   0  0.1222488E-04  0.1907692E+04  0.7818609E-02  0.8651037E-01
       -3   -1    0    0    0  501  0.00000000000E+00  0.00000000000E+00  0.72378832597E+03  0.72378833302E+03  0.10100000352E+00 0.  1.
        3   -1    0    0  501    0  0.00000000000E+00  0.00000000000E+00 -0.12570283756E+04  0.12570283796E+04  0.10100000352E+00 0. -1.
    10030    2    1    2    0    0  0.00000000000E+00  0.00000000000E+00 -0.53324004961E+03  0.19808167127E+04  0.19076922966E+04 0.  0.
        4    1    3    3  502    0  0.21869377779E+03  0.17866796360E+03  0.67938568316E+03  0.73574161840E+03  0.12699999809E+01 0.  1.
       -4    1    3    3    0  502 -0.21869377779E+03 -0.17866796360E+03 -0.12126257328E+04  0.12450750943E+04  0.12699999809E+01 0. -1.
</event>
<event>
 5   0  0.1696052E-04  0.1666596E+04  0.7818609E-02  0.8780649E-01
       -1   -1    0    0    0  501  0.00000000000E+00  0.00000000000E+00  0.13376046470E+04  0.13376046470E+04  0.50400001928E-02 0.  1.
        1   -1    0    0  501    0  0.00000000000E+00  0.00000000000E+00 -0.51912615743E+03  0.51912615746E+03  0.50400001928E-02 0. -1.
    10030    2    1    2    0    0  0.00000000000E+00  0.00000000000E+00  0.81847848959E+03  0.18567308045E+04  0.16665960046E+04 0.  0.
        4    1    3    3  502    0  0.29530682144E+03 -0.11825434229E+03  0.12672977211E+04  0.13066121594E+04  0.12699999809E+01 0.  1.
       -4    1    3    3    0  502 -0.29530682144E+03  0.11825434229E+03 -0.44881923148E+03  0.55011864512E+03  0.12699999809E+01 0. -1.
</event>
<event>
 5   0  0.3395569E-04  0.1524217E+04  0.7818609E-02  0.8868507E-01
        2   -1    0    0  501    0  0.00000000000E+00  0.00000000000E+00  0.50792312803E+03  0.50792312804E+03  0.25500000920E-02 0.  1.
       -2   -1    0    0    0  501  0.00000000000E+00  0.00000000000E+00 -0.11434987555E+04  0.11434987555E+04  0.25500000920E-02 0. -1.
    10030    2    1    2    0    0  0.00000000000E+00  0.00000000000E+00 -0.63557562751E+03  0.16514218836E+04  0.15242171300E+04 0.  0.
        4    1    3    3  502    0  0.39371267420E+03 -0.52607943486E+03 -0.73606154769E+03  0.98669015223E+03  0.12699999809E+01 0. -1.
       -4    1    3    3    0  502 -0.39371267420E+03  0.52607943486E+03  0.10048592018E+03  0.66473173135E+03  0.12699999809E+01 0.  1.
</event>
<event>
 5   0  0.3431030E-04  0.1975837E+04  0.7818609E-02  0.8618002E-01
       -2   -1    0    0    0  501  0.00000000000E+00  0.00000000000E+00  0.70874713089E+03  0.70874713090E+03  0.25500000920E-02 0. -1.
        2   -1    0    0  501    0  0.00000000000E+00  0.00000000000E+00 -0.13770540963E+04  0.13770540964E+04  0.25500000920E-02 0.  1.
    10030    2    1    2    0    0  0.00000000000E+00  0.00000000000E+00 -0.66830696546E+03  0.20858012272E+04  0.19758371794E+04 0.  0.
        3    1    3    3  502    0 -0.24510449812E+03 -0.67543036978E+00 -0.13444464412E+04  0.13666063496E+04  0.10100000352E+00 0.  1.
       -3    1    3    3    0  502  0.24510449812E+03  0.67543036978E+00  0.67613947575E+03  0.71919487768E+03  0.10100000352E+00 0. -1.
</event>
<event>
 5   0  0.3460648E-04  0.2000997E+04  0.7818609E-02  0.8606155E-01
       -2   -1    0    0    0  501  0.00000000000E+00  0.00000000000E+00  0.10810561029E+04  0.10810561029E+04  0.25500000920E-02 0.  1.
        2   -1    0    0  501    0  0.00000000000E+00  0.00000000000E+00 -0.92594391080E+03  0.92594391081E+03  0.25500000920E-02 0. -1.
    10030    2    1    2    0    0  0.00000000000E+00  0.00000000000E+00  0.15511219211E+03  0.20070000137E+04  0.20009970672E+04 0.  0.
        5    1    3    3  502    0 -0.47286195902E+03  0.35555698756E+03  0.88679499009E+03  0.10660425170E+04  0.46999998093E+01 0.  1.
       -5    1    3    3    0  502  0.47286195902E+03 -0.35555698756E+03 -0.73168279798E+03  0.94095749668E+03  0.46999998093E+01 0. -1.
</event>
<event>
 5   0  0.3460648E-04  0.1595281E+04  0.7818609E-02  0.8823452E-01
        2   -1    0    0  501    0  0.00000000000E+00  0.00000000000E+00  0.22070672316E+04  0.22070672316E+04  0.25500000920E-02 0.  1.
       -2   -1    0    0    0  501  0.00000000000E+00  0.00000000000E+00 -0.28826963194E+03  0.28826963195E+03  0.25500000920E-02 0. -1.
    10030    2    1    2    0    0  0.00000000000E+00  0.00000000000E+00  0.19187975996E+04  0.24953368635E+04  0.15952811144E+04 0.  0.
        5    1    3    3  502    0 -0.47672193408E+03 -0.60755326689E+03  0.64724962992E+03  0.10076402870E+04  0.46999998093E+01 0.  1.
       -5    1    3    3    0  502  0.47672193408E+03  0.60755326689E+03  0.12715479697E+04  0.14876965765E+04  0.46999998093E+01 0. -1.
</event>
<event>
 5   0  0.3460648E-04  0.2017018E+04  0.7818609E-02  0.8598705E-01
        2   -1    0    0  501    0  0.00000000000E+00  0.00000000000E+00  0.17845916961E+04  0.17845916961E+04  0.25500000920E-02 0. -1.
       -2   -1    0    0    0  501  0.00000000000E+00  0.00000000000E+00 -0.56992912161E+03  0.56992912161E+03  0.25500000920E-02 0.  1.
    10030    2    1    2    0    0  0.00000000000E+00  0.00000000000E+00  0.12146625745E+04  0.23545208177E+04  0.20170183716E+04 0.  0.
        5    1    3    3  502    0  0.25847451287E+03  0.59221053528E+03  0.15111972719E+04  0.16435515436E+04  0.46999998093E+01 0. -1.
       -5    1    3    3    0  502 -0.25847451287E+03 -0.59221053528E+03 -0.29653469744E+03  0.71096927408E+03  0.46999998093E+01 0.  1.
</event>
<event>
 5   0  0.1664168E-04  0.1874358E+04  0.7818609E-02  0.8667726E-01
       -1   -1    0    0    0  501  0.00000000000E+00  0.00000000000E+00  0.45553377954E+03  0.45553377957E+03  0.50400001928E-02 0. -1.
        1   -1    0    0  501    0  0.00000000000E+00  0.00000000000E+00 -0.19280777144E+04  0.19280777144E+04  0.50400001928E-02 0.  1.
    10030    2    1    2    0    0  0.00000000000E+00  0.00000000000E+00 -0.14725439349E+04  0.23836114940E+04  0.18743580539E+04 0.  0.
        5    1    3    3  502    0 -0.48216477921E+02 -0.67907372048E+03  0.82778988461E+02  0.68581367551E+03  0.46999998093E+01 0. -1.
       -5    1    3    3    0  502  0.48216477921E+02  0.67907372048E+03 -0.15553229234E+04  0.16977978185E+04  0.46999998093E+01 0.  1.
</event>
<event>
 5   0  0.3387881E-04  0.1990729E+04  0.7818609E-02  0.8610968E-01
       -2   -1    0    0    0  501  0.00000000000E+00  0.00000000000E+00  0.10904575591E+04  0.10904575591E+04  0.25500000920E-02 0. -1.
        2   -1    0    0  501    0  0.00000000000E+00  0.00000000000E+00 -0.90856384647E+03  0.90856384648E+03  0.25500000920E-02 0.  1.
    10030    2    1    2    0    0  0.00000000000E+00  0.00000000000E+00  0.18189371258E+03  0.19990214055E+04  0.19907288256E+04 0.  0.
        1    1    3    3  502    0  0.97094358141E+03 -0.28792287491E+02  0.30908407760E+03  0.10193593092E+04  0.50400001928E-02 0. -1.
       -1    1    3    3    0  502 -0.97094358141E+03  0.28792287491E+02 -0.12719036501E+03  0.97966209638E+03  0.50400001928E-02 0.  1.
</event>
<event>
 5   0  0.1643565E-04  0.2010791E+04  0.7818609E-02  0.8601592E-01
       -1   -1    0    0    0  501  0.00000000000E+00  0.00000000000E+00  0.10073359129E+04  0.10073359130E+04  0.50400001928E-02 0. -1.
        1   -1    0    0  501    0  0.00000000000E+00  0.00000000000E+00 -0.10034592055E+04  0.10034592056E+04  0.50400001928E-02 0.  1.
    10030    2    1    2    0    0  0.00000000000E+00  0.00000000000E+00  0.38767074044E+01  0.20107951185E+04  0.20107913815E+04 0.  0.
        2    1    3    3  502    0 -0.47169560647E+03  0.63449888058E+03  0.62301512359E+03  0.10065949627E+04  0.25500000920E-02 0. -1.
       -2    1    3    3    0  502  0.47169560647E+03 -0.63449888058E+03 -0.61913841618E+03  0.10042001559E+04  0.25500000920E-02 0.  1.
</event>
<event>
 5   0  0.1643565E-04  0.2070733E+04  0.7818609E-02  0.8574246E-01
        1   -1    0    0  501    0  0.00000000000E+00  0.00000000000E+00  0.12800566387E+04  0.12800566387E+04  0.50400001928E-02 0.  1.
       -1   -1    0    0    0  501  0.00000000000E+00  0.00000000000E+00 -0.83745026783E+03  0.83745026785E+03  0.50400001928E-02 0. -1.
    10030    2    1    2    0    0  0.00000000000E+00  0.00000000000E+00  0.44260637090E+03  0.21175069066E+04  0.20707329861E+04 0.  0.
        2    1    3    3  502    0 -0.85668961234E+03  0.42922427808E+03  0.62237835334E+03  0.11425871466E+04  0.25500000920E-02 0.  1.
       -2    1    3    3    0  502  0.85668961234E+03 -0.42922427808E+03 -0.17977198244E+03  0.97491976002E+03  0.25500000920E-02 0. -1.
</event>
<event>
 5   0  0.1708578E-04  0.1975520E+04  0.7818609E-02  0.8618152E-01
        1   -1    0    0  501    0  0.00000000000E+00  0.00000000000E+00  0.25078353801E+04  0.25078353801E+04  0.50400001928E-02 0. -1.
       -1   -1    0    0    0  501  0.00000000000E+00  0.00000000000E+00 -0.38904850810E+03  0.38904850813E+03  0.50400001928E-02 0.  1.
    10030    2    1    2    0    0  0.00000000000E+00  0.00000000000E+00  0.21187868720E+04  0.28968838882E+04  0.19755197931E+04 0.  0.
        3    1    3    3  502    0 -0.17342507811E+03  0.43244755518E+03 -0.21778359822E+03  0.51431201771E+03  0.10100000352E+00 0.  1.
       -3    1    3    3    0  502  0.17342507811E+03 -0.43244755518E+03  0.23365704702E+04  0.23825718705E+04  0.10100000352E+00 0. -1.
</event>
<event>
 5   0  0.3387881E-04  0.2135523E+04  0.7818609E-02  0.8545755E-01
        2   -1    0    0  501    0  0.00000000000E+00  0.00000000000E+00  0.21450433448E+04  0.21450433448E+04  0.25500000920E-02 0.  1.
       -2   -1    0    0    0  501  0.00000000000E+00  0.00000000000E+00 -0.53151110950E+03  0.53151110951E+03  0.25500000920E-02 0. -1.
    10030    2    1    2    0    0  0.00000000000E+00  0.00000000000E+00  0.16135322353E+04  0.26765544543E+04  0.21355227633E+04 0.  0.
        1    1    3    3  502    0  0.61588090693E+03 -0.87070839840E+03  0.87155298437E+03  0.13773332970E+04  0.50400001928E-02 0. -1.
       -1    1    3    3    0  502 -0.61588090693E+03  0.87070839840E+03  0.74197925089E+03  0.12992211572E+04  0.50400001928E-02 0.  1.
</event>
<event>
 5   0  0.1696052E-04  0.1971544E+04  0.7818609E-02  0.8620042E-01
        1   -1    0    0  501    0  0.00000000000E+00  0.00000000000E+00  0.21417247464E+04  0.21417247464E+04  0.50400001928E-02 0.  1.
       -1   -1    0    0    0  501  0.00000000000E+00  0.00000000000E+00 -0.45372132086E+03  0.45372132089E+03  0.50400001928E-02 0. -1.
    10030    2    1    2    0    0  0.00000000000E+00  0.00000000000E+00  0.16880034256E+04  0.25954460673E+04  0.19715437413E+04 0.  0.
        4    1    3    3  502    0  0.74446473823E+03  0.44776811754E+03  0.14572777650E+04  0.16965801280E+04  0.12699999809E+01 0.  1.
       -4    1    3    3    0  502 -0.74446473823E+03 -0.44776811754E+03  0.23072566062E+03  0.89886593934E+03  0.12699999809E+01 0. -1.
</event>
<event>
 5   0  0.1696052E-04  0.2029134E+04  0.7818609E-02  0.8593119E-01
        1   -1    0    0  501    0  0.00000000000E+00  0.00000000000E+00  0.20626462814E+04  0.20626462814E+04  0.50400001928E-02 0. -1.
       -1   -1    0    0    0  501  0.00000000000E+00  0.00000000000E+00 -0.49904153657E+03  0.49904153660E+03  0.50400001928E-02 0.  1.
    10030    2    1    2    0    0  0.00000000000E+00  0.00000000000E+00  0.15636047448E+04  0.25616878180E+04  0.20291339726E+04 0.  0.
        4    1    3    3  502    0 -0.21507372262E+03 -0.74132664925E+03 -0.49427949510E+02  0.77347698230E+03  0.12699999809E+01 0.  1.
       -4    1    3    3    0  502  0.21507372262E+03  0.74132664925E+03  0.16130326944E+04  0.17882108357E+04  0.12699999809E+01 0. -1.
</event>
<event>
 5   0  0.1664168E-04  0.1982209E+04  0.7818609E-02  0.8614984E-01
       -1   -1    0    0    0  501  0.00000000000E+00  0.00000000000E+00  0.68539388470E+03  0.68539388472E+03  0.50400001928E-02 0. -1.
        1   -1    0    0  501    0  0.00000000000E+00  0.00000000000E+00 -0.14331732832E+04  0.14331732832E+04  0.50400001928E-02 0.  1.
    10030    2    1    2    0    0  0.00000000000E+00  0.00000000000E+00 -0.74777939849E+03  0.21185671679E+04  0.19822090748E+04 0.  0.
        5    1    3    3  502    0  0.40794812497E+03  0.90234076500E+03 -0.33079760061E+03  0.10440735948E+04  0.46999998093E+01 0.  1.
       -5    1    3    3    0  502 -0.40794812497E+03 -0.90234076500E+03 -0.41698179788E+03  0.10744935731E+04  0.46999998093E+01 0. -1.
</event>
<event>
 5   0  0.3371947E-04  0.1289896E+04  0.7818609E-02  0.9037616E-01
        2   -1    0    0  501    0  0.00000000000E+00  0.00000000000E+00  0.17270757139E+04  0.17270757139E+04  0.25500000920E-02 0. -1.
       -2   -1    0    0    0  501  0.00000000000E+00  0.00000000000E+00 -0.24084536787E+03  0.24084536788E+03  0.25500000920E-02 0.  1.
    10030    2    1    2    0    0  0.00000000000E+00  0.00000000000E+00  0.14862303461E+04  0.19679210818E+04  0.12898964077E+04 0.  0.
        2    1    3    3  502    0 -0.33318520033E+03  0.30903086526E+03  0.14413292534E+04  0.15112718055E+04  0.25500000920E-02 0. -1.
       -2    1    3    3    0  502  0.33318520033E+03 -0.30903086526E+03  0.44901092644E+02  0.45664927629E+03  0.25500000920E-02 0.  1.
</event>
<event>
 5   0  0.3395569E-04  0.1988342E+04  0.7818609E-02  0.8612091E-01
        2   -1    0    0  501    0  0.00000000000E+00  0.00000000000E+00  0.11515422906E+04  0.11515422906E+04  0.25500000920E-02 0.  1.
       -2   -1    0    0    0  501  0.00000000000E+00  0.00000000000E+00 -0.85830624566E+03  0.85830624567E+03  0.25500000920E-02 0. -1.
    10030    2    1    2    0    0  0.00000000000E+00  0.00000000000E+00  0.29323604493E+03  0.20098485363E+04  0.19883419627E+04 0.  0.
        4    1    3    3  502    0 -0.66864568969E+03  0.13409173496E+03 -0.58460589663E+03  0.89823900995E+03  0.12699999809E+01 0. -1.
       -4    1    3    3    0  502  0.66864568969E+03 -0.13409173496E+03  0.87784194156E+03  0.11116095263E+04  0.12699999809E+01 0.  1.
</event>
<event>
 5   0  0.3460648E-04  0.2043742E+04  0.7818609E-02  0.8586439E-01
       -2   -1    0    0    0  501  0.00000000000E+00  0.00000000000E+00  0.63694864325E+03  0.63694864326E+03  0.25500000920E-02 0. -1.
        2   -1    0    0  501    0  0.00000000000E+00  0.00000000000E+00 -0.16394107257E+04  0.16394107257E+04  0.25500000920E-02 0.  1.
    10030    2    1    2    0    0  0.00000000000E+00  0.00000000000E+00 -0.10024620825E+04  0.22763593690E+04  0.20437420948E+04 0.  0.
        5    1    3    3  502    0  0.84251869102E+03  0.56882677017E+03 -0.61696489619E+03  0.11891465058E+04  0.46999998093E+01 0.  1.
       -5    1    3    3    0  502 -0.84251869102E+03 -0.56882677017E+03 -0.38549718627E+03  0.10872128632E+04  0.46999998093E+01 0. -1.
</event>
<event>
 5   0  0.3431030E-04  0.2108543E+04  0.7818609E-02  0.8557489E-01
        2   -1    0    0  501    0  0.00000000000E+00  0.00000000000E+00  0.13899227912E+04  0.13899227912E+04  0.25500000920E-02 0.  1.
       -2   -1    0    0    0  501  0.00000000000E+00  0.00000000000E+00 -0.79967647117E+03  0.79967647117E+03  0.25500000920E-02 0. -1.
    10030    2    1    2    0    0  0.00000000000E+00  0.00000000000E+00  0.59024632001E+03  0.21895992623E+04  0.21085431490E+04 0.  0.
        3    1    3    3  502    0  0.46723549838E+03 -0.94132049010E+03  0.38259464612E+03  0.11183791618E+04  0.10100000352E+00 0.  1.
       -3    1    3    3    0  502 -0.46723549838E+03  0.94132049010E+03  0.20765167389E+03  0.10712201006E+04  0.10100000352E+00 0. -1.
</event>
<event>
 5   0  0.3460648E-04  0.1761527E+04  0.7818609E-02  0.8727031E-01
        2   -1    0    0  501    0  0.00000000000E+00  0.00000000000E+00  0.18227973654E+04  0.18227973654E+04  0.25500000920E-02 0. -1.
       -2   -1    0    0    0  501  0.00000000000E+00  0.00000000000E+00 -0.42557922240E+03  0.42557922241E+03  0.25500000920E-02 0.  1.
    10030    2    1    2    0    0  0.00000000000E+00  0.00000000000E+00  0.13972181430E+04  0.22483765878E+04  0.17615273888E+04 0.  0.
        5    1    3    3  502    0  0.22408457581E+03  0.40139535076E+02  0.17845799953E+04  0.17990477839E+04  0.46999998093E+01 0. -1.
       -5    1    3    3    0  502 -0.22408457581E+03 -0.40139535076E+02 -0.38736185227E+03  0.44932880387E+03  0.46999998093E+01 0.  1.
</event>
<event>
 5   0  0.3371947E-04  0.1972025E+04  0.7818609E-02  0.8619813E-01
       -2   -1    0    0    0  501  0.00000000000E+00  0.00000000000E+00  0.10747472301E+04  0.10747472301E+04  0.25500000920E-02 0.  1.
        2   -1    0    0  501    0  0.00000000000E+00  0.00000000000E+00 -0.90460420454E+03  0.90460420455E+03  0.25500000920E-02 0. -1.
    10030    2    1    2    0    0  0.00000000000E+00  0.00000000000E+00  0.17014302556E+03  0.19793514347E+04  0.19720252160E+04 0.  0.
        2    1    3    3  502    0 -0.67593717245E+01  0.11391893698E+03  0.10680963690E+04  0.10741755289E+04  0.25500000920E-02 0.  1.
       -2    1    3    3    0  502  0.67593717245E+01 -0.11391893698E+03 -0.89795334348E+03  0.90517590576E+03  0.25500000920E-02 0. -1.
</event>
<event>
 5   0  0.1650221E-04  0.1970260E+04  0.7818609E-02  0.8620652E-01
       -1   -1    0    0    0  501  0.00000000000E+00  0.00000000000E+00  0.10116338591E+04  0.10116338591E+04  0.50400001928E-02 0.  1.
        1   -1    0    0  501    0  0.00000000000E+00  0.00000000000E+00 -0.95932094508E+03  0.95932094509E+03  0.50400001928E-02 0. -1.
    10030    2    1    2    0    0  0.00000000000E+00  0.00000000000E+00  0.52312913990E+02  0.19709548042E+04  0.19702604394E+04 0.  0.
        1    1    3    3  502    0  0.75902097744E+03 -0.58476480984E+03  0.25518871765E+03  0.99155635678E+03  0.50400001928E-02 0.  1.
       -1    1    3    3    0  502 -0.75902097744E+03  0.58476480984E+03 -0.20287580366E+03  0.97939844740E+03  0.50400001928E-02 0. -1.
</event>
<event>
 5   0  0.1696052E-04  0.2613976E+04  0.7818609E-02  0.8363469E-01
        1   -1    0    0  501    0  0.00000000000E+00  0.00000000000E+00  0.63175353719E+03  0.63175353721E+03  0.50400001928E-02 0.  1.
       -1   -1    0    0    0  501  0.00000000000E+00  0.00000000000E+00 -0.27039294397E+04  0.27039294397E+04  0.50400001928E-02 0. -1.
    10030    2    1    2    0    0  0.00000000000E+00  0.00000000000E+00 -0.20721759025E+04  0.33356829769E+04  0.26139755071E+04 0.  0.
        4    1    3    3  502    0 -0.72354377419E+03  0.32508867011E+02  0.35224494252E+03  0.80538843550E+03  0.12699999809E+01 0.  1.
       -4    1    3    3    0  502  0.72354377419E+03 -0.32508867011E+02 -0.24244208451E+04  0.25302945414E+04  0.12699999809E+01 0. -1.
</event>
<event>
 5   0  0.3395569E-04  0.1992631E+04  0.7818609E-02  0.8610074E-01
        2   -1    0    0  501    0  0.00000000000E+00  0.00000000000E+00  0.15157712595E+04  0.15157712595E+04  0.25500000920E-02 0. -1.
       -2   -1    0    0    0  501  0.00000000000E+00  0.00000000000E+00 -0.65487728734E+03  0.65487728735E+03  0.25500000920E-02 0.  1.
    10030    2    1    2    0    0  0.00000000000E+00  0.00000000000E+00  0.86089397219E+03  0.21706485469E+04  0.19926305936E+04 0.  0.
        4    1    3    3  502    0  0.46013047003E+03  0.88351758368E+03  0.41098506257E+03  0.10776055422E+04  0.12699999809E+01 0.  1.
       -4    1    3    3    0  502 -0.46013047003E+03 -0.88351758368E+03  0.44990890962E+03  0.10930430046E+04  0.12699999809E+01 0. -1.
</event>
<event>
 5   0  0.3395569E-04  0.1982543E+04  0.7818609E-02  0.8614826E-01
       -2   -1    0    0    0  501  0.00000000000E+00  0.00000000000E+00  0.48051989845E+03  0.48051989846E+03  0.25500000920E-02 0. -1.
        2   -1    0    0  501    0  0.00000000000E+00  0.00000000000E+00 -0.20449087479E+04  0.20449087479E+04  0.25500000920E-02 0.  1.
    10030    2    1    2    0    0  0.00000000000E+00  0.00000000000E+00 -0.15643888494E+04  0.25254286463E+04  0.19825431585E+04 0.  0.
        4    1    3    3  502    0  0.50461101473E+02 -0.63092308250E+03  0.18960521178E+03  0.66072839202E+03  0.12699999809E+01 0. -1.
       -4    1    3    3    0  502 -0.50461101473E+02  0.63092308250E+03 -0.17539940612E+04  0.18647002543E+04  0.12699999809E+01 0.  1.
</event>
<event>
 5   0  0.1643565E-04  0.2050097E+04  0.7818609E-02  0.8583550E-01
       -1   -1    0    0    0  501  0.00000000000E+00  0.00000000000E+00  0.85046335339E+03  0.85046335341E+03  0.50400001928E-02 0.  1.
        1   -1    0    0  501    0  0.00000000000E+00  0.00000000000E+00 -0.12354733112E+04  0.12354733113E+04  0.50400001928E-02 0. -1.
    10030    2    1    2    0    0  0.00000000000E+00  0.00000000000E+00 -0.38500995785E+03  0.20859366647E+04  0.20500973395E+04 0.  0.
        2    1    3    3  502    0  0.61295939377E+03  0.10265088721E+03  0.63689455356E+03  0.88988263013E+03  0.25500000920E-02 0. -1.
       -2    1    3    3    0  502 -0.61295939377E+03 -0.10265088721E+03 -0.10219045114E+04  0.11960540345E+04  0.25500000920E-02 0.  1.
</event>
<event>
 5   0  0.1643565E-04  0.2045909E+04  0.7818609E-02  0.8585452E-01
        1   -1    0    0  501    0  0.00000000000E+00  0.00000000000E+00  0.13371790082E+04  0.13371790082E+04  0.50400001928E-02 0.  1.
       -1   -1    0    0    0  501  0.00000000000E+00  0.00000000000E+00 -0.78257006218E+03  0.78257006220E+03  0.50400001928E-02 0. -1.
    10030    2    1    2    0    0  0.00000000000E+00  0.00000000000E+00  0.55460894603E+03  0.21197490704E+04  0.20459093427E+04 0.  0.
        2    1    3    3  502    0  0.32199591243E+03 -0.33901158273E+03 -0.66538272507E+03  0.81323083542E+03  0.25500000920E-02 0. -1.
       -2    1    3    3    0  502 -0.32199591243E+03  0.33901158273E+03  0.12199916711E+04  0.13065182350E+04  0.25500000920E-02 0.  1.
</event>
<event>
 5   0  0.3371947E-04  0.2001933E+04  0.7818609E-02  0.8605718E-01
        2   -1    0    0  501    0  0.00000000000E+00  0.00000000000E+00  0.13174297615E+04  0.13174297615E+04  0.25500000920E-02 0. -1.
       -2   -1    0    0    0  501  0.00000000000E+00  0.00000000000E+00 -0.76052152712E+03  0.76052152712E+03  0.25500000920E-02 0.  1.
    10030    2    1    2    0    0  0.00000000000E+00  0.00000000000E+00  0.55690823439E+03  0.20779512886E+04  0.20019327602E+04 0.  0.
        2    1    3    3  502    0 -0.18687910068E+03 -0.90137743466E+03 -0.12957422769E+03  0.92962065300E+03  0.25500000920E-02 0.  1.
       -2    1    3    3    0  502  0.18687910068E+03  0.90137743466E+03  0.68648246208E+03  0.11483306356E+04  0.25500000920E-02 0. -1.
</event>
<event>
 5   0  0.3431030E-04  0.1999234E+04  0.7818609E-02  0.8606979E-01
        2   -1    0    0  501    0  0.00000000000E+00  0.00000000000E+00  0.16871090053E+04  0.16871090053E+04  0.25500000920E-02 0. -1.
       -2   -1    0    0    0  501  0.00000000000E+00  0.00000000000E+00 -0.59227574391E+03  0.59227574391E+03  0.25500000920E-02 0.  1.
    10030    2    1    2    0    0  0.00000000000E+00  0.00000000000E+00  0.10948332614E+04  0.22793847493E+04  0.19992335944E+04 0.  0.
        3    1    3    3  502    0  0.48529008239E+03  0.18970498727E+03  0.15200339687E+04  0.16068595840E+04  0.10100000352E+00 0. -1.
       -3    1    3    3    0  502 -0.48529008239E+03 -0.18970498727E+03 -0.42520070730E+03  0.67252516529E+03  0.10100000352E+00 0.  1.
</event>
<event>
 5   0  0.3371947E-04  0.1958286E+04  0.7818609E-02  0.8626376E-01
        2   -1    0    0  501    0  0.00000000000E+00  0.00000000000E+00  0.26073513033E+04  0.26073513033E+04  0.25500000920E-02 0. -1.
       -2   -1    0    0    0  501  0.00000000000E+00  0.00000000000E+00 -0.36769913462E+03  0.36769913463E+03  0.25500000920E-02 0.  1.
    10030    2    1    2    0    0  0.00000000000E+00  0.00000000000E+00  0.22396521687E+04  0.29750504379E+04  0.19582857992E+04 0.  0.
        2    1    3    3  502    0  0.30547998914E+02  0.61178118052E+03  0.22803201935E+04  0.23611585245E+04  0.25500000920E-02 0. -1.
       -2    1    3    3    0  502 -0.30547998914E+02 -0.61178118052E+03 -0.40668024823E+02  0.61389191339E+03  0.25500000920E-02 0.  1.
</event>
<event>
 5   0  0.3387881E-04  0.1983194E+04  0.7818609E-02  0.8614519E-01
       -2   -1    0    0    0  501  0.00000000000E+00  0.00000000000E+00  0.79627138481E+03  0.79627138481E+03  0.25500000920E-02 0. -1.
        2   -1    0    0  501    0  0.00000000000E+00  0.00000000000E+00 -0.12348361145E+04  0.12348361145E+04  0.25500000920E-02 0.  1.
    10030    2    1    2    0    0  0.00000000000E+00  0.00000000000E+00 -0.43856472973E+03  0.20311074993E+04  0.19831940530E+04 0.  0.
        1    1    3    3  502    0  0.65418234400E+03 -0.59844796121E+03 -0.67404868581E+03  0.11137486846E+04  0.50400001928E-02 0. -1.
       -1    1    3    3    0  502 -0.65418234400E+03  0.59844796121E+03  0.23548395608E+03  0.91735881479E+03  0.50400001928E-02 0.  1.
</event>
<event>
 5   0  0.1664168E-04  0.2026321E+04  0.7818609E-02  0.8594413E-01
        1   -1    0    0  501    0  0.00000000000E+00  0.00000000000E+00  0.90893632498E+03  0.90893632500E+03  0.50400001928E-02 0. -1.
       -1   -1    0    0    0  501  0.00000000000E+00  0.00000000000E+00 -0.11293351241E+04  0.11293351241E+04  0.50400001928E-02 0.  1.
    10030    2    1    2    0    0  0.00000000000E+00  0.00000000000E+00 -0.22039879908E+03  0.20382714491E+04  0.20263205249E+04 0.  0.
        5    1    3    3  502    0 -0.98470612393E+03 -0.23817025094E+03 -0.12027889915E+03  0.10202256233E+04  0.46999998093E+01 0.  1.
       -5    1    3    3    0  502  0.98470612393E+03  0.23817025094E+03 -0.10011989992E+03  0.10180458257E+04  0.46999998093E+01 0. -1.
</event>
<event>
 5   0  0.3460648E-04  0.2071897E+04  0.7818609E-02  0.8573725E-01
        2   -1    0    0  501    0  0.00000000000E+00  0.00000000000E+00  0.30577226965E+04  0.30577226965E+04  0.25500000920E-02 0.  1.
       -2   -1    0    0    0  501  0.00000000000E+00  0.00000000000E+00 -0.35097649951E+03  0.35097649952E+03  0.25500000920E-02 0. -1.
    10030    2    1    2    0    0  0.00000000000E+00  0.00000000000E+00  0.27067461970E+04  0.34086991960E+04  0.20718965307E+04 0.  0.
        5    1    3    3  502    0  0.54335796685E+03  0.71853262783E+03  0.51183760661E+03  0.10361114047E+04  0.46999998093E+01 0. -1.
       -5    1    3    3    0  502 -0.54335796685E+03 -0.71853262783E+03  0.21949085904E+04  0.23725877913E+04  0.46999998093E+01 0.  1.
</event>
<event>
 5   0  0.3395569E-04  0.2041033E+04  0.7818609E-02  0.8587673E-01
        2   -1    0    0  501    0  0.00000000000E+00  0.00000000000E+00  0.73062435395E+03  0.73062435395E+03  0.25500000920E-02 0.  1.
       -2   -1    0    0    0  501  0.00000000000E+00  0.00000000000E+00 -0.14254294524E+04  0.14254294524E+04  0.25500000920E-02 0. -1.
    10030    2    1    2    0    0  0.00000000000E+00  0.00000000000E+00 -0.69480509847E+03  0.21560538064E+04  0.20410325551E+04 0.  0.
        4    1    3    3  502    0 -0.43106033489E+03  0.12835261879E+03  0.62028065311E+03  0.76618346927E+03  0.12699999809E+01 0.  1.
       -4    1    3    3    0  502  0.43106033489E+03 -0.12835261879E+03 -0.13150857516E+04  0.13898703371E+04  0.12699999809E+01 0. -1.
</event>
<event>
 5   0  0.3371947E-04  0.1967515E+04  0.7818609E-02  0.8621961E-01
        2   -1    0    0  501    0  0.00000000000E+00  0.00000000000E+00  0.19341084166E+04  0.19341084167E+04  0.25500000920E-02 0.  1.
       -2   -1    0    0    0  501  0.00000000000E+00  0.00000000000E+00 -0.50037487827E+03  0.50037487827E+03  0.25500000920E-02 0. -1.
    10030    2    1    2    0    0  0.00000000000E+00  0.00000000000E+00  0.14337335384E+04  0.24344832949E+04  0.19675154521E+04 0.  0.
        2    1    3    3  502    0  0.19300848559E+03 -0.69889804313E+03 -0.10581796492E+03  0.73274019400E+03  0.25500000920E-02 0. -1.
       -2    1    3    3    0  502 -0.19300848559E+03  0.69889804313E+03  0.15395515033E+04  0.17017431009E+04  0.25500000920E-02 0.  1.
</event>
<event>
 5   0  0.1664168E-04  0.1874998E+04  0.7818609E-02  0.8667402E-01
       -1   -1    0    0    0  501  0.00000000000E+00  0.00000000000E+00  0.43237969388E+03  0.43237969391E+03  0.50400001928E-02 0. -1.
        1   -1    0    0  501    0  0.00000000000E+00  0.00000000000E+00 -0.20327145875E+04  0.20327145875E+04  0.50400001928E-02 0.  1.
    10030    2    1    2    0    0  0.00000000000E+00  0.00000000000E+00 -0.16003348936E+04  0.24650942814E+04  0.18749981452E+04 0.  0.
        5    1    3    3  502    0  0.64976127376E+03  0.46479705259E+03 -0.14451254065E+04  0.16512527195E+04  0.46999998093E+01 0.  1.
       -5    1    3    3    0  502 -0.64976127376E+03 -0.46479705259E+03 -0.15520948703E+03  0.81384156188E+03  0.46999998093E+01 0. -1.
</event>
<event>
 5   0  0.1664168E-04  0.1091853E+04  0.7818609E-02  0.9213169E-01
       -1   -1    0    0    0  501  0.00000000000E+00  0.00000000000E+00  0.64380630331E+03  0.64380630333E+03  0.50400001928E-02 0. -1.
        1   -1    0    0  501    0  0.00000000000E+00  0.00000000000E+00 -0.46292789884E+03  0.46292789887E+03  0.50400001928E-02 0.  1.
    10030    2    1    2    0    0  0.00000000000E+00  0.00000000000E+00  0.18087840447E+03  0.11067342022E+04  0.10918532855E+04 0.  0.
        5    1    3    3  502    0  0.34831902133E+03 -0.41100571878E+03  0.17974197925E+03  0.56796224399E+03  0.46999998093E+01 0. -1.
       -5    1    3    3    0  502 -0.34831902133E+03  0.41100571878E+03  0.11364252257E+01  0.53877195821E+03  0.46999998093E+01 0.  1.
</event>
<event>
 5   0  0.3387881E-04  0.1099149E+04  0.7818609E-02  0.9206021E-01
       -2   -1    0    0    0  501  0.00000000000E+00  0.00000000000E+00  0.66183364227E+03  0.66183364228E+03  0.25500000920E-02 0. -1.
        2   -1    0    0  501    0  0.00000000000E+00  0.00000000000E+00 -0.45635692204E+03  0.45635692205E+03  0.25500000920E-02 0.  1.
    10030    2    1    2    0    0  0.00000000000E+00  0.00000000000E+00  0.20547672023E+03  0.11181905643E+04  0.10991494237E+04 0.  0.
        1    1    3    3  502    0 -0.30891759531E+03 -0.41357857173E+03 -0.89088634399E+02  0.52384549296E+03  0.50400001928E-02 0.  1.
       -1    1    3    3    0  502  0.30891759531E+03  0.41357857173E+03  0.29456535463E+03  0.59434507137E+03  0.50400001928E-02 0. -1.
</event>
<event>
 5   0  0.3460648E-04  0.2087061E+04  0.7818609E-02  0.8566965E-01
        2   -1    0    0  501    0  0.00000000000E+00  0.00000000000E+00  0.20070803003E+04  0.20070803003E+04  0.25500000920E-02 0.  1.
       -2   -1    0    0    0  501  0.00000000000E+00  0.00000000000E+00 -0.54255708240E+03  0.54255708240E+03  0.25500000920E-02 0. -1.
    10030    2    1    2    0    0  0.00000000000E+00  0.00000000000E+00  0.14645232179E+04  0.25496373827E+04  0.20870607388E+04 0.  0.
        5    1    3    3  502    0 -0.35043707295E+03  0.49346604280E+03 -0.30621786553E+03  0.67831139505E+03  0.46999998093E+01 0. -1.
       -5    1    3    3    0  502  0.35043707295E+03 -0.49346604280E+03  0.17707410834E+04  0.18713259876E+04  0.46999998093E+01 0.  1.
</event>
<event>
 5   0  0.3460648E-04  0.2017781E+04  0.7818609E-02  0.8598352E-01
        2   -1    0    0  501    0  0.00000000000E+00  0.00000000000E+00  0.14830836423E+04  0.14830836423E+04  0.25500000920E-02 0. -1.
       -2   -1    0    0    0  501  0.00000000000E+00  0.00000000000E+00 -0.68631308503E+03  0.68631308503E+03  0.25500000920E-02 0.  1.
    10030    2    1    2    0    0  0.00000000000E+00  0.00000000000E+00  0.79677055725E+03  0.21693967273E+04  0.20177806718E+04 0.  0.
        5    1    3    3  502    0  0.96845601885E+03  0.27582934834E+03  0.33168559900E+03  0.10602010736E+04  0.46999998093E+01 0. -1.
       -5    1    3    3    0  502 -0.96845601885E+03 -0.27582934834E+03  0.46508495825E+03  0.11091956537E+04  0.46999998093E+01 0.  1.
</event>
<event>
 5   0  0.1696052E-04  0.1948985E+04  0.7818609E-02  0.8630850E-01
        1   -1    0    0  501    0  0.00000000000E+00  0.00000000000E+00  0.11250454983E+04  0.11250454983E+04  0.50400001928E-02 0. -1.
       -1   -1    0    0    0  501  0.00000000000E+00  0.00000000000E+00 -0.84408633540E+03  0.84408633542E+03  0.50400001928E-02 0.  1.
    10030    2    1    2    0    0  0.00000000000E+00  0.00000000000E+00  0.28095916286E+03  0.19691318337E+04  0.19489848966E+04 0.  0.
        4    1    3    3  502    0  0.34754462655E+03 -0.64237611633E+03  0.79228375449E+03  0.10775664726E+04  0.12699999809E+01 0. -1.
       -4    1    3    3    0  502 -0.34754462655E+03  0.64237611633E+03 -0.51132459162E+03  0.89156536113E+03  0.12699999809E+01 0.  1.
</event>
<event>
 5   0  0.1696052E-04  0.2055656E+04  0.7818609E-02  0.8581033E-01
        1   -1    0    0  501    0  0.00000000000E+00  0.00000000000E+00  0.21869601609E+04  0.21869601609E+04  0.50400001928E-02 0. -1.
       -1   -1    0    0    0  501  0.00000000000E+00  0.00000000000E+00 -0.48305903363E+03  0.48305903365E+03  0.50400001928E-02 0.  1.
    10030    2    1    2    0    0  0.00000000000E+00  0.00000000000E+00  0.17039011273E+04  0.26700191946E+04  0.20556564518E+04 0.  0.
        4    1    3    3  502    0 -0.44450574766E+03 -0.68767662244E+02 -0.34843840706E+03  0.56896861731E+03  0.12699999809E+01 0.  1.
       -4    1    3    3    0  502  0.44450574766E+03  0.68767662244E+02  0.20523395343E+04  0.21010505773E+04  0.12699999809E+01 0. -1.
</event>
<event>
 5   0  0.1643565E-04  0.1926126E+04  0.7818609E-02  0.8641960E-01
        1   -1    0    0  501    0  0.00000000000E+00  0.00000000000E+00  0.11098190474E+04  0.11098190474E+04  0.50400001928E-02 0. -1.
       -1   -1    0    0    0  501  0.00000000000E+00  0.00000000000E+00 -0.83571316511E+03  0.83571316513E+03  0.50400001928E-02 0.  1.
    10030    2    1    2    0    0  0.00000000000E+00  0.00000000000E+00  0.27410588230E+03  0.19455322126E+04  0.19261260487E+04 0.  0.
        2    1    3    3  502    0 -0.31522509689E+03 -0.86152414269E+03 -0.15898644224E+03  0.93105714055E+03  0.25500000920E-02 0.  1.
       -2    1    3    3    0  502  0.31522509689E+03  0.86152414269E+03  0.43309232454E+03  0.10144750720E+04  0.25500000920E-02 0. -1.
</event>
<event>
 5   0  0.3387881E-04  0.1996726E+04  0.7818609E-02  0.8608153E-01
       -2   -1    0    0    0  501  0.00000000000E+00  0.00000000000E+00  0.11448281553E+04  0.11448281553E+04  0.25500000920E-02 0.  1.
        2   -1    0    0  501    0  0.00000000000E+00  0.00000000000E+00 -0.87063600197E+03  0.87063600198E+03  0.25500000920E-02 0. -1.
    10030    2    1    2    0    0  0.00000000000E+00  0.00000000000E+00  0.27419215329E+03  0.20154641572E+04  0.19967259282E+04 0.  0.
        1    1    3    3  502    0  0.37102374702E+03  0.84990165229E+03  0.51034615976E+03  0.10585105773E+04  0.50400001928E-02 0.  1.
       -1    1    3    3    0  502 -0.37102374702E+03 -0.84990165229E+03 -0.23615400647E+03  0.95695357996E+03  0.50400001928E-02 0. -1.
</event>
<event>
 5   0  0.3460648E-04  0.1958342E+04  0.7818609E-02  0.8626349E-01
       -2   -1    0    0    0  501  0.00000000000E+00  0.00000000000E+00  0.11464870296E+04  0.11464870296E+04  0.25500000920E-02 0.  1.
        2   -1    0    0  501    0  0.00000000000E+00  0.00000000000E+00 -0.83627259218E+03  0.83627259218E+03  0.25500000920E-02 0. -1.
    10030    2    1    2    0    0  0.00000000000E+00  0.00000000000E+00  0.31021443742E+03  0.19827596218E+04  0.19583418293E+04 0.  0.
        5    1    3    3  502    0 -0.97292396204E+03  0.96028423492E+02  0.21010855527E+03  0.99998509440E+03  0.46999998093E+01 0. -1.
       -5    1    3    3    0  502  0.97292396204E+03 -0.96028423492E+02  0.10010588215E+03  0.98277452738E+03  0.46999998093E+01 0.  1.
</event>
<event>
 5   0  0.3431030E-04  0.2115994E+04  0.7818609E-02  0.8554230E-01
        2   -1    0    0  501    0  0.00000000000E+00  0.00000000000E+00  0.75445117631E+03  0.75445117631E+03  0.25500000920E-02 0.  1.
       -2   -1    0    0    0  501  0.00000000000E+00  0.00000000000E+00 -0.14836714042E+04  0.14836714042E+04  0.25500000920E-02 0. -1.
    10030    2    1    2    0    0  0.00000000000E+00  0.00000000000E+00 -0.72922022790E+03  0.22381225805E+04  0.21159939850E+04 0.  0.
        3    1    3    3  502    0 -0.34803764403E+03 -0.97286740208E+03 -0.60524115378E+03  0.11974631719E+04  0.10100000352E+00 0.  1.
       -3    1    3    3    0  502  0.34803764403E+03  0.97286740208E+03 -0.12397907412E+03  0.10406594086E+04  0.10100000352E+00 0. -1.
</event>
<event>
 5   0  0.1696052E-04  0.2016129E+04  0.7818609E-02  0.8599117E-01
        1   -1    0    0  501    0  0.00000000000E+00  0.00000000000E+00  0.15927651390E+04  0.15927651390E+04  0.50400001928E-02 0. -1.
       -1   -1    0    0    0  501  0.00000000000E+00  0.00000000000E+00 -0.63800605985E+03  0.63800605987E+03  0.50400001928E-02 0.  1.
    10030    2    1    2    0    0  0.00000000000E+00  0.00000000000E+00  0.95475907917E+03  0.22307711989E+04  0.20161287763E+04 0.  0.
        4    1    3    3  502    0  0.76381173571E+03  0.16738216449E+03 -0.22656643761E+03  0.81410019048E+03  0.12699999809E+01 0.  1.
       -4    1    3    3    0  502 -0.76381173571E+03 -0.16738216449E+03  0.11813255168E+04  0.14166710084E+04  0.12699999809E+01 0. -1.
</event>
<event>
 5   0  0.3387881E-04  0.1934492E+04  0.7818609E-02  0.8637875E-01
        2   -1    0    0  501    0  0.00000000000E+00  0.00000000000E+00  0.12267644585E+04  0.12267644585E+04  0.25500000920E-02 0.  1.
       -2   -1    0    0    0  501  0.00000000000E+00  0.00000000000E+00 -0.76262818377E+03  0.76262818377E+03  0.25500000920E-02 0. -1.
    10030    2    1    2    0    0  0.00000000000E+00  0.00000000000E+00  0.46413627476E+03  0.19893926423E+04  0.19344923375E+04 0.  0.
        1    1    3    3  502    0 -0.37914892075E+02 -0.31958026008E+03  0.11700925274E+04  0.12135425844E+04  0.50400001928E-02 0.  1.
       -1    1    3    3    0  502  0.37914892075E+02  0.31958026008E+03 -0.70595625259E+03  0.77585005785E+03  0.50400001928E-02 0. -1.
</event>
<event>
 5   0  0.1696052E-04  0.1695720E+04  0.7818609E-02  0.8763809E-01
        1   -1    0    0  501    0  0.00000000000E+00  0.00000000000E+00  0.16965281342E+04  0.16965281342E+04  0.50400001928E-02 0. -1.
       -1   -1    0    0    0  501  0.00000000000E+00  0.00000000000E+00 -0.42372822456E+03  0.42372822459E+03  0.50400001928E-02 0.  1.
    10030    2    1    2    0    0  0.00000000000E+00  0.00000000000E+00  0.12727999096E+04  0.21202563588E+04  0.16957203239E+04 0.  0.
        4    1    3    3  502    0 -0.53412855738E+03 -0.40760977418E+03  0.12830005850E+04  0.14482855927E+04  0.12699999809E+01 0. -1.
       -4    1    3    3    0  502  0.53412855738E+03  0.40760977418E+03 -0.10200675428E+02  0.67197076610E+03  0.12699999809E+01 0.  1.
</event>
<event>
 5   0  0.3431030E-04  0.1898119E+04  0.7818609E-02  0.8655793E-01
        2   -1    0    0  501    0  0.00000000000E+00  0.00000000000E+00  0.14667141607E+04  0.14667141607E+04  0.25500000920E-02 0.  1.
       -2   -1    0    0    0  501  0.00000000000E+00  0.00000000000E+00 -0.61410302298E+03  0.61410302299E+03  0.25500000920E-02 0. -1.
    10030    2    1    2    0    0  0.00000000000E+00  0.00000000000E+00  0.85261113771E+03  0.20808171837E+04  0.18981186474E+04 0.  0.
        3    1    3    3  502    0  0.35905386056E+03  0.56107224502E+03  0.11673850653E+04  0.13440645966E+04  0.10100000352E+00 0.  1.
       -3    1    3    3    0  502 -0.35905386056E+03 -0.56107224502E+03 -0.31477392759E+03  0.73675258710E+03  0.10100000352E+00 0. -1.
</event>
<event>
 5   0  0.3395569E-04  0.1994582E+04  0.7818609E-02  0.8609158E-01
        2   -1    0    0  501    0  0.00000000000E+00  0.00000000000E+00  0.19868208012E+04  0.19868208012E+04  0.25500000920E-02 0. -1.
       -2   -1    0    0    0  501  0.00000000000E+00  0.00000000000E+00 -0.50059322599E+03  0.50059322600E+03  0.25500000920E-02 0.  1.
    10030    2    1    2    0    0  0.00000000000E+00  0.00000000000E+00  0.14862275752E+04  0.24874140272E+04  0.19945816948E+04 0.  0.
        4    1    3    3  502    0  0.49853377182E+02  0.45458259832E+03 -0.36212821453E+03  0.58332594197E+03  0.12699999809E+01 0.  1.
       -4    1    3    3    0  502 -0.49853377182E+02 -0.45458259832E+03  0.18483557897E+04  0.19040880852E+04  0.12699999809E+01 0. -1.
</event>
<event>
 5   0  0.1650221E-04  0.1992058E+04  0.7818609E-02  0.8610343E-01
        1   -1    0    0  501    0  0.00000000000E+00  0.00000000000E+00  0.14786997952E+04  0.14786997952E+04  0.50400001928E-02 0. -1.
       -1   -1    0    0    0  501  0.00000000000E+00  0.00000000000E+00 -0.67090947215E+03  0.67090947217E+03  0.50400001928E-02 0.  1.
    10030    2    1    2    0    0  0.00000000000E+00  0.00000000000E+00  0.80779032308E+03  0.21496092674E+04  0.19920579300E+04 0.  0.
        1    1    3    3  502    0  0.47787538767E+03 -0.72844743761E+03  0.92485432189E+03  0.12705731275E+04  0.50400001928E-02 0. -1.
       -1    1    3    3    0  502 -0.47787538767E+03  0.72844743761E+03 -0.11706399880E+03  0.87903613995E+03  0.50400001928E-02 0.  1.
</event>
<event>
 5   0  0.3387881E-04  0.2033751E+04  0.7818609E-02  0.8591001E-01
        2   -1    0    0  501    0  0.00000000000E+00  0.00000000000E+00  0.14379301252E+04  0.14379301252E+04  0.25500000920E-02 0. -1.
       -2   -1    0    0    0  501  0.00000000000E+00  0.00000000000E+00 -0.71911433435E+03  0.71911433435E+03  0.25500000920E-02 0.  1.
    10030    2    1    2    0    0  0.00000000000E+00  0.00000000000E+00  0.71881579084E+03  0.21570444595E+04  0.20337513760E+04 0.  0.
        1    1    3    3  502    0 -0.85849018785E+03 -0.53021360709E+03  0.22565030979E+03  0.10339487096E+04  0.50400001928E-02 0.  1.
       -1    1    3    3    0  502  0.85849018785E+03  0.53021360709E+03  0.49316548105E+03  0.11230957499E+04  0.50400001928E-02 0. -1.
</event>
<event>
 5   0  0.1664168E-04  0.2001595E+04  0.7818609E-02  0.8605875E-01
        1   -1    0    0  501    0  0.00000000000E+00  0.00000000000E+00  0.15506808501E+04  0.15506808502E+04  0.50400001928E-02 0. -1.
       -1   -1    0    0    0  501  0.00000000000E+00  0.00000000000E+00 -0.64590729238E+03  0.64590729240E+03  0.50400001928E-02 0.  1.
    10030    2    1    2    0    0  0.00000000000E+00  0.00000000000E+00  0.90477355777E+03  0.21965881426E+04  0.20015954329E+04 0.  0.
        5    1    3    3  502    0  0.78015676175E+03 -0.58329420278E+03  0.70430897333E+03  0.12020606972E+04  0.46999998093E+01 0. -1.
       -5    1    3    3    0  502 -0.78015676175E+03  0.58329420278E+03  0.20046458444E+03  0.99452744533E+03  0.46999998093E+01 0.  1.
</event>
<event>
 5   0  0.1664168E-04  0.2112532E+04  0.7818609E-02  0.8555743E-01
       -1   -1    0    0    0  501  0.00000000000E+00  0.00000000000E+00  0.64511242087E+03  0.64511242089E+03  0.50400001928E-02 0.  1.
        1   -1    0    0  501    0  0.00000000000E+00  0.00000000000E+00 -0.17294619944E+04  0.17294619944E+04  0.50400001928E-02 0. -1.
    10030    2    1    2    0    0  0.00000000000E+00  0.00000000000E+00 -0.10843495735E+04  0.23745744153E+04  0.21125315752E+04 0.  0.
        5    1    3    3  502    0 -0.77240302144E+03  0.69051854479E+03 -0.31112182804E+03  0.10817768578E+04  0.46999998093E+01 0. -1.
       -5    1    3    3    0  502  0.77240302144E+03 -0.69051854479E+03 -0.77322774550E+03  0.12927975575E+04  0.46999998093E+01 0.  1.
</event>
<event>
 5   0  0.1650221E-04  0.1685834E+04  0.7818609E-02  0.8769485E-01
        1   -1    0    0  501    0  0.00000000000E+00  0.00000000000E+00  0.19482673609E+04  0.19482673609E+04  0.50400001928E-02 0.  1.
       -1   -1    0    0    0  501  0.00000000000E+00  0.00000000000E+00 -0.36468765601E+03  0.36468765604E+03  0.50400001928E-02 0. -1.
    10030    2    1    2    0    0  0.00000000000E+00  0.00000000000E+00  0.15835797049E+04  0.23129550170E+04  0.16858339861E+04 0.  0.
        1    1    3    3  502    0 -0.67334349064E+03  0.33320121725E+03  0.26738175559E+03  0.79743809215E+03  0.50400001928E-02 0. -1.
       -1    1    3    3    0  502  0.67334349064E+03 -0.33320121725E+03  0.13161979493E+04  0.15155169248E+04  0.50400001928E-02 0.  1.
</event>
<event>
 5   0  0.1708578E-04  0.2023844E+04  0.7818609E-02  0.8595553E-01
        1   -1    0    0  501    0  0.00000000000E+00  0.00000000000E+00  0.76160167111E+03  0.76160167112E+03  0.50400001928E-02 0.  1.
       -1   -1    0    0    0  501  0.00000000000E+00  0.00000000000E+00 -0.13445172589E+04  0.13445172589E+04  0.50400001928E-02 0. -1.
    10030    2    1    2    0    0  0.00000000000E+00  0.00000000000E+00 -0.58291558778E+03  0.21061189300E+04  0.20238444518E+04 0.  0.
        3    1    3    3  502    0 -0.57308139386E+03  0.77966785180E+03 -0.59960754523E+03  0.11383468108E+04  0.10100000352E+00 0. -1.
       -3    1    3    3    0  502  0.57308139386E+03 -0.77966785180E+03  0.16691957447E+02  0.96777211923E+03  0.10100000352E+00 0.  1.
</event>
<event>
 5   0  0.1708578E-04  0.1957703E+04  0.7818609E-02  0.8626655E-01
       -1   -1    0    0    0  501  0.00000000000E+00  0.00000000000E+00  0.96819572759E+03  0.96819572760E+03  0.50400001928E-02 0.  1.
        1   -1    0    0  501    0  0.00000000000E+00  0.00000000000E+00 -0.98962415382E+03  0.98962415384E+03  0.50400001928E-02 0. -1.
    10030    2    1    2    0    0  0.00000000000E+00  0.00000000000E+00 -0.21428426236E+02  0.19578198814E+04  0.19577026104E+04 0.  0.
        3    1    3    3  502    0  0.92728599861E+03 -0.29312394339E+03  0.10050799676E+03  0.97769260865E+03  0.10100000352E+00 0. -1.
       -3    1    3    3    0  502 -0.92728599861E+03  0.29312394339E+03 -0.12193642300E+03  0.98012727278E+03  0.10100000352E+00 0.  1.
</event>
<event>
 5   0  0.1696052E-04  0.1921060E+04  0.7818609E-02  0.8644444E-01
        1   -1    0    0  501    0  0.00000000000E+00  0.00000000000E+00  0.82885282654E+03  0.82885282656E+03  0.50400001928E-02 0. -1.
       -1   -1    0    0    0  501  0.00000000000E+00  0.00000000000E+00 -0.11131257806E+04  0.11131257806E+04  0.50400001928E-02 0.  1.
    10030    2    1    2    0    0  0.00000000000E+00  0.00000000000E+00 -0.28427295406E+03  0.19419786072E+04  0.19210595509E+04 0.  0.
        4    1    3    3  502    0 -0.57743855597E+03 -0.57806092651E+03 -0.65263670693E+03  0.10457179375E+04  0.12699999809E+01 0.  1.
       -4    1    3    3    0  502  0.57743855597E+03  0.57806092651E+03  0.36836375287E+03  0.89626066967E+03  0.12699999809E+01 0. -1.
</event>
<event>
 5   0  0.1708578E-04  0.1965863E+04  0.7818609E-02  0.8622749E-01
        1   -1    0    0  501    0  0.00000000000E+00  0.00000000000E+00  0.10362933151E+04  0.10362933151E+04  0.50400001928E-02 0. -1.
       -1   -1    0    0    0  501  0.00000000000E+00  0.00000000000E+00 -0.93231766867E+03  0.93231766868E+03  0.50400001928E-02 0.  1.
    10030    2    1    2    0    0  0.00000000000E+00  0.00000000000E+00  0.10397564645E+03  0.19686109838E+04  0.19658632380E+04 0.  0.
        3    1    3    3  502    0  0.83584041868E+03  0.48297251497E+03 -0.13337330871E+03  0.97451531819E+03  0.10100000352E+00 0.  1.
       -3    1    3    3    0  502 -0.83584041868E+03 -0.48297251497E+03  0.23734895516E+03  0.99409566563E+03  0.10100000352E+00 0. -1.
</event>
<event>
 5   0  0.1650221E-04  0.2028977E+04  0.7818609E-02  0.8593192E-01
        1   -1    0    0  501    0  0.00000000000E+00  0.00000000000E+00  0.10107683068E+04  0.10107683068E+04  0.50400001928E-02 0. -1.
       -1   -1    0    0    0  501  0.00000000000E+00  0.00000000000E+00 -0.10182219544E+04  0.10182219544E+04  0.50400001928E-02 0.  1.
    10030    2    1    2    0    0  0.00000000000E+00  0.00000000000E+00 -0.74536476315E+01  0.20289902612E+04  0.20289765704E+04 0.  0.
        1    1    3    3  502    0  0.44652371736E+03 -0.11832248356E+03 -0.90695096544E+03  0.10178131921E+04  0.50400001928E-02 0.  1.
       -1    1    3    3    0  502 -0.44652371736E+03  0.11832248356E+03  0.89949731781E+03  0.10111770691E+04  0.50400001928E-02 0. -1.
</event>
<event>
 5   0  0.1664168E-04  0.1994283E+04  0.7818609E-02  0.8609298E-01
        1   -1    0    0  501    0  0.00000000000E+00  0.00000000000E+00  0.63344963573E+03  0.63344963575E+03  0.50400001928E-02 0.  1.
       -1   -1    0    0    0  501  0.00000000000E+00  0.00000000000E+00 -0.15696444547E+04  0.15696444547E+04  0.50400001928E-02 0. -1.
    10030    2    1    2    0    0  0.00000000000E+00  0.00000000000E+00 -0.93619481894E+03  0.22030940904E+04  0.19942825357E+04 0.  0.
        5    1    3    3  502    0  0.93098895188E+03 -0.24510202722E+03 -0.18118614960E+03  0.97962540957E+03  0.46999998093E+01 0.  1.
       -5    1    3    3    0  502 -0.93098895188E+03  0.24510202722E+03 -0.75500866934E+03  0.12234686809E+04  0.46999998093E+01 0. -1.
</event>
<event>
 5   0  0.3431030E-04  0.1881706E+04  0.7818609E-02  0.8664017E-01
       -2   -1    0    0    0  501  0.00000000000E+00  0.00000000000E+00  0.71996179440E+03  0.71996179440E+03  0.25500000920E-02 0. -1.
        2   -1    0    0  501    0  0.00000000000E+00  0.00000000000E+00 -0.12295153300E+04  0.12295153300E+04  0.25500000920E-02 0.  1.
    10030    2    1    2    0    0  0.00000000000E+00  0.00000000000E+00 -0.50955353558E+03  0.19494771244E+04  0.18817056765E+04 0.  0.
        3    1    3    3  502    0  0.64262903084E+02 -0.72885111253E+03  0.35800753021E+03  0.81456925233E+03  0.10100000352E+00 0. -1.
       -3    1    3    3    0  502 -0.64262903084E+02  0.72885111253E+03 -0.86756106579E+03  0.11349078720E+04  0.10100000352E+00 0.  1.
</event>
<event>
 5   0  0.3371947E-04  0.1885677E+04  0.7818609E-02  0.8662019E-01
        2   -1    0    0  501    0  0.00000000000E+00  0.00000000000E+00  0.14628005443E+04  0.14628005443E+04  0.25500000920E-02 0. -1.
       -2   -1    0    0    0  501  0.00000000000E+00  0.00000000000E+00 -0.60770061196E+03  0.60770061197E+03  0.25500000920E-02 0.  1.
    10030    2    1    2    0    0  0.00000000000E+00  0.00000000000E+00  0.85509993232E+03  0.20705011562E+04  0.18856773700E+04 0.  0.
        2    1    3    3  502    0 -0.43022477045E+03 -0.54381366739E+03  0.11290069301E+04  0.13249465295E+04  0.25500000920E-02 0. -1.
       -2    1    3    3    0  502  0.43022477045E+03  0.54381366739E+03 -0.27390699777E+03  0.74555462670E+03  0.25500000920E-02 0.  1.
</event>
<event>
 5   0  0.1664168E-04  0.2546304E+04  0.7818609E-02  0.8386673E-01
        1   -1    0    0  501    0  0.00000000000E+00  0.00000000000E+00  0.24428004614E+04  0.24428004614E+04  0.50400001928E-02 0. -1.
       -1   -1    0    0    0  501  0.00000000000E+00  0.00000000000E+00 -0.66354830224E+03  0.66354830226E+03  0.50400001928E-02 0.  1.
    10030    2    1    2    0    0  0.00000000000E+00  0.00000000000E+00  0.17792521592E+04  0.31063487637E+04  0.25463040658E+04 0.  0.
        5    1    3    3  502    0  0.36209845747E+03 -0.42209636080E+03 -0.50752338828E+03  0.75291613767E+03  0.46999998093E+01 0.  1.
       -5    1    3    3    0  502 -0.36209845747E+03  0.42209636080E+03  0.22867755474E+04  0.23534326260E+04  0.46999998093E+01 0. -1.
</event>
<event>
 5   0  0.3431030E-04  0.1802698E+04  0.7818609E-02  0.8704866E-01
       -2   -1    0    0    0  501  0.00000000000E+00  0.00000000000E+00  0.50003692965E+03  0.50003692966E+03  0.25500000920E-02 0.  1.
        2   -1    0    0  501    0  0.00000000000E+00  0.00000000000E+00 -0.16247399563E+04  0.16247399563E+04  0.25500000920E-02 0. -1.
    10030    2    1    2    0    0  0.00000000000E+00  0.00000000000E+00 -0.11247030266E+04  0.21247768860E+04  0.18026979550E+04 0.  0.
        3    1    3    3  502    0 -0.24646712004E+03 -0.36854851111E+03 -0.14873263718E+04  0.15520031549E+04  0.10100000352E+00 0. -1.
       -3    1    3    3    0  502  0.24646712004E+03  0.36854851111E+03  0.36262334519E+03  0.57277373105E+03  0.10100000352E+00 0.  1.
</event>
<event>
 5   0  0.3387881E-04  0.2189867E+04  0.7818609E-02  0.8522658E-01
        2   -1    0    0  501    0  0.00000000000E+00  0.00000000000E+00  0.17192901904E+04  0.17192901904E+04  0.25500000920E-02 0. -1.
       -2   -1    0    0    0  501  0.00000000000E+00  0.00000000000E+00 -0.69731053113E+03  0.69731053113E+03  0.25500000920E-02 0.  1.
    10030    2    1    2    0    0  0.00000000000E+00  0.00000000000E+00  0.10219796592E+04  0.24166007215E+04  0.21898668049E+04 0.  0.
        1    1    3    3  502    0 -0.48941119462E+03  0.53930048617E+03 -0.39129035996E+03  0.82672636200E+03  0.50400001928E-02 0.  1.
       -1    1    3    3    0  502  0.48941119462E+03 -0.53930048617E+03  0.14132700192E+04  0.15898743595E+04  0.50400001928E-02 0. -1.
</event>
<event>
 5   0  0.3395569E-04  0.2012292E+04  0.7818609E-02  0.8600895E-01
        2   -1    0    0  501    0  0.00000000000E+00  0.00000000000E+00  0.13498609207E+04  0.13498609207E+04  0.25500000920E-02 0. -1.
       -2   -1    0    0    0  501  0.00000000000E+00  0.00000000000E+00 -0.74995116034E+03  0.74995116034E+03  0.25500000920E-02 0.  1.
    10030    2    1    2    0    0  0.00000000000E+00  0.00000000000E+00  0.59990976032E+03  0.20998120810E+04  0.20122919905E+04 0.  0.
        4    1    3    3  502    0  0.26498206151E+02 -0.69150154775E+03  0.10620987217E+04  0.12676481582E+04  0.12699999809E+01 0. -1.
       -4    1    3    3    0  502 -0.26498206151E+02  0.69150154775E+03 -0.46218896138E+03  0.83216392279E+03  0.12699999809E+01 0.  1.
</event>
<event>
 5   0  0.3371947E-04  0.1973428E+04  0.7818609E-02  0.8619146E-01
       -2   -1    0    0    0  501  0.00000000000E+00  0.00000000000E+00  0.52220169639E+03  0.52220169640E+03  0.25500000920E-02 0. -1.
        2   -1    0    0  501    0  0.00000000000E+00  0.00000000000E+00 -0.18644215433E+04  0.18644215434E+04  0.25500000920E-02 0.  1.
    10030    2    1    2    0    0  0.00000000000E+00  0.00000000000E+00 -0.13422198470E+04  0.23866232397E+04  0.19734275692E+04 0.  0.
        2    1    3    3  502    0 -0.80273860702E+03  0.53077368485E+03 -0.93467179519E+03  0.13415369322E+04  0.25500000920E-02 0. -1.
       -2    1    3    3    0  502  0.80273860702E+03 -0.53077368485E+03 -0.40754805177E+03  0.10450863075E+04  0.25500000920E-02 0.  1.
</event>
<event>
 5   0  0.1664168E-04  0.1056418E+04  0.7818609E-02  0.9248743E-01
       -1   -1    0    0    0  501  0.00000000000E+00  0.00000000000E+00  0.28082703337E+03  0.28082703342E+03  0.50400001928E-02 0. -1.
        1   -1    0    0  501    0  0.00000000000E+00  0.00000000000E+00 -0.99351126690E+03  0.99351126691E+03  0.50400001928E-02 0.  1.
    10030    2    1    2    0    0  0.00000000000E+00  0.00000000000E+00 -0.71268423353E+03  0.12743383003E+04  0.10564181402E+04 0.  0.
        5    1    3    3  502    0 -0.19260074419E+03  0.29418692182E+03  0.11909487447E+03  0.37127708084E+03  0.46999998093E+01 0. -1.
       -5    1    3    3    0  502  0.19260074419E+03 -0.29418692182E+03 -0.83177910800E+03  0.90306121948E+03  0.46999998093E+01 0.  1.
</event>
<event>
 5   0  0.3371947E-04  0.1886008E+04  0.7818609E-02  0.8661853E-01
        2   -1    0    0  501    0  0.00000000000E+00  0.00000000000E+00  0.13099605515E+04  0.13099605515E+04  0.25500000920E-02 0. -1.
       -2   -1    0    0    0  501  0.00000000000E+00  0.00000000000E+00 -0.67884198793E+03  0.67884198794E+03  0.25500000920E-02 0.  1.
    10030    2    1    2    0    0  0.00000000000E+00  0.00000000000E+00  0.63111856359E+03  0.19888025395E+04  0.18860076616E+04 0.  0.
        2    1    3    3  502    0 -0.28338760129E+03  0.27247864136E+03  0.12194254773E+04  0.12812305168E+04  0.25500000920E-02 0. -1.
       -2    1    3    3    0  502  0.28338760129E+03 -0.27247864136E+03 -0.58830691368E+03  0.70757202266E+03  0.25500000920E-02 0.  1.
</event>
<event>
 5   0  0.1664168E-04  0.1816610E+04  0.7818609E-02  0.8697516E-01
       -1   -1    0    0    0  501  0.00000000000E+00  0.00000000000E+00  0.10476064588E+04  0.10476064588E+04  0.50400001928E-02 0.  1.
        1   -1    0    0  501    0  0.00000000000E+00  0.00000000000E+00 -0.78752675534E+03  0.78752675536E+03  0.50400001928E-02 0. -1.
    10030    2    1    2    0    0  0.00000000000E+00  0.00000000000E+00  0.26007970343E+03  0.18351332141E+04  0.18166101567E+04 0.  0.
        5    1    3    3  502    0  0.73230826146E+03  0.41874998728E+03  0.47017630267E+03  0.96577160200E+03  0.46999998093E+01 0. -1.
       -5    1    3    3    0  502 -0.73230826146E+03 -0.41874998728E+03 -0.21009659924E+03  0.86936161214E+03  0.46999998093E+01 0.  1.
</event>
<event>
 5   0  0.1696052E-04  0.2089900E+04  0.7818609E-02  0.8565706E-01
        1   -1    0    0  501    0  0.00000000000E+00  0.00000000000E+00  0.10845097034E+04  0.10845097034E+04  0.50400001928E-02 0. -1.
       -1   -1    0    0    0  501  0.00000000000E+00  0.00000000000E+00 -0.10068331820E+04  0.10068331820E+04  0.50400001928E-02 0.  1.
    10030    2    1    2    0    0  0.00000000000E+00  0.00000000000E+00  0.77676521383E+02  0.20913428855E+04  0.20898998595E+04 0.  0.
        4    1    3    3  502    0  0.14088054284E+03 -0.28230059365E+00  0.10749619629E+04  0.10841550819E+04  0.12699999809E+01 0. -1.
       -4    1    3    3    0  502 -0.14088054284E+03  0.28230059365E+00 -0.99728544148E+03  0.10071878036E+04  0.12699999809E+01 0.  1.
</event>
<event>
 5   0  0.1643565E-04  0.2095302E+04  0.7818609E-02  0.8563315E-01
       -1   -1    0    0    0  501  0.00000000000E+00  0.00000000000E+00  0.12530626146E+04  0.12530626146E+04  0.50400001928E-02 0. -1.
        1   -1    0    0  501    0  0.00000000000E+00  0.00000000000E+00 -0.87591243518E+03  0.87591243519E+03  0.50400001928E-02 0.  1.
    10030    2    1    2    0    0  0.00000000000E+00  0.00000000000E+00  0.37715017941E+03  0.21289750498E+04  0.20953024853E+04 0.  0.
        2    1    3    3  502    0 -0.92445666868E+03  0.20715786006E+03  0.64301949705E+03  0.11449928318E+04  0.25500000920E-02 0. -1.
       -2    1    3    3    0  502  0.92445666868E+03 -0.20715786006E+03 -0.26586931764E+03  0.98398221799E+03  0.25500000920E-02 0.  1.
</event>
<event>
 5   0  0.1696052E-04  0.1736506E+04  0.7818609E-02  0.8740813E-01
       -1   -1    0    0    0  501  0.00000000000E+00  0.00000000000E+00  0.93002957158E+03  0.93002957159E+03  0.50400001928E-02 0. -1.
        1   -1    0    0  501    0  0.00000000000E+00  0.00000000000E+00 -0.81058003713E+03  0.81058003715E+03  0.50400001928E-02 0.  1.
    10030    2    1    2    0    0  0.00000000000E+00  0.00000000000E+00  0.11944953444E+03  0.17406096087E+04  0.17365061528E+04 0.  0.
        4    1    3    3  502    0  0.81877168462E+03 -0.10163451340E+03 -0.21136792186E+03  0.85170103742E+03  0.12699999809E+01 0.  1.
       -4    1    3    3    0  502 -0.81877168462E+03  0.10163451340E+03  0.33081745631E+03  0.88890857131E+03  0.12699999809E+01 0. -1.
</event>
<event>
 5   0  0.3387881E-04  0.1976177E+04  0.7818609E-02  0.8617840E-01
       -2   -1    0    0    0  501  0.00000000000E+00  0.00000000000E+00  0.12386853306E+04  0.12386853306E+04  0.25500000920E-02 0. -1.
        2   -1    0    0  501    0  0.00000000000E+00  0.00000000000E+00 -0.78818964302E+03  0.78818964303E+03  0.25500000920E-02 0.  1.
    10030    2    1    2    0    0  0.00000000000E+00  0.00000000000E+00  0.45049568753E+03  0.20268749736E+04  0.19761770655E+04 0.  0.
        1    1    3    3  502    0 -0.42095372941E+03  0.87892558809E+03  0.57947532511E+02  0.97625311690E+03  0.50400001928E-02 0.  1.
       -1    1    3    3    0  502  0.42095372941E+03 -0.87892558809E+03  0.39254815502E+03  0.10506218567E+04  0.50400001928E-02 0. -1.
</event>
<event>
 5   0  0.3395569E-04  0.1310106E+04  0.7818609E-02  0.9021589E-01
       -2   -1    0    0    0  501  0.00000000000E+00  0.00000000000E+00  0.52787820236E+03  0.52787820237E+03  0.25500000920E-02 0. -1.
        2   -1    0    0  501    0  0.00000000000E+00  0.00000000000E+00 -0.81286680673E+03  0.81286680673E+03  0.25500000920E-02 0.  1.
    10030    2    1    2    0    0  0.00000000000E+00  0.00000000000E+00 -0.28498860437E+03  0.13407450091E+04  0.13101063601E+04 0.  0.
        4    1    3    3  502    0 -0.11863524479E+03  0.17087189917E+03 -0.77816598096E+03  0.80549080321E+03  0.12699999809E+01 0.  1.
       -4    1    3    3    0  502  0.11863524479E+03 -0.17087189917E+03  0.49317737660E+03  0.53525420589E+03  0.12699999809E+01 0. -1.
</event>
<event>
 5   0  0.1708578E-04  0.1995456E+04  0.7818609E-02  0.8608748E-01
       -1   -1    0    0    0  501  0.00000000000E+00  0.00000000000E+00  0.11394814455E+04  0.11394814455E+04  0.50400001928E-02 0.  1.
        1   -1    0    0  501    0  0.00000000000E+00  0.00000000000E+00 -0.87360922542E+03  0.87360922543E+03  0.50400001928E-02 0. -1.
    10030    2    1    2    0    0  0.00000000000E+00  0.00000000000E+00  0.26587222009E+03  0.20130906710E+04  0.19954563418E+04 0.  0.
        3    1    3    3  502    0  0.43226725343E+03  0.87752287901E+03  0.33103874172E+03  0.10327090783E+04  0.10100000352E+00 0.  1.
       -3    1    3    3    0  502 -0.43226725343E+03 -0.87752287901E+03 -0.65166521630E+02  0.98038159271E+03  0.10100000352E+00 0. -1.
</event>
<event>
 5   0  0.3431030E-04  0.2004695E+04  0.7818609E-02  0.8604429E-01
       -2   -1    0    0    0  501  0.00000000000E+00  0.00000000000E+00  0.49122532071E+03  0.49122532072E+03  0.25500000920E-02 0. -1.
        2   -1    0    0  501    0  0.00000000000E+00  0.00000000000E+00 -0.20452950355E+04  0.20452950355E+04  0.25500000920E-02 0.  1.
    10030    2    1    2    0    0  0.00000000000E+00  0.00000000000E+00 -0.15540697147E+04  0.25365203562E+04  0.20046951985E+04 0.  0.
        3    1    3    3  502    0 -0.42703561271E+03  0.46365062571E+03  0.20905490371E+03  0.66410487140E+03  0.10100000352E+00 0. -1.
       -3    1    3    3    0  502  0.42703561271E+03 -0.46365062571E+03 -0.17631246185E+04  0.18724154848E+04  0.10100000352E+00 0.  1.
</event>
<event>
 5   0  0.1708578E-04  0.1987212E+04  0.7818609E-02  0.8612623E-01
       -1   -1    0    0    0  501  0.00000000000E+00  0.00000000000E+00  0.55414052456E+03  0.55414052459E+03  0.50400001928E-02 0.  1.
        1   -1    0    0  501    0  0.00000000000E+00  0.00000000000E+00 -0.17815923751E+04  0.17815923751E+04  0.50400001928E-02 0. -1.
    10030    2    1    2    0    0  0.00000000000E+00  0.00000000000E+00 -0.12274518506E+04  0.23357328997E+04  0.19872116479E+04 0.  0.
        3    1    3    3  502    0 -0.12420018806E+03 -0.57790717879E+03  0.32499906113E+03  0.67455673886E+03  0.10100000352E+00 0.  1.
       -3    1    3    3    0  502  0.12420018806E+03  0.57790717879E+03 -0.15524509117E+04  0.16611761609E+04  0.10100000352E+00 0. -1.
</event>
<event>
 5   0  0.1643565E-04  0.1485456E+04  0.7818609E-02  0.8894183E-01
        1   -1    0    0  501    0  0.00000000000E+00  0.00000000000E+00  0.68425143734E+03  0.68425143736E+03  0.50400001928E-02 0. -1.
       -1   -1    0    0    0  501  0.00000000000E+00  0.00000000000E+00 -0.80620180269E+03  0.80620180271E+03  0.50400001928E-02 0.  1.
    10030    2    1    2    0    0  0.00000000000E+00  0.00000000000E+00 -0.12195036535E+03  0.14904532401E+04  0.14854558119E+04 0.  0.
        2    1    3    3  502    0  0.25696054608E+02 -0.69364834446E+03 -0.32613006680E+03  0.76692185617E+03  0.25500000920E-02 0. -1.
       -2    1    3    3    0  502 -0.25696054608E+02  0.69364834446E+03  0.20417970146E+03  0.72353138390E+03  0.25500000920E-02 0.  1.
</event>
<event>
 5   0  0.3371947E-04  0.1916837E+04  0.7818609E-02  0.8646521E-01
       -2   -1    0    0    0  501  0.00000000000E+00  0.00000000000E+00  0.18853610606E+04  0.18853610606E+04  0.25500000920E-02 0.  1.
        2   -1    0    0  501    0  0.00000000000E+00  0.00000000000E+00 -0.48720972432E+03  0.48720972433E+03  0.25500000920E-02 0. -1.
    10030    2    1    2    0    0  0.00000000000E+00  0.00000000000E+00  0.13981513362E+04  0.23725707849E+04  0.19168372310E+04 0.  0.
        2    1    3    3  502    0  0.87623880207E+03  0.77309311486E+02  0.22808658946E+03  0.90873244697E+03  0.25500000920E-02 0. -1.
       -2    1    3    3    0  502 -0.87623880207E+03 -0.77309311486E+02  0.11700647468E+04  0.14638383379E+04  0.25500000920E-02 0.  1.
</event>
<event>
 5   0  0.1222488E-04  0.2023701E+04  0.7818609E-02  0.8595619E-01
       -3   -1    0    0    0  501  0.00000000000E+00  0.00000000000E+00  0.77911381850E+03  0.77911382504E+03  0.10100000352E+00 0. -1.
        3   -1    0    0  501    0  0.00000000000E+00  0.00000000000E+00 -0.13141097786E+04  0.13141097825E+04  0.10100000352E+00 0.  1.
    10030    2    1    2    0    0  0.00000000000E+00  0.00000000000E+00 -0.53499596009E+03  0.20932236075E+04  0.20237006680E+04 0.  0.
        2    1    3    3  502    0  0.73631784422E+03  0.61468632168E+03 -0.60080710745E+03  0.11318005222E+04  0.25500000920E-02 0.  1.
       -2    1    3    3    0  502 -0.73631784422E+03 -0.61468632168E+03  0.65811147363E+02  0.96142308527E+03  0.25500000920E-02 0. -1.
</event>
<event>
 5   0  0.1650221E-04  0.1302457E+04  0.7818609E-02  0.9027619E-01
       -1   -1    0    0    0  501  0.00000000000E+00  0.00000000000E+00  0.11596049616E+04  0.11596049616E+04  0.50400001928E-02 0.  1.
        1   -1    0    0  501    0  0.00000000000E+00  0.00000000000E+00 -0.36572654683E+03  0.36572654687E+03  0.50400001928E-02 0. -1.
    10030    2    1    2    0    0  0.00000000000E+00  0.00000000000E+00  0.79387841478E+03  0.15253315085E+04  0.13024566301E+04 0.  0.
        1    1    3    3  502    0  0.33031648537E+03 -0.21645192821E+03  0.10033683631E+04  0.10782896131E+04  0.50400001928E-02 0.  1.
       -1    1    3    3    0  502 -0.33031648537E+03  0.21645192821E+03 -0.20948994830E+03  0.44704189535E+03  0.50400001928E-02 0. -1.
</event>
<event>
 5   0  0.3395569E-04  0.1620198E+04  0.7818609E-02  0.8808235E-01
       -2   -1    0    0    0  501  0.00000000000E+00  0.00000000000E+00  0.16609195449E+04  0.16609195449E+04  0.25500000920E-02 0.  1.
        2   -1    0    0  501    0  0.00000000000E+00  0.00000000000E+00 -0.39511875839E+03  0.39511875840E+03  0.25500000920E-02 0. -1.
    10030    2    1    2    0    0  0.00000000000E+00  0.00000000000E+00  0.12658007865E+04  0.20560383033E+04  0.16201980970E+04 0.  0.
        4    1    3    3  502    0 -0.35719301797E+03  0.64577191865E+03  0.20887323123E+03  0.76696666331E+03  0.12699999809E+01 0. -1.
       -4    1    3    3    0  502  0.35719301797E+03 -0.64577191865E+03  0.10569275553E+04  0.12890716400E+04  0.12699999809E+01 0.  1.
</event>
<event>
 5   0  0.1650221E-04  0.1941796E+04  0.7818609E-02  0.8634327E-01
        1   -1    0    0  501    0  0.00000000000E+00  0.00000000000E+00  0.10002903578E+04  0.10002903579E+04  0.50400001928E-02 0.  1.
       -1   -1    0    0    0  501  0.00000000000E+00  0.00000000000E+00 -0.94236964681E+03  0.94236964683E+03  0.50400001928E-02 0. -1.
    10030    2    1    2    0    0  0.00000000000E+00  0.00000000000E+00  0.57920711035E+02  0.19426600047E+04  0.19417963552E+04 0.  0.
        1    1    3    3  502    0 -0.15316810385E+03  0.87903752425E+03 -0.35393148136E+03  0.95991402251E+03  0.50400001928E-02 0.  1.
       -1    1    3    3    0  502  0.15316810385E+03 -0.87903752425E+03  0.41185219240E+03  0.98274598218E+03  0.50400001928E-02 0. -1.
</event>
<event>
 5   0  0.3395569E-04  0.1064530E+04  0.7818609E-02  0.9240470E-01
        2   -1    0    0  501    0  0.00000000000E+00  0.00000000000E+00  0.86331690597E+03  0.86331690598E+03  0.25500000920E-02 0.  1.
       -2   -1    0    0    0  501  0.00000000000E+00  0.00000000000E+00 -0.32816016664E+03  0.32816016665E+03  0.25500000920E-02 0. -1.
    10030    2    1    2    0    0  0.00000000000E+00  0.00000000000E+00  0.53515673934E+03  0.11914770726E+04  0.10645303560E+04 0.  0.
        4    1    3    3  502    0  0.31763145151E+03  0.25821938696E+03 -0.11319354320E+03  0.42471329377E+03  0.12699999809E+01 0. -1.
       -4    1    3    3    0  502 -0.31763145151E+03 -0.25821938696E+03  0.64835028254E+03  0.76676377885E+03  0.12699999809E+01 0.  1.
</event>
<event>
 5   0  0.3460648E-04  0.2188398E+04  0.7818609E-02  0.8523273E-01
       -2   -1    0    0    0  501  0.00000000000E+00  0.00000000000E+00  0.10075180135E+04  0.10075180135E+04  0.25500000920E-02 0.  1.
        2   -1    0    0  501    0  0.00000000000E+00  0.00000000000E+00 -0.11883373883E+04  0.11883373883E+04  0.25500000920E-02 0. -1.
    10030    2    1    2    0    0  0.00000000000E+00  0.00000000000E+00 -0.18081937479E+03  0.21958554017E+04  0.21883978841E+04 0.  0.
        5    1    3    3  502    0  0.39343095380E+03 -0.77010635098E+02 -0.11119806334E+04  0.11820497335E+04  0.46999998093E+01 0. -1.
       -5    1    3    3    0  502 -0.39343095380E+03  0.77010635098E+02  0.93116125866E+03  0.10138056682E+04  0.46999998093E+01 0.  1.
</event>
<event>
 5   0  0.1696052E-04  0.2013886E+04  0.7818609E-02  0.8600156E-01
        1   -1    0    0  501    0  0.00000000000E+00  0.00000000000E+00  0.15088014533E+04  0.15088014533E+04  0.50400001928E-02 0.  1.
       -1   -1    0    0    0  501  0.00000000000E+00  0.00000000000E+00 -0.67201280111E+03  0.67201280113E+03  0.50400001928E-02 0. -1.
    10030    2    1    2    0    0  0.00000000000E+00  0.00000000000E+00  0.83678865221E+03  0.21808142545E+04  0.20138856879E+04 0.  0.
        4    1    3    3  502    0 -0.67352375600E+03 -0.72950522530E+03  0.23680399832E+03  0.10207300672E+04  0.12699999809E+01 0. -1.
       -4    1    3    3    0  502  0.67352375600E+03  0.72950522530E+03  0.59998465389E+03  0.11600841872E+04  0.12699999809E+01 0.  1.
</event>
<event>
 5   0  0.3460648E-04  0.1129433E+04  0.7818609E-02  0.9176970E-01
        2   -1    0    0  501    0  0.00000000000E+00  0.00000000000E+00  0.10672591135E+04  0.10672591135E+04  0.25500000920E-02 0. -1.
       -2   -1    0    0    0  501  0.00000000000E+00  0.00000000000E+00 -0.29880706509E+03  0.29880706510E+03  0.25500000920E-02 0.  1.
    10030    2    1    2    0    0  0.00000000000E+00  0.00000000000E+00  0.76845204838E+03  0.13660661786E+04  0.11294327132E+04 0.  0.
        5    1    3    3  502    0  0.12285175186E+02 -0.15318370519E+03  0.10414574446E+04  0.10527449226E+04  0.46999998093E+01 0. -1.
       -5    1    3    3    0  502 -0.12285175186E+02  0.15318370519E+03 -0.27300539625E+03  0.31332125597E+03  0.46999998093E+01 0.  1.
</event>
<event>
 5   0  0.1643565E-04  0.1952410E+04  0.7818609E-02  0.8629200E-01
       -1   -1    0    0    0  501  0.00000000000E+00  0.00000000000E+00  0.39356869953E+03  0.39356869956E+03  0.50400001928E-02 0.  1.
        1   -1    0    0  501    0  0.00000000000E+00  0.00000000000E+00 -0.24213709527E+04  0.24213709527E+04  0.50400001928E-02 0. -1.
    10030    2    1    2    0    0  0.00000000000E+00  0.00000000000E+00 -0.20278022532E+04  0.28149396523E+04  0.19524096056E+04 0.  0.
        2    1    3    3  502    0  0.50143889963E+03  0.81479020387E+03 -0.12936644994E+04  0.16090033820E+04  0.25500000920E-02 0. -1.
       -2    1    3    3    0  502 -0.50143889963E+03 -0.81479020387E+03 -0.73413775381E+03  0.12059362703E+04  0.25500000920E-02 0.  1.
</event>
<event>
 5   0  0.3371947E-04  0.2011607E+04  0.7818609E-02  0.8601213E-01
        2   -1    0    0  501    0  0.00000000000E+00  0.00000000000E+00  0.98223345262E+03  0.98223345263E+03  0.25500000920E-02 0. -1.
       -2   -1    0    0    0  501  0.00000000000E+00  0.00000000000E+00 -0.10299396538E+04  0.10299396539E+04  0.25500000920E-02 0.  1.
    10030    2    1    2    0    0  0.00000000000E+00  0.00000000000E+00 -0.47706201227E+02  0.20121731065E+04  0.20116074987E+04 0.  0.
        2    1    3    3  502    0 -0.75046458317E+03 -0.16593862321E+03 -0.67281010503E+03  0.10214725423E+04  0.25500000920E-02 0.  1.
       -2    1    3    3    0  502  0.75046458317E+03  0.16593862321E+03  0.62510390380E+03  0.99070056416E+03  0.25500000920E-02 0. -1.
</event>
<event>
 5   0  0.1664168E-04  0.1953736E+04  0.7818609E-02  0.8628562E-01
       -1   -1    0    0    0  501  0.00000000000E+00  0.00000000000E+00  0.11454591746E+04  0.11454591747E+04  0.50400001928E-02 0. -1.
        1   -1    0    0  501    0  0.00000000000E+00  0.00000000000E+00 -0.83309008823E+03  0.83309008824E+03  0.50400001928E-02 0.  1.
    10030    2    1    2    0    0  0.00000000000E+00  0.00000000000E+00  0.31236908642E+03  0.19785492629E+04  0.19537355859E+04 0.  0.
        5    1    3    3  502    0  0.12516660474E+03  0.72590711476E+03  0.80592554778E+03  0.10918543386E+04  0.46999998093E+01 0. -1.
       -5    1    3    3    0  502 -0.12516660474E+03 -0.72590711476E+03 -0.49355646136E+03  0.88669492428E+03  0.46999998093E+01 0.  1.
</event>
</LesHouchesEvents>
