<LesHouchesEvents version="3.0">
<header>
<!--
#*********************************************************************
#                                                                    *
#                        MadGraph5_aMC@NLO                           *
#                                                                    *
#                           Going Beyond                             *
#                                                                    *
#                   http://madgraph.hep.uiuc.edu                     *
#                   http://madgraph.phys.ucl.ac.be                   *
#                   http://amcatnlo.cern.ch                          *
#                                                                    *
#                     The MadGraph5_aMC@NLO team                     *
#                                                                    *
#....................................................................*
#                                                                    *
# This file contains all the information necessary to reproduce      *
# the events generated:                                              *
#                                                                    *
# 1. software version                                                *
# 2. proc_card          : code generation info including model       *
# 3. param_card         : model primary parameters in the LH format  *
# 4. run_card           : running parameters (collider and cuts)     *
# 5. pythia_card        : present only if pythia has been run        *
# 6. pgs_card           : present only if pgs has been run           *
# 7. delphes_cards      : present only if delphes has been run       *
#                                                                    *
#                                                                    *
#*********************************************************************
-->
<MGVersion>
#5.2.2.3
</MGVersion>
<MG5ProcCard>
#************************************************************
#*                     MadGraph5_aMC@NLO                    *
#*                                                          *
#*                *                       *                 *
#*                  *        * *        *                   *
#*                    * * * * 5 * * * *                     *
#*                  *        * *        *                   *
#*                *                       *                 *
#*                                                          *
#*                                                          *
#*         VERSION 2.2.3                 2015-02-10         *
#*                                                          *
#*    The MadGraph5_aMC@NLO Development Team - Find us at   *
#*    https://server06.fynu.ucl.ac.be/projects/madgraph     *
#*                                                          *
#************************************************************
#*                                                          *
#*               Command File for MadGraph5_aMC@NLO         *
#*                                                          *
#*     run as ./bin/mg5_aMC  filename                       *
#*                                                          *
#************************************************************
set group_subprocesses Auto
set ignore_six_quark_processes False
set loop_optimized_output True
set gauge unitary
set complex_mass_scheme False
import model sm
define p = g u c d s u~ c~ d~ s~
define j = g u c d s u~ c~ d~ s~
define l+ = e+ mu+
define l- = e- mu-
define vl = ve vm vt
define vl~ = ve~ vm~ vt~
import model Zprime_UFO
generate p p > zph, zph > j j
add process p p > zph, zph > b b~
output Dijet_signal
</MG5ProcCard>
<MGProcCard>
#*********************************************************************
#                        MadGraph/MadEvent                           *
#                   http://madgraph.hep.uiuc.edu                     *
#                                                                    *
#                          proc_card.dat                             *
#*********************************************************************
#                                                                    *
#            This Files is generated by MADGRAPH 5                   *
#                                                                    *
# WARNING: This Files is generated for MADEVENT (compatibility issue)*
#          This files is NOT a valid MG4 proc_card.dat               *
#          Running this in MG4 will NEVER reproduce the result of MG5*
#                                                                    *
#*********************************************************************
#*********************************************************************
# Process(es) requested : mg2 input                                  *
#*********************************************************************
# Begin PROCESS # This is TAG. Do not modify this line
p p > zph , zph > j j           #Process
# Be carefull the coupling are here in MG5 convention
          
end_coup           # End the couplings input

done               # this tells MG there are no more procs
# End PROCESS  # This is TAG. Do not modify this line
#*********************************************************************
# Model information                                                  *
#*********************************************************************
# Begin MODEL  # This is TAG. Do not modify this line
Zprime_UFO
# End   MODEL  # This is TAG. Do not modify this line
#*********************************************************************
# Start multiparticle definitions                                    *
#*********************************************************************
# Begin MULTIPARTICLES # This is TAG. Do not modify this line

# End  MULTIPARTICLES # This is TAG. Do not modify this line
</MGProcCard>
<MGRunCard>
#*********************************************************************
#                       MadGraph5_aMC@NLO                            *
#                                                                    *
#                     run_card.dat MadEvent                          *
#                                                                    *
#  This file is used to set the parameters of the run.               *
#                                                                    *
#  Some notation/conventions:                                        *
#                                                                    *
#   Lines starting with a '# ' are info or comments                  *
#                                                                    *
#   mind the format:   value    = variable     ! comment             *
#*********************************************************************
#
#*******************                                                 
# Running parameters
#*******************                                                 
#                                                                    
#*********************************************************************
# Tag name for the run (one word)                                    *
#*********************************************************************
  tag_1     = run_tag ! name of the run 
#*********************************************************************
# Run to generate the grid pack                                      *
#*********************************************************************
  .false.     = gridpack  !True = setting up the grid pack
#*********************************************************************
# Number of events and rnd seed                                      *
# Warning: Do not generate more than 1M events in a single run       *
# If you want to run Pythia, avoid more than 50k events in a run.    *
#*********************************************************************
  2000 = nevents ! Number of unweighted events requested 
 1758 = iseed   ! rnd seed (0=assigned automatically=default))
#*********************************************************************
# Collider type and energy                                           *
# lpp: 0=No PDF, 1=proton, -1=antiproton, 2=photon from proton,      *
#                                         3=photon from electron     *
#*********************************************************************
        1     = lpp1    ! beam 1 type 
        1     = lpp2    ! beam 2 type
     4000     = ebeam1  ! beam 1 total energy in GeV
     4000     = ebeam2  ! beam 2 total energy in GeV
#*********************************************************************
# Beam polarization from -100 (left-handed) to 100 (right-handed)    *
#*********************************************************************
        0     = polbeam1 ! beam polarization for beam 1
        0     = polbeam2 ! beam polarization for beam 2
#*********************************************************************
# PDF CHOICE: this automatically fixes also alpha_s and its evol.    *
#*********************************************************************
 'nn23lo1'    = pdlabel     ! PDF set                                     
 230000    = lhaid     ! if pdlabel=lhapdf, this is the lhapdf number
#*********************************************************************
# Renormalization and factorization scales                           *
#*********************************************************************
 F        = fixed_ren_scale  ! if .true. use fixed ren scale
 F        = fixed_fac_scale  ! if .true. use fixed fac scale
 91.1880  = scale            ! fixed ren scale
 91.1880  = dsqrt_q2fact1    ! fixed fact scale for pdf1
 91.1880  = dsqrt_q2fact2    ! fixed fact scale for pdf2
 1        = scalefact        ! scale factor for event-by-event scales
#*********************************************************************
# Matching - Warning! ickkw > 1 is still beta
#*********************************************************************
 0        = ickkw            ! 0 no matching, 1 MLM, 2 CKKW matching
 1        = highestmult      ! for ickkw=2, highest mult group
 1        = ktscheme         ! for ickkw=1, 1 Durham kT, 2 Pythia pTE
 1        = alpsfact         ! scale factor for QCD emission vx
 F        = chcluster        ! cluster only according to channel diag
 T        = pdfwgt           ! for ickkw=1, perform pdf reweighting
 5        = asrwgtflavor     ! highest quark flavor for a_s reweight
 T        = clusinfo         ! include clustering tag in output
 3.0      = lhe_version       ! Change the way clustering information pass to shower.        
#*********************************************************************
#**********************************************************
#
#**********************************************************
# Automatic ptj and mjj cuts if xqcut > 0
# (turn off for VBF and single top processes)
#**********************************************************
   T  = auto_ptj_mjj  ! Automatic setting of ptj and mjj
#**********************************************************
#                                                                    
#**********************************
# BW cutoff (M+/-bwcutoff*Gamma)
#**********************************
  15  = bwcutoff      ! (M+/-bwcutoff*Gamma)
#**********************************************************
# Apply pt/E/eta/dr/mij cuts on decay products or not
# (note that etmiss/ptll/ptheavy/ht/sorted cuts always apply)
#**********************************************************
   T  = cut_decays    ! Cut decay products 
#*************************************************************
# Number of helicities to sum per event (0 = all helicities)
# 0 gives more stable result, but longer run time (needed for
# long decay chains e.g.).
# Use >=2 if most helicities contribute, e.g. pure QCD.
#*************************************************************
   0  = nhel          ! Number of helicities used per event
#*******************                                                 
# Standard Cuts
#*******************                                                 
#                                                                    
#*********************************************************************
# Minimum and maximum pt's (for max, -1 means no cut)                *
#*********************************************************************
 20  = ptj       ! minimum pt for the jets 
  0  = ptb       ! minimum pt for the b 
 10  = pta       ! minimum pt for the photons 
 10  = ptl       ! minimum pt for the charged leptons 
  0  = misset    ! minimum missing Et (sum of neutrino's momenta)
  0  = ptheavy   ! minimum pt for one heavy final state
 1.0 = ptonium   ! minimum pt for the quarkonium states
 -1  = ptjmax    ! maximum pt for the jets
 -1  = ptbmax    ! maximum pt for the b
 -1  = ptamax    ! maximum pt for the photons
 -1  = ptlmax    ! maximum pt for the charged leptons
 -1  = missetmax ! maximum missing Et (sum of neutrino's momenta)
#*********************************************************************
# Minimum and maximum E's (in the center of mass frame)              *
#*********************************************************************
  0  = ej     ! minimum E for the jets 
  0  = eb     ! minimum E for the b 
  0  = ea     ! minimum E for the photons 
  0  = el     ! minimum E for the charged leptons 
 -1   = ejmax ! maximum E for the jets
 -1   = ebmax ! maximum E for the b
 -1   = eamax ! maximum E for the photons
 -1   = elmax ! maximum E for the charged leptons
#*********************************************************************
# Maximum and minimum absolute rapidity (for max, -1 means no cut)   *
#*********************************************************************
   5  = etaj    ! max rap for the jets 
  -1  = etab    ! max rap for the b
 2.5  = etaa    ! max rap for the photons 
 2.5  = etal    ! max rap for the charged leptons 
 0.6  = etaonium ! max rap for the quarkonium states
   0  = etajmin ! min rap for the jets
   0  = etabmin ! min rap for the b
   0  = etaamin ! min rap for the photons
   0  = etalmin ! main rap for the charged leptons
#*********************************************************************
# Minimum and maximum DeltaR distance                                *
#*********************************************************************
 0.4 = drjj    ! min distance between jets 
 0   = drbb    ! min distance between b's 
 0.4 = drll    ! min distance between leptons 
 0.4 = draa    ! min distance between gammas 
 0   = drbj    ! min distance between b and jet 
 0.4 = draj    ! min distance between gamma and jet 
 0.4 = drjl    ! min distance between jet and lepton 
 0   = drab    ! min distance between gamma and b 
 0   = drbl    ! min distance between b and lepton 
 0.4 = dral    ! min distance between gamma and lepton 
 -1  = drjjmax ! max distance between jets
 -1  = drbbmax ! max distance between b's
 -1  = drllmax ! max distance between leptons
 -1  = draamax ! max distance between gammas
 -1  = drbjmax ! max distance between b and jet
 -1  = drajmax ! max distance between gamma and jet
 -1  = drjlmax ! max distance between jet and lepton
 -1  = drabmax ! max distance between gamma and b
 -1  = drblmax ! max distance between b and lepton
 -1  = dralmax ! maxdistance between gamma and lepton
#*********************************************************************
# Minimum and maximum invariant mass for pairs                       *
# WARNING: for four lepton final state mmll cut require to have      *
#          different lepton masses for each flavor!                  *           
#*********************************************************************
 0   = mmjj    ! min invariant mass of a jet pair 
 0   = mmbb    ! min invariant mass of a b pair 
 0   = mmaa    ! min invariant mass of gamma gamma pair
 0   = mmll    ! min invariant mass of l+l- (same flavour) lepton pair
 -1  = mmjjmax ! max invariant mass of a jet pair
 -1  = mmbbmax ! max invariant mass of a b pair
 -1  = mmaamax ! max invariant mass of gamma gamma pair
 -1  = mmllmax ! max invariant mass of l+l- (same flavour) lepton pair
#*********************************************************************
# Minimum and maximum invariant mass for all letpons                 *
#*********************************************************************
 0   = mmnl    ! min invariant mass for all letpons (l+- and vl) 
 -1  = mmnlmax ! max invariant mass for all letpons (l+- and vl) 
#*********************************************************************
# Minimum and maximum pt for 4-momenta sum of leptons                *
#*********************************************************************
 0   = ptllmin  ! Minimum pt for 4-momenta sum of leptons(l and vl)
 -1  = ptllmax  ! Maximum pt for 4-momenta sum of leptons(l and vl)
#*********************************************************************
# Inclusive cuts                                                     *
#*********************************************************************
 0  = xptj ! minimum pt for at least one jet  
 0  = xptb ! minimum pt for at least one b 
 0  = xpta ! minimum pt for at least one photon 
 0  = xptl ! minimum pt for at least one charged lepton 
#*********************************************************************
# Control the pt's of the jets sorted by pt                          *
#*********************************************************************
 0   = ptj1min ! minimum pt for the leading jet in pt
 0   = ptj2min ! minimum pt for the second jet in pt
 0   = ptj3min ! minimum pt for the third jet in pt
 0   = ptj4min ! minimum pt for the fourth jet in pt
 -1  = ptj1max ! maximum pt for the leading jet in pt 
 -1  = ptj2max ! maximum pt for the second jet in pt
 -1  = ptj3max ! maximum pt for the third jet in pt
 -1  = ptj4max ! maximum pt for the fourth jet in pt
 0   = cutuse  ! reject event if fails any (0) / all (1) jet pt cuts
#*********************************************************************
# Control the pt's of leptons sorted by pt                           *
#*********************************************************************
 0   = ptl1min ! minimum pt for the leading lepton in pt
 0   = ptl2min ! minimum pt for the second lepton in pt
 0   = ptl3min ! minimum pt for the third lepton in pt
 0   = ptl4min ! minimum pt for the fourth lepton in pt
 -1  = ptl1max ! maximum pt for the leading lepton in pt 
 -1  = ptl2max ! maximum pt for the second lepton in pt
 -1  = ptl3max ! maximum pt for the third lepton in pt
 -1  = ptl4max ! maximum pt for the fourth lepton in pt
#*********************************************************************
# Control the Ht(k)=Sum of k leading jets                            *
#*********************************************************************
 0   = htjmin ! minimum jet HT=Sum(jet pt)
 -1  = htjmax ! maximum jet HT=Sum(jet pt)
 0   = ihtmin  !inclusive Ht for all partons (including b)
 -1  = ihtmax  !inclusive Ht for all partons (including b)
 0   = ht2min ! minimum Ht for the two leading jets
 0   = ht3min ! minimum Ht for the three leading jets
 0   = ht4min ! minimum Ht for the four leading jets
 -1  = ht2max ! maximum Ht for the two leading jets
 -1  = ht3max ! maximum Ht for the three leading jets
 -1  = ht4max ! maximum Ht for the four leading jets
#***********************************************************************
# Photon-isolation cuts, according to hep-ph/9801442                   *
# When ptgmin=0, all the other parameters are ignored                  *
# When ptgmin>0, pta and draj are not going to be used                 *
#***********************************************************************
   0 = ptgmin ! Min photon transverse momentum
 0.4 = R0gamma ! Radius of isolation code
 1.0 = xn ! n parameter of eq.(3.4) in hep-ph/9801442
 1.0 = epsgamma ! epsilon_gamma parameter of eq.(3.4) in hep-ph/9801442
 .true. = isoEM ! isolate photons from EM energy (photons and leptons)
#*********************************************************************
# WBF cuts                                                           *
#*********************************************************************
 0   = xetamin ! minimum rapidity for two jets in the WBF case  
 0   = deltaeta ! minimum rapidity for two jets in the WBF case 
#*********************************************************************
# KT DURHAM CUT                                                      *
#*********************************************************************
 -1    =  ktdurham        
 0.4  =  dparameter 
#*********************************************************************
# maximal pdg code for quark to be considered as a light jet         *
# (otherwise b cuts are applied)                                     *
#*********************************************************************
 4 = maxjetflavor    ! Maximum jet pdg code
#*********************************************************************
# Jet measure cuts                                                   *
#*********************************************************************
 0   = xqcut   ! minimum kt jet measure between partons
#*********************************************************************
#
#*********************************************************************
# Store info for systematics studies                                 *
# WARNING: If use_syst is T, matched Pythia output is                *
#          meaningful ONLY if plotted taking matchscale              *
#          reweighting into account!                                 *
#*********************************************************************
   F  = use_syst      ! Enable systematics studies
#
#**************************************
# Parameter of the systematics study
#  will be used by SysCalc (if installed)
#**************************************                                  
#
0.5 1 2 = sys_scalefact  # factorization/renormalization scale factor
0.5 1 2 = sys_alpsfact  # \alpha_s emission scale factors
30 50 = sys_matchscale # variation of merging scale
# PDF sets and number of members (0 or none for all members).
CT10nlo.LHgrid = sys_pdf # matching scales
# MSTW2008nlo68cl.LHgrid 1  = sys_pdf
</MGRunCard>
<slha>
######################################################################
## PARAM_CARD AUTOMATICALY GENERATED BY MG5 FOLLOWING UFO MODEL   ####
######################################################################
##                                                                  ##
##  Width set on Auto will be computed following the information    ##
##        present in the decay.py files of the model.               ##
##        See  arXiv:1402.1178 for more details.                    ##
##                                                                  ##
######################################################################

###################################
## INFORMATION FOR CKMBLOCK
###################################
Block ckmblock 
    1 2.277360e-01 # cabi 

###################################
## INFORMATION FOR FRBLOCK
###################################
Block frblock 
    1 8.000000e-01 # gz 

###################################
## INFORMATION FOR MASS
###################################
Block mass 
    1 5.040000e-03 # MD 
    2 2.550000e-03 # MU 
    3 1.010000e-01 # MS 
    4 1.270000e+00 # MC 
    5 4.700000e+00 # MB 
    6 1.720000e+02 # MT 
   11 5.110000e-04 # Me 
   13 1.056600e-01 # MM 
   15 1.777000e+00 # MTA 
   23 9.118760e+01 # MZ 
   25 1.200000e+02 # MH 
  10030 3.700000e+03 # MZph 
  10031 3.000000e+02 # MZpl 
## Dependent parameters, given by model restrictions.
## Those values should be edited following the 
## analytical expression. MG5 ignores those values 
## but they are important for interfacing the output of MG5
## to external program such as Pythia.
  12 0.000000 # ve : 0.0 
  14 0.000000 # vm : 0.0 
  16 0.000000 # vt : 0.0 
  21 0.000000 # g : 0.0 
  22 0.000000 # a : 0.0 
  24 79.824360 # w+ : cmath.sqrt(MZ__exp__2/2. + cmath.sqrt(MZ__exp__4/4. - (aEW*cmath.pi*MZ__exp__2)/(Gf*sqrt__2))) 

###################################
## INFORMATION FOR SMINPUTS
###################################
Block sminputs 
    1 1.279000e+02 # aEWM1 
    2 1.166370e-05 # Gf 
    3 1.184000e-01 # aS 

###################################
## INFORMATION FOR YUKAWA
###################################
Block yukawa 
    1 5.040000e-03 # ymdo 
    2 2.550000e-03 # ymup 
    3 1.010000e-01 # yms 
    4 1.270000e+00 # ymc 
    5 4.700000e+00 # ymb 
    6 1.720000e+02 # ymt 
   11 5.110000e-04 # yme 
   13 1.056600e-01 # ymm 
   15 1.777000e+00 # ymtau 

###################################
## INFORMATION FOR DECAY
###################################
DECAY   6 1.508336e+00 # WT 
DECAY  23 2.495200e+00 # WZ 
DECAY  24 2.085000e+00 # WW 
DECAY  25 5.753088e-03 # WH 
## Dependent parameters, given by model restrictions.
## Those values should be edited following the 
## analytical expression. MG5 ignores those values 
## but they are important for interfacing the output of MG5
## to external program such as Pythia.
DECAY  1 0.000000 # d : 0.0 
DECAY  2 0.000000 # u : 0.0 
DECAY  3 0.000000 # s : 0.0 
DECAY  4 0.000000 # c : 0.0 
DECAY  5 0.000000 # b : 0.0 
DECAY  11 0.000000 # e- : 0.0 
DECAY  12 0.000000 # ve : 0.0 
DECAY  13 0.000000 # mu- : 0.0 
DECAY  14 0.000000 # vm : 0.0 
DECAY  15 0.000000 # ta- : 0.0 
DECAY  16 0.000000 # vt : 0.0 
DECAY  21 0.000000 # g : 0.0 
DECAY  22 0.000000 # a : 0.0 
DECAY  10030 0.308725 # zph : (gz__exp__2*MZph*(5 + cmath.sqrt(1 - (4*MT__exp__2)/MZph__exp__2)))/(144.*cmath.pi) 
DECAY  10031 0.132629 # zpl : (5*gz__exp__2*MZpl)/(144.*cmath.pi) 
#===========================================================
# QUANTUM NUMBERS OF NEW STATE(S) (NON SM PDG CODE)
#===========================================================

Block QNUMBERS 10030  # zph 
        1 0  # 3 times electric charge
        2 3  # number of spin states (2S+1)
        3 1  # colour rep (1: singlet, 3: triplet, 8: octet)
        4 0  # Particle/Antiparticle distinction (0=own anti)
Block QNUMBERS 10031  # zpl 
        1 0  # 3 times electric charge
        2 3  # number of spin states (2S+1)
        3 1  # colour rep (1: singlet, 3: triplet, 8: octet)
        4 0  # Particle/Antiparticle distinction (0=own anti)
</slha>
## END BANNER##
<MGGenerationInfo>
#  Number of Events        :         3840
#  Integrated weight (pb)  :  0.74728E-04
#  Max wgt                 :  0.30324E-07
#  Average wgt             :  0.19460E-07
</MGGenerationInfo>
</header>
<init>
     2212     2212  0.40000000000E+04  0.40000000000E+04 0 0  247000  247000 2   1
  0.74727517655E-04  0.15923897216E-06  0.30324420000E-07   0
</init>
<event>
 5   0  0.2996969E-07  0.3678178E+04  0.7818609E-02  0.8072815E-01
       -2   -1    0    0    0  501  0.00000000000E+00  0.00000000000E+00  0.13499473799E+04  0.13499473799E+04  0.25500000920E-02 0.  1.
        2   -1    0    0  501    0  0.00000000000E+00  0.00000000000E+00 -0.25054674142E+04  0.25054674142E+04  0.25500000920E-02 0. -1.
    10030    2    1    2    0    0  0.00000000000E+00  0.00000000000E+00 -0.11555200343E+04  0.38554147941E+04  0.36781784466E+04 0.  0.
        1    1    3    3  502    0 -0.98493916079E+03 -0.12182985713E+04  0.43192793164E+03  0.16250902429E+04  0.50400001928E-02 0. -1.
       -1    1    3    3    0  502  0.98493916079E+03  0.12182985713E+04 -0.15874479660E+04  0.22303245513E+04  0.50400001928E-02 0.  1.
</event>
<event>
 5   0  0.2996969E-07  0.3703176E+04  0.7818609E-02  0.8067258E-01
       -2   -1    0    0    0  501  0.00000000000E+00  0.00000000000E+00  0.24977267501E+04  0.24977267501E+04  0.25500000920E-02 0.  1.
        2   -1    0    0  501    0  0.00000000000E+00  0.00000000000E+00 -0.13725994955E+04  0.13725994955E+04  0.25500000920E-02 0. -1.
    10030    2    1    2    0    0  0.00000000000E+00  0.00000000000E+00  0.11251272546E+04  0.38703262456E+04  0.37031761919E+04 0.  0.
        1    1    3    3  502    0  0.11919997678E+04 -0.10806141703E+04  0.15203266006E+04  0.22135906135E+04  0.50400001928E-02 0.  1.
       -1    1    3    3    0  502 -0.11919997678E+04  0.10806141703E+04 -0.39519934599E+03  0.16567356321E+04  0.50400001928E-02 0. -1.
</event>
<event>
 5   0  0.3032442E-07  0.3690749E+04  0.7818609E-02  0.8070015E-01
       -2   -1    0    0    0  501  0.00000000000E+00  0.00000000000E+00  0.13590482634E+04  0.13590482634E+04  0.25500000920E-02 0.  1.
        2   -1    0    0  501    0  0.00000000000E+00  0.00000000000E+00 -0.25057291148E+04  0.25057291148E+04  0.25500000920E-02 0. -1.
    10030    2    1    2    0    0  0.00000000000E+00  0.00000000000E+00 -0.11466808514E+04  0.38647773783E+04  0.36907488683E+04 0.  0.
        3    1    3    3  502    0 -0.17888792398E+04  0.23376246650E+03 -0.97980963871E+03  0.20529882522E+04  0.10100000352E+00 0. -1.
       -3    1    3    3    0  502  0.17888792398E+04 -0.23376246650E+03 -0.16687121268E+03  0.18117891260E+04  0.10100000352E+00 0.  1.
</event>
<event>
 5   0  0.2996969E-07  0.3285574E+04  0.7818609E-02  0.8166576E-01
       -2   -1    0    0    0  501  0.00000000000E+00  0.00000000000E+00  0.11008084401E+04  0.11008084401E+04  0.25500000920E-02 0. -1.
        2   -1    0    0  501    0  0.00000000000E+00  0.00000000000E+00 -0.24516065733E+04  0.24516065733E+04  0.25500000920E-02 0.  1.
    10030    2    1    2    0    0  0.00000000000E+00  0.00000000000E+00 -0.13507981332E+04  0.35524150134E+04  0.32855740489E+04 0.  0.
        1    1    3    3  502    0 -0.39254509767E+03  0.21659000801E+03  0.10333827003E+04  0.11264469320E+04  0.50400001928E-02 0. -1.
       -1    1    3    3    0  502  0.39254509767E+03 -0.21659000801E+03 -0.23841808335E+04  0.24259680814E+04  0.50400001928E-02 0.  1.
</event>
<event>
 5   0  0.3032442E-07  0.3684784E+04  0.7818609E-02  0.8071342E-01
        2   -1    0    0  501    0  0.00000000000E+00  0.00000000000E+00  0.13643154956E+04  0.13643154956E+04  0.25500000920E-02 0. -1.
       -2   -1    0    0    0  501  0.00000000000E+00  0.00000000000E+00 -0.24879938096E+04  0.24879938096E+04  0.25500000920E-02 0.  1.
    10030    2    1    2    0    0  0.00000000000E+00  0.00000000000E+00 -0.11236783141E+04  0.38523093052E+04  0.36847841225E+04 0.  0.
        3    1    3    3  502    0 -0.11915432660E+04 -0.55648461083E+03 -0.19108354131E+04  0.23196427447E+04  0.10100000352E+00 0.  1.
       -3    1    3    3    0  502  0.11915432660E+04  0.55648461083E+03  0.78715709905E+03  0.15326665605E+04  0.10100000352E+00 0. -1.
</event>
<event>
 5   0  0.9341000E-08  0.3687137E+04  0.7818609E-02  0.8070818E-01
       -1   -1    0    0    0  501  0.00000000000E+00  0.00000000000E+00  0.14818809383E+04  0.14818809383E+04  0.50400001928E-02 0. -1.
        1   -1    0    0  501    0  0.00000000000E+00  0.00000000000E+00 -0.22935348579E+04  0.22935348579E+04  0.50400001928E-02 0.  1.
    10030    2    1    2    0    0  0.00000000000E+00  0.00000000000E+00 -0.81165391963E+03  0.37754157963E+04  0.36871374194E+04 0.  0.
        1    1    3    3  502    0 -0.23560637995E+03 -0.17469987060E+04 -0.95840557418E+03  0.20065034487E+04  0.50400001928E-02 0. -1.
       -1    1    3    3    0  502  0.23560637995E+03  0.17469987060E+04  0.14675165455E+03  0.17689123475E+04  0.50400001928E-02 0.  1.
</event>
<event>
 5   0  0.9341000E-08  0.3687565E+04  0.7818609E-02  0.8070723E-01
        1   -1    0    0  501    0  0.00000000000E+00  0.00000000000E+00  0.12458346884E+04  0.12458346884E+04  0.50400001928E-02 0. -1.
       -1   -1    0    0    0  501  0.00000000000E+00  0.00000000000E+00 -0.27287201115E+04  0.27287201115E+04  0.50400001928E-02 0.  1.
    10030    2    1    2    0    0  0.00000000000E+00  0.00000000000E+00 -0.14828854230E+04  0.39745547999E+04  0.36875651424E+04 0.  0.
        3    1    3    3  502    0  0.45623671928E+03  0.77812424443E+03  0.99178275177E+03  0.13406201254E+04  0.10100000352E+00 0. -1.
       -3    1    3    3    0  502 -0.45623671928E+03 -0.77812424443E+03 -0.24746681748E+04  0.26339346745E+04  0.10100000352E+00 0.  1.
</event>
<event>
 5   0  0.2996969E-07  0.3686479E+04  0.7818609E-02  0.8070965E-01
       -2   -1    0    0    0  501  0.00000000000E+00  0.00000000000E+00  0.11394442472E+04  0.11394442472E+04  0.25500000920E-02 0. -1.
        2   -1    0    0  501    0  0.00000000000E+00  0.00000000000E+00 -0.29817455049E+04  0.29817455049E+04  0.25500000920E-02 0.  1.
    10030    2    1    2    0    0  0.00000000000E+00  0.00000000000E+00 -0.18423012577E+04  0.41211897521E+04  0.36864794926E+04 0.  0.
        1    1    3    3  502    0  0.16970811981E+04 -0.62951262889E+03 -0.53202123230E+03  0.18866418140E+04  0.50400001928E-02 0. -1.
       -1    1    3    3    0  502 -0.16970811981E+04  0.62951262889E+03 -0.13102800254E+04  0.22345479381E+04  0.50400001928E-02 0.  1.
</event>
<event>
 5   0  0.9646615E-08  0.3654595E+04  0.7818609E-02  0.8078099E-01
        1   -1    0    0  501    0  0.00000000000E+00  0.00000000000E+00  0.26193383244E+04  0.26193383244E+04  0.50400001928E-02 0.  1.
       -1   -1    0    0    0  501  0.00000000000E+00  0.00000000000E+00 -0.12747558862E+04  0.12747558862E+04  0.50400001928E-02 0. -1.
    10030    2    1    2    0    0  0.00000000000E+00  0.00000000000E+00  0.13445824382E+04  0.38940942106E+04  0.36545954343E+04 0.  0.
        2    1    3    3  502    0 -0.23021447199E+03  0.31465588976E+03 -0.12299205058E+04  0.12902369870E+04  0.25500000920E-02 0. -1.
       -2    1    3    3    0  502  0.23021447199E+03 -0.31465588976E+03  0.25745029440E+04  0.26038572236E+04  0.25500000920E-02 0.  1.
</event>
<event>
 5   0  0.2996969E-07  0.3718912E+04  0.7818609E-02  0.8063783E-01
       -2   -1    0    0    0  501  0.00000000000E+00  0.00000000000E+00  0.12655107147E+04  0.12655107147E+04  0.25500000920E-02 0.  1.
        2   -1    0    0  501    0  0.00000000000E+00  0.00000000000E+00 -0.27321597305E+04  0.27321597305E+04  0.25500000920E-02 0. -1.
    10030    2    1    2    0    0  0.00000000000E+00  0.00000000000E+00 -0.14666490158E+04  0.39976704452E+04  0.37189124288E+04 0.  0.
        1    1    3    3  502    0 -0.41375529451E+03  0.89226847036E+03  0.96301088109E+03  0.13764906189E+04  0.50400001928E-02 0.  1.
       -1    1    3    3    0  502  0.41375529451E+03 -0.89226847036E+03 -0.24296598969E+04  0.26211798262E+04  0.50400001928E-02 0. -1.
</event>
<event>
 5   0  0.9646615E-08  0.3527651E+04  0.7818609E-02  0.8107268E-01
       -1   -1    0    0    0  501  0.00000000000E+00  0.00000000000E+00  0.18628370302E+04  0.18628370302E+04  0.50400001928E-02 0.  1.
        1   -1    0    0  501    0  0.00000000000E+00  0.00000000000E+00 -0.16700766573E+04  0.16700766574E+04  0.50400001928E-02 0. -1.
    10030    2    1    2    0    0  0.00000000000E+00  0.00000000000E+00  0.19276037285E+03  0.35329136876E+04  0.35276511396E+04 0.  0.
        2    1    3    3  502    0  0.94504873639E+03 -0.14892807283E+04  0.93838929705E+02  0.17663181895E+04  0.25500000920E-02 0. -1.
       -2    1    3    3    0  502 -0.94504873639E+03  0.14892807283E+04  0.98921443150E+02  0.17665954981E+04  0.25500000920E-02 0.  1.
</event>
<event>
 5   0  0.2913025E-07  0.3632387E+04  0.7818609E-02  0.8083113E-01
       -2   -1    0    0    0  501  0.00000000000E+00  0.00000000000E+00  0.14750205329E+04  0.14750205329E+04  0.25500000920E-02 0. -1.
        2   -1    0    0  501    0  0.00000000000E+00  0.00000000000E+00 -0.22362801603E+04  0.22362801603E+04  0.25500000920E-02 0.  1.
    10030    2    1    2    0    0  0.00000000000E+00  0.00000000000E+00 -0.76125962740E+03  0.37113006931E+04  0.36323871785E+04 0.  0.
        5    1    3    3  502    0  0.17332742982E+04 -0.50130704757E+03 -0.59247091694E+03  0.18991030583E+04  0.46999998093E+01 0.  1.
       -5    1    3    3    0  502 -0.17332742982E+04  0.50130704757E+03 -0.16878871046E+03  0.18121976348E+04  0.46999998093E+01 0. -1.
</event>
<event>
 5   0  0.9418945E-08  0.3672198E+04  0.7818609E-02  0.8074151E-01
       -1   -1    0    0    0  501  0.00000000000E+00  0.00000000000E+00  0.17173318199E+04  0.17173318200E+04  0.50400001928E-02 0. -1.
        1   -1    0    0  501    0  0.00000000000E+00  0.00000000000E+00 -0.19630800861E+04  0.19630800862E+04  0.50400001928E-02 0.  1.
    10030    2    1    2    0    0  0.00000000000E+00  0.00000000000E+00 -0.24574826620E+03  0.36804119061E+04  0.36721981957E+04 0.  0.
        5    1    3    3  502    0  0.61221902899E+03  0.17124492859E+04  0.13056121834E+03  0.18232835814E+04  0.46999998093E+01 0. -1.
       -5    1    3    3    0  502 -0.61221902899E+03 -0.17124492859E+04 -0.37630948454E+03  0.18571283247E+04  0.46999998093E+01 0.  1.
</event>
<event>
 5   0  0.9341000E-08  0.3649203E+04  0.7818609E-02  0.8079313E-01
        1   -1    0    0  501    0  0.00000000000E+00  0.00000000000E+00  0.10305897218E+04  0.10305897218E+04  0.50400001928E-02 0. -1.
       -1   -1    0    0    0  501  0.00000000000E+00  0.00000000000E+00 -0.32303556621E+04  0.32303556621E+04  0.50400001928E-02 0.  1.
    10030    2    1    2    0    0  0.00000000000E+00  0.00000000000E+00 -0.21997659403E+04  0.42609453839E+04  0.36492033888E+04 0.  0.
        1    1    3    3  502    0 -0.32284194758E+03 -0.17333335685E+04 -0.16481742870E+04  0.24135348896E+04  0.50400001928E-02 0.  1.
       -1    1    3    3    0  502  0.32284194758E+03  0.17333335685E+04 -0.55159165322E+03  0.18474104943E+04  0.50400001928E-02 0. -1.
</event>
<event>
 5   0  0.9341000E-08  0.3693274E+04  0.7818609E-02  0.8069454E-01
        1   -1    0    0  501    0  0.00000000000E+00  0.00000000000E+00  0.13672508832E+04  0.13672508832E+04  0.50400001928E-02 0. -1.
       -1   -1    0    0    0  501  0.00000000000E+00  0.00000000000E+00 -0.24941051061E+04  0.24941051061E+04  0.50400001928E-02 0.  1.
    10030    2    1    2    0    0  0.00000000000E+00  0.00000000000E+00 -0.11268542230E+04  0.38613559893E+04  0.36932735664E+04 0.  0.
        3    1    3    3  502    0 -0.40061451469E+03  0.13674548218E+04 -0.17914647600E+04  0.22890545375E+04  0.10100000352E+00 0.  1.
       -3    1    3    3    0  502  0.40061451469E+03 -0.13674548218E+04  0.66461053702E+03  0.15723014518E+04  0.10100000352E+00 0. -1.
</event>
<event>
 5   0  0.9341000E-08  0.3702239E+04  0.7818609E-02  0.8067466E-01
       -1   -1    0    0    0  501  0.00000000000E+00  0.00000000000E+00  0.16268653869E+04  0.16268653869E+04  0.50400001928E-02 0.  1.
        1   -1    0    0  501    0  0.00000000000E+00  0.00000000000E+00 -0.21062853824E+04  0.21062853824E+04  0.50400001928E-02 0. -1.
    10030    2    1    2    0    0  0.00000000000E+00  0.00000000000E+00 -0.47941999550E+03  0.37331507694E+04  0.37022386653E+04 0.  0.
        3    1    3    3  502    0  0.33080994969E+03 -0.17785447863E+04 -0.63539694822E+03  0.19173904328E+04  0.10100000352E+00 0.  1.
       -3    1    3    3    0  502 -0.33080994969E+03  0.17785447863E+04  0.15597695272E+03  0.18157603366E+04  0.10100000352E+00 0. -1.
</event>
<event>
 5   0  0.2996969E-07  0.3681061E+04  0.7818609E-02  0.8072172E-01
       -2   -1    0    0    0  501  0.00000000000E+00  0.00000000000E+00  0.24438827890E+04  0.24438827890E+04  0.25500000920E-02 0.  1.
        2   -1    0    0  501    0  0.00000000000E+00  0.00000000000E+00 -0.13861353523E+04  0.13861353523E+04  0.25500000920E-02 0. -1.
    10030    2    1    2    0    0  0.00000000000E+00  0.00000000000E+00  0.10577474367E+04  0.38300181413E+04  0.36810608964E+04 0.  0.
        1    1    3    3  502    0  0.11646996255E+04  0.14231573218E+04  0.45066313589E+03  0.18934094228E+04  0.50400001928E-02 0. -1.
       -1    1    3    3    0  502 -0.11646996255E+04 -0.14231573218E+04  0.60708430078E+03  0.19366087185E+04  0.50400001928E-02 0.  1.
</event>
<event>
 5   0  0.9341000E-08  0.3875114E+04  0.7818609E-02  0.8030225E-01
       -1   -1    0    0    0  501  0.00000000000E+00  0.00000000000E+00  0.20804238638E+04  0.20804238638E+04  0.50400001928E-02 0. -1.
        1   -1    0    0  501    0  0.00000000000E+00  0.00000000000E+00 -0.18045006838E+04  0.18045006838E+04  0.50400001928E-02 0.  1.
    10030    2    1    2    0    0  0.00000000000E+00  0.00000000000E+00  0.27592318003E+03  0.38849245476E+04  0.38751135647E+04 0.  0.
        4    1    3    3  502    0 -0.82958003809E+03 -0.15344508563E+04 -0.70760857619E+03  0.18824064333E+04  0.12699999809E+01 0.  1.
       -4    1    3    3    0  502  0.82958003809E+03  0.15344508563E+04  0.98353175622E+03  0.20025181144E+04  0.12699999809E+01 0. -1.
</event>
<event>
 5   0  0.9341000E-08  0.3728532E+04  0.7818609E-02  0.8061668E-01
       -1   -1    0    0    0  501  0.00000000000E+00  0.00000000000E+00  0.15088254015E+04  0.15088254015E+04  0.50400001928E-02 0. -1.
        1   -1    0    0  501    0  0.00000000000E+00  0.00000000000E+00 -0.23034390591E+04  0.23034390591E+04  0.50400001928E-02 0.  1.
    10030    2    1    2    0    0  0.00000000000E+00  0.00000000000E+00 -0.79461365768E+03  0.38122644606E+04  0.37285318092E+04 0.  0.
        1    1    3    3  502    0  0.15473393190E+04 -0.93457095518E+03  0.68787386022E+02  0.18089813551E+04  0.50400001928E-02 0. -1.
       -1    1    3    3    0  502 -0.15473393190E+04  0.93457095518E+03 -0.86340104370E+03  0.20032831055E+04  0.50400001928E-02 0.  1.
</event>
<event>
 5   0  0.3008879E-07  0.3699869E+04  0.7818609E-02  0.8067991E-01
        2   -1    0    0  501    0  0.00000000000E+00  0.00000000000E+00  0.21949886334E+04  0.21949886334E+04  0.25500000920E-02 0.  1.
       -2   -1    0    0    0  501  0.00000000000E+00  0.00000000000E+00 -0.15591227711E+04  0.15591227711E+04  0.25500000920E-02 0. -1.
    10030    2    1    2    0    0  0.00000000000E+00  0.00000000000E+00  0.63586586228E+03  0.37541114045E+04  0.36998685169E+04 0.  0.
        2    1    3    3  502    0 -0.56506970638E+03  0.10656627513E+04  0.17411066501E+04  0.21181107714E+04  0.25500000920E-02 0.  1.
       -2    1    3    3    0  502  0.56506970638E+03 -0.10656627513E+04 -0.11052407879E+04  0.16360006332E+04  0.25500000920E-02 0. -1.
</event>
<event>
 5   0  0.9341000E-08  0.3707662E+04  0.7818609E-02  0.8066266E-01
        1   -1    0    0  501    0  0.00000000000E+00  0.00000000000E+00  0.13702314760E+04  0.13702314760E+04  0.50400001928E-02 0. -1.
       -1   -1    0    0    0  501  0.00000000000E+00  0.00000000000E+00 -0.25081084509E+04  0.25081084509E+04  0.50400001928E-02 0.  1.
    10030    2    1    2    0    0  0.00000000000E+00  0.00000000000E+00 -0.11378769750E+04  0.38783399269E+04  0.37076618749E+04 0.  0.
        3    1    3    3  502    0  0.13500222713E+04 -0.10382873662E+04 -0.13348241392E+04  0.21638752923E+04  0.10100000352E+00 0.  1.
       -3    1    3    3    0  502 -0.13500222713E+04  0.10382873662E+04  0.19694716426E+03  0.17144646346E+04  0.10100000352E+00 0. -1.
</event>
<event>
 5   0  0.3032442E-07  0.3702686E+04  0.7818609E-02  0.8067367E-01
       -2   -1    0    0    0  501  0.00000000000E+00  0.00000000000E+00  0.13155175117E+04  0.13155175117E+04  0.25500000920E-02 0. -1.
        2   -1    0    0  501    0  0.00000000000E+00  0.00000000000E+00 -0.26054167680E+04  0.26054167680E+04  0.25500000920E-02 0.  1.
    10030    2    1    2    0    0  0.00000000000E+00  0.00000000000E+00 -0.12898992562E+04  0.39209342797E+04  0.37026862592E+04 0.  0.
        3    1    3    3  502    0  0.16122343422E+03 -0.96043951615E+03 -0.23122502709E+04  0.25089715793E+04  0.10100000352E+00 0.  1.
       -3    1    3    3    0  502 -0.16122343422E+03  0.96043951615E+03  0.10223510147E+04  0.14119627004E+04  0.10100000352E+00 0. -1.
</event>
<event>
 5   0  0.9341000E-08  0.3704497E+04  0.7818609E-02  0.8066966E-01
        1   -1    0    0  501    0  0.00000000000E+00  0.00000000000E+00  0.23801774435E+04  0.23801774435E+04  0.50400001928E-02 0.  1.
       -1   -1    0    0    0  501  0.00000000000E+00  0.00000000000E+00 -0.14414157355E+04  0.14414157355E+04  0.50400001928E-02 0. -1.
    10030    2    1    2    0    0  0.00000000000E+00  0.00000000000E+00  0.93876170802E+03  0.38215931790E+04  0.37044973858E+04 0.  0.
        1    1    3    3  502    0  0.10573550557E+03 -0.12517701035E+04  0.18735508340E+04  0.22557262947E+04  0.50400001928E-02 0.  1.
       -1    1    3    3    0  502 -0.10573550557E+03  0.12517701035E+04 -0.93478912600E+03  0.15658668842E+04  0.50400001928E-02 0. -1.
</event>
<event>
 5   0  0.3008879E-07  0.3453569E+04  0.7818609E-02  0.8124883E-01
        2   -1    0    0  501    0  0.00000000000E+00  0.00000000000E+00  0.10640811856E+04  0.10640811856E+04  0.25500000920E-02 0. -1.
       -2   -1    0    0    0  501  0.00000000000E+00  0.00000000000E+00 -0.28022147702E+04  0.28022147702E+04  0.25500000920E-02 0.  1.
    10030    2    1    2    0    0  0.00000000000E+00  0.00000000000E+00 -0.17381335846E+04  0.38662959558E+04  0.34535685979E+04 0.  0.
        2    1    3    3  502    0  0.13114521969E+04  0.60524626171E+03 -0.19284983975E+04  0.24094264819E+04  0.25500000920E-02 0. -1.
       -2    1    3    3    0  502 -0.13114521969E+04 -0.60524626171E+03  0.19036481298E+03  0.14568694740E+04  0.25500000920E-02 0.  1.
</event>
<event>
 5   0  0.9646615E-08  0.3686066E+04  0.7818609E-02  0.8071057E-01
        1   -1    0    0  501    0  0.00000000000E+00  0.00000000000E+00  0.12232096061E+04  0.12232096062E+04  0.50400001928E-02 0.  1.
       -1   -1    0    0    0  501  0.00000000000E+00  0.00000000000E+00 -0.27769322003E+04  0.27769322003E+04  0.50400001928E-02 0. -1.
    10030    2    1    2    0    0  0.00000000000E+00  0.00000000000E+00 -0.15537225942E+04  0.40001418065E+04  0.36860657309E+04 0.  0.
        2    1    3    3  502    0 -0.96460721020E+03  0.14129078367E+04 -0.32885669571E+02  0.17110982123E+04  0.25500000920E-02 0.  1.
       -2    1    3    3    0  502  0.96460721020E+03 -0.14129078367E+04 -0.15208369246E+04  0.22890435942E+04  0.25500000920E-02 0. -1.
</event>
<event>
 5   0  0.3032442E-07  0.3561190E+04  0.7818609E-02  0.8099440E-01
       -2   -1    0    0    0  501  0.00000000000E+00  0.00000000000E+00  0.16385017131E+04  0.16385017131E+04  0.25500000920E-02 0.  1.
        2   -1    0    0  501    0  0.00000000000E+00  0.00000000000E+00 -0.19350112376E+04  0.19350112376E+04  0.25500000920E-02 0. -1.
    10030    2    1    2    0    0  0.00000000000E+00  0.00000000000E+00 -0.29650952450E+03  0.35735129507E+04  0.35611903783E+04 0.  0.
        3    1    3    3  502    0 -0.16479861692E+04  0.25623112786E+03 -0.77411671300E+03  0.18386868956E+04  0.10100000352E+00 0.  1.
       -3    1    3    3    0  502  0.16479861692E+04 -0.25623112786E+03  0.47760718851E+03  0.17348260551E+04  0.10100000352E+00 0. -1.
</event>
<event>
 5   0  0.2913025E-07  0.3700952E+04  0.7818609E-02  0.8067751E-01
        2   -1    0    0  501    0  0.00000000000E+00  0.00000000000E+00  0.22027972858E+04  0.22027972858E+04  0.25500000920E-02 0. -1.
       -2   -1    0    0    0  501  0.00000000000E+00  0.00000000000E+00 -0.15545060855E+04  0.15545060855E+04  0.25500000920E-02 0.  1.
    10030    2    1    2    0    0  0.00000000000E+00  0.00000000000E+00  0.64829120024E+03  0.37573033713E+04  0.37009521942E+04 0.  0.
        5    1    3    3  502    0 -0.14759481472E+03 -0.89559454669E+03  0.19612637221E+04  0.21611226941E+04  0.46999998093E+01 0. -1.
       -5    1    3    3    0  502  0.14759481472E+03  0.89559454669E+03 -0.13129725218E+04  0.15961806772E+04  0.46999998093E+01 0.  1.
</event>
<event>
 5   0  0.9646615E-08  0.3715350E+04  0.7818609E-02  0.8064569E-01
       -1   -1    0    0    0  501  0.00000000000E+00  0.00000000000E+00  0.31091270670E+04  0.31091270670E+04  0.50400001928E-02 0. -1.
        1   -1    0    0  501    0  0.00000000000E+00  0.00000000000E+00 -0.11099437755E+04  0.11099437755E+04  0.50400001928E-02 0.  1.
    10030    2    1    2    0    0  0.00000000000E+00  0.00000000000E+00  0.19991832915E+04  0.42190708425E+04  0.37153499083E+04 0.  0.
        2    1    3    3  502    0  0.48705101515E+03 -0.33576346470E+03 -0.10001229206E+04  0.11619817778E+04  0.25500000920E-02 0.  1.
       -2    1    3    3    0  502 -0.48705101515E+03  0.33576346470E+03  0.29993062121E+04  0.30570890647E+04  0.25500000920E-02 0. -1.
</event>
<event>
 5   0  0.3032442E-07  0.3740984E+04  0.7818609E-02  0.8058940E-01
       -2   -1    0    0    0  501  0.00000000000E+00  0.00000000000E+00  0.18702683110E+04  0.18702683110E+04  0.25500000920E-02 0.  1.
        2   -1    0    0  501    0  0.00000000000E+00  0.00000000000E+00 -0.18707154345E+04  0.18707154345E+04  0.25500000920E-02 0. -1.
    10030    2    1    2    0    0  0.00000000000E+00  0.00000000000E+00 -0.44712354130E+00  0.37409837455E+04  0.37409837188E+04 0.  0.
        3    1    3    3  502    0 -0.30652450613E+03  0.90127058082E+03  0.16098987597E+04  0.18702994304E+04  0.10100000352E+00 0.  1.
       -3    1    3    3    0  502  0.30652450613E+03 -0.90127058082E+03 -0.16103458833E+04  0.18706843151E+04  0.10100000352E+00 0. -1.
</event>
<event>
 5   0  0.2996969E-07  0.3667968E+04  0.7818609E-02  0.8075098E-01
       -2   -1    0    0    0  501  0.00000000000E+00  0.00000000000E+00  0.13311762315E+04  0.13311762315E+04  0.25500000920E-02 0.  1.
        2   -1    0    0  501    0  0.00000000000E+00  0.00000000000E+00 -0.25267104455E+04  0.25267104455E+04  0.25500000920E-02 0. -1.
    10030    2    1    2    0    0  0.00000000000E+00  0.00000000000E+00 -0.11955342140E+04  0.38578866771E+04  0.36679677693E+04 0.  0.
        1    1    3    3  502    0 -0.38215554282E+03  0.11487679718E+04  0.85116352864E+03  0.14799290741E+04  0.50400001928E-02 0.  1.
       -1    1    3    3    0  502  0.38215554282E+03 -0.11487679718E+04 -0.20466977426E+04  0.23779576030E+04  0.50400001928E-02 0. -1.
</event>
<event>
 5   0  0.9418945E-08  0.3664716E+04  0.7818609E-02  0.8075826E-01
       -1   -1    0    0    0  501  0.00000000000E+00  0.00000000000E+00  0.14673564064E+04  0.14673564065E+04  0.50400001928E-02 0. -1.
        1   -1    0    0  501    0  0.00000000000E+00  0.00000000000E+00 -0.22881535363E+04  0.22881535363E+04  0.50400001928E-02 0.  1.
    10030    2    1    2    0    0  0.00000000000E+00  0.00000000000E+00 -0.82079712990E+03  0.37555099428E+04  0.36647164968E+04 0.  0.
        5    1    3    3  502    0 -0.30753980846E+03 -0.50038020477E+03  0.13682736573E+04  0.14890117442E+04  0.46999998093E+01 0. -1.
       -5    1    3    3    0  502  0.30753980846E+03  0.50038020477E+03 -0.21890707872E+04  0.22664981986E+04  0.46999998093E+01 0.  1.
</event>
<event>
 5   0  0.3032442E-07  0.3675575E+04  0.7818609E-02  0.8073396E-01
       -2   -1    0    0    0  501  0.00000000000E+00  0.00000000000E+00  0.15815433387E+04  0.15815433387E+04  0.25500000920E-02 0.  1.
        2   -1    0    0  501    0  0.00000000000E+00  0.00000000000E+00 -0.21355492591E+04  0.21355492591E+04  0.25500000920E-02 0. -1.
    10030    2    1    2    0    0  0.00000000000E+00  0.00000000000E+00 -0.55400592039E+03  0.37170925979E+04  0.36755754408E+04 0.  0.
        3    1    3    3  502    0  0.99628945657E+03  0.27247515850E+03  0.12602420192E+04  0.16294309898E+04  0.10100000352E+00 0.  1.
       -3    1    3    3    0  502 -0.99628945657E+03 -0.27247515850E+03 -0.18142479396E+04  0.20876616081E+04  0.10100000352E+00 0. -1.
</event>
<event>
 5   0  0.9341000E-08  0.3699006E+04  0.7818609E-02  0.8068182E-01
        1   -1    0    0  501    0  0.00000000000E+00  0.00000000000E+00  0.15148775797E+04  0.15148775797E+04  0.50400001928E-02 0.  1.
       -1   -1    0    0    0  501  0.00000000000E+00  0.00000000000E+00 -0.22580444349E+04  0.22580444349E+04  0.50400001928E-02 0. -1.
    10030    2    1    2    0    0  0.00000000000E+00  0.00000000000E+00 -0.74316685521E+03  0.37729220147E+04  0.36990057521E+04 0.  0.
        4    1    3    3  502    0 -0.12938132204E+04 -0.76751902612E+03 -0.14690114669E+04  0.21026255985E+04  0.12699999809E+01 0. -1.
       -4    1    3    3    0  502  0.12938132204E+04  0.76751902612E+03  0.72584461164E+03  0.16702964162E+04  0.12699999809E+01 0.  1.
</event>
<event>
 5   0  0.9341000E-08  0.3699894E+04  0.7818609E-02  0.8067985E-01
        1   -1    0    0  501    0  0.00000000000E+00  0.00000000000E+00  0.19096299318E+04  0.19096299318E+04  0.50400001928E-02 0.  1.
       -1   -1    0    0    0  501  0.00000000000E+00  0.00000000000E+00 -0.17921298136E+04  0.17921298136E+04  0.50400001928E-02 0. -1.
    10030    2    1    2    0    0  0.00000000000E+00  0.00000000000E+00  0.11750011816E+03  0.37017597454E+04  0.36998944492E+04 0.  0.
        1    1    3    3  502    0 -0.13550330546E+03  0.18413434962E+04  0.17455692097E+03  0.18545557785E+04  0.50400001928E-02 0.  1.
       -1    1    3    3    0  502  0.13550330546E+03 -0.18413434962E+04 -0.57056802811E+02  0.18472039670E+04  0.50400001928E-02 0. -1.
</event>
<event>
 5   0  0.9418945E-08  0.3708139E+04  0.7818609E-02  0.8066160E-01
        1   -1    0    0  501    0  0.00000000000E+00  0.00000000000E+00  0.16567559051E+04  0.16567559051E+04  0.50400001928E-02 0. -1.
       -1   -1    0    0    0  501  0.00000000000E+00  0.00000000000E+00 -0.20748825957E+04  0.20748825957E+04  0.50400001928E-02 0.  1.
    10030    2    1    2    0    0  0.00000000000E+00  0.00000000000E+00 -0.41812669062E+03  0.37316385008E+04  0.37081391521E+04 0.  0.
        5    1    3    3  502    0 -0.86427375279E+03  0.22931983174E+02 -0.18595965883E+04  0.20507599949E+04  0.46999998093E+01 0.  1.
       -5    1    3    3    0  502  0.86427375279E+03 -0.22931983174E+02  0.14414698977E+04  0.16808785059E+04  0.46999998093E+01 0. -1.
</event>
<event>
 5   0  0.2897133E-07  0.3698818E+04  0.7818609E-02  0.8068224E-01
       -2   -1    0    0    0  501  0.00000000000E+00  0.00000000000E+00  0.10586827800E+04  0.10586827800E+04  0.25500000920E-02 0. -1.
        2   -1    0    0  501    0  0.00000000000E+00  0.00000000000E+00 -0.32307258497E+04  0.32307258497E+04  0.25500000920E-02 0.  1.
    10030    2    1    2    0    0  0.00000000000E+00  0.00000000000E+00 -0.21720430696E+04  0.42894086297E+04  0.36988180945E+04 0.  0.
        4    1    3    3  502    0  0.75526814344E+03 -0.15117874796E+04 -0.19572269893E+04  0.25858597125E+04  0.12699999809E+01 0.  1.
       -4    1    3    3    0  502 -0.75526814344E+03  0.15117874796E+04 -0.21481608033E+03  0.17035489172E+04  0.12699999809E+01 0. -1.
</event>
<event>
 5   0  0.2897133E-07  0.3691423E+04  0.7818609E-02  0.8069865E-01
        2   -1    0    0  501    0  0.00000000000E+00  0.00000000000E+00  0.20083621437E+04  0.20083621437E+04  0.25500000920E-02 0. -1.
       -2   -1    0    0    0  501  0.00000000000E+00  0.00000000000E+00 -0.16962331106E+04  0.16962331106E+04  0.25500000920E-02 0.  1.
    10030    2    1    2    0    0  0.00000000000E+00  0.00000000000E+00  0.31212903308E+03  0.37045952544E+04  0.36914226885E+04 0.  0.
        4    1    3    3  502    0  0.54350180319E+03 -0.12125386059E+04 -0.11295237432E+04  0.17439809575E+04  0.12699999809E+01 0.  1.
       -4    1    3    3    0  502 -0.54350180319E+03  0.12125386059E+04  0.14416527763E+04  0.19606142969E+04  0.12699999809E+01 0. -1.
</event>
<event>
 5   0  0.9646615E-08  0.3696780E+04  0.7818609E-02  0.8068676E-01
       -1   -1    0    0    0  501  0.00000000000E+00  0.00000000000E+00  0.18892619713E+04  0.18892619713E+04  0.50400001928E-02 0.  1.
        1   -1    0    0  501    0  0.00000000000E+00  0.00000000000E+00 -0.18084025229E+04  0.18084025229E+04  0.50400001928E-02 0. -1.
    10030    2    1    2    0    0  0.00000000000E+00  0.00000000000E+00  0.80859448422E+02  0.36976644942E+04  0.36967802830E+04 0.  0.
        2    1    3    3  502    0 -0.62837012607E+03  0.42210511080E+03 -0.16462489025E+04  0.18119484509E+04  0.25500000920E-02 0. -1.
       -2    1    3    3    0  502  0.62837012607E+03 -0.42210511080E+03  0.17271083509E+04  0.18857160432E+04  0.25500000920E-02 0.  1.
</event>
<event>
 5   0  0.9418945E-08  0.3862080E+04  0.7818609E-02  0.8032962E-01
       -1   -1    0    0    0  501  0.00000000000E+00  0.00000000000E+00  0.16495197191E+04  0.16495197191E+04  0.50400001928E-02 0. -1.
        1   -1    0    0  501    0  0.00000000000E+00  0.00000000000E+00 -0.22606070324E+04  0.22606070325E+04  0.50400001928E-02 0.  1.
    10030    2    1    2    0    0  0.00000000000E+00  0.00000000000E+00 -0.61108731336E+03  0.39101267515E+04  0.38620802048E+04 0.  0.
        5    1    3    3  502    0  0.13531454491E+04  0.12383526790E+04  0.30559975156E+03  0.18595518982E+04  0.46999998093E+01 0.  1.
       -5    1    3    3    0  502 -0.13531454491E+04 -0.12383526790E+04 -0.91668706492E+03  0.20505748533E+04  0.46999998093E+01 0. -1.
</event>
<event>
 5   0  0.9418945E-08  0.3688364E+04  0.7818609E-02  0.8070545E-01
       -1   -1    0    0    0  501  0.00000000000E+00  0.00000000000E+00  0.20450497220E+04  0.20450497220E+04  0.50400001928E-02 0. -1.
        1   -1    0    0  501    0  0.00000000000E+00  0.00000000000E+00 -0.16630434144E+04  0.16630434144E+04  0.50400001928E-02 0.  1.
    10030    2    1    2    0    0  0.00000000000E+00  0.00000000000E+00  0.38200630764E+03  0.37080931364E+04  0.36883635788E+04 0.  0.
        5    1    3    3  502    0 -0.10879337040E+04  0.87028138860E+02  0.16854980941E+04  0.20080088537E+04  0.46999998093E+01 0. -1.
       -5    1    3    3    0  502  0.10879337040E+04 -0.87028138860E+02 -0.13034917864E+04  0.17000842828E+04  0.46999998093E+01 0.  1.
</event>
<event>
 5   0  0.3008879E-07  0.3699058E+04  0.7818609E-02  0.8068171E-01
       -2   -1    0    0    0  501  0.00000000000E+00  0.00000000000E+00  0.16588135152E+04  0.16588135152E+04  0.25500000920E-02 0.  1.
        2   -1    0    0  501    0  0.00000000000E+00  0.00000000000E+00 -0.20621716272E+04  0.20621716272E+04  0.25500000920E-02 0. -1.
    10030    2    1    2    0    0  0.00000000000E+00  0.00000000000E+00 -0.40335811205E+03  0.37209851424E+04  0.36990583482E+04 0.  0.
        2    1    3    3  502    0 -0.12504337146E+04  0.38337651746E+03 -0.15171756097E+04  0.20030935723E+04  0.25500000920E-02 0. -1.
       -2    1    3    3    0  502  0.12504337146E+04 -0.38337651746E+03  0.11138174977E+04  0.17178915701E+04  0.25500000920E-02 0.  1.
</event>
<event>
 5   0  0.3032442E-07  0.3696632E+04  0.7818609E-02  0.8068709E-01
        2   -1    0    0  501    0  0.00000000000E+00  0.00000000000E+00  0.13346197421E+04  0.13346197421E+04  0.25500000920E-02 0.  1.
       -2   -1    0    0    0  501  0.00000000000E+00  0.00000000000E+00 -0.25597346072E+04  0.25597346072E+04  0.25500000920E-02 0. -1.
    10030    2    1    2    0    0  0.00000000000E+00  0.00000000000E+00 -0.12251148652E+04  0.38943543493E+04  0.36966321652E+04 0.  0.
        3    1    3    3  502    0  0.57141809736E+03 -0.15555847228E+04 -0.14748157897E+04  0.22184328017E+04  0.10100000352E+00 0. -1.
       -3    1    3    3    0  502 -0.57141809736E+03  0.15555847228E+04  0.24970092457E+03  0.16759215476E+04  0.10100000352E+00 0.  1.
</event>
<event>
 5   0  0.2996969E-07  0.3683933E+04  0.7818609E-02  0.8071532E-01
        2   -1    0    0  501    0  0.00000000000E+00  0.00000000000E+00  0.24532355940E+04  0.24532355940E+04  0.25500000920E-02 0.  1.
       -2   -1    0    0    0  501  0.00000000000E+00  0.00000000000E+00 -0.13830067272E+04  0.13830067272E+04  0.25500000920E-02 0. -1.
    10030    2    1    2    0    0  0.00000000000E+00  0.00000000000E+00  0.10702288668E+04  0.38362423212E+04  0.36839334032E+04 0.  0.
        1    1    3    3  502    0  0.38963134342E+01  0.84253669586E+03 -0.11705798889E+04  0.14422692334E+04  0.50400001928E-02 0. -1.
       -1    1    3    3    0  502 -0.38963134342E+01 -0.84253669586E+03  0.22408087558E+04  0.23939730878E+04  0.50400001928E-02 0.  1.
</event>
<event>
 5   0  0.3008879E-07  0.3707196E+04  0.7818609E-02  0.8066369E-01
        2   -1    0    0  501    0  0.00000000000E+00  0.00000000000E+00  0.20072208718E+04  0.20072208718E+04  0.25500000920E-02 0.  1.
       -2   -1    0    0    0  501  0.00000000000E+00  0.00000000000E+00 -0.17117331040E+04  0.17117331040E+04  0.25500000920E-02 0. -1.
    10030    2    1    2    0    0  0.00000000000E+00  0.00000000000E+00  0.29548776776E+03  0.37189539758E+04  0.37071964681E+04 0.  0.
        2    1    3    3  502    0 -0.12852654758E+04  0.50924028394E+03 -0.10909164185E+04  0.17610598066E+04  0.25500000920E-02 0. -1.
       -2    1    3    3    0  502  0.12852654758E+04 -0.50924028394E+03  0.13864041863E+04  0.19578941692E+04  0.25500000920E-02 0.  1.
</event>
<event>
 5   0  0.3032442E-07  0.3693511E+04  0.7818609E-02  0.8069401E-01
       -2   -1    0    0    0  501  0.00000000000E+00  0.00000000000E+00  0.17048158369E+04  0.17048158369E+04  0.25500000920E-02 0. -1.
        2   -1    0    0  501    0  0.00000000000E+00  0.00000000000E+00 -0.20005127550E+04  0.20005127550E+04  0.25500000920E-02 0.  1.
    10030    2    1    2    0    0  0.00000000000E+00  0.00000000000E+00 -0.29569691808E+03  0.37053285919E+04  0.36935109729E+04 0.  0.
        3    1    3    3  502    0  0.12007093545E+04 -0.84127335024E+03  0.97871472863E+03  0.17627609974E+04  0.10100000352E+00 0. -1.
       -3    1    3    3    0  502 -0.12007093545E+04  0.84127335024E+03 -0.12744116467E+04  0.19425675945E+04  0.10100000352E+00 0.  1.
</event>
<event>
 5   0  0.9418945E-08  0.3673051E+04  0.7818609E-02  0.8073960E-01
       -1   -1    0    0    0  501  0.00000000000E+00  0.00000000000E+00  0.25893634190E+04  0.25893634190E+04  0.50400001928E-02 0. -1.
        1   -1    0    0  501    0  0.00000000000E+00  0.00000000000E+00 -0.13025696047E+04  0.13025696047E+04  0.50400001928E-02 0.  1.
    10030    2    1    2    0    0  0.00000000000E+00  0.00000000000E+00  0.12867938143E+04  0.38919330237E+04  0.36730510942E+04 0.  0.
        5    1    3    3  502    0 -0.11305163876E+04 -0.85395976189E+03 -0.59477959442E+03  0.15365869430E+04  0.46999998093E+01 0. -1.
       -5    1    3    3    0  502  0.11305163876E+04  0.85395976189E+03  0.18815734087E+04  0.23553460807E+04  0.46999998093E+01 0.  1.
</event>
<event>
 5   0  0.2913025E-07  0.3430903E+04  0.7818609E-02  0.8130363E-01
       -2   -1    0    0    0  501  0.00000000000E+00  0.00000000000E+00  0.13372727059E+04  0.13372727059E+04  0.25500000920E-02 0.  1.
        2   -1    0    0  501    0  0.00000000000E+00  0.00000000000E+00 -0.22005781772E+04  0.22005781772E+04  0.25500000920E-02 0. -1.
    10030    2    1    2    0    0  0.00000000000E+00  0.00000000000E+00 -0.86330547128E+03  0.35378508831E+04  0.34309025830E+04 0.  0.
        5    1    3    3  502    0  0.62731007224E+03 -0.70669402167E+03  0.10446949515E+04  0.14086674550E+04  0.46999998093E+01 0.  1.
       -5    1    3    3    0  502 -0.62731007224E+03  0.70669402167E+03 -0.19080004228E+04  0.21291834281E+04  0.46999998093E+01 0. -1.
</event>
<event>
 5   0  0.9418945E-08  0.3694531E+04  0.7818609E-02  0.8069175E-01
        1   -1    0    0  501    0  0.00000000000E+00  0.00000000000E+00  0.19309977072E+04  0.19309977072E+04  0.50400001928E-02 0.  1.
       -1   -1    0    0    0  501  0.00000000000E+00  0.00000000000E+00 -0.17671642319E+04  0.17671642319E+04  0.50400001928E-02 0. -1.
    10030    2    1    2    0    0  0.00000000000E+00  0.00000000000E+00  0.16383347536E+03  0.36981619391E+04  0.36945311368E+04 0.  0.
        5    1    3    3  502    0 -0.40894737101E+03 -0.91779188972E+02 -0.17189362531E+04  0.17693007953E+04  0.46999998093E+01 0. -1.
       -5    1    3    3    0  502  0.40894737101E+03  0.91779188972E+02  0.18827697285E+04  0.19288611439E+04  0.46999998093E+01 0.  1.
</event>
<event>
 5   0  0.9341000E-08  0.3419397E+04  0.7818609E-02  0.8133162E-01
       -1   -1    0    0    0  501  0.00000000000E+00  0.00000000000E+00  0.14937574356E+04  0.14937574356E+04  0.50400001928E-02 0.  1.
        1   -1    0    0  501    0  0.00000000000E+00  0.00000000000E+00 -0.19568567280E+04  0.19568567280E+04  0.50400001928E-02 0. -1.
    10030    2    1    2    0    0  0.00000000000E+00  0.00000000000E+00 -0.46309929244E+03  0.34506141636E+04  0.34193971912E+04 0.  0.
        3    1    3    3  502    0  0.28588952006E+03 -0.14809020395E+04 -0.10440495933E+04  0.18343509020E+04  0.10100000352E+00 0. -1.
       -3    1    3    3    0  502 -0.28588952006E+03  0.14809020395E+04  0.58095030084E+03  0.16162632615E+04  0.10100000352E+00 0.  1.
</event>
<event>
 5   0  0.3032442E-07  0.3714747E+04  0.7818609E-02  0.8064702E-01
       -2   -1    0    0    0  501  0.00000000000E+00  0.00000000000E+00  0.13889795874E+04  0.13889795874E+04  0.25500000920E-02 0.  1.
        2   -1    0    0  501    0  0.00000000000E+00  0.00000000000E+00 -0.24837200620E+04  0.24837200620E+04  0.25500000920E-02 0. -1.
    10030    2    1    2    0    0  0.00000000000E+00  0.00000000000E+00 -0.10947404746E+04  0.38726996493E+04  0.37147470799E+04 0.  0.
        3    1    3    3  502    0  0.12821795897E+04  0.73258572503E+03  0.62710667616E+03  0.16043469507E+04  0.10100000352E+00 0.  1.
       -3    1    3    3    0  502 -0.12821795897E+04 -0.73258572503E+03 -0.17218471508E+04  0.22683526987E+04  0.10100000352E+00 0. -1.
</event>
<event>
 5   0  0.9341000E-08  0.3789118E+04  0.7818609E-02  0.8048494E-01
        1   -1    0    0  501    0  0.00000000000E+00  0.00000000000E+00  0.27202195431E+04  0.27202195431E+04  0.50400001928E-02 0.  1.
       -1   -1    0    0    0  501  0.00000000000E+00  0.00000000000E+00 -0.13195087405E+04  0.13195087405E+04  0.50400001928E-02 0. -1.
    10030    2    1    2    0    0  0.00000000000E+00  0.00000000000E+00  0.14007108026E+04  0.40397282836E+04  0.37891178199E+04 0.  0.
        1    1    3    3  502    0  0.95896477693E+03  0.41334791953E+03  0.23856935508E+04  0.26042280362E+04  0.50400001928E-02 0.  1.
       -1    1    3    3    0  502 -0.95896477693E+03 -0.41334791953E+03 -0.98498274826E+03  0.14355002474E+04  0.50400001928E-02 0. -1.
</event>
<event>
 5   0  0.9418945E-08  0.3608969E+04  0.7818609E-02  0.8088440E-01
        1   -1    0    0  501    0  0.00000000000E+00  0.00000000000E+00  0.26484994018E+04  0.26484994018E+04  0.50400001928E-02 0. -1.
       -1   -1    0    0    0  501  0.00000000000E+00  0.00000000000E+00 -0.12294374298E+04  0.12294374298E+04  0.50400001928E-02 0.  1.
    10030    2    1    2    0    0  0.00000000000E+00  0.00000000000E+00  0.14190619720E+04  0.38779368316E+04  0.36089689926E+04 0.  0.
        5    1    3    3  502    0 -0.13834622964E+04  0.10832404401E+04  0.11509571180E+04  0.21005004532E+04  0.46999998093E+01 0. -1.
       -5    1    3    3    0  502  0.13834622964E+04 -0.10832404401E+04  0.26810485401E+03  0.17774363784E+04  0.46999998093E+01 0.  1.
</event>
<event>
 5   0  0.9341000E-08  0.3714834E+04  0.7818609E-02  0.8064682E-01
       -1   -1    0    0    0  501  0.00000000000E+00  0.00000000000E+00  0.13049813140E+04  0.13049813140E+04  0.50400001928E-02 0.  1.
        1   -1    0    0  501    0  0.00000000000E+00  0.00000000000E+00 -0.26437140155E+04  0.26437140156E+04  0.50400001928E-02 0. -1.
    10030    2    1    2    0    0  0.00000000000E+00  0.00000000000E+00 -0.13387327015E+04  0.39486953296E+04  0.37148337190E+04 0.  0.
        4    1    3    3  502    0 -0.34752409178E+03 -0.13707637888E+04 -0.19494330583E+04  0.24083307956E+04  0.12699999809E+01 0. -1.
       -4    1    3    3    0  502  0.34752409178E+03  0.13707637888E+04  0.61070035682E+03  0.15403645340E+04  0.12699999809E+01 0.  1.
</event>
<event>
 5   0  0.9418945E-08  0.3686917E+04  0.7818609E-02  0.8070867E-01
       -1   -1    0    0    0  501  0.00000000000E+00  0.00000000000E+00  0.13947189471E+04  0.13947189471E+04  0.50400001928E-02 0.  1.
        1   -1    0    0  501    0  0.00000000000E+00  0.00000000000E+00 -0.24365759209E+04  0.24365759209E+04  0.50400001928E-02 0. -1.
    10030    2    1    2    0    0  0.00000000000E+00  0.00000000000E+00 -0.10418569738E+04  0.38312948680E+04  0.36869166537E+04 0.  0.
        5    1    3    3  502    0 -0.34832760716E+03 -0.18083877256E+04 -0.60610297298E+03  0.19388092201E+04  0.46999998093E+01 0.  1.
       -5    1    3    3    0  502  0.34832760716E+03  0.18083877256E+04 -0.43575400084E+03  0.18924856479E+04  0.46999998093E+01 0. -1.
</event>
<event>
 5   0  0.2897133E-07  0.3681957E+04  0.7818609E-02  0.8071972E-01
       -2   -1    0    0    0  501  0.00000000000E+00  0.00000000000E+00  0.15836154312E+04  0.15836154312E+04  0.25500000920E-02 0.  1.
        2   -1    0    0  501    0  0.00000000000E+00  0.00000000000E+00 -0.21401670838E+04  0.21401670838E+04  0.25500000920E-02 0. -1.
    10030    2    1    2    0    0  0.00000000000E+00  0.00000000000E+00 -0.55655165258E+03  0.37237825150E+04  0.36819568814E+04 0.  0.
        4    1    3    3  502    0 -0.45303756723E+03 -0.12721674464E+03  0.15217661281E+04  0.15928593469E+04  0.12699999809E+01 0.  1.
       -4    1    3    3    0  502  0.45303756723E+03  0.12721674464E+03 -0.20783177807E+04  0.21309231680E+04  0.12699999809E+01 0. -1.
</event>
<event>
 5   0  0.2996969E-07  0.3653822E+04  0.7818609E-02  0.8078273E-01
       -2   -1    0    0    0  501  0.00000000000E+00  0.00000000000E+00  0.16820970789E+04  0.16820970789E+04  0.25500000920E-02 0.  1.
        2   -1    0    0  501    0  0.00000000000E+00  0.00000000000E+00 -0.19841921155E+04  0.19841921155E+04  0.25500000920E-02 0. -1.
    10030    2    1    2    0    0  0.00000000000E+00  0.00000000000E+00 -0.30209503661E+03  0.36662891944E+04  0.36538219779E+04 0.  0.
        1    1    3    3  502    0 -0.11788380667E+04 -0.10327353685E+04  0.79098611403E+03  0.17555228741E+04  0.50400001928E-02 0.  1.
       -1    1    3    3    0  502  0.11788380667E+04  0.10327353685E+04 -0.10930811506E+04  0.19107663203E+04  0.50400001928E-02 0. -1.
</event>
<event>
 5   0  0.9341000E-08  0.3625309E+04  0.7818609E-02  0.8084719E-01
       -1   -1    0    0    0  501  0.00000000000E+00  0.00000000000E+00  0.26891866127E+04  0.26891866127E+04  0.50400001928E-02 0.  1.
        1   -1    0    0  501    0  0.00000000000E+00  0.00000000000E+00 -0.12218256473E+04  0.12218256473E+04  0.50400001928E-02 0. -1.
    10030    2    1    2    0    0  0.00000000000E+00  0.00000000000E+00  0.14673609654E+04  0.39110122600E+04  0.36253094620E+04 0.  0.
        4    1    3    3  502    0  0.69170679450E+02 -0.63042558910E+03 -0.10982275231E+04  0.12681980570E+04  0.12699999809E+01 0. -1.
       -4    1    3    3    0  502 -0.69170679450E+02  0.63042558910E+03  0.25655884885E+04  0.26428142030E+04  0.12699999809E+01 0.  1.
</event>
<event>
 5   0  0.3008879E-07  0.3694943E+04  0.7818609E-02  0.8069083E-01
        2   -1    0    0  501    0  0.00000000000E+00  0.00000000000E+00  0.19946216188E+04  0.19946216188E+04  0.25500000920E-02 0.  1.
       -2   -1    0    0    0  501  0.00000000000E+00  0.00000000000E+00 -0.17111773712E+04  0.17111773712E+04  0.25500000920E-02 0. -1.
    10030    2    1    2    0    0  0.00000000000E+00  0.00000000000E+00  0.28344424757E+03  0.37057989900E+04  0.36949432354E+04 0.  0.
        2    1    3    3  502    0  0.12798110022E+04  0.13318273208E+04  0.18019057312E+03  0.18558418188E+04  0.25500000920E-02 0.  1.
       -2    1    3    3    0  502 -0.12798110022E+04 -0.13318273208E+04  0.10325367445E+03  0.18499571712E+04  0.25500000920E-02 0. -1.
</event>
<event>
 5   0  0.9418945E-08  0.3609421E+04  0.7818609E-02  0.8088337E-01
        1   -1    0    0  501    0  0.00000000000E+00  0.00000000000E+00  0.25867429608E+04  0.25867429608E+04  0.50400001928E-02 0. -1.
       -1   -1    0    0    0  501  0.00000000000E+00  0.00000000000E+00 -0.12591045291E+04  0.12591045291E+04  0.50400001928E-02 0.  1.
    10030    2    1    2    0    0  0.00000000000E+00  0.00000000000E+00  0.13276384317E+04  0.38458474899E+04  0.36094208830E+04 0.  0.
        5    1    3    3  502    0 -0.68524933139E+03 -0.91358423461E+03 -0.82512490078E+03  0.14089201510E+04  0.46999998093E+01 0.  1.
       -5    1    3    3    0  502  0.68524933139E+03  0.91358423461E+03  0.21527633324E+04  0.24369273390E+04  0.46999998093E+01 0. -1.
</event>
<event>
 5   0  0.3008879E-07  0.3710838E+04  0.7818609E-02  0.8065564E-01
       -2   -1    0    0    0  501  0.00000000000E+00  0.00000000000E+00  0.19807988626E+04  0.19807988626E+04  0.25500000920E-02 0. -1.
        2   -1    0    0  501    0  0.00000000000E+00  0.00000000000E+00 -0.17379751836E+04  0.17379751836E+04  0.25500000920E-02 0.  1.
    10030    2    1    2    0    0  0.00000000000E+00  0.00000000000E+00  0.24282367893E+03  0.37187740462E+04  0.37108377852E+04 0.  0.
        2    1    3    3  502    0 -0.10934560474E+04 -0.11320382425E+04  0.11060723977E+04  0.19236821097E+04  0.25500000920E-02 0. -1.
       -2    1    3    3    0  502  0.10934560474E+04  0.11320382425E+04 -0.86324871873E+03  0.17950919365E+04  0.25500000920E-02 0.  1.
</event>
<event>
 5   0  0.9341000E-08  0.3715444E+04  0.7818609E-02  0.8064548E-01
        1   -1    0    0  501    0  0.00000000000E+00  0.00000000000E+00  0.16305581331E+04  0.16305581331E+04  0.50400001928E-02 0. -1.
       -1   -1    0    0    0  501  0.00000000000E+00  0.00000000000E+00 -0.21165332153E+04  0.21165332153E+04  0.50400001928E-02 0.  1.
    10030    2    1    2    0    0  0.00000000000E+00  0.00000000000E+00 -0.48597508219E+03  0.37470913484E+04  0.37154436872E+04 0.  0.
        4    1    3    3  502    0 -0.10334100573E+03 -0.45197156185E+03 -0.20572467669E+04  0.21088441216E+04  0.12699999809E+01 0.  1.
       -4    1    3    3    0  502  0.10334100573E+03  0.45197156185E+03  0.15712716847E+04  0.16382472269E+04  0.12699999809E+01 0. -1.
</event>
<event>
 5   0  0.9341000E-08  0.3700999E+04  0.7818609E-02  0.8067741E-01
       -1   -1    0    0    0  501  0.00000000000E+00  0.00000000000E+00  0.20998452593E+04  0.20998452593E+04  0.50400001928E-02 0. -1.
        1   -1    0    0  501    0  0.00000000000E+00  0.00000000000E+00 -0.16307621126E+04  0.16307621126E+04  0.50400001928E-02 0.  1.
    10030    2    1    2    0    0  0.00000000000E+00  0.00000000000E+00  0.46908314672E+03  0.37306073720E+04  0.37009988334E+04 0.  0.
        4    1    3    3  502    0  0.10828025306E+04 -0.29123448318E+03  0.17184149018E+04  0.20518845563E+04  0.12699999809E+01 0. -1.
       -4    1    3    3    0  502 -0.10828025306E+04  0.29123448318E+03 -0.12493317551E+04  0.16787228157E+04  0.12699999809E+01 0.  1.
</event>
<event>
 5   0  0.9341000E-08  0.3670811E+04  0.7818609E-02  0.8074462E-01
       -1   -1    0    0    0  501  0.00000000000E+00  0.00000000000E+00  0.18676385335E+04  0.18676385335E+04  0.50400001928E-02 0.  1.
        1   -1    0    0  501    0  0.00000000000E+00  0.00000000000E+00 -0.18037282877E+04  0.18037282877E+04  0.50400001928E-02 0. -1.
    10030    2    1    2    0    0  0.00000000000E+00  0.00000000000E+00  0.63910245795E+02  0.36713668212E+04  0.36708105122E+04 0.  0.
        4    1    3    3  502    0 -0.12164937757E+04  0.12686746047E+04  0.56054111382E+03  0.18448849048E+04  0.12699999809E+01 0. -1.
       -4    1    3    3    0  502  0.12164937757E+04 -0.12686746047E+04 -0.49663086802E+03  0.18264819164E+04  0.12699999809E+01 0.  1.
</event>
<event>
 5   0  0.2897133E-07  0.3712268E+04  0.7818609E-02  0.8065249E-01
       -2   -1    0    0    0  501  0.00000000000E+00  0.00000000000E+00  0.22175235233E+04  0.22175235233E+04  0.25500000920E-02 0.  1.
        2   -1    0    0  501    0  0.00000000000E+00  0.00000000000E+00 -0.15536399160E+04  0.15536399160E+04  0.25500000920E-02 0. -1.
    10030    2    1    2    0    0  0.00000000000E+00  0.00000000000E+00  0.66388360729E+03  0.37711634394E+04  0.37122678032E+04 0.  0.
        4    1    3    3  502    0 -0.21926191180E+03  0.10105748774E+04 -0.12339061667E+04  0.16099265232E+04  0.12699999809E+01 0. -1.
       -4    1    3    3    0  502  0.21926191180E+03 -0.10105748774E+04  0.18977897740E+04  0.21612369162E+04  0.12699999809E+01 0.  1.
</event>
<event>
 5   0  0.2913025E-07  0.3694127E+04  0.7818609E-02  0.8069265E-01
        2   -1    0    0  501    0  0.00000000000E+00  0.00000000000E+00  0.22979826427E+04  0.22979826427E+04  0.25500000920E-02 0. -1.
       -2   -1    0    0    0  501  0.00000000000E+00  0.00000000000E+00 -0.14846253916E+04  0.14846253916E+04  0.25500000920E-02 0.  1.
    10030    2    1    2    0    0  0.00000000000E+00  0.00000000000E+00  0.81335725109E+03  0.37826080343E+04  0.36941268959E+04 0.  0.
        5    1    3    3  502    0  0.11208541223E+04  0.39379159871E+03  0.18548504608E+04  0.22026979158E+04  0.46999998093E+01 0.  1.
       -5    1    3    3    0  502 -0.11208541223E+04 -0.39379159871E+03 -0.10414932097E+04  0.15799101185E+04  0.46999998093E+01 0. -1.
</event>
<event>
 5   0  0.2913025E-07  0.3682661E+04  0.7818609E-02  0.8071815E-01
        2   -1    0    0  501    0  0.00000000000E+00  0.00000000000E+00  0.17914752662E+04  0.17914752662E+04  0.25500000920E-02 0. -1.
       -2   -1    0    0    0  501  0.00000000000E+00  0.00000000000E+00 -0.18925730402E+04  0.18925730402E+04  0.25500000920E-02 0.  1.
    10030    2    1    2    0    0  0.00000000000E+00  0.00000000000E+00 -0.10109777401E+03  0.36840483064E+04  0.36826608809E+04 0.  0.
        5    1    3    3  502    0 -0.69177477303E+01 -0.33522294501E+03  0.17606727645E+04  0.17923205494E+04  0.46999998093E+01 0. -1.
       -5    1    3    3    0  502  0.69177477303E+01  0.33522294501E+03 -0.18617705386E+04  0.18917277569E+04  0.46999998093E+01 0.  1.
</event>
<event>
 5   0  0.2897133E-07  0.3683470E+04  0.7818609E-02  0.8071635E-01
       -2   -1    0    0    0  501  0.00000000000E+00  0.00000000000E+00  0.18350052544E+04  0.18350052544E+04  0.25500000920E-02 0.  1.
        2   -1    0    0  501    0  0.00000000000E+00  0.00000000000E+00 -0.18484897117E+04  0.18484897117E+04  0.25500000920E-02 0. -1.
    10030    2    1    2    0    0  0.00000000000E+00  0.00000000000E+00 -0.13484457293E+02  0.36834949661E+04  0.36834702843E+04 0.  0.
        4    1    3    3  502    0  0.12950942012E+04  0.88800006739E+03  0.95564336104E+03  0.18382244031E+04  0.12699999809E+01 0.  1.
       -4    1    3    3    0  502 -0.12950942012E+04 -0.88800006739E+03 -0.96912781834E+03  0.18452705631E+04  0.12699999809E+01 0. -1.
</event>
<event>
 5   0  0.9341000E-08  0.3708913E+04  0.7818609E-02  0.8065989E-01
       -1   -1    0    0    0  501  0.00000000000E+00  0.00000000000E+00  0.11540979706E+04  0.11540979706E+04  0.50400001928E-02 0.  1.
        1   -1    0    0  501    0  0.00000000000E+00  0.00000000000E+00 -0.29798244224E+04  0.29798244224E+04  0.50400001928E-02 0. -1.
    10030    2    1    2    0    0  0.00000000000E+00  0.00000000000E+00 -0.18257264518E+04  0.41339223930E+04  0.37089132201E+04 0.  0.
        1    1    3    3  502    0 -0.11245435698E+04  0.11168493315E+04 -0.19860350264E+04  0.25409222333E+04  0.50400001928E-02 0. -1.
       -1    1    3    3    0  502  0.11245435698E+04 -0.11168493315E+04  0.16030857459E+03  0.15930001597E+04  0.50400001928E-02 0.  1.
</event>
<event>
 5   0  0.9646615E-08  0.3669318E+04  0.7818609E-02  0.8074796E-01
       -1   -1    0    0    0  501  0.00000000000E+00  0.00000000000E+00  0.24036711877E+04  0.24036711877E+04  0.50400001928E-02 0.  1.
        1   -1    0    0  501    0  0.00000000000E+00  0.00000000000E+00 -0.14003468820E+04  0.14003468820E+04  0.50400001928E-02 0. -1.
    10030    2    1    2    0    0  0.00000000000E+00  0.00000000000E+00  0.10033243057E+04  0.38040180697E+04  0.36693178947E+04 0.  0.
        2    1    3    3  502    0  0.58541042044E+03  0.83138826010E+03  0.20848310395E+04  0.23195758800E+04  0.25500000920E-02 0.  1.
       -2    1    3    3    0  502 -0.58541042044E+03 -0.83138826010E+03 -0.10815067339E+04  0.14844421898E+04  0.25500000920E-02 0. -1.
</event>
<event>
 5   0  0.3008879E-07  0.3693023E+04  0.7818609E-02  0.8069510E-01
        2   -1    0    0  501    0  0.00000000000E+00  0.00000000000E+00  0.28472355478E+04  0.28472355478E+04  0.25500000920E-02 0.  1.
       -2   -1    0    0    0  501  0.00000000000E+00  0.00000000000E+00 -0.11975139539E+04  0.11975139539E+04  0.25500000920E-02 0. -1.
    10030    2    1    2    0    0  0.00000000000E+00  0.00000000000E+00  0.16497215939E+04  0.40447495018E+04  0.36930227720E+04 0.  0.
        2    1    3    3  502    0  0.86271421024E+03  0.17194042972E+03 -0.95326706133E+03  0.12971343069E+04  0.25500000920E-02 0. -1.
       -2    1    3    3    0  502 -0.86271421024E+03 -0.17194042972E+03  0.26029886552E+04  0.27476151949E+04  0.25500000920E-02 0.  1.
</event>
<event>
 5   0  0.9646615E-08  0.3702415E+04  0.7818609E-02  0.8067427E-01
        1   -1    0    0  501    0  0.00000000000E+00  0.00000000000E+00  0.17852934066E+04  0.17852934066E+04  0.50400001928E-02 0. -1.
       -1   -1    0    0    0  501  0.00000000000E+00  0.00000000000E+00 -0.19195554559E+04  0.19195554559E+04  0.50400001928E-02 0.  1.
    10030    2    1    2    0    0  0.00000000000E+00  0.00000000000E+00 -0.13426204934E+03  0.37048488625E+04  0.37024152652E+04 0.  0.
        2    1    3    3  502    0 -0.10530587561E+04  0.53224847351E+03 -0.14945147421E+04  0.19041521724E+04  0.25500000920E-02 0.  1.
       -2    1    3    3    0  502  0.10530587561E+04 -0.53224847351E+03  0.13602526928E+04  0.18006966900E+04  0.25500000920E-02 0. -1.
</event>
<event>
 5   0  0.3032442E-07  0.3713311E+04  0.7818609E-02  0.8065018E-01
       -2   -1    0    0    0  501  0.00000000000E+00  0.00000000000E+00  0.18123051614E+04  0.18123051614E+04  0.25500000920E-02 0. -1.
        2   -1    0    0  501    0  0.00000000000E+00  0.00000000000E+00 -0.19020914229E+04  0.19020914229E+04  0.25500000920E-02 0.  1.
    10030    2    1    2    0    0  0.00000000000E+00  0.00000000000E+00 -0.89786261485E+02  0.37143965843E+04  0.37133112465E+04 0.  0.
        3    1    3    3  502    0  0.88247862710E+03  0.13395703576E+04  0.89023455071E+03  0.18345939158E+04  0.10100000352E+00 0. -1.
       -3    1    3    3    0  502 -0.88247862710E+03 -0.13395703576E+04 -0.98002081220E+03  0.18798026686E+04  0.10100000352E+00 0.  1.
</event>
<event>
 5   0  0.2913025E-07  0.3705332E+04  0.7818609E-02  0.8066781E-01
       -2   -1    0    0    0  501  0.00000000000E+00  0.00000000000E+00  0.16412368371E+04  0.16412368371E+04  0.25500000920E-02 0.  1.
        2   -1    0    0  501    0  0.00000000000E+00  0.00000000000E+00 -0.20913326055E+04  0.20913326055E+04  0.25500000920E-02 0. -1.
    10030    2    1    2    0    0  0.00000000000E+00  0.00000000000E+00 -0.45009576843E+03  0.37325694426E+04  0.37053324335E+04 0.  0.
        5    1    3    3  502    0  0.17316562074E+02  0.94504782490E+02  0.16387195420E+04  0.16415403877E+04  0.46999998093E+01 0.  1.
       -5    1    3    3    0  502 -0.17316562074E+02 -0.94504782490E+02 -0.20888153104E+04  0.20910290549E+04  0.46999998093E+01 0. -1.
</event>
<event>
 5   0  0.9418945E-08  0.3705604E+04  0.7818609E-02  0.8066721E-01
       -1   -1    0    0    0  501  0.00000000000E+00  0.00000000000E+00  0.14526058875E+04  0.14526058875E+04  0.50400001928E-02 0. -1.
        1   -1    0    0  501    0  0.00000000000E+00  0.00000000000E+00 -0.23632534302E+04  0.23632534303E+04  0.50400001928E-02 0.  1.
    10030    2    1    2    0    0  0.00000000000E+00  0.00000000000E+00 -0.91064754275E+03  0.38158593178E+04  0.37056043213E+04 0.  0.
        5    1    3    3  502    0 -0.92154433399E+01 -0.90817802912E+03 -0.21182981719E+04  0.23047953254E+04  0.46999998093E+01 0.  1.
       -5    1    3    3    0  502  0.92154433399E+01  0.90817802912E+03  0.12076506291E+04  0.15110639924E+04  0.46999998093E+01 0. -1.
</event>
<event>
 5   0  0.9341000E-08  0.3685974E+04  0.7818609E-02  0.8071077E-01
       -1   -1    0    0    0  501  0.00000000000E+00  0.00000000000E+00  0.19705284577E+04  0.19705284577E+04  0.50400001928E-02 0. -1.
        1   -1    0    0  501    0  0.00000000000E+00  0.00000000000E+00 -0.17237001994E+04  0.17237001994E+04  0.50400001928E-02 0.  1.
    10030    2    1    2    0    0  0.00000000000E+00  0.00000000000E+00  0.24682825824E+03  0.36942286571E+04  0.36859735732E+04 0.  0.
        3    1    3    3  502    0 -0.85900271750E+03  0.15967635585E+04  0.45439721871E+03  0.18692288177E+04  0.10100000352E+00 0. -1.
       -3    1    3    3    0  502  0.85900271750E+03 -0.15967635585E+04 -0.20756896047E+03  0.18249998394E+04  0.10100000352E+00 0.  1.
</event>
<event>
 5   0  0.3032442E-07  0.3660665E+04  0.7818609E-02  0.8076735E-01
        2   -1    0    0  501    0  0.00000000000E+00  0.00000000000E+00  0.20159779329E+04  0.20159779329E+04  0.25500000920E-02 0. -1.
       -2   -1    0    0    0  501  0.00000000000E+00  0.00000000000E+00 -0.16617827335E+04  0.16617827335E+04  0.25500000920E-02 0.  1.
    10030    2    1    2    0    0  0.00000000000E+00  0.00000000000E+00  0.35419519939E+03  0.36777606664E+04  0.36606651417E+04 0.  0.
        3    1    3    3  502    0 -0.16893839452E+04 -0.43008955127E+03 -0.38329054880E+03  0.17849108637E+04  0.10100000352E+00 0.  1.
       -3    1    3    3    0  502  0.16893839452E+04  0.43008955127E+03  0.73748574819E+03  0.18928498027E+04  0.10100000352E+00 0. -1.
</event>
<event>
 5   0  0.2996969E-07  0.3701866E+04  0.7818609E-02  0.8067548E-01
       -2   -1    0    0    0  501  0.00000000000E+00  0.00000000000E+00  0.99970773620E+03  0.99970773620E+03  0.25500000920E-02 0. -1.
        2   -1    0    0  501    0  0.00000000000E+00  0.00000000000E+00 -0.34269539603E+04  0.34269539603E+04  0.25500000920E-02 0.  1.
    10030    2    1    2    0    0  0.00000000000E+00  0.00000000000E+00 -0.24272462241E+04  0.44266616965E+04  0.37018656841E+04 0.  0.
        1    1    3    3  502    0 -0.11957445325E+04  0.33009352772E+03  0.42909478891E+03  0.13125886873E+04  0.50400001928E-02 0. -1.
       -1    1    3    3    0  502  0.11957445325E+04 -0.33009352772E+03 -0.28563410131E+04  0.31140730093E+04  0.50400001928E-02 0.  1.
</event>
<event>
 5   0  0.2996969E-07  0.3724683E+04  0.7818609E-02  0.8062514E-01
        2   -1    0    0  501    0  0.00000000000E+00  0.00000000000E+00  0.18196482863E+04  0.18196482863E+04  0.25500000920E-02 0. -1.
       -2   -1    0    0    0  501  0.00000000000E+00  0.00000000000E+00 -0.19060363617E+04  0.19060363617E+04  0.25500000920E-02 0.  1.
    10030    2    1    2    0    0  0.00000000000E+00  0.00000000000E+00 -0.86388075338E+02  0.37256846480E+04  0.37246829660E+04 0.  0.
        1    1    3    3  502    0  0.16087863614E+04  0.72017402934E+03  0.55819274132E+03  0.18488978678E+04  0.50400001928E-02 0. -1.
       -1    1    3    3    0  502 -0.16087863614E+04 -0.72017402934E+03 -0.64458081666E+03  0.18767867802E+04  0.50400001928E-02 0.  1.
</event>
<event>
 5   0  0.3008879E-07  0.3706526E+04  0.7818609E-02  0.8066517E-01
        2   -1    0    0  501    0  0.00000000000E+00  0.00000000000E+00  0.15649075081E+04  0.15649075081E+04  0.25500000920E-02 0. -1.
       -2   -1    0    0    0  501  0.00000000000E+00  0.00000000000E+00 -0.21947517786E+04  0.21947517786E+04  0.25500000920E-02 0.  1.
    10030    2    1    2    0    0  0.00000000000E+00  0.00000000000E+00 -0.62984427051E+03  0.37596592866E+04  0.37065258864E+04 0.  0.
        2    1    3    3  502    0 -0.11197498726E+04  0.48771130948E+03 -0.17287762543E+04  0.21166883181E+04  0.25500000920E-02 0.  1.
       -2    1    3    3    0  502  0.11197498726E+04 -0.48771130948E+03  0.10989319838E+04  0.16429709685E+04  0.25500000920E-02 0. -1.
</event>
<event>
 5   0  0.9341000E-08  0.3702131E+04  0.7818609E-02  0.8067490E-01
       -1   -1    0    0    0  501  0.00000000000E+00  0.00000000000E+00  0.13971391099E+04  0.13971391099E+04  0.50400001928E-02 0.  1.
        1   -1    0    0  501    0  0.00000000000E+00  0.00000000000E+00 -0.24524718718E+04  0.24524718718E+04  0.50400001928E-02 0. -1.
    10030    2    1    2    0    0  0.00000000000E+00  0.00000000000E+00 -0.10553327619E+04  0.38496109817E+04  0.37021314768E+04 0.  0.
        1    1    3    3  502    0 -0.43904095109E+03 -0.16442314042E+04  0.22948196428E+03  0.17172407633E+04  0.50400001928E-02 0.  1.
       -1    1    3    3    0  502  0.43904095109E+03  0.16442314042E+04 -0.12848147262E+04  0.21323702183E+04  0.50400001928E-02 0. -1.
</event>
<event>
 5   0  0.2996969E-07  0.3561684E+04  0.7818609E-02  0.8099325E-01
        2   -1    0    0  501    0  0.00000000000E+00  0.00000000000E+00  0.22592781619E+04  0.22592781619E+04  0.25500000920E-02 0. -1.
       -2   -1    0    0    0  501  0.00000000000E+00  0.00000000000E+00 -0.14037222040E+04  0.14037222040E+04  0.25500000920E-02 0.  1.
    10030    2    1    2    0    0  0.00000000000E+00  0.00000000000E+00  0.85555595798E+03  0.36630003659E+04  0.35616843885E+04 0.  0.
        1    1    3    3  502    0  0.14583081458E+04  0.10208753238E+04  0.37584556389E+03  0.18193704853E+04  0.50400001928E-02 0. -1.
       -1    1    3    3    0  502 -0.14583081458E+04 -0.10208753238E+04  0.47971039408E+03  0.18436298807E+04  0.50400001928E-02 0.  1.
</event>
<event>
 5   0  0.2897133E-07  0.3678151E+04  0.7818609E-02  0.8072821E-01
        2   -1    0    0  501    0  0.00000000000E+00  0.00000000000E+00  0.23601593162E+04  0.23601593162E+04  0.25500000920E-02 0. -1.
       -2   -1    0    0    0  501  0.00000000000E+00  0.00000000000E+00 -0.14330379465E+04  0.14330379465E+04  0.25500000920E-02 0.  1.
    10030    2    1    2    0    0  0.00000000000E+00  0.00000000000E+00  0.92712136968E+03  0.37931972627E+04  0.36781505460E+04 0.  0.
        4    1    3    3  502    0  0.12949966008E+04 -0.13042830083E+04  0.52899516058E+03  0.19125919205E+04  0.12699999809E+01 0.  1.
       -4    1    3    3    0  502 -0.12949966008E+04  0.13042830083E+04  0.39812620910E+03  0.18806053421E+04  0.12699999809E+01 0. -1.
</event>
<event>
 5   0  0.3032442E-07  0.3529737E+04  0.7818609E-02  0.8106779E-01
       -2   -1    0    0    0  501  0.00000000000E+00  0.00000000000E+00  0.22928759258E+04  0.22928759258E+04  0.25500000920E-02 0.  1.
        2   -1    0    0  501    0  0.00000000000E+00  0.00000000000E+00 -0.13584518412E+04  0.13584518413E+04  0.25500000920E-02 0. -1.
    10030    2    1    2    0    0  0.00000000000E+00  0.00000000000E+00  0.93442408457E+03  0.36513277671E+04  0.35297373971E+04 0.  0.
        3    1    3    3  502    0 -0.13282843308E+04 -0.98929737409E+03  0.10978967087E+04  0.19870646067E+04  0.10100000352E+00 0.  1.
       -3    1    3    3    0  502  0.13282843308E+04  0.98929737409E+03 -0.16347262414E+03  0.16642631604E+04  0.10100000352E+00 0. -1.
</event>
<event>
 5   0  0.9418945E-08  0.3696447E+04  0.7818609E-02  0.8068750E-01
       -1   -1    0    0    0  501  0.00000000000E+00  0.00000000000E+00  0.18621608572E+04  0.18621608572E+04  0.50400001928E-02 0. -1.
        1   -1    0    0  501    0  0.00000000000E+00  0.00000000000E+00 -0.18343901206E+04  0.18343901206E+04  0.50400001928E-02 0.  1.
    10030    2    1    2    0    0  0.00000000000E+00  0.00000000000E+00  0.27770736661E+02  0.36965509778E+04  0.36964466610E+04 0.  0.
        5    1    3    3  502    0  0.63284143083E+03  0.14588678227E+04 -0.92801370286E+03  0.18411993709E+04  0.46999998093E+01 0.  1.
       -5    1    3    3    0  502 -0.63284143083E+03 -0.14588678227E+04  0.95578443952E+03  0.18553516069E+04  0.46999998093E+01 0. -1.
</event>
<event>
 5   0  0.9646615E-08  0.3711029E+04  0.7818609E-02  0.8065522E-01
        1   -1    0    0  501    0  0.00000000000E+00  0.00000000000E+00  0.22067774328E+04  0.22067774328E+04  0.50400001928E-02 0.  1.
       -1   -1    0    0    0  501  0.00000000000E+00  0.00000000000E+00 -0.15601637932E+04  0.15601637932E+04  0.50400001928E-02 0. -1.
    10030    2    1    2    0    0  0.00000000000E+00  0.00000000000E+00  0.64661363953E+03  0.37669412260E+04  0.37110291027E+04 0.  0.
        2    1    3    3  502    0  0.69327572902E+03 -0.23899039205E+03 -0.14068341908E+04  0.15864835594E+04  0.25500000920E-02 0. -1.
       -2    1    3    3    0  502 -0.69327572902E+03  0.23899039205E+03  0.20534478303E+04  0.21804576666E+04  0.25500000920E-02 0.  1.
</event>
<event>
 5   0  0.2996969E-07  0.3708752E+04  0.7818609E-02  0.8066025E-01
       -2   -1    0    0    0  501  0.00000000000E+00  0.00000000000E+00  0.16527146683E+04  0.16527146683E+04  0.25500000920E-02 0.  1.
        2   -1    0    0  501    0  0.00000000000E+00  0.00000000000E+00 -0.20806439101E+04  0.20806439101E+04  0.25500000920E-02 0. -1.
    10030    2    1    2    0    0  0.00000000000E+00  0.00000000000E+00 -0.42792924184E+03  0.37333585784E+04  0.37087521943E+04 0.  0.
        1    1    3    3  502    0  0.14573236357E+04  0.78272291163E+03  0.62960687732E+03  0.17699864845E+04  0.50400001928E-02 0.  1.
       -1    1    3    3    0  502 -0.14573236357E+04 -0.78272291163E+03 -0.10575361192E+04  0.19633720938E+04  0.50400001928E-02 0. -1.
</event>
<event>
 5   0  0.2897133E-07  0.3736813E+04  0.7818609E-02  0.8059852E-01
       -2   -1    0    0    0  501  0.00000000000E+00  0.00000000000E+00  0.22665194944E+04  0.22665194944E+04  0.25500000920E-02 0.  1.
        2   -1    0    0  501    0  0.00000000000E+00  0.00000000000E+00 -0.15402215638E+04  0.15402215638E+04  0.25500000920E-02 0. -1.
    10030    2    1    2    0    0  0.00000000000E+00  0.00000000000E+00  0.72629793063E+03  0.38067410582E+04  0.37368126526E+04 0.  0.
        4    1    3    3  502    0  0.16815889922E+03 -0.18545155967E+04  0.20719904052E+03  0.18736164413E+04  0.12699999809E+01 0. -1.
       -4    1    3    3    0  502 -0.16815889922E+03  0.18545155967E+04  0.51909889011E+03  0.19331246169E+04  0.12699999809E+01 0.  1.
</event>
<event>
 5   0  0.3032442E-07  0.3703776E+04  0.7818609E-02  0.8067125E-01
       -2   -1    0    0    0  501  0.00000000000E+00  0.00000000000E+00  0.14786836420E+04  0.14786836420E+04  0.25500000920E-02 0.  1.
        2   -1    0    0  501    0  0.00000000000E+00  0.00000000000E+00 -0.23192858167E+04  0.23192858167E+04  0.25500000920E-02 0. -1.
    10030    2    1    2    0    0  0.00000000000E+00  0.00000000000E+00 -0.84060217470E+03  0.37979694588E+04  0.37037764503E+04 0.  0.
        3    1    3    3  502    0 -0.10199285772E+04  0.63866101905E+03  0.10231001036E+04  0.15795176580E+04  0.10100000352E+00 0.  1.
       -3    1    3    3    0  502  0.10199285772E+04 -0.63866101905E+03 -0.18637022783E+04  0.22184518007E+04  0.10100000352E+00 0. -1.
</event>
<event>
 5   0  0.9341000E-08  0.3625924E+04  0.7818609E-02  0.8084579E-01
       -1   -1    0    0    0  501  0.00000000000E+00  0.00000000000E+00  0.26360782434E+04  0.26360782434E+04  0.50400001928E-02 0. -1.
        1   -1    0    0  501    0  0.00000000000E+00  0.00000000000E+00 -0.12468642846E+04  0.12468642846E+04  0.50400001928E-02 0.  1.
    10030    2    1    2    0    0  0.00000000000E+00  0.00000000000E+00  0.13892139588E+04  0.38829425280E+04  0.36259243308E+04 0.  0.
        3    1    3    3  502    0 -0.72422751561E+03  0.16334089166E+04  0.36575398369E+03  0.18238163750E+04  0.10100000352E+00 0.  1.
       -3    1    3    3    0  502  0.72422751561E+03 -0.16334089166E+04  0.10234599751E+04  0.20591261530E+04  0.10100000352E+00 0. -1.
</event>
<event>
 5   0  0.3008879E-07  0.3612886E+04  0.7818609E-02  0.8087546E-01
       -2   -1    0    0    0  501  0.00000000000E+00  0.00000000000E+00  0.25412747732E+04  0.25412747732E+04  0.25500000920E-02 0. -1.
        2   -1    0    0  501    0  0.00000000000E+00  0.00000000000E+00 -0.12840943164E+04  0.12840943164E+04  0.25500000920E-02 0.  1.
    10030    2    1    2    0    0  0.00000000000E+00  0.00000000000E+00  0.12571804568E+04  0.38253690896E+04  0.36128860999E+04 0.  0.
        2    1    3    3  502    0 -0.98775654691E+03  0.12315465240E+04  0.15582171761E+04  0.22181998568E+04  0.25500000920E-02 0. -1.
       -2    1    3    3    0  502  0.98775654691E+03 -0.12315465240E+04 -0.30103671934E+03  0.16071692328E+04  0.25500000920E-02 0.  1.
</event>
<event>
 5   0  0.9341000E-08  0.3320512E+04  0.7818609E-02  0.8157696E-01
       -1   -1    0    0    0  501  0.00000000000E+00  0.00000000000E+00  0.13114504206E+04  0.13114504206E+04  0.50400001928E-02 0.  1.
        1   -1    0    0  501    0  0.00000000000E+00  0.00000000000E+00 -0.21018331878E+04  0.21018331878E+04  0.50400001928E-02 0. -1.
    10030    2    1    2    0    0  0.00000000000E+00  0.00000000000E+00 -0.79038276723E+03  0.34132836084E+04  0.33205120197E+04 0.  0.
        1    1    3    3  502    0  0.67706881043E+03  0.21230718726E+03 -0.19381114696E+04  0.20639216517E+04  0.50400001928E-02 0. -1.
       -1    1    3    3    0  502 -0.67706881043E+03 -0.21230718726E+03  0.11477287024E+04  0.13493619567E+04  0.50400001928E-02 0.  1.
</event>
<event>
 5   0  0.9646615E-08  0.3679599E+04  0.7818609E-02  0.8072498E-01
        1   -1    0    0  501    0  0.00000000000E+00  0.00000000000E+00  0.15863416895E+04  0.15863416895E+04  0.50400001928E-02 0.  1.
       -1   -1    0    0    0  501  0.00000000000E+00  0.00000000000E+00 -0.21337534819E+04  0.21337534820E+04  0.50400001928E-02 0. -1.
    10030    2    1    2    0    0  0.00000000000E+00  0.00000000000E+00 -0.54741179242E+03  0.37200951715E+04  0.36795989475E+04 0.  0.
        2    1    3    3  502    0 -0.30169150231E+03  0.10951652324E+04  0.11894457358E+04  0.16447449065E+04  0.25500000920E-02 0.  1.
       -2    1    3    3    0  502  0.30169150231E+03 -0.10951652324E+04 -0.17368575283E+04  0.20753502650E+04  0.25500000920E-02 0. -1.
</event>
<event>
 5   0  0.2913025E-07  0.3714316E+04  0.7818609E-02  0.8064797E-01
        2   -1    0    0  501    0  0.00000000000E+00  0.00000000000E+00  0.18287941111E+04  0.18287941111E+04  0.25500000920E-02 0.  1.
       -2   -1    0    0    0  501  0.00000000000E+00  0.00000000000E+00 -0.18859615557E+04  0.18859615557E+04  0.25500000920E-02 0. -1.
    10030    2    1    2    0    0  0.00000000000E+00  0.00000000000E+00 -0.57167444666E+02  0.37147556668E+04  0.37143157576E+04 0.  0.
        5    1    3    3  502    0 -0.51304282890E+03 -0.15788795323E+04 -0.86111235418E+03  0.18701898563E+04  0.46999998093E+01 0. -1.
       -5    1    3    3    0  502  0.51304282890E+03  0.15788795323E+04  0.80394490951E+03  0.18445658106E+04  0.46999998093E+01 0.  1.
</event>
<event>
 5   0  0.9341000E-08  0.3845316E+04  0.7818609E-02  0.8036500E-01
       -1   -1    0    0    0  501  0.00000000000E+00  0.00000000000E+00  0.16688928028E+04  0.16688928028E+04  0.50400001928E-02 0.  1.
        1   -1    0    0  501    0  0.00000000000E+00  0.00000000000E+00 -0.22150093253E+04  0.22150093253E+04  0.50400001928E-02 0. -1.
    10030    2    1    2    0    0  0.00000000000E+00  0.00000000000E+00 -0.54611652245E+03  0.38839021281E+04  0.38453156547E+04 0.  0.
        1    1    3    3  502    0 -0.58314204798E+03 -0.13594217488E+04 -0.15136057628E+04  0.21163847818E+04  0.50400001928E-02 0. -1.
       -1    1    3    3    0  502  0.58314204798E+03  0.13594217488E+04  0.96748924038E+03  0.17675173463E+04  0.50400001928E-02 0.  1.
</event>
<event>
 5   0  0.2897133E-07  0.3693517E+04  0.7818609E-02  0.8069400E-01
        2   -1    0    0  501    0  0.00000000000E+00  0.00000000000E+00  0.21313563988E+04  0.21313563988E+04  0.25500000920E-02 0. -1.
       -2   -1    0    0    0  501  0.00000000000E+00  0.00000000000E+00 -0.16001624167E+04  0.16001624167E+04  0.25500000920E-02 0.  1.
    10030    2    1    2    0    0  0.00000000000E+00  0.00000000000E+00  0.53119398211E+03  0.37315188155E+04  0.36935167014E+04 0.  0.
        4    1    3    3  502    0 -0.51159504598E+03 -0.27477906895E+03 -0.15055179967E+04  0.16136353613E+04  0.12699999809E+01 0.  1.
       -4    1    3    3    0  502  0.51159504598E+03  0.27477906895E+03  0.20367119789E+04  0.21178834542E+04  0.12699999809E+01 0. -1.
</event>
<event>
 5   0  0.3032442E-07  0.3729533E+04  0.7818609E-02  0.8061448E-01
        2   -1    0    0  501    0  0.00000000000E+00  0.00000000000E+00  0.20742290148E+04  0.20742290148E+04  0.25500000920E-02 0. -1.
       -2   -1    0    0    0  501  0.00000000000E+00  0.00000000000E+00 -0.16764566530E+04  0.16764566530E+04  0.25500000920E-02 0.  1.
    10030    2    1    2    0    0  0.00000000000E+00  0.00000000000E+00  0.39777236179E+03  0.37506856678E+04  0.37295334999E+04 0.  0.
        3    1    3    3  502    0 -0.94860736455E+03 -0.10696871133E+03  0.18098629871E+04  0.20461921414E+04  0.10100000352E+00 0. -1.
       -3    1    3    3    0  502  0.94860736455E+03  0.10696871133E+03 -0.14120906253E+04  0.17044935264E+04  0.10100000352E+00 0.  1.
</event>
<event>
 5   0  0.3032442E-07  0.3726571E+04  0.7818609E-02  0.8062099E-01
       -2   -1    0    0    0  501  0.00000000000E+00  0.00000000000E+00  0.29669596480E+04  0.29669596480E+04  0.25500000920E-02 0. -1.
        2   -1    0    0  501    0  0.00000000000E+00  0.00000000000E+00 -0.11701651903E+04  0.11701651903E+04  0.25500000920E-02 0.  1.
    10030    2    1    2    0    0  0.00000000000E+00  0.00000000000E+00  0.17967944577E+04  0.41371248383E+04  0.37265710251E+04 0.  0.
        3    1    3    3  502    0  0.16914661223E+04  0.19521584928E+03  0.58279924257E+02  0.17036911195E+04  0.10100000352E+00 0. -1.
       -3    1    3    3    0  502 -0.16914661223E+04 -0.19521584928E+03  0.17385145335E+04  0.24334337189E+04  0.10100000352E+00 0.  1.
</event>
<event>
 5   0  0.9418945E-08  0.3737688E+04  0.7818609E-02  0.8059661E-01
       -1   -1    0    0    0  501  0.00000000000E+00  0.00000000000E+00  0.20812830195E+04  0.20812830195E+04  0.50400001928E-02 0. -1.
        1   -1    0    0  501    0  0.00000000000E+00  0.00000000000E+00 -0.16780884601E+04  0.16780884601E+04  0.50400001928E-02 0.  1.
    10030    2    1    2    0    0  0.00000000000E+00  0.00000000000E+00  0.40319455941E+03  0.37593714796E+04  0.37376875296E+04 0.  0.
        5    1    3    3  502    0  0.12867646433E+04  0.13552639848E+04  0.20879502229E+03  0.18804577015E+04  0.46999998093E+01 0.  1.
       -5    1    3    3    0  502 -0.12867646433E+04 -0.13552639848E+04  0.19439953712E+03  0.18789137782E+04  0.46999998093E+01 0. -1.
</event>
<event>
 5   0  0.3008879E-07  0.3664076E+04  0.7818609E-02  0.8075970E-01
       -2   -1    0    0    0  501  0.00000000000E+00  0.00000000000E+00  0.22870848428E+04  0.22870848428E+04  0.25500000920E-02 0.  1.
        2   -1    0    0  501    0  0.00000000000E+00  0.00000000000E+00 -0.14675293540E+04  0.14675293540E+04  0.25500000920E-02 0. -1.
    10030    2    1    2    0    0  0.00000000000E+00  0.00000000000E+00  0.81955548881E+03  0.37546141968E+04  0.36640764958E+04 0.  0.
        2    1    3    3  502    0 -0.11711503009E+03 -0.41129232310E+03 -0.14156688707E+04  0.14788494368E+04  0.25500000920E-02 0. -1.
       -2    1    3    3    0  502  0.11711503009E+03  0.41129232310E+03  0.22352243595E+04  0.22757647599E+04  0.25500000920E-02 0.  1.
</event>
<event>
 5   0  0.2897133E-07  0.3686925E+04  0.7818609E-02  0.8070866E-01
       -2   -1    0    0    0  501  0.00000000000E+00  0.00000000000E+00  0.16079784570E+04  0.16079784570E+04  0.25500000920E-02 0.  1.
        2   -1    0    0  501    0  0.00000000000E+00  0.00000000000E+00 -0.21134329420E+04  0.21134329420E+04  0.25500000920E-02 0. -1.
    10030    2    1    2    0    0  0.00000000000E+00  0.00000000000E+00 -0.50545448495E+03  0.37214113990E+04  0.36869253538E+04 0.  0.
        4    1    3    3  502    0  0.15642470574E+04 -0.28433212226E+03 -0.11945355156E+04  0.19886252345E+04  0.12699999809E+01 0. -1.
       -4    1    3    3    0  502 -0.15642470574E+04  0.28433212226E+03  0.68908103065E+03  0.17327861645E+04  0.12699999809E+01 0.  1.
</event>
<event>
 5   0  0.2897133E-07  0.3714075E+04  0.7818609E-02  0.8064850E-01
        2   -1    0    0  501    0  0.00000000000E+00  0.00000000000E+00  0.18560388764E+04  0.18560388764E+04  0.25500000920E-02 0. -1.
       -2   -1    0    0    0  501  0.00000000000E+00  0.00000000000E+00 -0.18580369512E+04  0.18580369512E+04  0.25500000920E-02 0.  1.
    10030    2    1    2    0    0  0.00000000000E+00  0.00000000000E+00 -0.19980748322E+01  0.37140758276E+04  0.37140752902E+04 0.  0.
        4    1    3    3  502    0 -0.12164692272E+04  0.13962600208E+04  0.13773733631E+03  0.18569632773E+04  0.12699999809E+01 0.  1.
       -4    1    3    3    0  502  0.12164692272E+04 -0.13962600208E+04 -0.13973541114E+03  0.18571125503E+04  0.12699999809E+01 0. -1.
</event>
<event>
 5   0  0.9341000E-08  0.3656918E+04  0.7818609E-02  0.8077577E-01
       -1   -1    0    0    0  501  0.00000000000E+00  0.00000000000E+00  0.25413999352E+04  0.25413999352E+04  0.50400001928E-02 0. -1.
        1   -1    0    0  501    0  0.00000000000E+00  0.00000000000E+00 -0.13155202897E+04  0.13155202897E+04  0.50400001928E-02 0.  1.
    10030    2    1    2    0    0  0.00000000000E+00  0.00000000000E+00  0.12258796455E+04  0.38569202249E+04  0.36569184727E+04 0.  0.
        4    1    3    3  502    0  0.19071423556E+03 -0.12650490811E+04 -0.76485222467E+03  0.14905440737E+04  0.12699999809E+01 0.  1.
       -4    1    3    3    0  502 -0.19071423556E+03  0.12650490811E+04  0.19907318702E+04  0.23663761512E+04  0.12699999809E+01 0. -1.
</event>
<event>
 5   0  0.9418945E-08  0.3735984E+04  0.7818609E-02  0.8060034E-01
        1   -1    0    0  501    0  0.00000000000E+00  0.00000000000E+00  0.18492464971E+04  0.18492464971E+04  0.50400001928E-02 0.  1.
       -1   -1    0    0    0  501  0.00000000000E+00  0.00000000000E+00 -0.18869273653E+04  0.18869273653E+04  0.50400001928E-02 0. -1.
    10030    2    1    2    0    0  0.00000000000E+00  0.00000000000E+00 -0.37680868284E+02  0.37361738624E+04  0.37359838440E+04 0.  0.
        5    1    3    3  502    0 -0.13746724511E+04 -0.47487642628E+03  0.11534562640E+04  0.18562638311E+04  0.46999998093E+01 0.  1.
       -5    1    3    3    0  502  0.13746724511E+04  0.47487642628E+03 -0.11911371322E+04  0.18799100313E+04  0.46999998093E+01 0. -1.
</event>
<event>
 5   0  0.9341000E-08  0.3705922E+04  0.7818609E-02  0.8066651E-01
        1   -1    0    0  501    0  0.00000000000E+00  0.00000000000E+00  0.14602318780E+04  0.14602318780E+04  0.50400001928E-02 0. -1.
       -1   -1    0    0    0  501  0.00000000000E+00  0.00000000000E+00 -0.23513150870E+04  0.23513150870E+04  0.50400001928E-02 0.  1.
    10030    2    1    2    0    0  0.00000000000E+00  0.00000000000E+00 -0.89108320900E+03  0.38115469651E+04  0.37059224198E+04 0.  0.
        1    1    3    3  502    0  0.14656855960E+04  0.35274518416E+02 -0.16109689722E+04  0.21782331343E+04  0.50400001928E-02 0.  1.
       -1    1    3    3    0  502 -0.14656855960E+04 -0.35274518416E+02  0.71988576315E+03  0.16333138308E+04  0.50400001928E-02 0. -1.
</event>
<event>
 5   0  0.9341000E-08  0.3702870E+04  0.7818609E-02  0.8067326E-01
        1   -1    0    0  501    0  0.00000000000E+00  0.00000000000E+00  0.12431108715E+04  0.12431108715E+04  0.50400001928E-02 0.  1.
       -1   -1    0    0    0  501  0.00000000000E+00  0.00000000000E+00 -0.27574468083E+04  0.27574468083E+04  0.50400001928E-02 0. -1.
    10030    2    1    2    0    0  0.00000000000E+00  0.00000000000E+00 -0.15143359368E+04  0.40005576798E+04  0.37028702948E+04 0.  0.
        4    1    3    3  502    0  0.73234110335E+03 -0.15188369713E+04  0.68906761802E+02  0.16875837733E+04  0.12699999809E+01 0.  1.
       -4    1    3    3    0  502 -0.73234110335E+03  0.15188369713E+04 -0.15832426986E+04  0.23129739066E+04  0.12699999809E+01 0. -1.
</event>
<event>
 5   0  0.9341000E-08  0.3693617E+04  0.7818609E-02  0.8069378E-01
        1   -1    0    0  501    0  0.00000000000E+00  0.00000000000E+00  0.19697056613E+04  0.19697056613E+04  0.50400001928E-02 0. -1.
       -1   -1    0    0    0  501  0.00000000000E+00  0.00000000000E+00 -0.17315795653E+04  0.17315795653E+04  0.50400001928E-02 0.  1.
    10030    2    1    2    0    0  0.00000000000E+00  0.00000000000E+00  0.23812609597E+03  0.37012852266E+04  0.36936172366E+04 0.  0.
        1    1    3    3  502    0  0.33174931661E+03  0.11491077637E+04  0.15291787034E+04  0.19413638940E+04  0.50400001928E-02 0. -1.
       -1    1    3    3    0  502 -0.33174931661E+03 -0.11491077637E+04 -0.12910526074E+04  0.17599213326E+04  0.50400001928E-02 0.  1.
</event>
<event>
 5   0  0.3008879E-07  0.3662898E+04  0.7818609E-02  0.8076234E-01
       -2   -1    0    0    0  501  0.00000000000E+00  0.00000000000E+00  0.19660943707E+04  0.19660943707E+04  0.25500000920E-02 0. -1.
        2   -1    0    0  501    0  0.00000000000E+00  0.00000000000E+00 -0.17060247831E+04  0.17060247831E+04  0.25500000920E-02 0.  1.
    10030    2    1    2    0    0  0.00000000000E+00  0.00000000000E+00  0.26006958761E+03  0.36721191539E+04  0.36628981545E+04 0.  0.
        2    1    3    3  502    0 -0.31648094838E+03  0.12336637494E+03 -0.16741696492E+04  0.17082808514E+04  0.25500000920E-02 0.  1.
       -2    1    3    3    0  502  0.31648094838E+03 -0.12336637494E+03  0.19342392368E+04  0.19638383025E+04  0.25500000920E-02 0. -1.
</event>
<event>
 5   0  0.9341000E-08  0.3693943E+04  0.7818609E-02  0.8069305E-01
       -1   -1    0    0    0  501  0.00000000000E+00  0.00000000000E+00  0.16287030908E+04  0.16287030908E+04  0.50400001928E-02 0.  1.
        1   -1    0    0  501    0  0.00000000000E+00  0.00000000000E+00 -0.20944910195E+04  0.20944910195E+04  0.50400001928E-02 0. -1.
    10030    2    1    2    0    0  0.00000000000E+00  0.00000000000E+00 -0.46578792869E+03  0.37231941102E+04  0.36939431490E+04 0.  0.
        4    1    3    3  502    0  0.16915900303E+04 -0.73752957927E+03 -0.15563403723E+03  0.18519314991E+04  0.12699999809E+01 0.  1.
       -4    1    3    3    0  502 -0.16915900303E+04  0.73752957927E+03 -0.31015389147E+03  0.18712626112E+04  0.12699999809E+01 0. -1.
</event>
<event>
 5   0  0.2897133E-07  0.3710194E+04  0.7818609E-02  0.8065707E-01
       -2   -1    0    0    0  501  0.00000000000E+00  0.00000000000E+00  0.18063245466E+04  0.18063245466E+04  0.25500000920E-02 0.  1.
        2   -1    0    0  501    0  0.00000000000E+00  0.00000000000E+00 -0.19051859755E+04  0.19051859755E+04  0.25500000920E-02 0. -1.
    10030    2    1    2    0    0  0.00000000000E+00  0.00000000000E+00 -0.98861428886E+02  0.37115105222E+04  0.37101936303E+04 0.  0.
        4    1    3    3  502    0  0.39684686325E+02  0.18517007560E+04 -0.15440611714E+03  0.18585514321E+04  0.12699999809E+01 0. -1.
       -4    1    3    3    0  502 -0.39684686325E+02 -0.18517007560E+04  0.55544688252E+02  0.18529590900E+04  0.12699999809E+01 0.  1.
</event>
<event>
 5   0  0.9341000E-08  0.3706551E+04  0.7818609E-02  0.8066512E-01
       -1   -1    0    0    0  501  0.00000000000E+00  0.00000000000E+00  0.15156688198E+04  0.15156688198E+04  0.50400001928E-02 0. -1.
        1   -1    0    0  501    0  0.00000000000E+00  0.00000000000E+00 -0.22660826641E+04  0.22660826641E+04  0.50400001928E-02 0.  1.
    10030    2    1    2    0    0  0.00000000000E+00  0.00000000000E+00 -0.75041384426E+03  0.37817514839E+04  0.37065514091E+04 0.  0.
        1    1    3    3  502    0  0.10812311012E+04  0.90872768320E+03  0.84904741333E+03  0.16479466637E+04  0.50400001928E-02 0. -1.
       -1    1    3    3    0  502 -0.10812311012E+04 -0.90872768320E+03 -0.15994612576E+04  0.21338048202E+04  0.50400001928E-02 0.  1.
</event>
<event>
 5   0  0.9418945E-08  0.3711687E+04  0.7818609E-02  0.8065377E-01
       -1   -1    0    0    0  501  0.00000000000E+00  0.00000000000E+00  0.16707933527E+04  0.16707933527E+04  0.50400001928E-02 0.  1.
        1   -1    0    0  501    0  0.00000000000E+00  0.00000000000E+00 -0.20613892301E+04  0.20613892301E+04  0.50400001928E-02 0. -1.
    10030    2    1    2    0    0  0.00000000000E+00  0.00000000000E+00 -0.39059587740E+03  0.37321825829E+04  0.37116871760E+04 0.  0.
        5    1    3    3  502    0 -0.28713615004E+03  0.55167928481E+03 -0.19534770250E+04  0.20500955537E+04  0.46999998093E+01 0. -1.
       -5    1    3    3    0  502  0.28713615004E+03 -0.55167928481E+03  0.15628811477E+04  0.16820870291E+04  0.46999998093E+01 0.  1.
</event>
<event>
 5   0  0.3008879E-07  0.3714089E+04  0.7818609E-02  0.8064847E-01
       -2   -1    0    0    0  501  0.00000000000E+00  0.00000000000E+00  0.12251451241E+04  0.12251451241E+04  0.25500000920E-02 0. -1.
        2   -1    0    0  501    0  0.00000000000E+00  0.00000000000E+00 -0.28148625192E+04  0.28148625192E+04  0.25500000920E-02 0.  1.
    10030    2    1    2    0    0  0.00000000000E+00  0.00000000000E+00 -0.15897173952E+04  0.40400076433E+04  0.37140894391E+04 0.  0.
        2    1    3    3  502    0 -0.35082000379E+03  0.45143719669E+02 -0.27778820623E+04  0.28003109439E+04  0.25500000920E-02 0.  1.
       -2    1    3    3    0  502  0.35082000379E+03 -0.45143719669E+02  0.11881646671E+04  0.12396966994E+04  0.25500000920E-02 0. -1.
</event>
<event>
 5   0  0.3032442E-07  0.3650889E+04  0.7818609E-02  0.8078933E-01
       -2   -1    0    0    0  501  0.00000000000E+00  0.00000000000E+00  0.10866844097E+04  0.10866844097E+04  0.25500000920E-02 0. -1.
        2   -1    0    0  501    0  0.00000000000E+00  0.00000000000E+00 -0.30664353408E+04  0.30664353408E+04  0.25500000920E-02 0.  1.
    10030    2    1    2    0    0  0.00000000000E+00  0.00000000000E+00 -0.19797509311E+04  0.41531197505E+04  0.36508889208E+04 0.  0.
        3    1    3    3  502    0 -0.17176377391E+04  0.59063134699E+03 -0.11969079763E+04  0.21752502166E+04  0.10100000352E+00 0. -1.
       -3    1    3    3    0  502  0.17176377391E+04 -0.59063134699E+03 -0.78284295481E+03  0.19778695339E+04  0.10100000352E+00 0.  1.
</event>
<event>
 5   0  0.2913025E-07  0.3714851E+04  0.7818609E-02  0.8064679E-01
        2   -1    0    0  501    0  0.00000000000E+00  0.00000000000E+00  0.21914544775E+04  0.21914544775E+04  0.25500000920E-02 0. -1.
       -2   -1    0    0    0  501  0.00000000000E+00  0.00000000000E+00 -0.15743105447E+04  0.15743105447E+04  0.25500000920E-02 0.  1.
    10030    2    1    2    0    0  0.00000000000E+00  0.00000000000E+00  0.61714393281E+03  0.37657650222E+04  0.37148512176E+04 0.  0.
        5    1    3    3  502    0  0.65331082361E+03  0.70361436654E+02 -0.14525475279E+04  0.15942654029E+04  0.46999998093E+01 0.  1.
       -5    1    3    3    0  502 -0.65331082361E+03 -0.70361436654E+02  0.20696914607E+04  0.21714996193E+04  0.46999998093E+01 0. -1.
</event>
<event>
 5   0  0.9341000E-08  0.3768027E+04  0.7818609E-02  0.8053051E-01
        1   -1    0    0  501    0  0.00000000000E+00  0.00000000000E+00  0.25880040456E+04  0.25880040456E+04  0.50400001928E-02 0.  1.
       -1   -1    0    0    0  501  0.00000000000E+00  0.00000000000E+00 -0.13715229565E+04  0.13715229565E+04  0.50400001928E-02 0. -1.
    10030    2    1    2    0    0  0.00000000000E+00  0.00000000000E+00  0.12164810891E+04  0.39595270022E+04  0.37680270488E+04 0.  0.
        4    1    3    3  502    0 -0.63202792538E+03 -0.15462702218E+04  0.15237802957E+04  0.22610437633E+04  0.12699999809E+01 0.  1.
       -4    1    3    3    0  502  0.63202792538E+03  0.15462702218E+04 -0.30729920657E+03  0.16984832388E+04  0.12699999809E+01 0. -1.
</event>
<event>
 5   0  0.9341000E-08  0.3711888E+04  0.7818609E-02  0.8065332E-01
       -1   -1    0    0    0  501  0.00000000000E+00  0.00000000000E+00  0.19884054662E+04  0.19884054662E+04  0.50400001928E-02 0.  1.
        1   -1    0    0  501    0  0.00000000000E+00  0.00000000000E+00 -0.17323071156E+04  0.17323071156E+04  0.50400001928E-02 0. -1.
    10030    2    1    2    0    0  0.00000000000E+00  0.00000000000E+00  0.25609835062E+03  0.37207125818E+04  0.37118884346E+04 0.  0.
        1    1    3    3  502    0  0.16178778616E+04 -0.23839494347E+03 -0.75162926306E+03  0.17998076212E+04  0.50400001928E-02 0. -1.
       -1    1    3    3    0  502 -0.16178778616E+04  0.23839494347E+03  0.10077276137E+04  0.19209049606E+04  0.50400001928E-02 0.  1.
</event>
<event>
 5   0  0.9418945E-08  0.3702313E+04  0.7818609E-02  0.8067449E-01
        1   -1    0    0  501    0  0.00000000000E+00  0.00000000000E+00  0.10378323296E+04  0.10378323296E+04  0.50400001928E-02 0.  1.
       -1   -1    0    0    0  501  0.00000000000E+00  0.00000000000E+00 -0.33018631164E+04  0.33018631164E+04  0.50400001928E-02 0. -1.
    10030    2    1    2    0    0  0.00000000000E+00  0.00000000000E+00 -0.22640307869E+04  0.43396954460E+04  0.37023129474E+04 0.  0.
        5    1    3    3  502    0  0.86418671487E+03 -0.53028307210E+03  0.68340688021E+03  0.12227370398E+04  0.46999998093E+01 0.  1.
       -5    1    3    3    0  502 -0.86418671487E+03  0.53028307210E+03 -0.29474376671E+04  0.31169584062E+04  0.46999998093E+01 0. -1.
</event>
<event>
 5   0  0.3032442E-07  0.3710462E+04  0.7818609E-02  0.8065647E-01
        2   -1    0    0  501    0  0.00000000000E+00  0.00000000000E+00  0.15158274534E+04  0.15158274534E+04  0.25500000920E-02 0. -1.
       -2   -1    0    0    0  501  0.00000000000E+00  0.00000000000E+00 -0.22706293597E+04  0.22706293597E+04  0.25500000920E-02 0.  1.
    10030    2    1    2    0    0  0.00000000000E+00  0.00000000000E+00 -0.75480190636E+03  0.37864568131E+04  0.37104621383E+04 0.  0.
        3    1    3    3  502    0  0.26251630142E+03  0.40920787925E+03  0.14496640791E+04  0.15290166283E+04  0.10100000352E+00 0. -1.
       -3    1    3    3    0  502 -0.26251630142E+03 -0.40920787925E+03 -0.22044659855E+04  0.22574401849E+04  0.10100000352E+00 0.  1.
</event>
<event>
 5   0  0.3008879E-07  0.3653939E+04  0.7818609E-02  0.8078247E-01
       -2   -1    0    0    0  501  0.00000000000E+00  0.00000000000E+00  0.21852255085E+04  0.21852255085E+04  0.25500000920E-02 0.  1.
        2   -1    0    0  501    0  0.00000000000E+00  0.00000000000E+00 -0.15274479703E+04  0.15274479703E+04  0.25500000920E-02 0. -1.
    10030    2    1    2    0    0  0.00000000000E+00  0.00000000000E+00  0.65777753814E+03  0.37126734788E+04  0.36539393906E+04 0.  0.
        2    1    3    3  502    0 -0.14792049920E+04 -0.20007207813E+03 -0.74148740247E+03  0.16666972769E+04  0.25500000920E-02 0. -1.
       -2    1    3    3    0  502  0.14792049920E+04  0.20007207813E+03  0.13992649406E+04  0.20459762019E+04  0.25500000920E-02 0.  1.
</event>
<event>
 5   0  0.9646615E-08  0.3732130E+04  0.7818609E-02  0.8060879E-01
       -1   -1    0    0    0  501  0.00000000000E+00  0.00000000000E+00  0.17411506567E+04  0.17411506567E+04  0.50400001928E-02 0.  1.
        1   -1    0    0  501    0  0.00000000000E+00  0.00000000000E+00 -0.19999407732E+04  0.19999407732E+04  0.50400001928E-02 0. -1.
    10030    2    1    2    0    0  0.00000000000E+00  0.00000000000E+00 -0.25879011651E+03  0.37410914298E+04  0.37321297890E+04 0.  0.
        2    1    3    3  502    0  0.16402747881E+04  0.38519854289E+03 -0.93339262915E+03  0.19261622720E+04  0.25500000920E-02 0.  1.
       -2    1    3    3    0  502 -0.16402747881E+04 -0.38519854289E+03  0.67460251265E+03  0.18149291578E+04  0.25500000920E-02 0. -1.
</event>
<event>
 5   0  0.9646615E-08  0.3693469E+04  0.7818609E-02  0.8069411E-01
       -1   -1    0    0    0  501  0.00000000000E+00  0.00000000000E+00  0.17005048193E+04  0.17005048193E+04  0.50400001928E-02 0. -1.
        1   -1    0    0  501    0  0.00000000000E+00  0.00000000000E+00 -0.20055392168E+04  0.20055392168E+04  0.50400001928E-02 0.  1.
    10030    2    1    2    0    0  0.00000000000E+00  0.00000000000E+00 -0.30503439753E+03  0.37060440361E+04  0.36934694277E+04 0.  0.
        2    1    3    3  502    0 -0.18076114220E+04 -0.37410280648E+03 -0.97401686169E+02  0.18484856102E+04  0.25500000920E-02 0. -1.
       -2    1    3    3    0  502  0.18076114220E+04  0.37410280648E+03 -0.20763271136E+03  0.18575584259E+04  0.25500000920E-02 0.  1.
</event>
<event>
 5   0  0.2897133E-07  0.3665036E+04  0.7818609E-02  0.8075755E-01
        2   -1    0    0  501    0  0.00000000000E+00  0.00000000000E+00  0.19754897136E+04  0.19754897136E+04  0.25500000920E-02 0. -1.
       -2   -1    0    0    0  501  0.00000000000E+00  0.00000000000E+00 -0.16998933441E+04  0.16998933441E+04  0.25500000920E-02 0.  1.
    10030    2    1    2    0    0  0.00000000000E+00  0.00000000000E+00  0.27559636949E+03  0.36753830576E+04  0.36650357790E+04 0.  0.
        4    1    3    3  502    0 -0.15772651468E+04 -0.87540690345E+03  0.46122634566E+03  0.18619435933E+04  0.12699999809E+01 0.  1.
       -4    1    3    3    0  502  0.15772651468E+04  0.87540690345E+03 -0.18562997617E+03  0.18134394643E+04  0.12699999809E+01 0. -1.
</event>
<event>
 5   0  0.9341000E-08  0.3727001E+04  0.7818609E-02  0.8062004E-01
       -1   -1    0    0    0  501  0.00000000000E+00  0.00000000000E+00  0.19705647394E+04  0.19705647394E+04  0.50400001928E-02 0.  1.
        1   -1    0    0  501    0  0.00000000000E+00  0.00000000000E+00 -0.17622529948E+04  0.17622529948E+04  0.50400001928E-02 0. -1.
    10030    2    1    2    0    0  0.00000000000E+00  0.00000000000E+00  0.20831174461E+03  0.37328177343E+04  0.37270007317E+04 0.  0.
        3    1    3    3  502    0 -0.10411840657E+04  0.13555928470E+04 -0.63925417375E+03  0.18249225009E+04  0.10100000352E+00 0. -1.
       -3    1    3    3    0  502  0.10411840657E+04 -0.13555928470E+04  0.84756591836E+03  0.19078952334E+04  0.10100000352E+00 0.  1.
</event>
<event>
 5   0  0.2996969E-07  0.3699449E+04  0.7818609E-02  0.8068084E-01
       -2   -1    0    0    0  501  0.00000000000E+00  0.00000000000E+00  0.17331715763E+04  0.17331715763E+04  0.25500000920E-02 0.  1.
        2   -1    0    0  501    0  0.00000000000E+00  0.00000000000E+00 -0.19741155708E+04  0.19741155708E+04  0.25500000920E-02 0. -1.
    10030    2    1    2    0    0  0.00000000000E+00  0.00000000000E+00 -0.24094399452E+03  0.37072871472E+04  0.36994491459E+04 0.  0.
        1    1    3    3  502    0 -0.85684254861E+03  0.10096493637E+04 -0.14146841416E+04  0.19377570052E+04  0.50400001928E-02 0. -1.
       -1    1    3    3    0  502  0.85684254861E+03 -0.10096493637E+04  0.11737401470E+04  0.17695301420E+04  0.50400001928E-02 0.  1.
</event>
<event>
 5   0  0.9646615E-08  0.3747727E+04  0.7818609E-02  0.8057466E-01
       -1   -1    0    0    0  501  0.00000000000E+00  0.00000000000E+00  0.13741973924E+04  0.13741973924E+04  0.50400001928E-02 0. -1.
        1   -1    0    0  501    0  0.00000000000E+00  0.00000000000E+00 -0.25552113133E+04  0.25552113133E+04  0.50400001928E-02 0.  1.
    10030    2    1    2    0    0  0.00000000000E+00  0.00000000000E+00 -0.11810139209E+04  0.39294087057E+04  0.37477271639E+04 0.  0.
        2    1    3    3  502    0  0.17463290786E+04  0.21257196619E+03  0.86157434591E+02  0.17613276796E+04  0.25500000920E-02 0. -1.
       -2    1    3    3    0  502 -0.17463290786E+04 -0.21257196619E+03 -0.12671713555E+04  0.21680810261E+04  0.25500000920E-02 0.  1.
</event>
<event>
 5   0  0.9341000E-08  0.3711016E+04  0.7818609E-02  0.8065525E-01
        1   -1    0    0  501    0  0.00000000000E+00  0.00000000000E+00  0.15014050405E+04  0.15014050406E+04  0.50400001928E-02 0. -1.
       -1   -1    0    0    0  501  0.00000000000E+00  0.00000000000E+00 -0.22931248771E+04  0.22931248771E+04  0.50400001928E-02 0.  1.
    10030    2    1    2    0    0  0.00000000000E+00  0.00000000000E+00 -0.79171983659E+03  0.37945299177E+04  0.37110156287E+04 0.  0.
        4    1    3    3  502    0  0.59899537488E+03  0.14702640027E+04  0.58618941618E+03  0.16923626507E+04  0.12699999809E+01 0. -1.
       -4    1    3    3    0  502 -0.59899537488E+03 -0.14702640027E+04 -0.13779092528E+04  0.21021672670E+04  0.12699999809E+01 0.  1.
</event>
<event>
 5   0  0.2897133E-07  0.3701359E+04  0.7818609E-02  0.8067661E-01
        2   -1    0    0  501    0  0.00000000000E+00  0.00000000000E+00  0.30087853511E+04  0.30087853511E+04  0.25500000920E-02 0.  1.
       -2   -1    0    0    0  501  0.00000000000E+00  0.00000000000E+00 -0.11383377583E+04  0.11383377583E+04  0.25500000920E-02 0. -1.
    10030    2    1    2    0    0  0.00000000000E+00  0.00000000000E+00  0.18704475927E+04  0.41471231094E+04  0.37013586542E+04 0.  0.
        4    1    3    3  502    0  0.84782279151E+03 -0.20036181654E+02  0.27782614179E+04  0.29048137726E+04  0.12699999809E+01 0.  1.
       -4    1    3    3    0  502 -0.84782279151E+03  0.20036181654E+02 -0.90781382512E+03  0.12423093368E+04  0.12699999809E+01 0. -1.
</event>
<event>
 5   0  0.3008879E-07  0.3686568E+04  0.7818609E-02  0.8070945E-01
       -2   -1    0    0    0  501  0.00000000000E+00  0.00000000000E+00  0.15290026116E+04  0.15290026116E+04  0.25500000920E-02 0. -1.
        2   -1    0    0  501    0  0.00000000000E+00  0.00000000000E+00 -0.22221650835E+04  0.22221650835E+04  0.25500000920E-02 0.  1.
    10030    2    1    2    0    0  0.00000000000E+00  0.00000000000E+00 -0.69316247195E+03  0.37511676951E+04  0.36865681690E+04 0.  0.
        2    1    3    3  502    0 -0.14522089585E+04 -0.71367325320E+03 -0.12449196471E+04  0.20415840172E+04  0.25500000920E-02 0.  1.
       -2    1    3    3    0  502  0.14522089585E+04  0.71367325320E+03  0.55175717518E+03  0.17095836779E+04  0.25500000920E-02 0. -1.
</event>
<event>
 5   0  0.9418945E-08  0.3682148E+04  0.7818609E-02  0.8071930E-01
        1   -1    0    0  501    0  0.00000000000E+00  0.00000000000E+00  0.24005369939E+04  0.24005369939E+04  0.50400001928E-02 0.  1.
       -1   -1    0    0    0  501  0.00000000000E+00  0.00000000000E+00 -0.14119982173E+04  0.14119982173E+04  0.50400001928E-02 0. -1.
    10030    2    1    2    0    0  0.00000000000E+00  0.00000000000E+00  0.98853877665E+03  0.38125352112E+04  0.36821482620E+04 0.  0.
        5    1    3    3  502    0  0.10575374103E+04  0.22723661831E+03  0.20368261225E+04  0.23062316879E+04  0.46999998093E+01 0.  1.
       -5    1    3    3    0  502 -0.10575374103E+04 -0.22723661831E+03 -0.10482873458E+04  0.15063035233E+04  0.46999998093E+01 0. -1.
</event>
<event>
 5   0  0.2913025E-07  0.3768169E+04  0.7818609E-02  0.8053020E-01
        2   -1    0    0  501    0  0.00000000000E+00  0.00000000000E+00  0.22169062784E+04  0.22169062784E+04  0.25500000920E-02 0.  1.
       -2   -1    0    0    0  501  0.00000000000E+00  0.00000000000E+00 -0.16012288058E+04  0.16012288058E+04  0.25500000920E-02 0. -1.
    10030    2    1    2    0    0  0.00000000000E+00  0.00000000000E+00  0.61567747254E+03  0.38181350842E+04  0.37681688883E+04 0.  0.
        5    1    3    3  502    0  0.17149897399E+04 -0.34342169907E+03  0.10175721464E+04  0.20235126475E+04  0.46999998093E+01 0.  1.
       -5    1    3    3    0  502 -0.17149897399E+04  0.34342169907E+03 -0.40189467390E+03  0.17946224367E+04  0.46999998093E+01 0. -1.
</event>
<event>
 5   0  0.3008879E-07  0.3693444E+04  0.7818609E-02  0.8069416E-01
        2   -1    0    0  501    0  0.00000000000E+00  0.00000000000E+00  0.20666647835E+04  0.20666647835E+04  0.25500000920E-02 0.  1.
       -2   -1    0    0    0  501  0.00000000000E+00  0.00000000000E+00 -0.16501860095E+04  0.16501860095E+04  0.25500000920E-02 0. -1.
    10030    2    1    2    0    0  0.00000000000E+00  0.00000000000E+00  0.41647877397E+03  0.37168507930E+04  0.36934435488E+04 0.  0.
        2    1    3    3  502    0  0.13822506037E+04 -0.11728145793E+04 -0.14651498793E+03  0.18186746302E+04  0.25500000920E-02 0. -1.
       -2    1    3    3    0  502 -0.13822506037E+04  0.11728145793E+04  0.56299376190E+03  0.18981761628E+04  0.25500000920E-02 0.  1.
</event>
<event>
 5   0  0.9646615E-08  0.3602556E+04  0.7818609E-02  0.8089906E-01
        1   -1    0    0  501    0  0.00000000000E+00  0.00000000000E+00  0.17557261080E+04  0.17557261081E+04  0.50400001928E-02 0. -1.
       -1   -1    0    0    0  501  0.00000000000E+00  0.00000000000E+00 -0.18480120001E+04  0.18480120001E+04  0.50400001928E-02 0.  1.
    10030    2    1    2    0    0  0.00000000000E+00  0.00000000000E+00 -0.92285892051E+02  0.36037381082E+04  0.36025562683E+04 0.  0.
        2    1    3    3  502    0  0.15578030854E+04 -0.10134337232E+03 -0.94509340943E+03  0.18248897184E+04  0.25500000920E-02 0.  1.
       -2    1    3    3    0  502 -0.15578030854E+04  0.10134337232E+03  0.85280751738E+03  0.17788483897E+04  0.25500000920E-02 0. -1.
</event>
<event>
 5   0  0.9341000E-08  0.3637491E+04  0.7818609E-02  0.8081958E-01
       -1   -1    0    0    0  501  0.00000000000E+00  0.00000000000E+00  0.20009591372E+04  0.20009591372E+04  0.50400001928E-02 0.  1.
        1   -1    0    0  501    0  0.00000000000E+00  0.00000000000E+00 -0.16531248616E+04  0.16531248616E+04  0.50400001928E-02 0. -1.
    10030    2    1    2    0    0  0.00000000000E+00  0.00000000000E+00  0.34783427560E+03  0.36540839988E+04  0.36374910566E+04 0.  0.
        3    1    3    3  502    0  0.52211518229E+02 -0.39540569685E+03  0.19564872436E+04  0.19967258331E+04  0.10100000352E+00 0.  1.
       -3    1    3    3    0  502 -0.52211518229E+02  0.39540569685E+03 -0.16086529680E+04  0.16573581657E+04  0.10100000352E+00 0. -1.
</event>
<event>
 5   0  0.2996969E-07  0.3698227E+04  0.7818609E-02  0.8068355E-01
        2   -1    0    0  501    0  0.00000000000E+00  0.00000000000E+00  0.21913569391E+04  0.21913569391E+04  0.25500000920E-02 0. -1.
       -2   -1    0    0    0  501  0.00000000000E+00  0.00000000000E+00 -0.15603210620E+04  0.15603210620E+04  0.25500000920E-02 0.  1.
    10030    2    1    2    0    0  0.00000000000E+00  0.00000000000E+00  0.63103587709E+03  0.37516780010E+04  0.36982268110E+04 0.  0.
        1    1    3    3  502    0  0.17504836712E+03 -0.16038718109E+04  0.12319985968E+04  0.20299919358E+04  0.50400001928E-02 0. -1.
       -1    1    3    3    0  502 -0.17504836712E+03  0.16038718109E+04 -0.60096271973E+03  0.17216860653E+04  0.50400001928E-02 0.  1.
</event>
<event>
 5   0  0.9341000E-08  0.3710415E+04  0.7818609E-02  0.8065658E-01
       -1   -1    0    0    0  501  0.00000000000E+00  0.00000000000E+00  0.13209073317E+04  0.13209073317E+04  0.50400001928E-02 0. -1.
        1   -1    0    0  501    0  0.00000000000E+00  0.00000000000E+00 -0.26056286687E+04  0.26056286687E+04  0.50400001928E-02 0.  1.
    10030    2    1    2    0    0  0.00000000000E+00  0.00000000000E+00 -0.12847213370E+04  0.39265360004E+04  0.37104145386E+04 0.  0.
        3    1    3    3  502    0 -0.70129382239E+03  0.14042924875E+04  0.40415094441E+03  0.16208603925E+04  0.10100000352E+00 0. -1.
       -3    1    3    3    0  502  0.70129382239E+03 -0.14042924875E+04 -0.16888722814E+04  0.23056756079E+04  0.10100000352E+00 0.  1.
</event>
<event>
 5   0  0.3008879E-07  0.3705078E+04  0.7818609E-02  0.8066837E-01
        2   -1    0    0  501    0  0.00000000000E+00  0.00000000000E+00  0.31547699626E+04  0.31547699627E+04  0.25500000920E-02 0. -1.
       -2   -1    0    0    0  501  0.00000000000E+00  0.00000000000E+00 -0.10878451615E+04  0.10878451615E+04  0.25500000920E-02 0.  1.
    10030    2    1    2    0    0  0.00000000000E+00  0.00000000000E+00  0.20669248011E+04  0.42426151242E+04  0.37050782662E+04 0.  0.
        2    1    3    3  502    0 -0.15751354005E+04 -0.88890144984E+03  0.57442350334E+03  0.18976721737E+04  0.25500000920E-02 0.  1.
       -2    1    3    3    0  502  0.15751354005E+04  0.88890144984E+03  0.14925012978E+04  0.23449429505E+04  0.25500000920E-02 0. -1.
</event>
<event>
 5   0  0.3032442E-07  0.3488541E+04  0.7818609E-02  0.8116511E-01
       -2   -1    0    0    0  501  0.00000000000E+00  0.00000000000E+00  0.25840887975E+04  0.25840887975E+04  0.25500000920E-02 0.  1.
        2   -1    0    0  501    0  0.00000000000E+00  0.00000000000E+00 -0.11773896262E+04  0.11773896262E+04  0.25500000920E-02 0. -1.
    10030    2    1    2    0    0  0.00000000000E+00  0.00000000000E+00  0.14066991713E+04  0.37614784237E+04  0.34885408659E+04 0.  0.
        3    1    3    3  502    0 -0.12693782934E+04 -0.10987916060E+04  0.12134544208E+04  0.20715057052E+04  0.10100000352E+00 0.  1.
       -3    1    3    3    0  502  0.12693782934E+04  0.10987916060E+04  0.19324475048E+03  0.16899727184E+04  0.10100000352E+00 0. -1.
</event>
<event>
 5   0  0.2996969E-07  0.3644209E+04  0.7818609E-02  0.8080440E-01
       -2   -1    0    0    0  501  0.00000000000E+00  0.00000000000E+00  0.18240988701E+04  0.18240988701E+04  0.25500000920E-02 0.  1.
        2   -1    0    0  501    0  0.00000000000E+00  0.00000000000E+00 -0.18201119737E+04  0.18201119737E+04  0.25500000920E-02 0. -1.
    10030    2    1    2    0    0  0.00000000000E+00  0.00000000000E+00  0.39868963953E+01  0.36442108438E+04  0.36442086629E+04 0.  0.
        1    1    3    3  502    0  0.11137344559E+04  0.12557477697E+04  0.71104767528E+03  0.18228811524E+04  0.50400001928E-02 0.  1.
       -1    1    3    3    0  502 -0.11137344559E+04 -0.12557477697E+04 -0.70706077888E+03  0.18213296913E+04  0.50400001928E-02 0. -1.
</event>
<event>
 5   0  0.2913025E-07  0.3705448E+04  0.7818609E-02  0.8066756E-01
        2   -1    0    0  501    0  0.00000000000E+00  0.00000000000E+00  0.12618365112E+04  0.12618365112E+04  0.25500000920E-02 0.  1.
       -2   -1    0    0    0  501  0.00000000000E+00  0.00000000000E+00 -0.27203099704E+04  0.27203099704E+04  0.25500000920E-02 0. -1.
    10030    2    1    2    0    0  0.00000000000E+00  0.00000000000E+00 -0.14584734591E+04  0.39821464816E+04  0.37054481200E+04 0.  0.
        5    1    3    3  502    0  0.98867956722E+03 -0.14861537900E+04 -0.19575693337E+03  0.17956846163E+04  0.46999998093E+01 0.  1.
       -5    1    3    3    0  502 -0.98867956722E+03  0.14861537900E+04 -0.12627165258E+04  0.21864618653E+04  0.46999998093E+01 0. -1.
</event>
<event>
 5   0  0.9341000E-08  0.3646477E+04  0.7818609E-02  0.8079928E-01
       -1   -1    0    0    0  501  0.00000000000E+00  0.00000000000E+00  0.14151633761E+04  0.14151633761E+04  0.50400001928E-02 0.  1.
        1   -1    0    0  501    0  0.00000000000E+00  0.00000000000E+00 -0.23489856176E+04  0.23489856176E+04  0.50400001928E-02 0. -1.
    10030    2    1    2    0    0  0.00000000000E+00  0.00000000000E+00 -0.93382224150E+03  0.37641489937E+04  0.36464768843E+04 0.  0.
        4    1    3    3  502    0 -0.11704875940E+04  0.21435827564E+03 -0.18928666565E+04  0.22358301524E+04  0.12699999809E+01 0. -1.
       -4    1    3    3    0  502  0.11704875940E+04 -0.21435827564E+03  0.95904441501E+03  0.15283188413E+04  0.12699999809E+01 0.  1.
</event>
<event>
 5   0  0.9418945E-08  0.3699820E+04  0.7818609E-02  0.8068002E-01
       -1   -1    0    0    0  501  0.00000000000E+00  0.00000000000E+00  0.20380788389E+04  0.20380788389E+04  0.50400001928E-02 0. -1.
        1   -1    0    0  501    0  0.00000000000E+00  0.00000000000E+00 -0.16791139532E+04  0.16791139532E+04  0.50400001928E-02 0.  1.
    10030    2    1    2    0    0  0.00000000000E+00  0.00000000000E+00  0.35896488569E+03  0.37171927922E+04  0.36998197882E+04 0.  0.
        5    1    3    3  502    0  0.42143075461E+03  0.14322827682E+04  0.12769057030E+04  0.19645732547E+04  0.46999998093E+01 0. -1.
       -5    1    3    3    0  502 -0.42143075461E+03 -0.14322827682E+04 -0.91794081730E+03  0.17526195374E+04  0.46999998093E+01 0.  1.
</event>
<event>
 5   0  0.2897133E-07  0.3678424E+04  0.7818609E-02  0.8072760E-01
       -2   -1    0    0    0  501  0.00000000000E+00  0.00000000000E+00  0.17769575722E+04  0.17769575722E+04  0.25500000920E-02 0.  1.
        2   -1    0    0  501    0  0.00000000000E+00  0.00000000000E+00 -0.19036472241E+04  0.19036472241E+04  0.25500000920E-02 0. -1.
    10030    2    1    2    0    0  0.00000000000E+00  0.00000000000E+00 -0.12668965196E+03  0.36806047963E+04  0.36784237655E+04 0.  0.
        4    1    3    3  502    0  0.38591387671E+03  0.12958822044E+04  0.11841736833E+04  0.17973617146E+04  0.12699999809E+01 0.  1.
       -4    1    3    3    0  502 -0.38591387671E+03 -0.12958822044E+04 -0.13108633353E+04  0.18832430817E+04  0.12699999809E+01 0. -1.
</event>
<event>
 5   0  0.9341000E-08  0.3685697E+04  0.7818609E-02  0.8071139E-01
        1   -1    0    0  501    0  0.00000000000E+00  0.00000000000E+00  0.21392997027E+04  0.21392997027E+04  0.50400001928E-02 0. -1.
       -1   -1    0    0    0  501  0.00000000000E+00  0.00000000000E+00 -0.15874774671E+04  0.15874774671E+04  0.50400001928E-02 0.  1.
    10030    2    1    2    0    0  0.00000000000E+00  0.00000000000E+00  0.55182223561E+03  0.37267771699E+04  0.36856967176E+04 0.  0.
        4    1    3    3  502    0  0.66627308548E+03 -0.16492171059E+04 -0.21138523758E+03  0.17912348306E+04  0.12699999809E+01 0. -1.
       -4    1    3    3    0  502 -0.66627308548E+03  0.16492171059E+04  0.76320747319E+03  0.19355423392E+04  0.12699999809E+01 0.  1.
</event>
<event>
 5   0  0.9341000E-08  0.3702224E+04  0.7818609E-02  0.8067469E-01
       -1   -1    0    0    0  501  0.00000000000E+00  0.00000000000E+00  0.28557116838E+04  0.28557116838E+04  0.50400001928E-02 0. -1.
        1   -1    0    0  501    0  0.00000000000E+00  0.00000000000E+00 -0.11999166708E+04  0.11999166708E+04  0.50400001928E-02 0.  1.
    10030    2    1    2    0    0  0.00000000000E+00  0.00000000000E+00  0.16557950130E+04  0.40556283547E+04  0.37022242269E+04 0.  0.
        3    1    3    3  502    0 -0.14099571061E+04 -0.46482572781E+03 -0.38335034183E+03  0.15332969357E+04  0.10100000352E+00 0.  1.
       -3    1    3    3    0  502  0.14099571061E+04  0.46482572781E+03  0.20391453549E+04  0.25223314189E+04  0.10100000352E+00 0. -1.
</event>
<event>
 5   0  0.2996969E-07  0.3721805E+04  0.7818609E-02  0.8063147E-01
        2   -1    0    0  501    0  0.00000000000E+00  0.00000000000E+00  0.25209557529E+04  0.25209557529E+04  0.25500000920E-02 0.  1.
       -2   -1    0    0    0  501  0.00000000000E+00  0.00000000000E+00 -0.13736686495E+04  0.13736686495E+04  0.25500000920E-02 0. -1.
    10030    2    1    2    0    0  0.00000000000E+00  0.00000000000E+00  0.11472871035E+04  0.38946244024E+04  0.37218048764E+04 0.  0.
        1    1    3    3  502    0 -0.46823638369E+03 -0.17668006559E+04  0.93933906407E+03  0.20550395972E+04  0.50400001928E-02 0.  1.
       -1    1    3    3    0  502  0.46823638369E+03  0.17668006559E+04  0.20794803943E+03  0.18395848052E+04  0.50400001928E-02 0. -1.
</event>
<event>
 5   0  0.9418945E-08  0.3685714E+04  0.7818609E-02  0.8071135E-01
        1   -1    0    0  501    0  0.00000000000E+00  0.00000000000E+00  0.12183422086E+04  0.12183422086E+04  0.50400001928E-02 0. -1.
       -1   -1    0    0    0  501  0.00000000000E+00  0.00000000000E+00 -0.27874949150E+04  0.27874949151E+04  0.50400001928E-02 0.  1.
    10030    2    1    2    0    0  0.00000000000E+00  0.00000000000E+00 -0.15691527064E+04  0.40058371237E+04  0.36857144281E+04 0.  0.
        5    1    3    3  502    0  0.27093484127E+03 -0.16618467704E+04 -0.15986011720E+04  0.23217855572E+04  0.46999998093E+01 0.  1.
       -5    1    3    3    0  502 -0.27093484127E+03  0.16618467704E+04  0.29448465627E+02  0.16840515665E+04  0.46999998093E+01 0. -1.
</event>
<event>
 5   0  0.2897133E-07  0.3707576E+04  0.7818609E-02  0.8066285E-01
       -2   -1    0    0    0  501  0.00000000000E+00  0.00000000000E+00  0.12369135960E+04  0.12369135960E+04  0.25500000920E-02 0. -1.
        2   -1    0    0  501    0  0.00000000000E+00  0.00000000000E+00 -0.27783111515E+04  0.27783111515E+04  0.25500000920E-02 0.  1.
    10030    2    1    2    0    0  0.00000000000E+00  0.00000000000E+00 -0.15413975555E+04  0.40152247474E+04  0.37075764791E+04 0.  0.
        4    1    3    3  502    0  0.18114432276E+04 -0.30251706619E+03 -0.10440002723E+04  0.21125296030E+04  0.12699999809E+01 0.  1.
       -4    1    3    3    0  502 -0.18114432276E+04  0.30251706619E+03 -0.49739728325E+03  0.19026951444E+04  0.12699999809E+01 0. -1.
</event>
<event>
 5   0  0.2996969E-07  0.3716927E+04  0.7818609E-02  0.8064221E-01
       -2   -1    0    0    0  501  0.00000000000E+00  0.00000000000E+00  0.15404983891E+04  0.15404983891E+04  0.25500000920E-02 0. -1.
        2   -1    0    0  501    0  0.00000000000E+00  0.00000000000E+00 -0.22420576667E+04  0.22420576667E+04  0.25500000920E-02 0.  1.
    10030    2    1    2    0    0  0.00000000000E+00  0.00000000000E+00 -0.70155927766E+03  0.37825560558E+04  0.37169268079E+04 0.  0.
        1    1    3    3  502    0  0.72088373103E+02 -0.15994773340E+04 -0.13110302900E+04  0.20693779009E+04  0.50400001928E-02 0.  1.
       -1    1    3    3    0  502 -0.72088373103E+02  0.15994773340E+04  0.60947101237E+03  0.17131781549E+04  0.50400001928E-02 0. -1.
</event>
<event>
 5   0  0.3032442E-07  0.3737797E+04  0.7818609E-02  0.8059637E-01
       -2   -1    0    0    0  501  0.00000000000E+00  0.00000000000E+00  0.16610248582E+04  0.16610248582E+04  0.25500000920E-02 0.  1.
        2   -1    0    0  501    0  0.00000000000E+00  0.00000000000E+00 -0.21027869862E+04  0.21027869862E+04  0.25500000920E-02 0. -1.
    10030    2    1    2    0    0  0.00000000000E+00  0.00000000000E+00 -0.44176212808E+03  0.37638118444E+04  0.37377969210E+04 0.  0.
        3    1    3    3  502    0  0.20282317280E+03  0.59644934527E+03  0.15508799068E+04  0.16739526745E+04  0.10100000352E+00 0.  1.
       -3    1    3    3    0  502 -0.20282317280E+03 -0.59644934527E+03 -0.19926420349E+04  0.20898591699E+04  0.10100000352E+00 0. -1.
</event>
<event>
 5   0  0.3008879E-07  0.3672854E+04  0.7818609E-02  0.8074004E-01
        2   -1    0    0  501    0  0.00000000000E+00  0.00000000000E+00  0.19405372703E+04  0.19405372703E+04  0.25500000920E-02 0. -1.
       -2   -1    0    0    0  501  0.00000000000E+00  0.00000000000E+00 -0.17379022666E+04  0.17379022666E+04  0.25500000920E-02 0.  1.
    10030    2    1    2    0    0  0.00000000000E+00  0.00000000000E+00  0.20263500366E+03  0.36784395370E+04  0.36728539969E+04 0.  0.
        2    1    3    3  502    0 -0.16296114624E+04  0.67335708334E+03 -0.41270842253E+03  0.18109035099E+04  0.25500000920E-02 0.  1.
       -2    1    3    3    0  502  0.16296114624E+04 -0.67335708334E+03  0.61534342619E+03  0.18675360270E+04  0.25500000920E-02 0. -1.
</event>
<event>
 5   0  0.2996969E-07  0.3710647E+04  0.7818609E-02  0.8065607E-01
        2   -1    0    0  501    0  0.00000000000E+00  0.00000000000E+00  0.30954243485E+04  0.30954243485E+04  0.25500000920E-02 0. -1.
       -2   -1    0    0    0  501  0.00000000000E+00  0.00000000000E+00 -0.11120363487E+04  0.11120363487E+04  0.25500000920E-02 0.  1.
    10030    2    1    2    0    0  0.00000000000E+00  0.00000000000E+00  0.19833879998E+04  0.42074606972E+04  0.37106465152E+04 0.  0.
        1    1    3    3  502    0  0.62923215855E+03  0.24278532093E+03  0.29515009249E+04  0.30275791535E+04  0.50400001928E-02 0. -1.
       -1    1    3    3    0  502 -0.62923215855E+03 -0.24278532093E+03 -0.96811292505E+03  0.11798815437E+04  0.50400001928E-02 0.  1.
</event>
<event>
 5   0  0.2913025E-07  0.3711588E+04  0.7818609E-02  0.8065399E-01
        2   -1    0    0  501    0  0.00000000000E+00  0.00000000000E+00  0.23054490924E+04  0.23054490924E+04  0.25500000920E-02 0. -1.
       -2   -1    0    0    0  501  0.00000000000E+00  0.00000000000E+00 -0.14938393738E+04  0.14938393738E+04  0.25500000920E-02 0.  1.
    10030    2    1    2    0    0  0.00000000000E+00  0.00000000000E+00  0.81160971858E+03  0.37992884663E+04  0.37115876003E+04 0.  0.
        5    1    3    3  502    0 -0.98120542906E+03 -0.12772140751E+04  0.13494933947E+04  0.21012363979E+04  0.46999998093E+01 0. -1.
       -5    1    3    3    0  502  0.98120542906E+03  0.12772140751E+04 -0.53788367613E+03  0.16980520683E+04  0.46999998093E+01 0.  1.
</event>
<event>
 5   0  0.3008879E-07  0.3529586E+04  0.7818609E-02  0.8106814E-01
       -2   -1    0    0    0  501  0.00000000000E+00  0.00000000000E+00  0.15379934106E+04  0.15379934106E+04  0.25500000920E-02 0. -1.
        2   -1    0    0  501    0  0.00000000000E+00  0.00000000000E+00 -0.20250372302E+04  0.20250372302E+04  0.25500000920E-02 0.  1.
    10030    2    1    2    0    0  0.00000000000E+00  0.00000000000E+00 -0.48704381960E+03  0.35630306409E+04  0.35295857640E+04 0.  0.
        2    1    3    3  502    0 -0.10088647975E+04  0.72457988563E+03  0.10220197962E+04  0.16085237499E+04  0.25500000920E-02 0. -1.
       -2    1    3    3    0  502  0.10088647975E+04 -0.72457988563E+03 -0.15090636158E+04  0.19545068910E+04  0.25500000920E-02 0.  1.
</event>
<event>
 5   0  0.9341000E-08  0.3657024E+04  0.7818609E-02  0.8077553E-01
        1   -1    0    0  501    0  0.00000000000E+00  0.00000000000E+00  0.15172142980E+04  0.15172142980E+04  0.50400001928E-02 0.  1.
       -1   -1    0    0    0  501  0.00000000000E+00  0.00000000000E+00 -0.22036812496E+04  0.22036812496E+04  0.50400001928E-02 0. -1.
    10030    2    1    2    0    0  0.00000000000E+00  0.00000000000E+00 -0.68646695162E+03  0.37208955476E+04  0.36570243095E+04 0.  0.
        3    1    3    3  502    0 -0.67007834506E+03 -0.39286518974E+03 -0.20274717129E+04  0.21711724028E+04  0.10100000352E+00 0. -1.
       -3    1    3    3    0  502  0.67007834506E+03  0.39286518974E+03  0.13410047612E+04  0.15497231449E+04  0.10100000352E+00 0.  1.
</event>
<event>
 5   0  0.9341000E-08  0.3657273E+04  0.7818609E-02  0.8077497E-01
       -1   -1    0    0    0  501  0.00000000000E+00  0.00000000000E+00  0.13805998500E+04  0.13805998500E+04  0.50400001928E-02 0. -1.
        1   -1    0    0  501    0  0.00000000000E+00  0.00000000000E+00 -0.24220708431E+04  0.24220708431E+04  0.50400001928E-02 0.  1.
    10030    2    1    2    0    0  0.00000000000E+00  0.00000000000E+00 -0.10414709931E+04  0.38026706932E+04  0.36572725590E+04 0.  0.
        1    1    3    3  502    0 -0.28354390279E+03 -0.99188371682E+03 -0.20906223510E+04  0.23312941186E+04  0.50400001928E-02 0.  1.
       -1    1    3    3    0  502  0.28354390279E+03  0.99188371682E+03  0.10491513579E+04  0.14713765746E+04  0.50400001928E-02 0. -1.
</event>
<event>
 5   0  0.3008879E-07  0.3829051E+04  0.7818609E-02  0.8039949E-01
        2   -1    0    0  501    0  0.00000000000E+00  0.00000000000E+00  0.25493770603E+04  0.25493770603E+04  0.25500000920E-02 0. -1.
       -2   -1    0    0    0  501  0.00000000000E+00  0.00000000000E+00 -0.14377660688E+04  0.14377660688E+04  0.25500000920E-02 0.  1.
    10030    2    1    2    0    0  0.00000000000E+00  0.00000000000E+00  0.11116109915E+04  0.39871431290E+04  0.38290509706E+04 0.  0.
        2    1    3    3  502    0  0.10166768615E+04 -0.16114017078E+04  0.75105879451E+03  0.20480079632E+04  0.25500000920E-02 0.  1.
       -2    1    3    3    0  502 -0.10166768615E+04  0.16114017078E+04  0.36055219699E+03  0.19391351658E+04  0.25500000920E-02 0. -1.
</event>
<event>
 5   0  0.2913025E-07  0.3659412E+04  0.7818609E-02  0.8077017E-01
        2   -1    0    0  501    0  0.00000000000E+00  0.00000000000E+00  0.21858321973E+04  0.21858321973E+04  0.25500000920E-02 0. -1.
       -2   -1    0    0    0  501  0.00000000000E+00  0.00000000000E+00 -0.15316017109E+04  0.15316017109E+04  0.25500000920E-02 0.  1.
    10030    2    1    2    0    0  0.00000000000E+00  0.00000000000E+00  0.65423048644E+03  0.37174339082E+04  0.36594121566E+04 0.  0.
        5    1    3    3  502    0  0.51778737564E+03  0.11276187344E+04  0.16931196349E+04  0.20991198072E+04  0.46999998093E+01 0. -1.
       -5    1    3    3    0  502 -0.51778737564E+03 -0.11276187344E+04 -0.10388891485E+04  0.16183141010E+04  0.46999998093E+01 0.  1.
</event>
<event>
 5   0  0.2913025E-07  0.3692727E+04  0.7818609E-02  0.8069576E-01
        2   -1    0    0  501    0  0.00000000000E+00  0.00000000000E+00  0.18984681870E+04  0.18984681870E+04  0.25500000920E-02 0. -1.
       -2   -1    0    0    0  501  0.00000000000E+00  0.00000000000E+00 -0.17956885209E+04  0.17956885209E+04  0.25500000920E-02 0.  1.
    10030    2    1    2    0    0  0.00000000000E+00  0.00000000000E+00  0.10277966613E+03  0.36941567078E+04  0.36927266514E+04 0.  0.
        5    1    3    3  502    0 -0.99108693543E+03 -0.15566509606E+04 -0.87991876717E+01  0.18454037613E+04  0.46999998093E+01 0. -1.
       -5    1    3    3    0  502  0.99108693543E+03  0.15566509606E+04  0.11157885380E+03  0.18487529465E+04  0.46999998093E+01 0.  1.
</event>
<event>
 5   0  0.9341000E-08  0.3685106E+04  0.7818609E-02  0.8071271E-01
       -1   -1    0    0    0  501  0.00000000000E+00  0.00000000000E+00  0.13149706382E+04  0.13149706382E+04  0.50400001928E-02 0.  1.
        1   -1    0    0  501    0  0.00000000000E+00  0.00000000000E+00 -0.25818074728E+04  0.25818074728E+04  0.50400001928E-02 0. -1.
    10030    2    1    2    0    0  0.00000000000E+00  0.00000000000E+00 -0.12668368346E+04  0.38967781110E+04  0.36851057083E+04 0.  0.
        4    1    3    3  502    0  0.15581367773E+04 -0.41814798847E+02 -0.16724363179E+04  0.22861722474E+04  0.12699999809E+01 0. -1.
       -4    1    3    3    0  502 -0.15581367773E+04  0.41814798847E+02  0.40559948335E+03  0.16106058637E+04  0.12699999809E+01 0.  1.
</event>
<event>
 5   0  0.9341000E-08  0.3665042E+04  0.7818609E-02  0.8075753E-01
       -3   -1    0    0    0  501  0.00000000000E+00  0.00000000000E+00  0.12441116861E+04  0.12441116902E+04  0.10100000352E+00 0. -1.
        3   -1    0    0  501    0  0.00000000000E+00  0.00000000000E+00 -0.26992212266E+04  0.26992212285E+04  0.10100000352E+00 0.  1.
    10030    2    1    2    0    0  0.00000000000E+00  0.00000000000E+00 -0.14551095406E+04  0.39433329187E+04  0.36650417095E+04 0.  0.
        1    1    3    3  502    0 -0.10562535950E+04 -0.13972036542E+04 -0.14786544206E+03  0.17577582022E+04  0.50400001928E-02 0. -1.
       -1    1    3    3    0  502  0.10562535950E+04  0.13972036542E+04 -0.13072440985E+04  0.21855747165E+04  0.50400001928E-02 0.  1.
</event>
<event>
 5   0  0.2996969E-07  0.3775772E+04  0.7818609E-02  0.8051374E-01
       -2   -1    0    0    0  501  0.00000000000E+00  0.00000000000E+00  0.13164591242E+04  0.13164591242E+04  0.25500000920E-02 0.  1.
        2   -1    0    0  501    0  0.00000000000E+00  0.00000000000E+00 -0.27073484016E+04  0.27073484016E+04  0.25500000920E-02 0. -1.
    10030    2    1    2    0    0  0.00000000000E+00  0.00000000000E+00 -0.13908892774E+04  0.40238075258E+04  0.37757719771E+04 0.  0.
        1    1    3    3  502    0 -0.11857524017E+04 -0.45225288184E+03 -0.21849640229E+04  0.25267784250E+04  0.50400001928E-02 0. -1.
       -1    1    3    3    0  502  0.11857524017E+04  0.45225288184E+03  0.79407474553E+03  0.14970291009E+04  0.50400001928E-02 0.  1.
</event>
<event>
 5   0  0.2897133E-07  0.3671231E+04  0.7818609E-02  0.8074367E-01
       -2   -1    0    0    0  501  0.00000000000E+00  0.00000000000E+00  0.14293992532E+04  0.14293992532E+04  0.25500000920E-02 0. -1.
        2   -1    0    0  501    0  0.00000000000E+00  0.00000000000E+00 -0.23572731407E+04  0.23572731407E+04  0.25500000920E-02 0.  1.
    10030    2    1    2    0    0  0.00000000000E+00  0.00000000000E+00 -0.92787388751E+03  0.37866723939E+04  0.36712311106E+04 0.  0.
        4    1    3    3  502    0  0.62258310328E+03  0.25115889286E+03 -0.22261061501E+04  0.23251324079E+04  0.12699999809E+01 0.  1.
       -4    1    3    3    0  502 -0.62258310328E+03 -0.25115889286E+03  0.12982322626E+04  0.14615399860E+04  0.12699999809E+01 0. -1.
</event>
<event>
 5   0  0.3008879E-07  0.3711901E+04  0.7818609E-02  0.8065330E-01
       -2   -1    0    0    0  501  0.00000000000E+00  0.00000000000E+00  0.23810976252E+04  0.23810976252E+04  0.25500000920E-02 0. -1.
        2   -1    0    0  501    0  0.00000000000E+00  0.00000000000E+00 -0.14466238032E+04  0.14466238032E+04  0.25500000920E-02 0.  1.
    10030    2    1    2    0    0  0.00000000000E+00  0.00000000000E+00  0.93447382200E+03  0.38277214285E+04  0.37119011315E+04 0.  0.
        2    1    3    3  502    0 -0.87959452711E+01 -0.37442604926E+03  0.23417236046E+04  0.23714851202E+04  0.25500000920E-02 0. -1.
       -2    1    3    3    0  502  0.87959452711E+01  0.37442604926E+03 -0.14072497826E+04  0.14562363083E+04  0.25500000920E-02 0.  1.
</event>
<event>
 5   0  0.3008879E-07  0.3716959E+04  0.7818609E-02  0.8064214E-01
        2   -1    0    0  501    0  0.00000000000E+00  0.00000000000E+00  0.21812800921E+04  0.21812800921E+04  0.25500000920E-02 0.  1.
       -2   -1    0    0    0  501  0.00000000000E+00  0.00000000000E+00 -0.15834490985E+04  0.15834490985E+04  0.25500000920E-02 0. -1.
    10030    2    1    2    0    0  0.00000000000E+00  0.00000000000E+00  0.59783099360E+03  0.37647291906E+04  0.37169589696E+04 0.  0.
        2    1    3    3  502    0  0.27442588550E+03 -0.17549618506E+04 -0.25468508515E+03  0.17944539995E+04  0.25500000920E-02 0.  1.
       -2    1    3    3    0  502 -0.27442588550E+03  0.17549618506E+04  0.85251607875E+03  0.19702751910E+04  0.25500000920E-02 0. -1.
</event>
<event>
 5   0  0.9646615E-08  0.3711840E+04  0.7818609E-02  0.8065343E-01
       -1   -1    0    0    0  501  0.00000000000E+00  0.00000000000E+00  0.12020412255E+04  0.12020412255E+04  0.50400001928E-02 0.  1.
        1   -1    0    0  501    0  0.00000000000E+00  0.00000000000E+00 -0.28654916286E+04  0.28654916286E+04  0.50400001928E-02 0. -1.
    10030    2    1    2    0    0  0.00000000000E+00  0.00000000000E+00 -0.16634504031E+04  0.40675328541E+04  0.37118400121E+04 0.  0.
        2    1    3    3  502    0 -0.40954099907E+03 -0.48697608779E+03  0.10787784038E+04  0.12524505517E+04  0.25500000920E-02 0.  1.
       -2    1    3    3    0  502  0.40954099907E+03  0.48697608779E+03 -0.27422288069E+04  0.28150823024E+04  0.25500000920E-02 0. -1.
</event>
<event>
 5   0  0.9341000E-08  0.3692198E+04  0.7818609E-02  0.8069693E-01
        1   -1    0    0  501    0  0.00000000000E+00  0.00000000000E+00  0.15178941156E+04  0.15178941156E+04  0.50400001928E-02 0.  1.
       -1   -1    0    0    0  501  0.00000000000E+00  0.00000000000E+00 -0.22452695049E+04  0.22452695049E+04  0.50400001928E-02 0. -1.
    10030    2    1    2    0    0  0.00000000000E+00  0.00000000000E+00 -0.72737538930E+03  0.37631636205E+04  0.36921979196E+04 0.  0.
        3    1    3    3  502    0  0.12185229031E+04  0.13867833723E+04 -0.37462578124E+03  0.18836960141E+04  0.10100000352E+00 0. -1.
       -3    1    3    3    0  502 -0.12185229031E+04 -0.13867833723E+04 -0.35274960806E+03  0.18794676064E+04  0.10100000352E+00 0.  1.
</event>
<event>
 5   0  0.2913025E-07  0.3576518E+04  0.7818609E-02  0.8095892E-01
       -2   -1    0    0    0  501  0.00000000000E+00  0.00000000000E+00  0.15297589040E+04  0.15297589040E+04  0.25500000920E-02 0.  1.
        2   -1    0    0  501    0  0.00000000000E+00  0.00000000000E+00 -0.20904412621E+04  0.20904412621E+04  0.25500000920E-02 0. -1.
    10030    2    1    2    0    0  0.00000000000E+00  0.00000000000E+00 -0.56068235807E+03  0.36202001661E+04  0.35765184937E+04 0.  0.
        5    1    3    3  502    0 -0.87103256512E+03  0.12677390576E+04 -0.12036158049E+04  0.19530932245E+04  0.46999998093E+01 0. -1.
       -5    1    3    3    0  502  0.87103256512E+03 -0.12677390576E+04  0.64293344684E+03  0.16671069416E+04  0.46999998093E+01 0.  1.
</event>
<event>
 5   0  0.2996969E-07  0.3648860E+04  0.7818609E-02  0.8079391E-01
        2   -1    0    0  501    0  0.00000000000E+00  0.00000000000E+00  0.24179190007E+04  0.24179190007E+04  0.25500000920E-02 0. -1.
       -2   -1    0    0    0  501  0.00000000000E+00  0.00000000000E+00 -0.13766152674E+04  0.13766152674E+04  0.25500000920E-02 0.  1.
    10030    2    1    2    0    0  0.00000000000E+00  0.00000000000E+00  0.10413037333E+04  0.37945342681E+04  0.36488596639E+04 0.  0.
        1    1    3    3  502    0  0.29853106049E+03 -0.66039824234E+03 -0.12204970607E+04  0.14194575400E+04  0.50400001928E-02 0.  1.
       -1    1    3    3    0  502 -0.29853106049E+03  0.66039824234E+03  0.22618007940E+04  0.23750767281E+04  0.50400001928E-02 0. -1.
</event>
<event>
 5   0  0.9341000E-08  0.3768768E+04  0.7818609E-02  0.8052891E-01
       -1   -1    0    0    0  501  0.00000000000E+00  0.00000000000E+00  0.13415305721E+04  0.13415305721E+04  0.50400001928E-02 0.  1.
        1   -1    0    0  501    0  0.00000000000E+00  0.00000000000E+00 -0.26469047061E+04  0.26469047061E+04  0.50400001928E-02 0. -1.
    10030    2    1    2    0    0  0.00000000000E+00  0.00000000000E+00 -0.13053741340E+04  0.39884352782E+04  0.37687682787E+04 0.  0.
        4    1    3    3  502    0  0.98744133466E+03 -0.15923790354E+04 -0.44052618922E+03  0.19247795505E+04  0.12699999809E+01 0. -1.
       -4    1    3    3    0  502 -0.98744133466E+03  0.15923790354E+04 -0.86484794479E+03  0.20636557277E+04  0.12699999809E+01 0.  1.
</event>
<event>
 5   0  0.9341000E-08  0.3770395E+04  0.7818609E-02  0.8052538E-01
       -1   -1    0    0    0  501  0.00000000000E+00  0.00000000000E+00  0.18429580117E+04  0.18429580117E+04  0.50400001928E-02 0.  1.
        1   -1    0    0  501    0  0.00000000000E+00  0.00000000000E+00 -0.19284049634E+04  0.19284049634E+04  0.50400001928E-02 0. -1.
    10030    2    1    2    0    0  0.00000000000E+00  0.00000000000E+00 -0.85446951741E+02  0.37713629751E+04  0.37703948743E+04 0.  0.
        3    1    3    3  502    0  0.47623639257E+03  0.70934666166E+03  0.16381828167E+04  0.18475975588E+04  0.10100000352E+00 0.  1.
       -3    1    3    3    0  502 -0.47623639257E+03 -0.70934666166E+03 -0.17236297685E+04  0.19237654163E+04  0.10100000352E+00 0. -1.
</event>
<event>
 5   0  0.2913025E-07  0.3700269E+04  0.7818609E-02  0.8067902E-01
        2   -1    0    0  501    0  0.00000000000E+00  0.00000000000E+00  0.20068370954E+04  0.20068370954E+04  0.25500000920E-02 0. -1.
       -2   -1    0    0    0  501  0.00000000000E+00  0.00000000000E+00 -0.17056676398E+04  0.17056676398E+04  0.25500000920E-02 0.  1.
    10030    2    1    2    0    0  0.00000000000E+00  0.00000000000E+00  0.30116945569E+03  0.37125047352E+04  0.37002686886E+04 0.  0.
        5    1    3    3  502    0  0.36630487242E+03  0.71702645003E+01  0.19700711191E+04  0.20038545298E+04  0.46999998093E+01 0. -1.
       -5    1    3    3    0  502 -0.36630487242E+03 -0.71702645003E+01 -0.16689016634E+04  0.17086502054E+04  0.46999998093E+01 0.  1.
</event>
<event>
 5   0  0.2913025E-07  0.3645814E+04  0.7818609E-02  0.8080077E-01
        2   -1    0    0  501    0  0.00000000000E+00  0.00000000000E+00  0.30606836176E+04  0.30606836176E+04  0.25500000920E-02 0.  1.
       -2   -1    0    0    0  501  0.00000000000E+00  0.00000000000E+00 -0.10857015749E+04  0.10857015749E+04  0.25500000920E-02 0. -1.
    10030    2    1    2    0    0  0.00000000000E+00  0.00000000000E+00  0.19749820427E+04  0.41463851926E+04  0.36458135027E+04 0.  0.
        5    1    3    3  502    0  0.43756648686E+03 -0.88892236595E+03 -0.75273452520E+03  0.12442985006E+04  0.46999998093E+01 0. -1.
       -5    1    3    3    0  502 -0.43756648686E+03  0.88892236595E+03  0.27277165679E+04  0.29020866920E+04  0.46999998093E+01 0.  1.
</event>
<event>
 5   0  0.3008879E-07  0.3712838E+04  0.7818609E-02  0.8065123E-01
       -2   -1    0    0    0  501  0.00000000000E+00  0.00000000000E+00  0.17597386233E+04  0.17597386233E+04  0.25500000920E-02 0. -1.
        2   -1    0    0  501    0  0.00000000000E+00  0.00000000000E+00 -0.19584106935E+04  0.19584106935E+04  0.25500000920E-02 0.  1.
    10030    2    1    2    0    0  0.00000000000E+00  0.00000000000E+00 -0.19867207015E+03  0.37181493168E+04  0.37128376951E+04 0.  0.
        2    1    3    3  502    0 -0.50822574259E+03  0.15847070983E+04 -0.92313122779E+03  0.19030925507E+04  0.25500000920E-02 0.  1.
       -2    1    3    3    0  502  0.50822574259E+03 -0.15847070983E+04  0.72445915764E+03  0.18150567660E+04  0.25500000920E-02 0. -1.
</event>
<event>
 5   0  0.2897133E-07  0.3692909E+04  0.7818609E-02  0.8069535E-01
        2   -1    0    0  501    0  0.00000000000E+00  0.00000000000E+00  0.27947030101E+04  0.27947030101E+04  0.25500000920E-02 0.  1.
       -2   -1    0    0    0  501  0.00000000000E+00  0.00000000000E+00 -0.12199485465E+04  0.12199485465E+04  0.25500000920E-02 0. -1.
    10030    2    1    2    0    0  0.00000000000E+00  0.00000000000E+00  0.15747544636E+04  0.40146515566E+04  0.36929088129E+04 0.  0.
        4    1    3    3  502    0  0.36701799499E+03  0.29410417552E+03 -0.11537390887E+04  0.12459193282E+04  0.12699999809E+01 0. -1.
       -4    1    3    3    0  502 -0.36701799499E+03 -0.29410417552E+03  0.27284935523E+04  0.27687322284E+04  0.12699999809E+01 0.  1.
</event>
<event>
 5   0  0.9341000E-08  0.3702256E+04  0.7818609E-02  0.8067462E-01
        1   -1    0    0  501    0  0.00000000000E+00  0.00000000000E+00  0.12634548818E+04  0.12634548818E+04  0.50400001928E-02 0.  1.
       -1   -1    0    0    0  501  0.00000000000E+00  0.00000000000E+00 -0.27121462163E+04  0.27121462163E+04  0.50400001928E-02 0. -1.
    10030    2    1    2    0    0  0.00000000000E+00  0.00000000000E+00 -0.14486913345E+04  0.39756010981E+04  0.37022557324E+04 0.  0.
        1    1    3    3  502    0  0.52375253767E+03 -0.14001673783E+04  0.44799623469E+03  0.15606043811E+04  0.50400001928E-02 0.  1.
       -1    1    3    3    0  502 -0.52375253767E+03  0.14001673783E+04 -0.18966875692E+04  0.24149967170E+04  0.50400001928E-02 0. -1.
</event>
<event>
 5   0  0.9341000E-08  0.3705111E+04  0.7818609E-02  0.8066830E-01
       -1   -1    0    0    0  501  0.00000000000E+00  0.00000000000E+00  0.14962389183E+04  0.14962389183E+04  0.50400001928E-02 0. -1.
        1   -1    0    0  501    0  0.00000000000E+00  0.00000000000E+00 -0.22937255775E+04  0.22937255775E+04  0.50400001928E-02 0.  1.
    10030    2    1    2    0    0  0.00000000000E+00  0.00000000000E+00 -0.79748665915E+03  0.37899644958E+04  0.37051107822E+04 0.  0.
        1    1    3    3  502    0  0.22630427543E+03 -0.70758643409E+03  0.13371994744E+04  0.15297040959E+04  0.50400001928E-02 0. -1.
       -1    1    3    3    0  502 -0.22630427543E+03  0.70758643409E+03 -0.21346861335E+04  0.22602603999E+04  0.50400001928E-02 0.  1.
</event>
<event>
 5   0  0.9418945E-08  0.3705630E+04  0.7818609E-02  0.8066715E-01
        1   -1    0    0  501    0  0.00000000000E+00  0.00000000000E+00  0.22391369250E+04  0.22391369250E+04  0.50400001928E-02 0.  1.
       -1   -1    0    0    0  501  0.00000000000E+00  0.00000000000E+00 -0.15331459843E+04  0.15331459843E+04  0.50400001928E-02 0. -1.
    10030    2    1    2    0    0  0.00000000000E+00  0.00000000000E+00  0.70599094068E+03  0.37722829093E+04  0.37056301946E+04 0.  0.
        5    1    3    3  502    0  0.58366256758E+03  0.58690614328E+03 -0.13344635241E+04  0.15703298383E+04  0.46999998093E+01 0. -1.
       -5    1    3    3    0  502 -0.58366256758E+03 -0.58690614328E+03  0.20404544648E+04  0.22019530710E+04  0.46999998093E+01 0.  1.
</event>
<event>
 5   0  0.2996969E-07  0.3696345E+04  0.7818609E-02  0.8068772E-01
       -2   -1    0    0    0  501  0.00000000000E+00  0.00000000000E+00  0.22934054093E+04  0.22934054093E+04  0.25500000920E-02 0.  1.
        2   -1    0    0  501    0  0.00000000000E+00  0.00000000000E+00 -0.14893750799E+04  0.14893750799E+04  0.25500000920E-02 0. -1.
    10030    2    1    2    0    0  0.00000000000E+00  0.00000000000E+00  0.80403032937E+03  0.37827804892E+04  0.36963446077E+04 0.  0.
        1    1    3    3  502    0 -0.18507501457E+03 -0.16148678358E+04  0.13021802670E+04  0.20827204172E+04  0.50400001928E-02 0.  1.
       -1    1    3    3    0  502  0.18507501457E+03  0.16148678358E+04 -0.49814993764E+03  0.17000600721E+04  0.50400001928E-02 0. -1.
</event>
<event>
 5   0  0.2897133E-07  0.3702706E+04  0.7818609E-02  0.8067362E-01
       -2   -1    0    0    0  501  0.00000000000E+00  0.00000000000E+00  0.32887844071E+04  0.32887844071E+04  0.25500000920E-02 0.  1.
        2   -1    0    0  501    0  0.00000000000E+00  0.00000000000E+00 -0.10421810143E+04  0.10421810143E+04  0.25500000920E-02 0. -1.
    10030    2    1    2    0    0  0.00000000000E+00  0.00000000000E+00  0.22466033928E+04  0.43309654214E+04  0.37027063989E+04 0.  0.
        4    1    3    3  502    0  0.11263836589E+04 -0.14355142547E+04  0.75701252382E+03  0.19754773844E+04  0.12699999809E+01 0.  1.
       -4    1    3    3    0  502 -0.11263836589E+04  0.14355142547E+04  0.14895908690E+04  0.23554880369E+04  0.12699999809E+01 0. -1.
</event>
<event>
 5   0  0.9341000E-08  0.3676209E+04  0.7818609E-02  0.8073255E-01
       -1   -1    0    0    0  501  0.00000000000E+00  0.00000000000E+00  0.20417603224E+04  0.20417603224E+04  0.50400001928E-02 0.  1.
        1   -1    0    0  501    0  0.00000000000E+00  0.00000000000E+00 -0.16547621167E+04  0.16547621167E+04  0.50400001928E-02 0. -1.
    10030    2    1    2    0    0  0.00000000000E+00  0.00000000000E+00  0.38699820570E+03  0.36965224391E+04  0.36762087171E+04 0.  0.
        4    1    3    3  502    0 -0.11336099687E+04  0.21825559812E+03 -0.12447608865E+04  0.16976861738E+04  0.12699999809E+01 0. -1.
       -4    1    3    3    0  502  0.11336099687E+04 -0.21825559812E+03  0.16317590922E+04  0.19988362653E+04  0.12699999809E+01 0.  1.
</event>
<event>
 5   0  0.9341000E-08  0.3657257E+04  0.7818609E-02  0.8077501E-01
        3   -1    0    0  501    0  0.00000000000E+00  0.00000000000E+00  0.26671147375E+04  0.26671147395E+04  0.10100000352E+00 0. -1.
       -3   -1    0    0    0  501  0.00000000000E+00  0.00000000000E+00 -0.12537448399E+04  0.12537448439E+04  0.10100000352E+00 0.  1.
    10030    2    1    2    0    0  0.00000000000E+00  0.00000000000E+00  0.14133698977E+04  0.39208595834E+04  0.36572565408E+04 0.  0.
        4    1    3    3  502    0  0.12505509807E+04  0.12663865064E+04  0.25658225085E+03  0.17981792467E+04  0.12699999809E+01 0.  1.
       -4    1    3    3    0  502 -0.12505509807E+04 -0.12663865064E+04  0.11567876468E+04  0.21226803367E+04  0.12699999809E+01 0. -1.
</event>
<event>
 5   0  0.2996969E-07  0.3680481E+04  0.7818609E-02  0.8072301E-01
        2   -1    0    0  501    0  0.00000000000E+00  0.00000000000E+00  0.21813058566E+04  0.21813058566E+04  0.25500000920E-02 0. -1.
       -2   -1    0    0    0  501  0.00000000000E+00  0.00000000000E+00 -0.15525036844E+04  0.15525036844E+04  0.25500000920E-02 0.  1.
    10030    2    1    2    0    0  0.00000000000E+00  0.00000000000E+00  0.62880217213E+03  0.37338095410E+04  0.36804811529E+04 0.  0.
        1    1    3    3  502    0  0.14173308705E+04  0.72715378884E+03  0.12491120821E+04  0.20243172732E+04  0.50400001928E-02 0. -1.
       -1    1    3    3    0  502 -0.14173308705E+04 -0.72715378884E+03 -0.62030990993E+03  0.17094922678E+04  0.50400001928E-02 0.  1.
</event>
<event>
 5   0  0.9341000E-08  0.3686481E+04  0.7818609E-02  0.8070965E-01
       -1   -1    0    0    0  501  0.00000000000E+00  0.00000000000E+00  0.15166937894E+04  0.15166937894E+04  0.50400001928E-02 0. -1.
        1   -1    0    0  501    0  0.00000000000E+00  0.00000000000E+00 -0.22400927039E+04  0.22400927039E+04  0.50400001928E-02 0.  1.
    10030    2    1    2    0    0  0.00000000000E+00  0.00000000000E+00 -0.72339891451E+03  0.37567864933E+04  0.36864805393E+04 0.  0.
        3    1    3    3  502    0 -0.10965493062E+04  0.11684305528E+04  0.56665398896E+03  0.16996314574E+04  0.10100000352E+00 0.  1.
       -3    1    3    3    0  502  0.10965493062E+04 -0.11684305528E+04 -0.12900529035E+04  0.20571550359E+04  0.10100000352E+00 0. -1.
</event>
<event>
 5   0  0.3008879E-07  0.3582357E+04  0.7818609E-02  0.8094545E-01
       -2   -1    0    0    0  501  0.00000000000E+00  0.00000000000E+00  0.15873235894E+04  0.15873235894E+04  0.25500000920E-02 0.  1.
        2   -1    0    0  501    0  0.00000000000E+00  0.00000000000E+00 -0.20212140273E+04  0.20212140273E+04  0.25500000920E-02 0. -1.
    10030    2    1    2    0    0  0.00000000000E+00  0.00000000000E+00 -0.43389043794E+03  0.36085376167E+04  0.35823571596E+04 0.  0.
        2    1    3    3  502    0  0.14278473014E+04  0.50431179776E+02 -0.13051315554E+04  0.19351122957E+04  0.25500000920E-02 0. -1.
       -2    1    3    3    0  502 -0.14278473014E+04 -0.50431179776E+02  0.87124111750E+03  0.16734253210E+04  0.25500000920E-02 0.  1.
</event>
<event>
 5   0  0.3008879E-07  0.3719856E+04  0.7818609E-02  0.8063576E-01
        2   -1    0    0  501    0  0.00000000000E+00  0.00000000000E+00  0.21255993585E+04  0.21255993585E+04  0.25500000920E-02 0.  1.
       -2   -1    0    0    0  501  0.00000000000E+00  0.00000000000E+00 -0.16274616818E+04  0.16274616818E+04  0.25500000920E-02 0. -1.
    10030    2    1    2    0    0  0.00000000000E+00  0.00000000000E+00  0.49813767664E+03  0.37530610403E+04  0.37198556460E+04 0.  0.
        2    1    3    3  502    0  0.13998497345E+04  0.90661992056E+02 -0.98311617013E+03  0.17129846117E+04  0.25500000920E-02 0. -1.
       -2    1    3    3    0  502 -0.13998497345E+04 -0.90661992056E+02  0.14812538468E+04  0.20400764286E+04  0.25500000920E-02 0.  1.
</event>
<event>
 5   0  0.2897133E-07  0.3719793E+04  0.7818609E-02  0.8063590E-01
        2   -1    0    0  501    0  0.00000000000E+00  0.00000000000E+00  0.16344147019E+04  0.16344147019E+04  0.25500000920E-02 0. -1.
       -2   -1    0    0    0  501  0.00000000000E+00  0.00000000000E+00 -0.21164852011E+04  0.21164852011E+04  0.25500000920E-02 0.  1.
    10030    2    1    2    0    0  0.00000000000E+00  0.00000000000E+00 -0.48207049924E+03  0.37508999031E+04  0.37197927518E+04 0.  0.
        4    1    3    3  502    0  0.32448722864E+03 -0.13772411725E+04 -0.14582453264E+04  0.20318873624E+04  0.12699999809E+01 0.  1.
       -4    1    3    3    0  502 -0.32448722864E+03  0.13772411725E+04  0.97617482713E+03  0.17190125406E+04  0.12699999809E+01 0. -1.
</event>
<event>
 5   0  0.2913025E-07  0.3690988E+04  0.7818609E-02  0.8069962E-01
       -2   -1    0    0    0  501  0.00000000000E+00  0.00000000000E+00  0.16589018713E+04  0.16589018713E+04  0.25500000920E-02 0.  1.
        2   -1    0    0  501    0  0.00000000000E+00  0.00000000000E+00 -0.20530741438E+04  0.20530741438E+04  0.25500000920E-02 0. -1.
    10030    2    1    2    0    0  0.00000000000E+00  0.00000000000E+00 -0.39417227252E+03  0.37119760151E+04  0.36909882357E+04 0.  0.
        5    1    3    3  502    0 -0.46451364863E+03 -0.93468737708E+03 -0.17277171178E+04  0.20185246969E+04  0.46999998093E+01 0. -1.
       -5    1    3    3    0  502  0.46451364863E+03  0.93468737708E+03  0.13335448453E+04  0.16934513182E+04  0.46999998093E+01 0.  1.
</event>
<event>
 5   0  0.2996969E-07  0.3717807E+04  0.7818609E-02  0.8064027E-01
       -2   -1    0    0    0  501  0.00000000000E+00  0.00000000000E+00  0.18507800765E+04  0.18507800765E+04  0.25500000920E-02 0.  1.
        2   -1    0    0  501    0  0.00000000000E+00  0.00000000000E+00 -0.18670630136E+04  0.18670630136E+04  0.25500000920E-02 0. -1.
    10030    2    1    2    0    0  0.00000000000E+00  0.00000000000E+00 -0.16282937045E+02  0.37178430901E+04  0.37178074329E+04 0.  0.
        1    1    3    3  502    0 -0.43657585822E+03 -0.57378146920E+03 -0.17215461741E+04  0.18664256974E+04  0.50400001928E-02 0. -1.
       -1    1    3    3    0  502  0.43657585822E+03  0.57378146920E+03  0.17052632370E+04  0.18514173927E+04  0.50400001928E-02 0.  1.
</event>
<event>
 5   0  0.2913025E-07  0.3692901E+04  0.7818609E-02  0.8069537E-01
       -2   -1    0    0    0  501  0.00000000000E+00  0.00000000000E+00  0.17456056225E+04  0.17456056225E+04  0.25500000920E-02 0.  1.
        2   -1    0    0  501    0  0.00000000000E+00  0.00000000000E+00 -0.19531217313E+04  0.19531217313E+04  0.25500000920E-02 0. -1.
    10030    2    1    2    0    0  0.00000000000E+00  0.00000000000E+00 -0.20751610878E+03  0.36987273539E+04  0.36929014478E+04 0.  0.
        5    1    3    3  502    0  0.10140258043E+04  0.14720719823E+04 -0.56721251409E+03  0.18753656654E+04  0.46999998093E+01 0.  1.
       -5    1    3    3    0  502 -0.10140258043E+04 -0.14720719823E+04  0.35969640530E+03  0.18233616884E+04  0.46999998093E+01 0. -1.
</event>
<event>
 5   0  0.9341000E-08  0.3718336E+04  0.7818609E-02  0.8063910E-01
        1   -1    0    0  501    0  0.00000000000E+00  0.00000000000E+00  0.11292987470E+04  0.11292987470E+04  0.50400001928E-02 0.  1.
       -1   -1    0    0    0  501  0.00000000000E+00  0.00000000000E+00 -0.30607544938E+04  0.30607544938E+04  0.50400001928E-02 0. -1.
    10030    2    1    2    0    0  0.00000000000E+00  0.00000000000E+00 -0.19314557468E+04  0.41900532408E+04  0.37183363025E+04 0.  0.
        4    1    3    3  502    0  0.16019000311E+04  0.92892538682E+03 -0.11526597623E+04  0.21811951367E+04  0.12699999809E+01 0. -1.
       -4    1    3    3    0  502 -0.16019000311E+04 -0.92892538682E+03 -0.77879598453E+03  0.20088581041E+04  0.12699999809E+01 0.  1.
</event>
<event>
 5   0  0.9418945E-08  0.3699435E+04  0.7818609E-02  0.8068087E-01
        1   -1    0    0  501    0  0.00000000000E+00  0.00000000000E+00  0.22928480300E+04  0.22928480300E+04  0.50400001928E-02 0.  1.
       -1   -1    0    0    0  501  0.00000000000E+00  0.00000000000E+00 -0.14922292939E+04  0.14922292939E+04  0.50400001928E-02 0. -1.
    10030    2    1    2    0    0  0.00000000000E+00  0.00000000000E+00  0.80061873603E+03  0.37850773239E+04  0.36994350903E+04 0.  0.
        5    1    3    3  502    0  0.13287948343E+04 -0.88002471364E+03  0.13608144715E+04  0.20957044935E+04  0.46999998093E+01 0.  1.
       -5    1    3    3    0  502 -0.13287948343E+04  0.88002471364E+03 -0.56019573543E+03  0.16893728304E+04  0.46999998093E+01 0. -1.
</event>
<event>
 5   0  0.2897133E-07  0.3688711E+04  0.7818609E-02  0.8070468E-01
        2   -1    0    0  501    0  0.00000000000E+00  0.00000000000E+00  0.12268178883E+04  0.12268178883E+04  0.25500000920E-02 0. -1.
       -2   -1    0    0    0  501  0.00000000000E+00  0.00000000000E+00 -0.27727403787E+04  0.27727403787E+04  0.25500000920E-02 0.  1.
    10030    2    1    2    0    0  0.00000000000E+00  0.00000000000E+00 -0.15459224905E+04  0.39995582670E+04  0.36887111549E+04 0.  0.
        4    1    3    3  502    0 -0.64840915759E+03  0.13125060111E+04  0.44342301086E+03  0.15296182675E+04  0.12699999809E+01 0. -1.
       -4    1    3    3    0  502  0.64840915759E+03 -0.13125060111E+04 -0.19893455013E+04  0.24699399995E+04  0.12699999809E+01 0.  1.
</event>
<event>
 5   0  0.3008879E-07  0.3691272E+04  0.7818609E-02  0.8069899E-01
        2   -1    0    0  501    0  0.00000000000E+00  0.00000000000E+00  0.13421133271E+04  0.13421133271E+04  0.25500000920E-02 0. -1.
       -2   -1    0    0    0  501  0.00000000000E+00  0.00000000000E+00 -0.25380665526E+04  0.25380665526E+04  0.25500000920E-02 0.  1.
    10030    2    1    2    0    0  0.00000000000E+00  0.00000000000E+00 -0.11959532255E+04  0.38801798796E+04  0.36912723796E+04 0.  0.
        2    1    3    3  502    0 -0.14245080466E+04  0.68333683043E+03 -0.16008458560E+04  0.22491953791E+04  0.25500000920E-02 0.  1.
       -2    1    3    3    0  502  0.14245080466E+04 -0.68333683043E+03  0.40489263046E+03  0.16309845005E+04  0.25500000920E-02 0. -1.
</event>
<event>
 5   0  0.9418945E-08  0.3668568E+04  0.7818609E-02  0.8074963E-01
        1   -1    0    0  501    0  0.00000000000E+00  0.00000000000E+00  0.19543722940E+04  0.19543722940E+04  0.50400001928E-02 0.  1.
       -1   -1    0    0    0  501  0.00000000000E+00  0.00000000000E+00 -0.17215745078E+04  0.17215745078E+04  0.50400001928E-02 0. -1.
    10030    2    1    2    0    0  0.00000000000E+00  0.00000000000E+00  0.23279778621E+03  0.36759468019E+04  0.36685678515E+04 0.  0.
        5    1    3    3  502    0  0.38946953703E+03 -0.12707890961E+03  0.19079380712E+04  0.19514316138E+04  0.46999998093E+01 0.  1.
       -5    1    3    3    0  502 -0.38946953703E+03  0.12707890961E+03 -0.16751402850E+04  0.17245151881E+04  0.46999998093E+01 0. -1.
</event>
<event>
 5   0  0.9341000E-08  0.3701820E+04  0.7818609E-02  0.8067559E-01
        1   -1    0    0  501    0  0.00000000000E+00  0.00000000000E+00  0.28770461124E+04  0.28770461124E+04  0.50400001928E-02 0.  1.
       -1   -1    0    0    0  501  0.00000000000E+00  0.00000000000E+00 -0.11907587269E+04  0.11907587269E+04  0.50400001928E-02 0. -1.
    10030    2    1    2    0    0  0.00000000000E+00  0.00000000000E+00  0.16862873855E+04  0.40678048393E+04  0.37018199665E+04 0.  0.
        4    1    3    3  502    0 -0.15179596268E+04  0.33227039941E+03 -0.26189241029E+03  0.15758154379E+04  0.12699999809E+01 0. -1.
       -4    1    3    3    0  502  0.15179596268E+04 -0.33227039941E+03  0.19481797958E+04  0.24919894014E+04  0.12699999809E+01 0.  1.
</event>
<event>
 5   0  0.2913025E-07  0.3379942E+04  0.7818609E-02  0.8142847E-01
       -2   -1    0    0    0  501  0.00000000000E+00  0.00000000000E+00  0.20751280116E+04  0.20751280116E+04  0.25500000920E-02 0. -1.
        2   -1    0    0  501    0  0.00000000000E+00  0.00000000000E+00 -0.13763017993E+04  0.13763017993E+04  0.25500000920E-02 0.  1.
    10030    2    1    2    0    0  0.00000000000E+00  0.00000000000E+00  0.69882621235E+03  0.34514298109E+04  0.33799422576E+04 0.  0.
        5    1    3    3  502    0 -0.22643745201E+03 -0.11663222902E+04  0.15766638746E+04  0.19742017799E+04  0.46999998093E+01 0. -1.
       -5    1    3    3    0  502  0.22643745201E+03  0.11663222902E+04 -0.87783766221E+03  0.14772280310E+04  0.46999998093E+01 0.  1.
</event>
<event>
 5   0  0.9646615E-08  0.3678498E+04  0.7818609E-02  0.8072744E-01
        1   -1    0    0  501    0  0.00000000000E+00  0.00000000000E+00  0.18601331952E+04  0.18601331953E+04  0.50400001928E-02 0. -1.
       -1   -1    0    0    0  501  0.00000000000E+00  0.00000000000E+00 -0.18185993087E+04  0.18185993087E+04  0.50400001928E-02 0.  1.
    10030    2    1    2    0    0  0.00000000000E+00  0.00000000000E+00  0.41533886533E+02  0.36787325040E+04  0.36784980321E+04 0.  0.
        2    1    3    3  502    0 -0.34453690767E+03  0.17398522322E+04 -0.46613724896E+03  0.18338689718E+04  0.25500000920E-02 0.  1.
       -2    1    3    3    0  502  0.34453690767E+03 -0.17398522322E+04  0.50767113549E+03  0.18448635322E+04  0.25500000920E-02 0. -1.
</event>
<event>
 5   0  0.9341000E-08  0.3713345E+04  0.7818609E-02  0.8065011E-01
        1   -1    0    0  501    0  0.00000000000E+00  0.00000000000E+00  0.15878485487E+04  0.15878485487E+04  0.50400001928E-02 0. -1.
       -1   -1    0    0    0  501  0.00000000000E+00  0.00000000000E+00 -0.21710091139E+04  0.21710091139E+04  0.50400001928E-02 0.  1.
    10030    2    1    2    0    0  0.00000000000E+00  0.00000000000E+00 -0.58316056524E+03  0.37588576626E+04  0.37133454839E+04 0.  0.
        3    1    3    3  502    0  0.11270211866E+04 -0.93754056040E+03 -0.14448751250E+04  0.20583544870E+04  0.10100000352E+00 0.  1.
       -3    1    3    3    0  502 -0.11270211866E+04  0.93754056040E+03  0.86171455973E+03  0.17005031755E+04  0.10100000352E+00 0. -1.
</event>
<event>
 5   0  0.9341000E-08  0.3708770E+04  0.7818609E-02  0.8066021E-01
       -1   -1    0    0    0  501  0.00000000000E+00  0.00000000000E+00  0.10510709315E+04  0.10510709315E+04  0.50400001928E-02 0. -1.
        1   -1    0    0  501    0  0.00000000000E+00  0.00000000000E+00 -0.32716571414E+04  0.32716571415E+04  0.50400001928E-02 0.  1.
    10030    2    1    2    0    0  0.00000000000E+00  0.00000000000E+00 -0.22205862099E+04  0.43227280730E+04  0.37087699952E+04 0.  0.
        1    1    3    3  502    0  0.16591363902E+04 -0.52640697044E+03 -0.18556077977E+04  0.25442323319E+04  0.50400001928E-02 0.  1.
       -1    1    3    3    0  502 -0.16591363902E+04  0.52640697044E+03 -0.36497841226E+03  0.17784957411E+04  0.50400001928E-02 0. -1.
</event>
<event>
 5   0  0.2996969E-07  0.3775320E+04  0.7818609E-02  0.8051472E-01
        2   -1    0    0  501    0  0.00000000000E+00  0.00000000000E+00  0.24648938661E+04  0.24648938661E+04  0.25500000920E-02 0. -1.
       -2   -1    0    0    0  501  0.00000000000E+00  0.00000000000E+00 -0.14456041029E+04  0.14456041029E+04  0.25500000920E-02 0.  1.
    10030    2    1    2    0    0  0.00000000000E+00  0.00000000000E+00  0.10192897633E+04  0.39104979690E+04  0.37753202174E+04 0.  0.
        1    1    3    3  502    0  0.69749075488E+03 -0.10349184428E+04  0.19765852678E+04  0.23376139239E+04  0.50400001928E-02 0. -1.
       -1    1    3    3    0  502 -0.69749075488E+03  0.10349184428E+04 -0.95729550452E+03  0.15728840451E+04  0.50400001928E-02 0.  1.
</event>
<event>
 5   0  0.3032442E-07  0.3677639E+04  0.7818609E-02  0.8072935E-01
        2   -1    0    0  501    0  0.00000000000E+00  0.00000000000E+00  0.14935676696E+04  0.14935676696E+04  0.25500000920E-02 0.  1.
       -2   -1    0    0    0  501  0.00000000000E+00  0.00000000000E+00 -0.22638796866E+04  0.22638796866E+04  0.25500000920E-02 0. -1.
    10030    2    1    2    0    0  0.00000000000E+00  0.00000000000E+00 -0.77031201701E+03  0.37574473563E+04  0.36776391927E+04 0.  0.
        3    1    3    3  502    0 -0.10453978934E+04  0.11778361119E+04 -0.13550202866E+04  0.20775549690E+04  0.10100000352E+00 0. -1.
       -3    1    3    3    0  502  0.10453978934E+04 -0.11778361119E+04  0.58470826956E+03  0.16798923873E+04  0.10100000352E+00 0.  1.
</event>
<event>
 5   0  0.2913025E-07  0.3677460E+04  0.7818609E-02  0.8072975E-01
       -2   -1    0    0    0  501  0.00000000000E+00  0.00000000000E+00  0.10709812582E+04  0.10709812582E+04  0.25500000920E-02 0.  1.
        2   -1    0    0  501    0  0.00000000000E+00  0.00000000000E+00 -0.31568507995E+04  0.31568507995E+04  0.25500000920E-02 0. -1.
    10030    2    1    2    0    0  0.00000000000E+00  0.00000000000E+00 -0.20858695413E+04  0.42278320576E+04  0.36774600153E+04 0.  0.
        5    1    3    3  502    0  0.16430924574E+04  0.48636502901E+03 -0.18095113826E+04  0.24921190379E+04  0.46999998093E+01 0. -1.
       -5    1    3    3    0  502 -0.16430924574E+04 -0.48636502901E+03 -0.27635815869E+03  0.17357130198E+04  0.46999998093E+01 0.  1.
</event>
<event>
 5   0  0.2897133E-07  0.3669367E+04  0.7818609E-02  0.8074784E-01
       -2   -1    0    0    0  501  0.00000000000E+00  0.00000000000E+00  0.22671971129E+04  0.22671971129E+04  0.25500000920E-02 0. -1.
        2   -1    0    0  501    0  0.00000000000E+00  0.00000000000E+00 -0.14846809657E+04  0.14846809658E+04  0.25500000920E-02 0.  1.
    10030    2    1    2    0    0  0.00000000000E+00  0.00000000000E+00  0.78251614714E+03  0.37518780786E+04  0.36693674654E+04 0.  0.
        4    1    3    3  502    0 -0.14765899643E+04  0.10520094283E+04  0.10383022497E+03  0.18159912137E+04  0.12699999809E+01 0. -1.
       -4    1    3    3    0  502  0.14765899643E+04 -0.10520094283E+04  0.67868592217E+03  0.19358868649E+04  0.12699999809E+01 0.  1.
</event>
<event>
 5   0  0.2996969E-07  0.3695314E+04  0.7818609E-02  0.8069001E-01
       -2   -1    0    0    0  501  0.00000000000E+00  0.00000000000E+00  0.15818956088E+04  0.15818956088E+04  0.25500000920E-02 0.  1.
        2   -1    0    0  501    0  0.00000000000E+00  0.00000000000E+00 -0.21580668693E+04  0.21580668693E+04  0.25500000920E-02 0. -1.
    10030    2    1    2    0    0  0.00000000000E+00  0.00000000000E+00 -0.57617126057E+03  0.37399624781E+04  0.36953140619E+04 0.  0.
        1    1    3    3  502    0 -0.16717518786E+04 -0.27075691874E+03  0.45960485603E+03  0.17547935139E+04  0.50400001928E-02 0.  1.
       -1    1    3    3    0  502  0.16717518786E+04  0.27075691874E+03 -0.10357761166E+04  0.19851689642E+04  0.50400001928E-02 0. -1.
</event>
<event>
 5   0  0.9646615E-08  0.3625686E+04  0.7818609E-02  0.8084633E-01
       -1   -1    0    0    0  501  0.00000000000E+00  0.00000000000E+00  0.17792069538E+04  0.17792069538E+04  0.50400001928E-02 0. -1.
        1   -1    0    0  501    0  0.00000000000E+00  0.00000000000E+00 -0.18471146650E+04  0.18471146650E+04  0.50400001928E-02 0.  1.
    10030    2    1    2    0    0  0.00000000000E+00  0.00000000000E+00 -0.67907711163E+02  0.36263216188E+04  0.36256857318E+04 0.  0.
        2    1    3    3  502    0  0.15007464344E+04 -0.93464356070E+03  0.36686673900E+03  0.18056549089E+04  0.25500000920E-02 0. -1.
       -2    1    3    3    0  502 -0.15007464344E+04  0.93464356070E+03 -0.43477445016E+03  0.18206667099E+04  0.25500000920E-02 0.  1.
</event>
<event>
 5   0  0.9341000E-08  0.3666213E+04  0.7818609E-02  0.8075491E-01
       -1   -1    0    0    0  501  0.00000000000E+00  0.00000000000E+00  0.20978700963E+04  0.20978700963E+04  0.50400001928E-02 0.  1.
        1   -1    0    0  501    0  0.00000000000E+00  0.00000000000E+00 -0.16017577486E+04  0.16017577486E+04  0.50400001928E-02 0. -1.
    10030    2    1    2    0    0  0.00000000000E+00  0.00000000000E+00  0.49611234768E+03  0.36996278449E+04  0.36662131320E+04 0.  0.
        3    1    3    3  502    0  0.64685709240E+03 -0.17030792556E+04  0.42789779640E+02  0.18222881288E+04  0.10100000352E+00 0. -1.
       -3    1    3    3    0  502 -0.64685709240E+03  0.17030792556E+04  0.45332256804E+03  0.18773397161E+04  0.10100000352E+00 0.  1.
</event>
<event>
 5   0  0.3032442E-07  0.3708192E+04  0.7818609E-02  0.8066149E-01
       -2   -1    0    0    0  501  0.00000000000E+00  0.00000000000E+00  0.17398627471E+04  0.17398627471E+04  0.25500000920E-02 0. -1.
        2   -1    0    0  501    0  0.00000000000E+00  0.00000000000E+00 -0.19758293396E+04  0.19758293396E+04  0.25500000920E-02 0.  1.
    10030    2    1    2    0    0  0.00000000000E+00  0.00000000000E+00 -0.23596659250E+03  0.37156920866E+04  0.37081919381E+04 0.  0.
        3    1    3    3  502    0 -0.13268700014E+04 -0.12949111605E+04 -0.10083324779E+03  0.18567569223E+04  0.10100000352E+00 0.  1.
       -3    1    3    3    0  502  0.13268700014E+04  0.12949111605E+04 -0.13513334471E+03  0.18589351644E+04  0.10100000352E+00 0. -1.
</event>
<event>
 5   0  0.3032442E-07  0.3716897E+04  0.7818609E-02  0.8064227E-01
        2   -1    0    0  501    0  0.00000000000E+00  0.00000000000E+00  0.22834897618E+04  0.22834897618E+04  0.25500000920E-02 0. -1.
       -2   -1    0    0    0  501  0.00000000000E+00  0.00000000000E+00 -0.15125234210E+04  0.15125234210E+04  0.25500000920E-02 0.  1.
    10030    2    1    2    0    0  0.00000000000E+00  0.00000000000E+00  0.77096634081E+03  0.37960131828E+04  0.37168974946E+04 0.  0.
        3    1    3    3  502    0  0.13719438315E+04  0.14129821603E+03 -0.88667802926E+03  0.16396319710E+04  0.10100000352E+00 0.  1.
       -3    1    3    3    0  502 -0.13719438315E+04 -0.14129821603E+03  0.16576443701E+04  0.21563812118E+04  0.10100000352E+00 0. -1.
</event>
<event>
 5   0  0.9341000E-08  0.3697031E+04  0.7818609E-02  0.8068620E-01
       -1   -1    0    0    0  501  0.00000000000E+00  0.00000000000E+00  0.21483653902E+04  0.21483653902E+04  0.50400001928E-02 0.  1.
        1   -1    0    0  501    0  0.00000000000E+00  0.00000000000E+00 -0.15905156763E+04  0.15905156763E+04  0.50400001928E-02 0. -1.
    10030    2    1    2    0    0  0.00000000000E+00  0.00000000000E+00  0.55784971384E+03  0.37388810665E+04  0.36970306093E+04 0.  0.
        4    1    3    3  502    0 -0.14424460926E+03  0.49145005852E+03 -0.15173222923E+04  0.16014362987E+04  0.12699999809E+01 0. -1.
       -4    1    3    3    0  502  0.14424460926E+03 -0.49145005852E+03  0.20751720061E+04  0.21374447678E+04  0.12699999809E+01 0.  1.
</event>
<event>
 5   0  0.9341000E-08  0.3621579E+04  0.7818609E-02  0.8085567E-01
       -1   -1    0    0    0  501  0.00000000000E+00  0.00000000000E+00  0.18287533169E+04  0.18287533169E+04  0.50400001928E-02 0. -1.
        1   -1    0    0  501    0  0.00000000000E+00  0.00000000000E+00 -0.17930021384E+04  0.17930021384E+04  0.50400001928E-02 0.  1.
    10030    2    1    2    0    0  0.00000000000E+00  0.00000000000E+00  0.35751178492E+02  0.36217554552E+04  0.36215789969E+04 0.  0.
        1    1    3    3  502    0 -0.61045963234E+03 -0.51900429153E+03  0.16418180639E+04  0.18269080361E+04  0.50400001928E-02 0. -1.
       -1    1    3    3    0  502  0.61045963234E+03  0.51900429153E+03 -0.16060668855E+04  0.17948474191E+04  0.50400001928E-02 0.  1.
</event>
<event>
 5   0  0.2913025E-07  0.3615656E+04  0.7818609E-02  0.8086915E-01
       -2   -1    0    0    0  501  0.00000000000E+00  0.00000000000E+00  0.13357376599E+04  0.13357376599E+04  0.25500000920E-02 0.  1.
        2   -1    0    0  501    0  0.00000000000E+00  0.00000000000E+00 -0.24467697074E+04  0.24467697074E+04  0.25500000920E-02 0. -1.
    10030    2    1    2    0    0  0.00000000000E+00  0.00000000000E+00 -0.11110320475E+04  0.37825073673E+04  0.36156562023E+04 0.  0.
        5    1    3    3  502    0 -0.61918652816E+03 -0.16937632313E+04 -0.68782160414E+03  0.19301156674E+04  0.46999998093E+01 0. -1.
       -5    1    3    3    0  502  0.61918652816E+03  0.16937632313E+04 -0.42321044339E+03  0.18523916999E+04  0.46999998093E+01 0.  1.
</event>
<event>
 5   0  0.9341000E-08  0.3685727E+04  0.7818609E-02  0.8071132E-01
       -1   -1    0    0    0  501  0.00000000000E+00  0.00000000000E+00  0.22105687960E+04  0.22105687960E+04  0.50400001928E-02 0. -1.
        1   -1    0    0  501    0  0.00000000000E+00  0.00000000000E+00 -0.15363223439E+04  0.15363223439E+04  0.50400001928E-02 0.  1.
    10030    2    1    2    0    0  0.00000000000E+00  0.00000000000E+00  0.67424645206E+03  0.37468911399E+04  0.36857271923E+04 0.  0.
        1    1    3    3  502    0  0.12995192075E+04  0.27405028634E+03 -0.96169053644E+03  0.16397263242E+04  0.50400001928E-02 0.  1.
       -1    1    3    3    0  502 -0.12995192075E+04 -0.27405028634E+03  0.16359369885E+04  0.21071648157E+04  0.50400001928E-02 0. -1.
</event>
<event>
 5   0  0.9341000E-08  0.3699582E+04  0.7818609E-02  0.8068054E-01
       -1   -1    0    0    0  501  0.00000000000E+00  0.00000000000E+00  0.13981377468E+04  0.13981377468E+04  0.50400001928E-02 0. -1.
        1   -1    0    0  501    0  0.00000000000E+00  0.00000000000E+00 -0.24473462169E+04  0.24473462169E+04  0.50400001928E-02 0.  1.
    10030    2    1    2    0    0  0.00000000000E+00  0.00000000000E+00 -0.10492084701E+04  0.38454839637E+04  0.36995822064E+04 0.  0.
        1    1    3    3  502    0 -0.88808328502E+03 -0.50420520856E+03  0.10785614611E+04  0.14853314912E+04  0.50400001928E-02 0. -1.
       -1    1    3    3    0  502  0.88808328502E+03  0.50420520856E+03 -0.21277699311E+04  0.23601524725E+04  0.50400001928E-02 0.  1.
</event>
<event>
 5   0  0.2897133E-07  0.3687982E+04  0.7818609E-02  0.8070630E-01
        2   -1    0    0  501    0  0.00000000000E+00  0.00000000000E+00  0.20496318654E+04  0.20496318654E+04  0.25500000920E-02 0.  1.
       -2   -1    0    0    0  501  0.00000000000E+00  0.00000000000E+00 -0.16589821469E+04  0.16589821469E+04  0.25500000920E-02 0. -1.
    10030    2    1    2    0    0  0.00000000000E+00  0.00000000000E+00  0.39064971848E+03  0.37086140123E+04  0.36879819265E+04 0.  0.
        4    1    3    3  502    0  0.38071564836E+03 -0.35211308859E+03 -0.15841434337E+04  0.16668653405E+04  0.12699999809E+01 0. -1.
       -4    1    3    3    0  502 -0.38071564836E+03  0.35211308859E+03  0.19747931522E+04  0.20417486718E+04  0.12699999809E+01 0.  1.
</event>
<event>
 5   0  0.9341000E-08  0.3714231E+04  0.7818609E-02  0.8064815E-01
       -1   -1    0    0    0  501  0.00000000000E+00  0.00000000000E+00  0.22375619780E+04  0.22375619780E+04  0.50400001928E-02 0.  1.
        1   -1    0    0  501    0  0.00000000000E+00  0.00000000000E+00 -0.15413549514E+04  0.15413549514E+04  0.50400001928E-02 0. -1.
    10030    2    1    2    0    0  0.00000000000E+00  0.00000000000E+00  0.69620702666E+03  0.37789169294E+04  0.37142305981E+04 0.  0.
        3    1    3    3  502    0 -0.21232805951E+03 -0.18031608690E+04 -0.49086157364E+02  0.18162824080E+04  0.10100000352E+00 0. -1.
       -3    1    3    3    0  502  0.21232805951E+03  0.18031608690E+04  0.74529318402E+03  0.19626345215E+04  0.10100000352E+00 0.  1.
</event>
<event>
 5   0  0.9341000E-08  0.3711962E+04  0.7818609E-02  0.8065316E-01
        1   -1    0    0  501    0  0.00000000000E+00  0.00000000000E+00  0.29752033683E+04  0.29752033683E+04  0.50400001928E-02 0.  1.
       -1   -1    0    0    0  501  0.00000000000E+00  0.00000000000E+00 -0.11577919123E+04  0.11577919123E+04  0.50400001928E-02 0. -1.
    10030    2    1    2    0    0  0.00000000000E+00  0.00000000000E+00  0.18174114561E+04  0.41329952806E+04  0.37119624983E+04 0.  0.
        3    1    3    3  502    0  0.17384453256E+04 -0.46230543779E+03  0.39999323066E+03  0.18428003317E+04  0.10100000352E+00 0. -1.
       -3    1    3    3    0  502 -0.17384453256E+04  0.46230543779E+03  0.14174182254E+04  0.22901949489E+04  0.10100000352E+00 0.  1.
</event>
<event>
 5   0  0.9341000E-08  0.3714210E+04  0.7818609E-02  0.8064820E-01
       -1   -1    0    0    0  501  0.00000000000E+00  0.00000000000E+00  0.19071157313E+04  0.19071157313E+04  0.50400001928E-02 0. -1.
        1   -1    0    0  501    0  0.00000000000E+00  0.00000000000E+00 -0.18084058437E+04  0.18084058437E+04  0.50400001928E-02 0.  1.
    10030    2    1    2    0    0  0.00000000000E+00  0.00000000000E+00  0.98709887541E+02  0.37155215750E+04  0.37142101358E+04 0.  0.
        1    1    3    3  502    0 -0.67247753457E+03 -0.14976839825E+04 -0.81902753107E+03  0.18346905578E+04  0.50400001928E-02 0. -1.
       -1    1    3    3    0  502  0.67247753457E+03  0.14976839825E+04  0.91773741861E+03  0.18808310173E+04  0.50400001928E-02 0.  1.
</event>
<event>
 5   0  0.9418945E-08  0.3701468E+04  0.7818609E-02  0.8067636E-01
       -1   -1    0    0    0  501  0.00000000000E+00  0.00000000000E+00  0.15642631662E+04  0.15642631662E+04  0.50400001928E-02 0. -1.
        1   -1    0    0  501    0  0.00000000000E+00  0.00000000000E+00 -0.21896680930E+04  0.21896680930E+04  0.50400001928E-02 0.  1.
    10030    2    1    2    0    0  0.00000000000E+00  0.00000000000E+00 -0.62540492678E+03  0.37539312592E+04  0.37014684351E+04 0.  0.
        5    1    3    3  502    0 -0.19245836344E+03 -0.10313782709E+04  0.12335093186E+04  0.16193667554E+04  0.46999998093E+01 0. -1.
       -5    1    3    3    0  502  0.19245836344E+03  0.10313782709E+04 -0.18589142453E+04  0.21345645038E+04  0.46999998093E+01 0.  1.
</event>
<event>
 5   0  0.9418945E-08  0.3718442E+04  0.7818609E-02  0.8063887E-01
        1   -1    0    0  501    0  0.00000000000E+00  0.00000000000E+00  0.22113212176E+04  0.22113212176E+04  0.50400001928E-02 0. -1.
       -1   -1    0    0    0  501  0.00000000000E+00  0.00000000000E+00 -0.15631846895E+04  0.15631846895E+04  0.50400001928E-02 0.  1.
    10030    2    1    2    0    0  0.00000000000E+00  0.00000000000E+00  0.64813652813E+03  0.37745059072E+04  0.37184424003E+04 0.  0.
        5    1    3    3  502    0  0.17795179693E+02  0.16199222000E+04  0.12500816925E+04  0.20462626739E+04  0.46999998093E+01 0. -1.
       -5    1    3    3    0  502 -0.17795179693E+02 -0.16199222000E+04 -0.60194516441E+03  0.17282432333E+04  0.46999998093E+01 0.  1.
</event>
<event>
 5   0  0.9646615E-08  0.3708059E+04  0.7818609E-02  0.8066178E-01
       -1   -1    0    0    0  501  0.00000000000E+00  0.00000000000E+00  0.17309596948E+04  0.17309596948E+04  0.50400001928E-02 0. -1.
        1   -1    0    0  501    0  0.00000000000E+00  0.00000000000E+00 -0.19858491960E+04  0.19858491960E+04  0.50400001928E-02 0.  1.
    10030    2    1    2    0    0  0.00000000000E+00  0.00000000000E+00 -0.25488950126E+03  0.37168088908E+04  0.37080587472E+04 0.  0.
        2    1    3    3  502    0 -0.92270574832E+03  0.54333789797E+03 -0.16445628437E+04  0.19624446276E+04  0.25500000920E-02 0.  1.
       -2    1    3    3    0  502  0.92270574832E+03 -0.54333789797E+03  0.13896733424E+04  0.17543642632E+04  0.25500000920E-02 0. -1.
</event>
<event>
 5   0  0.9646615E-08  0.4088701E+04  0.7818609E-02  0.7986888E-01
        1   -1    0    0  501    0  0.00000000000E+00  0.00000000000E+00  0.22696314636E+04  0.22696314636E+04  0.50400001928E-02 0.  1.
       -1   -1    0    0    0  501  0.00000000000E+00  0.00000000000E+00 -0.18414304204E+04  0.18414304204E+04  0.50400001928E-02 0. -1.
    10030    2    1    2    0    0  0.00000000000E+00  0.00000000000E+00  0.42820104324E+03  0.41110618840E+04  0.40887007326E+04 0.  0.
        2    1    3    3  502    0  0.76887642733E+02 -0.18217391771E+04  0.11436690380E+04  0.21523531791E+04  0.25500000920E-02 0.  1.
       -2    1    3    3    0  502 -0.76887642733E+02  0.18217391771E+04 -0.71546799480E+03  0.19587087049E+04  0.25500000920E-02 0. -1.
</event>
<event>
 5   0  0.9646615E-08  0.3698068E+04  0.7818609E-02  0.8068390E-01
        1   -1    0    0  501    0  0.00000000000E+00  0.00000000000E+00  0.15205158581E+04  0.15205158581E+04  0.50400001928E-02 0.  1.
       -1   -1    0    0    0  501  0.00000000000E+00  0.00000000000E+00 -0.22485310121E+04  0.22485310121E+04  0.50400001928E-02 0. -1.
    10030    2    1    2    0    0  0.00000000000E+00  0.00000000000E+00 -0.72801515401E+03  0.37690468701E+04  0.36980681774E+04 0.  0.
        2    1    3    3  502    0  0.67841240979E+03 -0.23175963700E+03 -0.21011184365E+04  0.22200573442E+04  0.25500000920E-02 0. -1.
       -2    1    3    3    0  502 -0.67841240979E+03  0.23175963700E+03  0.13731032825E+04  0.15489895260E+04  0.25500000920E-02 0.  1.
</event>
<event>
 5   0  0.2913025E-07  0.3711032E+04  0.7818609E-02  0.8065521E-01
        2   -1    0    0  501    0  0.00000000000E+00  0.00000000000E+00  0.23516550362E+04  0.23516550362E+04  0.25500000920E-02 0.  1.
       -2   -1    0    0    0  501  0.00000000000E+00  0.00000000000E+00 -0.14640492570E+04  0.14640492570E+04  0.25500000920E-02 0. -1.
    10030    2    1    2    0    0  0.00000000000E+00  0.00000000000E+00  0.88760577921E+03  0.38157042932E+04  0.37110315592E+04 0.  0.
        5    1    3    3  502    0  0.67219679949E+03 -0.10882411621E+04  0.18258887578E+04  0.22293517466E+04  0.46999998093E+01 0.  1.
       -5    1    3    3    0  502 -0.67219679949E+03  0.10882411621E+04 -0.93828297863E+03  0.15863525466E+04  0.46999998093E+01 0. -1.
</event>
<event>
 5   0  0.9341000E-08  0.3696734E+04  0.7818609E-02  0.8068686E-01
       -1   -1    0    0    0  501  0.00000000000E+00  0.00000000000E+00  0.14998887898E+04  0.14998887898E+04  0.50400001928E-02 0.  1.
        1   -1    0    0  501    0  0.00000000000E+00  0.00000000000E+00 -0.22778094250E+04  0.22778094250E+04  0.50400001928E-02 0. -1.
    10030    2    1    2    0    0  0.00000000000E+00  0.00000000000E+00 -0.77792063517E+03  0.37776982148E+04  0.36967341380E+04 0.  0.
        3    1    3    3  502    0  0.91691015052E+02  0.17555273745E+04 -0.97258795235E+03  0.20090323392E+04  0.10100000352E+00 0. -1.
       -3    1    3    3    0  502 -0.91691015052E+02 -0.17555273745E+04  0.19466731718E+03  0.17686658756E+04  0.10100000352E+00 0.  1.
</event>
<event>
 5   0  0.2913025E-07  0.3691150E+04  0.7818609E-02  0.8069926E-01
       -2   -1    0    0    0  501  0.00000000000E+00  0.00000000000E+00  0.17864338356E+04  0.17864338356E+04  0.25500000920E-02 0. -1.
        2   -1    0    0  501    0  0.00000000000E+00  0.00000000000E+00 -0.19066737044E+04  0.19066737044E+04  0.25500000920E-02 0.  1.
    10030    2    1    2    0    0  0.00000000000E+00  0.00000000000E+00 -0.12023986876E+03  0.36931075400E+04  0.36911496415E+04 0.  0.
        5    1    3    3  502    0  0.73501841547E+03 -0.12030680109E+04 -0.12517594979E+04  0.18853510656E+04  0.46999998093E+01 0.  1.
       -5    1    3    3    0  502 -0.73501841547E+03  0.12030680109E+04  0.11315196292E+04  0.18077564745E+04  0.46999998093E+01 0. -1.
</event>
<event>
 5   0  0.9341000E-08  0.3717891E+04  0.7818609E-02  0.8064008E-01
       -1   -1    0    0    0  501  0.00000000000E+00  0.00000000000E+00  0.21037426884E+04  0.21037426884E+04  0.50400001928E-02 0. -1.
        1   -1    0    0  501    0  0.00000000000E+00  0.00000000000E+00 -0.16426335654E+04  0.16426335654E+04  0.50400001928E-02 0.  1.
    10030    2    1    2    0    0  0.00000000000E+00  0.00000000000E+00  0.46110912294E+03  0.37463762538E+04  0.37178909898E+04 0.  0.
        4    1    3    3  502    0  0.11289536407E+04 -0.27060319861E+03  0.16935440908E+04  0.20532548829E+04  0.12699999809E+01 0. -1.
       -4    1    3    3    0  502 -0.11289536407E+04  0.27060319861E+03 -0.12324349678E+04  0.16931213709E+04  0.12699999809E+01 0.  1.
</event>
<event>
 5   0  0.2897133E-07  0.3663786E+04  0.7818609E-02  0.8076035E-01
        2   -1    0    0  501    0  0.00000000000E+00  0.00000000000E+00  0.15815108217E+04  0.15815108217E+04  0.25500000920E-02 0. -1.
       -2   -1    0    0    0  501  0.00000000000E+00  0.00000000000E+00 -0.21219152210E+04  0.21219152210E+04  0.25500000920E-02 0.  1.
    10030    2    1    2    0    0  0.00000000000E+00  0.00000000000E+00 -0.54040439929E+03  0.37034260428E+04  0.36637859571E+04 0.  0.
        4    1    3    3  502    0  0.82201840325E+03 -0.16368053564E+04 -0.30191426420E+03  0.18563404499E+04  0.12699999809E+01 0. -1.
       -4    1    3    3    0  502 -0.82201840325E+03  0.16368053564E+04 -0.23849013508E+03  0.18470855929E+04  0.12699999809E+01 0.  1.
</event>
<event>
 5   0  0.2996969E-07  0.3706840E+04  0.7818609E-02  0.8066448E-01
       -2   -1    0    0    0  501  0.00000000000E+00  0.00000000000E+00  0.16955701491E+04  0.16955701491E+04  0.25500000920E-02 0. -1.
        2   -1    0    0  501    0  0.00000000000E+00  0.00000000000E+00 -0.20259644783E+04  0.20259644783E+04  0.25500000920E-02 0.  1.
    10030    2    1    2    0    0  0.00000000000E+00  0.00000000000E+00 -0.33039432927E+03  0.37215346274E+04  0.37068395663E+04 0.  0.
        1    1    3    3  502    0  0.14200104230E+04 -0.10439331086E+04  0.41060849470E+03  0.18096478311E+04  0.50400001928E-02 0. -1.
       -1    1    3    3    0  502 -0.14200104230E+04  0.10439331086E+04 -0.74100282396E+03  0.19118867963E+04  0.50400001928E-02 0.  1.
</event>
<event>
 5   0  0.9341000E-08  0.3712234E+04  0.7818609E-02  0.8065256E-01
       -1   -1    0    0    0  501  0.00000000000E+00  0.00000000000E+00  0.20246648190E+04  0.20246648190E+04  0.50400001928E-02 0. -1.
        1   -1    0    0  501    0  0.00000000000E+00  0.00000000000E+00 -0.17016000479E+04  0.17016000480E+04  0.50400001928E-02 0.  1.
    10030    2    1    2    0    0  0.00000000000E+00  0.00000000000E+00  0.32306477101E+03  0.37262648669E+04  0.37122336958E+04 0.  0.
        3    1    3    3  502    0  0.13812327523E+03  0.59079650761E+03  0.19223151317E+04  0.20157911668E+04  0.10100000352E+00 0. -1.
       -3    1    3    3    0  502 -0.13812327523E+03 -0.59079650761E+03 -0.15992503606E+04  0.17104737001E+04  0.10100000352E+00 0.  1.
</event>
<event>
 5   0  0.3032442E-07  0.3686434E+04  0.7818609E-02  0.8070975E-01
       -2   -1    0    0    0  501  0.00000000000E+00  0.00000000000E+00  0.12406899196E+04  0.12406899196E+04  0.25500000920E-02 0.  1.
        2   -1    0    0  501    0  0.00000000000E+00  0.00000000000E+00 -0.27383543832E+04  0.27383543832E+04  0.25500000920E-02 0. -1.
    10030    2    1    2    0    0  0.00000000000E+00  0.00000000000E+00 -0.14976644637E+04  0.39790443028E+04  0.36864338754E+04 0.  0.
        3    1    3    3  502    0 -0.78460209909E+03 -0.14382958518E+04 -0.16603471098E+04  0.23326053988E+04  0.10100000352E+00 0. -1.
       -3    1    3    3    0  502  0.78460209909E+03  0.14382958518E+04  0.16268264617E+03  0.16464389040E+04  0.10100000352E+00 0.  1.
</event>
<event>
 5   0  0.9341000E-08  0.3698680E+04  0.7818609E-02  0.8068254E-01
       -1   -1    0    0    0  501  0.00000000000E+00  0.00000000000E+00  0.20707588786E+04  0.20707588786E+04  0.50400001928E-02 0.  1.
        1   -1    0    0  501    0  0.00000000000E+00  0.00000000000E+00 -0.16515963422E+04  0.16515963422E+04  0.50400001928E-02 0. -1.
    10030    2    1    2    0    0  0.00000000000E+00  0.00000000000E+00  0.41916253640E+03  0.37223552208E+04  0.36986796506E+04 0.  0.
        1    1    3    3  502    0 -0.97794439704E+03  0.34112306226E+03  0.17514841670E+04  0.20348063727E+04  0.50400001928E-02 0.  1.
       -1    1    3    3    0  502  0.97794439704E+03 -0.34112306226E+03 -0.13323216306E+04  0.16875488481E+04  0.50400001928E-02 0. -1.
</event>
<event>
 5   0  0.3008879E-07  0.3472506E+04  0.7818609E-02  0.8120337E-01
       -2   -1    0    0    0  501  0.00000000000E+00  0.00000000000E+00  0.10938287181E+04  0.10938287181E+04  0.25500000920E-02 0.  1.
        2   -1    0    0  501    0  0.00000000000E+00  0.00000000000E+00 -0.27559838337E+04  0.27559838337E+04  0.25500000920E-02 0. -1.
    10030    2    1    2    0    0  0.00000000000E+00  0.00000000000E+00 -0.16621551156E+04  0.38498125518E+04  0.34725058755E+04 0.  0.
        2    1    3    3  502    0 -0.73928071839E+03 -0.60070940453E+03  0.77826346564E+03  0.12300738967E+04  0.25500000920E-02 0.  1.
       -2    1    3    3    0  502  0.73928071839E+03  0.60070940453E+03 -0.24404185813E+04  0.26197386551E+04  0.25500000920E-02 0. -1.
</event>
<event>
 5   0  0.9341000E-08  0.3724597E+04  0.7818609E-02  0.8062533E-01
       -1   -1    0    0    0  501  0.00000000000E+00  0.00000000000E+00  0.13501579758E+04  0.13501579758E+04  0.50400001928E-02 0.  1.
        1   -1    0    0  501    0  0.00000000000E+00  0.00000000000E+00 -0.25687040234E+04  0.25687040234E+04  0.50400001928E-02 0. -1.
    10030    2    1    2    0    0  0.00000000000E+00  0.00000000000E+00 -0.12185460476E+04  0.39188619992E+04  0.37245972800E+04 0.  0.
        4    1    3    3  502    0  0.17854712792E+04  0.52754391055E+03 -0.56287843431E+03  0.19450048872E+04  0.12699999809E+01 0. -1.
       -4    1    3    3    0  502 -0.17854712792E+04 -0.52754391055E+03 -0.65566761331E+03  0.19738571120E+04  0.12699999809E+01 0.  1.
</event>
<event>
 5   0  0.9341000E-08  0.3712284E+04  0.7818609E-02  0.8065245E-01
        1   -1    0    0  501    0  0.00000000000E+00  0.00000000000E+00  0.21827877980E+04  0.21827877980E+04  0.50400001928E-02 0.  1.
       -1   -1    0    0    0  501  0.00000000000E+00  0.00000000000E+00 -0.15783771610E+04  0.15783771610E+04  0.50400001928E-02 0. -1.
    10030    2    1    2    0    0  0.00000000000E+00  0.00000000000E+00  0.60441063698E+03  0.37611649589E+04  0.37122836139E+04 0.  0.
        1    1    3    3  502    0 -0.11792637704E+04 -0.14328915534E+04  0.34040003037E+03  0.18867202826E+04  0.50400001928E-02 0. -1.
       -1    1    3    3    0  502  0.11792637704E+04  0.14328915534E+04  0.26401060661E+03  0.18744446763E+04  0.50400001928E-02 0.  1.
</event>
<event>
 5   0  0.9646615E-08  0.3704297E+04  0.7818609E-02  0.8067010E-01
       -1   -1    0    0    0  501  0.00000000000E+00  0.00000000000E+00  0.25110227727E+04  0.25110227727E+04  0.50400001928E-02 0.  1.
        1   -1    0    0  501    0  0.00000000000E+00  0.00000000000E+00 -0.13661580025E+04  0.13661580025E+04  0.50400001928E-02 0. -1.
    10030    2    1    2    0    0  0.00000000000E+00  0.00000000000E+00  0.11448647702E+04  0.38771807753E+04  0.37042968863E+04 0.  0.
        2    1    3    3  502    0  0.11708490687E+04  0.10190066629E+04  0.16301358076E+04  0.22509120089E+04  0.25500000920E-02 0.  1.
       -2    1    3    3    0  502 -0.11708490687E+04 -0.10190066629E+04 -0.48527103744E+03  0.16262687663E+04  0.25500000920E-02 0. -1.
</event>
<event>
 5   0  0.3008879E-07  0.3693576E+04  0.7818609E-02  0.8069387E-01
        2   -1    0    0  501    0  0.00000000000E+00  0.00000000000E+00  0.13396751337E+04  0.13396751337E+04  0.25500000920E-02 0. -1.
       -2   -1    0    0    0  501  0.00000000000E+00  0.00000000000E+00 -0.25458603545E+04  0.25458603545E+04  0.25500000920E-02 0.  1.
    10030    2    1    2    0    0  0.00000000000E+00  0.00000000000E+00 -0.12061852208E+04  0.38855354882E+04  0.36935759425E+04 0.  0.
        2    1    3    3  502    0  0.63224414542E+03  0.10940522110E+04  0.81373057239E+03  0.15029438926E+04  0.25500000920E-02 0. -1.
       -2    1    3    3    0  502 -0.63224414542E+03 -0.10940522110E+04 -0.20199157932E+04  0.23825915956E+04  0.25500000920E-02 0.  1.
</event>
<event>
 5   0  0.2996969E-07  0.3690949E+04  0.7818609E-02  0.8069971E-01
       -2   -1    0    0    0  501  0.00000000000E+00  0.00000000000E+00  0.11636835374E+04  0.11636835374E+04  0.25500000920E-02 0.  1.
        2   -1    0    0  501    0  0.00000000000E+00  0.00000000000E+00 -0.29267200148E+04  0.29267200148E+04  0.25500000920E-02 0. -1.
    10030    2    1    2    0    0  0.00000000000E+00  0.00000000000E+00 -0.17630364774E+04  0.40904035522E+04  0.36909488752E+04 0.  0.
        1    1    3    3  502    0  0.12731986124E+04 -0.21930884638E+03 -0.23419579391E+04  0.26746771890E+04  0.50400001928E-02 0. -1.
       -1    1    3    3    0  502 -0.12731986124E+04  0.21930884638E+03  0.57892146171E+03  0.14157263632E+04  0.50400001928E-02 0.  1.
</event>
<event>
 5   0  0.9341000E-08  0.3693031E+04  0.7818609E-02  0.8069508E-01
        4   -1    0    0  501    0  0.00000000000E+00  0.00000000000E+00  0.14209446785E+04  0.14209452460E+04  0.12699999809E+01 0.  1.
       -4   -1    0    0    0  501  0.00000000000E+00  0.00000000000E+00 -0.23995426340E+04  0.23995429701E+04  0.12699999809E+01 0. -1.
    10030    2    1    2    0    0  0.00000000000E+00  0.00000000000E+00 -0.97859795551E+03  0.38204882161E+04  0.36930307677E+04 0.  0.
        2    1    3    3  502    0 -0.10243870137E+04  0.80390082242E+03 -0.18436790619E+04  0.22571614407E+04  0.25500000920E-02 0. -1.
       -2    1    3    3    0  502  0.10243870137E+04 -0.80390082242E+03  0.86508110640E+03  0.15633267754E+04  0.25500000920E-02 0.  1.
</event>
<event>
 5   0  0.2996969E-07  0.3714978E+04  0.7818609E-02  0.8064651E-01
       -2   -1    0    0    0  501  0.00000000000E+00  0.00000000000E+00  0.10246058932E+04  0.10246058932E+04  0.25500000920E-02 0. -1.
        2   -1    0    0  501    0  0.00000000000E+00  0.00000000000E+00 -0.33674073441E+04  0.33674073441E+04  0.25500000920E-02 0.  1.
    10030    2    1    2    0    0  0.00000000000E+00  0.00000000000E+00 -0.23428014509E+04  0.43920132373E+04  0.37149780132E+04 0.  0.
        1    1    3    3  502    0  0.56479851264E+03 -0.13250039407E+04  0.21522298897E+03  0.14563494559E+04  0.50400001928E-02 0.  1.
       -1    1    3    3    0  502 -0.56479851264E+03  0.13250039407E+04 -0.25580244398E+04  0.29356637814E+04  0.50400001928E-02 0. -1.
</event>
<event>
 5   0  0.9341000E-08  0.3709096E+04  0.7818609E-02  0.8065949E-01
        1   -1    0    0  501    0  0.00000000000E+00  0.00000000000E+00  0.23759806601E+04  0.23759806601E+04  0.50400001928E-02 0. -1.
       -1   -1    0    0    0  501  0.00000000000E+00  0.00000000000E+00 -0.14475488410E+04  0.14475488410E+04  0.50400001928E-02 0.  1.
    10030    2    1    2    0    0  0.00000000000E+00  0.00000000000E+00  0.92843181910E+03  0.38235295011E+04  0.37090958741E+04 0.  0.
        1    1    3    3  502    0  0.43697546247E+03 -0.14795304762E+04  0.15252377758E+04  0.21694027421E+04  0.50400001928E-02 0. -1.
       -1    1    3    3    0  502 -0.43697546247E+03  0.14795304762E+04 -0.59680595668E+03  0.16541267590E+04  0.50400001928E-02 0.  1.
</event>
<event>
 5   0  0.2913025E-07  0.3689874E+04  0.7818609E-02  0.8070210E-01
       -2   -1    0    0    0  501  0.00000000000E+00  0.00000000000E+00  0.12778093258E+04  0.12778093258E+04  0.25500000920E-02 0. -1.
        2   -1    0    0  501    0  0.00000000000E+00  0.00000000000E+00 -0.26637722605E+04  0.26637722605E+04  0.25500000920E-02 0.  1.
    10030    2    1    2    0    0  0.00000000000E+00  0.00000000000E+00 -0.13859629347E+04  0.39415815864E+04  0.36898742723E+04 0.  0.
        5    1    3    3  502    0  0.65652760625E+03 -0.82062963426E+03 -0.23127675544E+04  0.25403498470E+04  0.46999998093E+01 0.  1.
       -5    1    3    3    0  502 -0.65652760625E+03  0.82062963426E+03  0.92680461970E+03  0.14012317394E+04  0.46999998093E+01 0. -1.
</event>
<event>
 5   0  0.2897133E-07  0.3627839E+04  0.7818609E-02  0.8084144E-01
        2   -1    0    0  501    0  0.00000000000E+00  0.00000000000E+00  0.16253295780E+04  0.16253295780E+04  0.25500000920E-02 0.  1.
       -2   -1    0    0    0  501  0.00000000000E+00  0.00000000000E+00 -0.20243922377E+04  0.20243922377E+04  0.25500000920E-02 0. -1.
    10030    2    1    2    0    0  0.00000000000E+00  0.00000000000E+00 -0.39906265972E+03  0.36497218157E+04  0.36278393467E+04 0.  0.
        4    1    3    3  502    0 -0.16522549698E+04  0.60510647325E+03  0.24381108304E+03  0.17763855962E+04  0.12699999809E+01 0.  1.
       -4    1    3    3    0  502  0.16522549698E+04 -0.60510647325E+03 -0.64287374276E+03  0.18733362195E+04  0.12699999809E+01 0. -1.
</event>
<event>
 5   0  0.2897133E-07  0.3653017E+04  0.7818609E-02  0.8078454E-01
       -2   -1    0    0    0  501  0.00000000000E+00  0.00000000000E+00  0.25034434112E+04  0.25034434112E+04  0.25500000920E-02 0. -1.
        2   -1    0    0  501    0  0.00000000000E+00  0.00000000000E+00 -0.13326178498E+04  0.13326178498E+04  0.25500000920E-02 0.  1.
    10030    2    1    2    0    0  0.00000000000E+00  0.00000000000E+00  0.11708255614E+04  0.38360612609E+04  0.36530170411E+04 0.  0.
        4    1    3    3  502    0  0.89822625688E+03  0.15811104907E+04  0.40532323050E+03  0.18630644987E+04  0.12699999809E+01 0. -1.
       -4    1    3    3    0  502 -0.89822625688E+03 -0.15811104907E+04  0.76550233086E+03  0.19729967622E+04  0.12699999809E+01 0.  1.
</event>
<event>
 5   0  0.9646615E-08  0.3720131E+04  0.7818609E-02  0.8063515E-01
        1   -1    0    0  501    0  0.00000000000E+00  0.00000000000E+00  0.18609880552E+04  0.18609880552E+04  0.50400001928E-02 0. -1.
       -1   -1    0    0    0  501  0.00000000000E+00  0.00000000000E+00 -0.18591432366E+04  0.18591432366E+04  0.50400001928E-02 0.  1.
    10030    2    1    2    0    0  0.00000000000E+00  0.00000000000E+00  0.18448186229E+01  0.37201312918E+04  0.37201308343E+04 0.  0.
        2    1    3    3  502    0  0.16369450957E+04  0.70802271198E+03 -0.52724235446E+03  0.18598037282E+04  0.25500000920E-02 0. -1.
       -2    1    3    3    0  502 -0.16369450957E+04 -0.70802271198E+03  0.52908717309E+03  0.18603275636E+04  0.25500000920E-02 0.  1.
</event>
<event>
 5   0  0.9341000E-08  0.3689321E+04  0.7818609E-02  0.8070333E-01
       -1   -1    0    0    0  501  0.00000000000E+00  0.00000000000E+00  0.21985199102E+04  0.21985199102E+04  0.50400001928E-02 0.  1.
        1   -1    0    0  501    0  0.00000000000E+00  0.00000000000E+00 -0.15477557933E+04  0.15477557933E+04  0.50400001928E-02 0. -1.
    10030    2    1    2    0    0  0.00000000000E+00  0.00000000000E+00  0.65076411692E+03  0.37462757035E+04  0.36893207656E+04 0.  0.
        3    1    3    3  502    0 -0.17734899205E+04 -0.44432076935E+03  0.76476583979E+02  0.18299005772E+04  0.10100000352E+00 0. -1.
       -3    1    3    3    0  502  0.17734899205E+04  0.44432076935E+03  0.57428753294E+03  0.19163751264E+04  0.10100000352E+00 0.  1.
</event>
<event>
 5   0  0.9418945E-08  0.3541955E+04  0.7818609E-02  0.8103919E-01
        1   -1    0    0  501    0  0.00000000000E+00  0.00000000000E+00  0.17613792115E+04  0.17613792115E+04  0.50400001928E-02 0.  1.
       -1   -1    0    0    0  501  0.00000000000E+00  0.00000000000E+00 -0.17806281348E+04  0.17806281349E+04  0.50400001928E-02 0. -1.
    10030    2    1    2    0    0  0.00000000000E+00  0.00000000000E+00 -0.19248923315E+02  0.35420073464E+04  0.35419550422E+04 0.  0.
        5    1    3    3  502    0 -0.11030934591E+04  0.21551342059E+03  0.13590001751E+04  0.17635659273E+04  0.46999998093E+01 0.  1.
       -5    1    3    3    0  502  0.11030934591E+04 -0.21551342059E+03 -0.13782490984E+04  0.17784414191E+04  0.46999998093E+01 0. -1.
</event>
<event>
 5   0  0.2897133E-07  0.3706284E+04  0.7818609E-02  0.8066571E-01
       -2   -1    0    0    0  501  0.00000000000E+00  0.00000000000E+00  0.12230596550E+04  0.12230596550E+04  0.25500000920E-02 0.  1.
        2   -1    0    0  501    0  0.00000000000E+00  0.00000000000E+00 -0.28078238211E+04  0.28078238211E+04  0.25500000920E-02 0. -1.
    10030    2    1    2    0    0  0.00000000000E+00  0.00000000000E+00 -0.15847641661E+04  0.40308834761E+04  0.37062844111E+04 0.  0.
        4    1    3    3  502    0  0.11335206261E+04 -0.80076818191E+03  0.54318995097E+03  0.14903541950E+04  0.12699999809E+01 0.  1.
       -4    1    3    3    0  502 -0.11335206261E+04  0.80076818191E+03 -0.21279541170E+04  0.25405292811E+04  0.12699999809E+01 0. -1.
</event>
<event>
 5   0  0.2913025E-07  0.3708152E+04  0.7818609E-02  0.8066158E-01
       -2   -1    0    0    0  501  0.00000000000E+00  0.00000000000E+00  0.16113391482E+04  0.16113391482E+04  0.25500000920E-02 0.  1.
        2   -1    0    0  501    0  0.00000000000E+00  0.00000000000E+00 -0.21333795557E+04  0.21333795557E+04  0.25500000920E-02 0. -1.
    10030    2    1    2    0    0  0.00000000000E+00  0.00000000000E+00 -0.52204040750E+03  0.37447187039E+04  0.37081520983E+04 0.  0.
        5    1    3    3  502    0  0.14761807790E+04  0.10522907730E+04  0.13159420034E+03  0.18176261130E+04  0.46999998093E+01 0. -1.
       -5    1    3    3    0  502 -0.14761807790E+04 -0.10522907730E+04 -0.65363460784E+03  0.19270925909E+04  0.46999998093E+01 0.  1.
</event>
<event>
 5   0  0.2996969E-07  0.3693800E+04  0.7818609E-02  0.8069337E-01
       -2   -1    0    0    0  501  0.00000000000E+00  0.00000000000E+00  0.15163963320E+04  0.15163963320E+04  0.25500000920E-02 0.  1.
        2   -1    0    0  501    0  0.00000000000E+00  0.00000000000E+00 -0.22494376581E+04  0.22494376581E+04  0.25500000920E-02 0. -1.
    10030    2    1    2    0    0  0.00000000000E+00  0.00000000000E+00 -0.73304132611E+03  0.37658339902E+04  0.36937996772E+04 0.  0.
        1    1    3    3  502    0  0.80238693141E+03  0.40386181990E+03 -0.20117160485E+04  0.22031637745E+04  0.50400001928E-02 0. -1.
       -1    1    3    3    0  502 -0.80238693141E+03 -0.40386181990E+03  0.12786747224E+04  0.15626702157E+04  0.50400001928E-02 0.  1.
</event>
<event>
 5   0  0.2996969E-07  0.3708239E+04  0.7818609E-02  0.8066138E-01
        2   -1    0    0  501    0  0.00000000000E+00  0.00000000000E+00  0.17314092505E+04  0.17314092505E+04  0.25500000920E-02 0. -1.
       -2   -1    0    0    0  501  0.00000000000E+00  0.00000000000E+00 -0.19855270144E+04  0.19855270144E+04  0.25500000920E-02 0.  1.
    10030    2    1    2    0    0  0.00000000000E+00  0.00000000000E+00 -0.25411776390E+03  0.37169362648E+04  0.37082393880E+04 0.  0.
        1    1    3    3  502    0 -0.53190320357E+03  0.17179420119E+04 -0.57924223171E+03  0.18893827926E+04  0.50400001928E-02 0.  1.
       -1    1    3    3    0  502  0.53190320357E+03 -0.17179420119E+04  0.32512446781E+03  0.18275534722E+04  0.50400001928E-02 0. -1.
</event>
<event>
 5   0  0.2897133E-07  0.3698689E+04  0.7818609E-02  0.8068252E-01
       -2   -1    0    0    0  501  0.00000000000E+00  0.00000000000E+00  0.13500706619E+04  0.13500706619E+04  0.25500000920E-02 0.  1.
        2   -1    0    0  501    0  0.00000000000E+00  0.00000000000E+00 -0.25332566420E+04  0.25332566420E+04  0.25500000920E-02 0. -1.
    10030    2    1    2    0    0  0.00000000000E+00  0.00000000000E+00 -0.11831859801E+04  0.38833273039E+04  0.36986892118E+04 0.  0.
        4    1    3    3  502    0 -0.15253842941E+04  0.25821105868E+03 -0.16553870490E+04  0.22657842109E+04  0.12699999809E+01 0. -1.
       -4    1    3    3    0  502  0.15253842941E+04 -0.25821105868E+03  0.47220106888E+03  0.16175430930E+04  0.12699999809E+01 0.  1.
</event>
<event>
 5   0  0.9341000E-08  0.3654904E+04  0.7818609E-02  0.8078030E-01
        1   -1    0    0  501    0  0.00000000000E+00  0.00000000000E+00  0.18784261427E+04  0.18784261427E+04  0.50400001928E-02 0.  1.
       -1   -1    0    0    0  501  0.00000000000E+00  0.00000000000E+00 -0.17778611594E+04  0.17778611594E+04  0.50400001928E-02 0. -1.
    10030    2    1    2    0    0  0.00000000000E+00  0.00000000000E+00  0.10056498332E+03  0.36562873022E+04  0.36549040371E+04 0.  0.
        4    1    3    3  502    0  0.51889949159E+02  0.87780466597E+03  0.16528705850E+04  0.18722223111E+04  0.12699999809E+01 0.  1.
       -4    1    3    3    0  502 -0.51889949159E+02 -0.87780466597E+03 -0.15523056017E+04  0.17840649911E+04  0.12699999809E+01 0. -1.
</event>
<event>
 5   0  0.2897133E-07  0.3694526E+04  0.7818609E-02  0.8069176E-01
       -2   -1    0    0    0  501  0.00000000000E+00  0.00000000000E+00  0.11022314579E+04  0.11022314579E+04  0.25500000920E-02 0.  1.
        2   -1    0    0  501    0  0.00000000000E+00  0.00000000000E+00 -0.30958846601E+04  0.30958846601E+04  0.25500000920E-02 0. -1.
    10030    2    1    2    0    0  0.00000000000E+00  0.00000000000E+00 -0.19936532022E+04  0.41981161180E+04  0.36945264716E+04 0.  0.
        4    1    3    3  502    0 -0.75262743864E+03  0.17935946981E+03 -0.29028987773E+04  0.30042371419E+04  0.12699999809E+01 0. -1.
       -4    1    3    3    0  502  0.75262743864E+03 -0.17935946981E+03  0.90924557507E+03  0.11938789761E+04  0.12699999809E+01 0.  1.
</event>
<event>
 5   0  0.9341000E-08  0.3693202E+04  0.7818609E-02  0.8069470E-01
        1   -1    0    0  501    0  0.00000000000E+00  0.00000000000E+00  0.21289985927E+04  0.21289985927E+04  0.50400001928E-02 0.  1.
       -1   -1    0    0    0  501  0.00000000000E+00  0.00000000000E+00 -0.16016618416E+04  0.16016618416E+04  0.50400001928E-02 0. -1.
    10030    2    1    2    0    0  0.00000000000E+00  0.00000000000E+00  0.52733675113E+03  0.37306604343E+04  0.36932022998E+04 0.  0.
        3    1    3    3  502    0 -0.15643138746E+04  0.85519200954E+03  0.74969758034E+03  0.19340314743E+04  0.10100000352E+00 0.  1.
       -3    1    3    3    0  502  0.15643138746E+04 -0.85519200954E+03 -0.22236082921E+03  0.17966289600E+04  0.10100000352E+00 0. -1.
</event>
<event>
 5   0  0.9341000E-08  0.3707924E+04  0.7818609E-02  0.8066208E-01
       -1   -1    0    0    0  501  0.00000000000E+00  0.00000000000E+00  0.23511160613E+04  0.23511160613E+04  0.50400001928E-02 0. -1.
        1   -1    0    0  501    0  0.00000000000E+00  0.00000000000E+00 -0.14619335660E+04  0.14619335660E+04  0.50400001928E-02 0.  1.
    10030    2    1    2    0    0  0.00000000000E+00  0.00000000000E+00  0.88918249535E+03  0.38130496273E+04  0.37079242104E+04 0.  0.
        4    1    3    3  502    0  0.12699228170E+04  0.13431381114E+04  0.29753364112E+03  0.18722317773E+04  0.12699999809E+01 0. -1.
       -4    1    3    3    0  502 -0.12699228170E+04 -0.13431381114E+04  0.59164885424E+03  0.19408178500E+04  0.12699999809E+01 0.  1.
</event>
<event>
 5   0  0.9646615E-08  0.3674629E+04  0.7818609E-02  0.8073608E-01
        1   -1    0    0  501    0  0.00000000000E+00  0.00000000000E+00  0.18923557681E+04  0.18923557681E+04  0.50400001928E-02 0. -1.
       -1   -1    0    0    0  501  0.00000000000E+00  0.00000000000E+00 -0.17838744690E+04  0.17838744690E+04  0.50400001928E-02 0.  1.
    10030    2    1    2    0    0  0.00000000000E+00  0.00000000000E+00  0.10848129903E+03  0.36762302371E+04  0.36746293097E+04 0.  0.
        2    1    3    3  502    0  0.15182553337E+04 -0.99862492345E+03  0.32523528568E+03  0.18461118566E+04  0.25500000920E-02 0. -1.
       -2    1    3    3    0  502 -0.15182553337E+04  0.99862492345E+03 -0.21675398665E+03  0.18301183805E+04  0.25500000920E-02 0.  1.
</event>
<event>
 5   0  0.2996969E-07  0.3700616E+04  0.7818609E-02  0.8067825E-01
        2   -1    0    0  501    0  0.00000000000E+00  0.00000000000E+00  0.24719387385E+04  0.24719387385E+04  0.25500000920E-02 0. -1.
       -2   -1    0    0    0  501  0.00000000000E+00  0.00000000000E+00 -0.13850021062E+04  0.13850021062E+04  0.25500000920E-02 0.  1.
    10030    2    1    2    0    0  0.00000000000E+00  0.00000000000E+00  0.10869366323E+04  0.38569408447E+04  0.37006163590E+04 0.  0.
        1    1    3    3  502    0  0.71794013084E+03 -0.48625719511E+03 -0.11601305097E+04  0.14483738781E+04  0.50400001928E-02 0.  1.
       -1    1    3    3    0  502 -0.71794013084E+03  0.48625719511E+03  0.22470671421E+04  0.24085669665E+04  0.50400001928E-02 0. -1.
</event>
<event>
 5   0  0.9341000E-08  0.3668055E+04  0.7818609E-02  0.8075078E-01
       -1   -1    0    0    0  501  0.00000000000E+00  0.00000000000E+00  0.19649425036E+04  0.19649425037E+04  0.50400001928E-02 0. -1.
        1   -1    0    0  501    0  0.00000000000E+00  0.00000000000E+00 -0.17118351061E+04  0.17118351061E+04  0.50400001928E-02 0.  1.
    10030    2    1    2    0    0  0.00000000000E+00  0.00000000000E+00  0.25310739753E+03  0.36767776098E+04  0.36680553754E+04 0.  0.
        3    1    3    3  502    0 -0.29562260408E+03  0.26130399153E+03 -0.16687901856E+04  0.17147982954E+04  0.10100000352E+00 0.  1.
       -3    1    3    3    0  502  0.29562260408E+03 -0.26130399153E+03  0.19218975831E+04  0.19619793144E+04  0.10100000352E+00 0. -1.
</event>
<event>
 5   0  0.2996969E-07  0.3679879E+04  0.7818609E-02  0.8072436E-01
        2   -1    0    0  501    0  0.00000000000E+00  0.00000000000E+00  0.13447614690E+04  0.13447614690E+04  0.25500000920E-02 0.  1.
       -2   -1    0    0    0  501  0.00000000000E+00  0.00000000000E+00 -0.25174559971E+04  0.25174559971E+04  0.25500000920E-02 0. -1.
    10030    2    1    2    0    0  0.00000000000E+00  0.00000000000E+00 -0.11726945281E+04  0.38622174661E+04  0.36798792506E+04 0.  0.
        1    1    3    3  502    0  0.95975333653E+03 -0.79627231694E+03  0.83353599605E+03  0.14999861088E+04  0.50400001928E-02 0.  1.
       -1    1    3    3    0  502 -0.95975333653E+03  0.79627231694E+03 -0.20062305241E+04  0.23622313573E+04  0.50400001928E-02 0. -1.
</event>
<event>
 5   0  0.3008879E-07  0.3696577E+04  0.7818609E-02  0.8068721E-01
       -2   -1    0    0    0  501  0.00000000000E+00  0.00000000000E+00  0.14534291724E+04  0.14534291724E+04  0.25500000920E-02 0. -1.
        2   -1    0    0  501    0  0.00000000000E+00  0.00000000000E+00 -0.23504204710E+04  0.23504204710E+04  0.25500000920E-02 0.  1.
    10030    2    1    2    0    0  0.00000000000E+00  0.00000000000E+00 -0.89699129861E+03  0.38038496434E+04  0.36965766217E+04 0.  0.
        2    1    3    3  502    0  0.18433958491E+03  0.16937767426E+04  0.28875140346E+03  0.17280735255E+04  0.25500000920E-02 0. -1.
       -2    1    3    3    0  502 -0.18433958491E+03 -0.16937767426E+04 -0.11857427021E+04  0.20757761180E+04  0.25500000920E-02 0.  1.
</event>
<event>
 5   0  0.2897133E-07  0.3666887E+04  0.7818609E-02  0.8075340E-01
       -2   -1    0    0    0  501  0.00000000000E+00  0.00000000000E+00  0.16045207072E+04  0.16045207072E+04  0.25500000920E-02 0.  1.
        2   -1    0    0  501    0  0.00000000000E+00  0.00000000000E+00 -0.20950274044E+04  0.20950274044E+04  0.25500000920E-02 0. -1.
    10030    2    1    2    0    0  0.00000000000E+00  0.00000000000E+00 -0.49050669717E+03  0.36995481117E+04  0.36668868827E+04 0.  0.
        4    1    3    3  502    0  0.13979676335E+04 -0.82363709653E+03 -0.11065679403E+04  0.19639719424E+04  0.12699999809E+01 0. -1.
       -4    1    3    3    0  502 -0.13979676335E+04  0.82363709653E+03  0.61606124308E+03  0.17355761693E+04  0.12699999809E+01 0.  1.
</event>
<event>
 5   0  0.9341000E-08  0.3699378E+04  0.7818609E-02  0.8068100E-01
       -1   -1    0    0    0  501  0.00000000000E+00  0.00000000000E+00  0.33970676519E+04  0.33970676519E+04  0.50400001928E-02 0. -1.
        1   -1    0    0  501    0  0.00000000000E+00  0.00000000000E+00 -0.10071480416E+04  0.10071480416E+04  0.50400001928E-02 0.  1.
    10030    2    1    2    0    0  0.00000000000E+00  0.00000000000E+00  0.23899196103E+04  0.44042156935E+04  0.36993783439E+04 0.  0.
        4    1    3    3  502    0 -0.34727515687E+03 -0.18166777583E+04  0.12196559661E+04  0.22155090613E+04  0.12699999809E+01 0. -1.
       -4    1    3    3    0  502  0.34727515687E+03  0.18166777583E+04  0.11702636442E+04  0.21887066322E+04  0.12699999809E+01 0.  1.
</event>
<event>
 5   0  0.9341000E-08  0.3712352E+04  0.7818609E-02  0.8065230E-01
       -1   -1    0    0    0  501  0.00000000000E+00  0.00000000000E+00  0.17518473738E+04  0.17518473738E+04  0.50400001928E-02 0.  1.
        1   -1    0    0  501    0  0.00000000000E+00  0.00000000000E+00 -0.19667173188E+04  0.19667173188E+04  0.50400001928E-02 0. -1.
    10030    2    1    2    0    0  0.00000000000E+00  0.00000000000E+00 -0.21486994504E+03  0.37185646926E+04  0.37123515835E+04 0.  0.
        1    1    3    3  502    0 -0.19392083057E+03 -0.11781507609E+04 -0.15309904996E+04  0.19415397018E+04  0.50400001928E-02 0. -1.
       -1    1    3    3    0  502  0.19392083057E+03  0.11781507609E+04  0.13161205545E+04  0.17770249908E+04  0.50400001928E-02 0.  1.
</event>
<event>
 5   0  0.2897133E-07  0.3653119E+04  0.7818609E-02  0.8078431E-01
       -2   -1    0    0    0  501  0.00000000000E+00  0.00000000000E+00  0.12499382573E+04  0.12499382573E+04  0.25500000920E-02 0.  1.
        2   -1    0    0  501    0  0.00000000000E+00  0.00000000000E+00 -0.26691881164E+04  0.26691881164E+04  0.25500000920E-02 0. -1.
    10030    2    1    2    0    0  0.00000000000E+00  0.00000000000E+00 -0.14192498591E+04  0.39191263737E+04  0.36531194027E+04 0.  0.
        4    1    3    3  502    0 -0.11989479736E+04 -0.10147776024E+04 -0.17097458356E+04  0.23217412132E+04  0.12699999809E+01 0. -1.
       -4    1    3    3    0  502  0.11989479736E+04  0.10147776024E+04  0.29049597649E+03  0.15973851605E+04  0.12699999809E+01 0.  1.
</event>
<event>
 5   0  0.2913025E-07  0.3683296E+04  0.7818609E-02  0.8071674E-01
       -2   -1    0    0    0  501  0.00000000000E+00  0.00000000000E+00  0.21377276865E+04  0.21377276865E+04  0.25500000920E-02 0. -1.
        2   -1    0    0  501    0  0.00000000000E+00  0.00000000000E+00 -0.15865762278E+04  0.15865762278E+04  0.25500000920E-02 0.  1.
    10030    2    1    2    0    0  0.00000000000E+00  0.00000000000E+00  0.55115145873E+03  0.37243039143E+04  0.36832963111E+04 0.  0.
        5    1    3    3  502    0  0.13661691966E+04  0.11844251336E+04  0.62927688050E+03  0.19144954044E+04  0.46999998093E+01 0.  1.
       -5    1    3    3    0  502 -0.13661691966E+04 -0.11844251336E+04 -0.78125421777E+02  0.18098085099E+04  0.46999998093E+01 0. -1.
</event>
<event>
 5   0  0.9646615E-08  0.3702977E+04  0.7818609E-02  0.8067302E-01
        1   -1    0    0  501    0  0.00000000000E+00  0.00000000000E+00  0.21511869025E+04  0.21511869025E+04  0.50400001928E-02 0. -1.
       -1   -1    0    0    0  501  0.00000000000E+00  0.00000000000E+00 -0.15935431373E+04  0.15935431373E+04  0.50400001928E-02 0.  1.
    10030    2    1    2    0    0  0.00000000000E+00  0.00000000000E+00  0.55764376521E+03  0.37447300398E+04  0.37029767083E+04 0.  0.
        2    1    3    3  502    0 -0.22765753676E+03 -0.17121328457E+04 -0.39561805201E+03  0.17719312849E+04  0.25500000920E-02 0.  1.
       -2    1    3    3    0  502  0.22765753676E+03  0.17121328457E+04  0.95326181721E+03  0.19727987549E+04  0.25500000920E-02 0. -1.
</event>
<event>
 5   0  0.9341000E-08  0.3702843E+04  0.7818609E-02  0.8067332E-01
       -1   -1    0    0    0  501  0.00000000000E+00  0.00000000000E+00  0.18548004600E+04  0.18548004601E+04  0.50400001928E-02 0.  1.
        1   -1    0    0  501    0  0.00000000000E+00  0.00000000000E+00 -0.18480482293E+04  0.18480482293E+04  0.50400001928E-02 0. -1.
    10030    2    1    2    0    0  0.00000000000E+00  0.00000000000E+00  0.67522307337E+01  0.37028486894E+04  0.37028425329E+04 0.  0.
        3    1    3    3  502    0 -0.99643752078E+02 -0.12478610276E+03  0.18479008673E+04  0.18547878785E+04  0.10100000352E+00 0.  1.
       -3    1    3    3    0  502  0.99643752078E+02  0.12478610276E+03 -0.18411486365E+04  0.18480608109E+04  0.10100000352E+00 0. -1.
</event>
<event>
 5   0  0.3008879E-07  0.3666936E+04  0.7818609E-02  0.8075329E-01
       -2   -1    0    0    0  501  0.00000000000E+00  0.00000000000E+00  0.22839592392E+04  0.22839592392E+04  0.25500000920E-02 0.  1.
        2   -1    0    0  501    0  0.00000000000E+00  0.00000000000E+00 -0.14718326382E+04  0.14718326382E+04  0.25500000920E-02 0. -1.
    10030    2    1    2    0    0  0.00000000000E+00  0.00000000000E+00  0.81212660101E+03  0.37557918774E+04  0.36669364611E+04 0.  0.
        2    1    3    3  502    0  0.18303105903E+04 -0.53381793112E+02  0.50170305262E+03  0.18985764208E+04  0.25500000920E-02 0. -1.
       -2    1    3    3    0  502 -0.18303105903E+04  0.53381793112E+02  0.31042354839E+03  0.18572154565E+04  0.25500000920E-02 0.  1.
</event>
<event>
 5   0  0.2897133E-07  0.3603991E+04  0.7818609E-02  0.8089578E-01
        2   -1    0    0  501    0  0.00000000000E+00  0.00000000000E+00  0.13276342686E+04  0.13276342686E+04  0.25500000920E-02 0.  1.
       -2   -1    0    0    0  501  0.00000000000E+00  0.00000000000E+00 -0.24458453364E+04  0.24458453364E+04  0.25500000920E-02 0. -1.
    10030    2    1    2    0    0  0.00000000000E+00  0.00000000000E+00 -0.11182110678E+04  0.37734796050E+04  0.36039911677E+04 0.  0.
        4    1    3    3  502    0  0.29795552823E+03 -0.12468025352E+04 -0.18851128051E+04  0.22796811091E+04  0.12699999809E+01 0. -1.
       -4    1    3    3    0  502 -0.29795552823E+03  0.12468025352E+04  0.76690173734E+03  0.14937984958E+04  0.12699999809E+01 0.  1.
</event>
<event>
 5   0  0.9341000E-08  0.3687666E+04  0.7818609E-02  0.8070701E-01
        1   -1    0    0  501    0  0.00000000000E+00  0.00000000000E+00  0.22628751750E+04  0.22628751750E+04  0.50400001928E-02 0.  1.
       -1   -1    0    0    0  501  0.00000000000E+00  0.00000000000E+00 -0.15023899637E+04  0.15023899637E+04  0.50400001928E-02 0. -1.
    10030    2    1    2    0    0  0.00000000000E+00  0.00000000000E+00  0.76048521133E+03  0.37652651387E+04  0.36876664448E+04 0.  0.
        1    1    3    3  502    0 -0.23055066998E+03  0.15772499964E+03 -0.14806593492E+04  0.15067789802E+04  0.50400001928E-02 0. -1.
       -1    1    3    3    0  502  0.23055066998E+03 -0.15772499964E+03  0.22411445605E+04  0.22584861585E+04  0.50400001928E-02 0.  1.
</event>
<event>
 5   0  0.9341000E-08  0.3725739E+04  0.7818609E-02  0.8062282E-01
        1   -1    0    0  501    0  0.00000000000E+00  0.00000000000E+00  0.21325388633E+04  0.21325388633E+04  0.50400001928E-02 0. -1.
       -1   -1    0    0    0  501  0.00000000000E+00  0.00000000000E+00 -0.16273009954E+04  0.16273009954E+04  0.50400001928E-02 0.  1.
    10030    2    1    2    0    0  0.00000000000E+00  0.00000000000E+00  0.50523786789E+03  0.37598398587E+04  0.37257389146E+04 0.  0.
        1    1    3    3  502    0  0.58198404048E+03  0.17594844875E+04  0.44353701437E+03  0.19055750230E+04  0.50400001928E-02 0. -1.
       -1    1    3    3    0  502 -0.58198404048E+03 -0.17594844875E+04  0.61700853523E+02  0.18542648356E+04  0.50400001928E-02 0.  1.
</event>
<event>
 5   0  0.3032442E-07  0.3717633E+04  0.7818609E-02  0.8064065E-01
       -2   -1    0    0    0  501  0.00000000000E+00  0.00000000000E+00  0.16865999660E+04  0.16865999660E+04  0.25500000920E-02 0.  1.
        2   -1    0    0  501    0  0.00000000000E+00  0.00000000000E+00 -0.20486181893E+04  0.20486181893E+04  0.25500000920E-02 0. -1.
    10030    2    1    2    0    0  0.00000000000E+00  0.00000000000E+00 -0.36201822331E+03  0.37352181553E+04  0.37176333162E+04 0.  0.
        3    1    3    3  502    0 -0.16916558604E+04 -0.18419312875E+03  0.57057515364E+03  0.17947653537E+04  0.10100000352E+00 0. -1.
       -3    1    3    3    0  502  0.16916558604E+04  0.18419312875E+03 -0.93259337695E+03  0.19404528017E+04  0.10100000352E+00 0.  1.
</event>
<event>
 5   0  0.9341000E-08  0.3687907E+04  0.7818609E-02  0.8070647E-01
        1   -1    0    0  501    0  0.00000000000E+00  0.00000000000E+00  0.16135777603E+04  0.16135777603E+04  0.50400001928E-02 0.  1.
       -1   -1    0    0    0  501  0.00000000000E+00  0.00000000000E+00 -0.21072207290E+04  0.21072207290E+04  0.50400001928E-02 0. -1.
    10030    2    1    2    0    0  0.00000000000E+00  0.00000000000E+00 -0.49364296869E+03  0.37207984892E+04  0.36879069968E+04 0.  0.
        1    1    3    3  502    0 -0.64335907227E+03 -0.16662060908E+04 -0.70917810213E+03  0.19217406728E+04  0.50400001928E-02 0. -1.
       -1    1    3    3    0  502  0.64335907227E+03  0.16662060908E+04  0.21553513343E+03  0.17990578164E+04  0.50400001928E-02 0.  1.
</event>
<event>
 5   0  0.9341000E-08  0.3676662E+04  0.7818609E-02  0.8073154E-01
       -1   -1    0    0    0  501  0.00000000000E+00  0.00000000000E+00  0.18056404992E+04  0.18056404992E+04  0.50400001928E-02 0. -1.
        1   -1    0    0  501    0  0.00000000000E+00  0.00000000000E+00 -0.18716133418E+04  0.18716133418E+04  0.50400001928E-02 0.  1.
    10030    2    1    2    0    0  0.00000000000E+00  0.00000000000E+00 -0.65972842533E+02  0.36772538410E+04  0.36766619909E+04 0.  0.
        3    1    3    3  502    0 -0.50045714246E+03 -0.21428015874E+03 -0.17891413631E+04  0.18701337292E+04  0.10100000352E+00 0.  1.
       -3    1    3    3    0  502  0.50045714246E+03  0.21428015874E+03  0.17231685206E+04  0.18071201118E+04  0.10100000352E+00 0. -1.
</event>
<event>
 5   0  0.9341000E-08  0.3677152E+04  0.7818609E-02  0.8073044E-01
       -1   -1    0    0    0  501  0.00000000000E+00  0.00000000000E+00  0.12106681953E+04  0.12106681953E+04  0.50400001928E-02 0. -1.
        1   -1    0    0  501    0  0.00000000000E+00  0.00000000000E+00 -0.27921454083E+04  0.27921454083E+04  0.50400001928E-02 0.  1.
    10030    2    1    2    0    0  0.00000000000E+00  0.00000000000E+00 -0.15814772130E+04  0.40028136037E+04  0.36771519645E+04 0.  0.
        1    1    3    3  502    0  0.91412850209E+03 -0.11602320616E+04  0.40102337898E+03  0.15305518958E+04  0.50400001928E-02 0. -1.
       -1    1    3    3    0  502 -0.91412850209E+03  0.11602320616E+04 -0.19825005920E+04  0.24722617079E+04  0.50400001928E-02 0.  1.
</event>
<event>
 5   0  0.9341000E-08  0.3708333E+04  0.7818609E-02  0.8066118E-01
       -1   -1    0    0    0  501  0.00000000000E+00  0.00000000000E+00  0.19182139531E+04  0.19182139531E+04  0.50400001928E-02 0. -1.
        1   -1    0    0  501    0  0.00000000000E+00  0.00000000000E+00 -0.17922575516E+04  0.17922575516E+04  0.50400001928E-02 0.  1.
    10030    2    1    2    0    0  0.00000000000E+00  0.00000000000E+00  0.12595640147E+03  0.37104715047E+04  0.37083330180E+04 0.  0.
        3    1    3    3  502    0 -0.90782625361E+03  0.12079708105E+04 -0.10121606131E+04  0.18187388770E+04  0.10100000352E+00 0.  1.
       -3    1    3    3    0  502  0.90782625361E+03 -0.12079708105E+04  0.11381170146E+04  0.18917326277E+04  0.10100000352E+00 0. -1.
</event>
<event>
 5   0  0.2913025E-07  0.3640764E+04  0.7818609E-02  0.8081218E-01
       -2   -1    0    0    0  501  0.00000000000E+00  0.00000000000E+00  0.14129096146E+04  0.14129096146E+04  0.25500000920E-02 0. -1.
        2   -1    0    0  501    0  0.00000000000E+00  0.00000000000E+00 -0.23453656926E+04  0.23453656926E+04  0.25500000920E-02 0.  1.
    10030    2    1    2    0    0  0.00000000000E+00  0.00000000000E+00 -0.93245607804E+03  0.37582753072E+04  0.36407635116E+04 0.  0.
        5    1    3    3  502    0 -0.12945769037E+04 -0.12689394775E+04 -0.63781866350E+03  0.19217105648E+04  0.46999998093E+01 0.  1.
       -5    1    3    3    0  502  0.12945769037E+04  0.12689394775E+04 -0.29463741454E+03  0.18365647425E+04  0.46999998093E+01 0. -1.
</event>
<event>
 5   0  0.9341000E-08  0.3726359E+04  0.7818609E-02  0.8062145E-01
        1   -1    0    0  501    0  0.00000000000E+00  0.00000000000E+00  0.21891962308E+04  0.21891962308E+04  0.50400001928E-02 0. -1.
       -1   -1    0    0    0  501  0.00000000000E+00  0.00000000000E+00 -0.15857136666E+04  0.15857136666E+04  0.50400001928E-02 0.  1.
    10030    2    1    2    0    0  0.00000000000E+00  0.00000000000E+00  0.60348256417E+03  0.37749098975E+04  0.37263592860E+04 0.  0.
        4    1    3    3  502    0 -0.15958918524E+04  0.52268496246E+03 -0.51584677372E+03  0.17567498062E+04  0.12699999809E+01 0.  1.
       -4    1    3    3    0  502  0.15958918524E+04 -0.52268496246E+03  0.11193293379E+04  0.20181600913E+04  0.12699999809E+01 0. -1.
</event>
<event>
 5   0  0.9341000E-08  0.3235742E+04  0.7818609E-02  0.8179441E-01
       -1   -1    0    0    0  501  0.00000000000E+00  0.00000000000E+00  0.14536442991E+04  0.14536442991E+04  0.50400001928E-02 0. -1.
        1   -1    0    0  501    0  0.00000000000E+00  0.00000000000E+00 -0.18006514800E+04  0.18006514800E+04  0.50400001928E-02 0.  1.
    10030    2    1    2    0    0  0.00000000000E+00  0.00000000000E+00 -0.34700718097E+03  0.32542957791E+04  0.32357421149E+04 0.  0.
        1    1    3    3  502    0  0.12670535393E+03 -0.14486571765E+04 -0.88668521514E+03  0.17031948017E+04  0.50400001928E-02 0.  1.
       -1    1    3    3    0  502 -0.12670535393E+03  0.14486571765E+04  0.53967803417E+03  0.15511009774E+04  0.50400001928E-02 0. -1.
</event>
<event>
 5   0  0.9341000E-08  0.3693553E+04  0.7818609E-02  0.8069392E-01
       -1   -1    0    0    0  501  0.00000000000E+00  0.00000000000E+00  0.27680309169E+04  0.27680309169E+04  0.50400001928E-02 0. -1.
        1   -1    0    0  501    0  0.00000000000E+00  0.00000000000E+00 -0.12321337417E+04  0.12321337417E+04  0.50400001928E-02 0.  1.
    10030    2    1    2    0    0  0.00000000000E+00  0.00000000000E+00  0.15358971753E+04  0.40001646586E+04  0.36935534602E+04 0.  0.
        3    1    3    3  502    0 -0.15628834138E+04 -0.35473899191E+03 -0.22591234097E+03  0.16184809896E+04  0.10100000352E+00 0.  1.
       -3    1    3    3    0  502  0.15628834138E+04  0.35473899191E+03  0.17618095162E+04  0.23816836690E+04  0.10100000352E+00 0. -1.
</event>
<event>
 5   0  0.2913025E-07  0.3675021E+04  0.7818609E-02  0.8073520E-01
        2   -1    0    0  501    0  0.00000000000E+00  0.00000000000E+00  0.16458532357E+04  0.16458532357E+04  0.25500000920E-02 0. -1.
       -2   -1    0    0    0  501  0.00000000000E+00  0.00000000000E+00 -0.20514857632E+04  0.20514857632E+04  0.25500000920E-02 0.  1.
    10030    2    1    2    0    0  0.00000000000E+00  0.00000000000E+00 -0.40563252750E+03  0.36973389988E+04  0.36750208060E+04 0.  0.
        5    1    3    3  502    0  0.33060195717E+03 -0.73619170719E+02 -0.20198032056E+04  0.20480098915E+04  0.46999998093E+01 0.  1.
       -5    1    3    3    0  502 -0.33060195717E+03  0.73619170719E+02  0.16141706781E+04  0.16493291073E+04  0.46999998093E+01 0. -1.
</event>
<event>
 5   0  0.2897133E-07  0.3743864E+04  0.7818609E-02  0.8058310E-01
       -2   -1    0    0    0  501  0.00000000000E+00  0.00000000000E+00  0.18705901314E+04  0.18705901314E+04  0.25500000920E-02 0. -1.
        2   -1    0    0  501    0  0.00000000000E+00  0.00000000000E+00 -0.18732752521E+04  0.18732752521E+04  0.25500000920E-02 0.  1.
    10030    2    1    2    0    0  0.00000000000E+00  0.00000000000E+00 -0.26851206951E+01  0.37438653834E+04  0.37438644205E+04 0.  0.
        4    1    3    3  502    0 -0.13146925908E+04  0.49776087792E+02  0.13302862287E+04  0.18709776403E+04  0.12699999809E+01 0. -1.
       -4    1    3    3    0  502  0.13146925908E+04 -0.49776087792E+02 -0.13329713494E+04  0.18728877431E+04  0.12699999809E+01 0.  1.
</event>
<event>
 5   0  0.9341000E-08  0.3710573E+04  0.7818609E-02  0.8065623E-01
        3   -1    0    0  501    0  0.00000000000E+00  0.00000000000E+00  0.15074415346E+04  0.15074415380E+04  0.10100000352E+00 0. -1.
       -3   -1    0    0    0  501  0.00000000000E+00  0.00000000000E+00 -0.22833977565E+04  0.22833977587E+04  0.10100000352E+00 0.  1.
    10030    2    1    2    0    0  0.00000000000E+00  0.00000000000E+00 -0.77595622185E+03  0.37908392967E+04  0.37105733405E+04 0.  0.
        2    1    3    3  502    0 -0.10844522028E+04 -0.46651571838E+03 -0.18501665366E+04  0.21947185945E+04  0.25500000920E-02 0.  1.
       -2    1    3    3    0  502  0.10844522028E+04  0.46651571838E+03  0.10742103148E+04  0.15961207022E+04  0.25500000920E-02 0. -1.
</event>
<event>
 5   0  0.2897133E-07  0.3688121E+04  0.7818609E-02  0.8070600E-01
        2   -1    0    0  501    0  0.00000000000E+00  0.00000000000E+00  0.23010909551E+04  0.23010909551E+04  0.25500000920E-02 0. -1.
       -2   -1    0    0    0  501  0.00000000000E+00  0.00000000000E+00 -0.14778027882E+04  0.14778027882E+04  0.25500000920E-02 0.  1.
    10030    2    1    2    0    0  0.00000000000E+00  0.00000000000E+00  0.82328816691E+03  0.37788937432E+04  0.36881207297E+04 0.  0.
        4    1    3    3  502    0 -0.52433940842E+03  0.17587014811E+04  0.22666169153E+03  0.18491457082E+04  0.12699999809E+01 0.  1.
       -4    1    3    3    0  502  0.52433940842E+03 -0.17587014811E+04  0.59662647537E+03  0.19297480351E+04  0.12699999809E+01 0. -1.
</event>
<event>
 5   0  0.9418945E-08  0.3655529E+04  0.7818609E-02  0.8077889E-01
       -1   -1    0    0    0  501  0.00000000000E+00  0.00000000000E+00  0.21977537463E+04  0.21977537463E+04  0.50400001928E-02 0. -1.
        1   -1    0    0  501    0  0.00000000000E+00  0.00000000000E+00 -0.15200626835E+04  0.15200626835E+04  0.50400001928E-02 0.  1.
    10030    2    1    2    0    0  0.00000000000E+00  0.00000000000E+00  0.67769106284E+03  0.37178164298E+04  0.36555292133E+04 0.  0.
        5    1    3    3  502    0  0.11882996218E+04 -0.47693547263E+03  0.16653617170E+04  0.21007082555E+04  0.46999998093E+01 0. -1.
       -5    1    3    3    0  502 -0.11882996218E+04  0.47693547263E+03 -0.98767065421E+03  0.16171081743E+04  0.46999998093E+01 0.  1.
</event>
<event>
 5   0  0.3008879E-07  0.3673787E+04  0.7818609E-02  0.8073796E-01
       -2   -1    0    0    0  501  0.00000000000E+00  0.00000000000E+00  0.21585777265E+04  0.21585777265E+04  0.25500000920E-02 0.  1.
        2   -1    0    0  501    0  0.00000000000E+00  0.00000000000E+00 -0.15631490037E+04  0.15631490037E+04  0.25500000920E-02 0. -1.
    10030    2    1    2    0    0  0.00000000000E+00  0.00000000000E+00  0.59542872276E+03  0.37217267302E+04  0.36737874857E+04 0.  0.
        2    1    3    3  502    0 -0.13217540083E+04 -0.26841881214E+03  0.15610219240E+04  0.20629764333E+04  0.25500000920E-02 0.  1.
       -2    1    3    3    0  502  0.13217540083E+04  0.26841881214E+03 -0.96559320120E+03  0.16587502969E+04  0.25500000920E-02 0. -1.
</event>
<event>
 5   0  0.2996969E-07  0.3493178E+04  0.7818609E-02  0.8115409E-01
        2   -1    0    0  501    0  0.00000000000E+00  0.00000000000E+00  0.22389389640E+04  0.22389389640E+04  0.25500000920E-02 0.  1.
       -2   -1    0    0    0  501  0.00000000000E+00  0.00000000000E+00 -0.13625083261E+04  0.13625083261E+04  0.25500000920E-02 0. -1.
    10030    2    1    2    0    0  0.00000000000E+00  0.00000000000E+00  0.87643063786E+03  0.36014472901E+04  0.34931779113E+04 0.  0.
        1    1    3    3  502    0 -0.85374542889E+03 -0.87679535140E+03 -0.84657166398E+03  0.14880641545E+04  0.50400001928E-02 0. -1.
       -1    1    3    3    0  502  0.85374542889E+03  0.87679535140E+03  0.17230023018E+04  0.21133831356E+04  0.50400001928E-02 0.  1.
</event>
<event>
 5   0  0.9341000E-08  0.3705333E+04  0.7818609E-02  0.8066781E-01
       -1   -1    0    0    0  501  0.00000000000E+00  0.00000000000E+00  0.31064192673E+04  0.31064192673E+04  0.50400001928E-02 0.  1.
        1   -1    0    0  501    0  0.00000000000E+00  0.00000000000E+00 -0.11049289055E+04  0.11049289055E+04  0.50400001928E-02 0. -1.
    10030    2    1    2    0    0  0.00000000000E+00  0.00000000000E+00  0.20014903619E+04  0.42113481728E+04  0.37053326118E+04 0.  0.
        4    1    3    3  502    0 -0.12163357936E+04 -0.13140224079E+04  0.15413522180E+04  0.23626036325E+04  0.12699999809E+01 0.  1.
       -4    1    3    3    0  502  0.12163357936E+04  0.13140224079E+04  0.46013814382E+03  0.18487445403E+04  0.12699999809E+01 0. -1.
</event>
<event>
 5   0  0.2996969E-07  0.3694623E+04  0.7818609E-02  0.8069155E-01
       -2   -1    0    0    0  501  0.00000000000E+00  0.00000000000E+00  0.15763159665E+04  0.15763159665E+04  0.25500000920E-02 0. -1.
        2   -1    0    0  501    0  0.00000000000E+00  0.00000000000E+00 -0.21648954038E+04  0.21648954038E+04  0.25500000920E-02 0.  1.
    10030    2    1    2    0    0  0.00000000000E+00  0.00000000000E+00 -0.58857943731E+03  0.37412113702E+04  0.36946226821E+04 0.  0.
        1    1    3    3  502    0  0.80132633742E+03 -0.10122051900E+04  0.10436878856E+04  0.16601107338E+04  0.50400001928E-02 0. -1.
       -1    1    3    3    0  502 -0.80132633742E+03  0.10122051900E+04 -0.16322673229E+04  0.20811006365E+04  0.50400001928E-02 0.  1.
</event>
<event>
 5   0  0.9646615E-08  0.3324438E+04  0.7818609E-02  0.8156705E-01
       -1   -1    0    0    0  501  0.00000000000E+00  0.00000000000E+00  0.14398559799E+04  0.14398559799E+04  0.50400001928E-02 0. -1.
        1   -1    0    0  501    0  0.00000000000E+00  0.00000000000E+00 -0.19189221266E+04  0.19189221266E+04  0.50400001928E-02 0.  1.
    10030    2    1    2    0    0  0.00000000000E+00  0.00000000000E+00 -0.47906614666E+03  0.33587781065E+04  0.33244376962E+04 0.  0.
        2    1    3    3  502    0 -0.87180806999E+03  0.87905435113E+03  0.88106130997E+03  0.15195574669E+04  0.25500000920E-02 0. -1.
       -2    1    3    3    0  502  0.87180806999E+03 -0.87905435113E+03 -0.13601274566E+04  0.18392206397E+04  0.25500000920E-02 0.  1.
</event>
<event>
 5   0  0.2897133E-07  0.3684787E+04  0.7818609E-02  0.8071342E-01
       -2   -1    0    0    0  501  0.00000000000E+00  0.00000000000E+00  0.15044513073E+04  0.15044513073E+04  0.25500000920E-02 0.  1.
        2   -1    0    0  501    0  0.00000000000E+00  0.00000000000E+00 -0.22562471201E+04  0.22562471201E+04  0.25500000920E-02 0. -1.
    10030    2    1    2    0    0  0.00000000000E+00  0.00000000000E+00 -0.75179581285E+03  0.37606984274E+04  0.36847870654E+04 0.  0.
        4    1    3    3  502    0 -0.94562489163E+03  0.12336207100E+04 -0.13854092150E+04  0.20821591672E+04  0.12699999809E+01 0. -1.
       -4    1    3    3    0  502  0.94562489163E+03 -0.12336207100E+04  0.63361340215E+03  0.16785392602E+04  0.12699999809E+01 0.  1.
</event>
<event>
 5   0  0.3032442E-07  0.3707867E+04  0.7818609E-02  0.8066221E-01
        2   -1    0    0  501    0  0.00000000000E+00  0.00000000000E+00  0.27010601800E+04  0.27010601800E+04  0.25500000920E-02 0.  1.
       -2   -1    0    0    0  501  0.00000000000E+00  0.00000000000E+00 -0.12724889723E+04  0.12724889723E+04  0.25500000920E-02 0. -1.
    10030    2    1    2    0    0  0.00000000000E+00  0.00000000000E+00  0.14285712077E+04  0.39735491523E+04  0.37078669300E+04 0.  0.
        3    1    3    3  502    0 -0.65580925503E+03 -0.17055598720E+03 -0.11350216745E+04  0.13219112435E+04  0.10100000352E+00 0. -1.
       -3    1    3    3    0  502  0.65580925503E+03  0.17055598720E+03  0.25635928822E+04  0.26516379089E+04  0.10100000352E+00 0.  1.
</event>
<event>
 5   0  0.9646615E-08  0.3700196E+04  0.7818609E-02  0.8067918E-01
        1   -1    0    0  501    0  0.00000000000E+00  0.00000000000E+00  0.14786328738E+04  0.14786328738E+04  0.50400001928E-02 0. -1.
       -1   -1    0    0    0  501  0.00000000000E+00  0.00000000000E+00 -0.23148828625E+04  0.23148828625E+04  0.50400001928E-02 0.  1.
    10030    2    1    2    0    0  0.00000000000E+00  0.00000000000E+00 -0.83624998872E+03  0.37935157363E+04  0.37001956162E+04 0.  0.
        2    1    3    3  502    0 -0.15613345773E+04 -0.34658730532E+03  0.53537040309E+03  0.16865674878E+04  0.25500000920E-02 0. -1.
       -2    1    3    3    0  502  0.15613345773E+04  0.34658730532E+03 -0.13716203918E+04  0.21069482485E+04  0.25500000920E-02 0.  1.
</event>
<event>
 5   0  0.9341000E-08  0.3703945E+04  0.7818609E-02  0.8067088E-01
        1   -1    0    0  501    0  0.00000000000E+00  0.00000000000E+00  0.11776948330E+04  0.11776948330E+04  0.50400001928E-02 0.  1.
       -1   -1    0    0    0  501  0.00000000000E+00  0.00000000000E+00 -0.29123011349E+04  0.29123011349E+04  0.50400001928E-02 0. -1.
    10030    2    1    2    0    0  0.00000000000E+00  0.00000000000E+00 -0.17346063019E+04  0.40899959679E+04  0.37039449233E+04 0.  0.
        4    1    3    3  502    0 -0.57346558311E+03 -0.10651067600E+04  0.68117007595E+03  0.13882757185E+04  0.12699999809E+01 0.  1.
       -4    1    3    3    0  502  0.57346558311E+03  0.10651067600E+04 -0.24157763779E+04  0.27017202494E+04  0.12699999809E+01 0. -1.
</event>
<event>
 5   0  0.9418945E-08  0.3700529E+04  0.7818609E-02  0.8067844E-01
       -1   -1    0    0    0  501  0.00000000000E+00  0.00000000000E+00  0.18121818719E+04  0.18121818719E+04  0.50400001928E-02 0.  1.
        1   -1    0    0  501    0  0.00000000000E+00  0.00000000000E+00 -0.18891479334E+04  0.18891479334E+04  0.50400001928E-02 0. -1.
    10030    2    1    2    0    0  0.00000000000E+00  0.00000000000E+00 -0.76966061494E+02  0.37013298053E+04  0.37005294963E+04 0.  0.
        5    1    3    3  502    0 -0.15352211553E+04 -0.77331343931E+03 -0.72313079415E+03  0.18649015810E+04  0.46999998093E+01 0. -1.
       -5    1    3    3    0  502  0.15352211553E+04  0.77331343931E+03  0.64616473265E+03  0.18364282243E+04  0.46999998093E+01 0.  1.
</event>
<event>
 5   0  0.9341000E-08  0.3670921E+04  0.7818609E-02  0.8074437E-01
        1   -1    0    0  501    0  0.00000000000E+00  0.00000000000E+00  0.24447020788E+04  0.24447020788E+04  0.50400001928E-02 0.  1.
       -1   -1    0    0    0  501  0.00000000000E+00  0.00000000000E+00 -0.13780474871E+04  0.13780474871E+04  0.50400001928E-02 0. -1.
    10030    2    1    2    0    0  0.00000000000E+00  0.00000000000E+00  0.10666545917E+04  0.38227495659E+04  0.36709211685E+04 0.  0.
        3    1    3    3  502    0  0.11304604920E+04 -0.74446756675E+03 -0.75759875130E+03  0.15511701261E+04  0.10100000352E+00 0. -1.
       -3    1    3    3    0  502 -0.11304604920E+04  0.74446756675E+03  0.18242533430E+04  0.22715794398E+04  0.10100000352E+00 0.  1.
</event>
<event>
 5   0  0.3032442E-07  0.3719026E+04  0.7818609E-02  0.8063758E-01
       -2   -1    0    0    0  501  0.00000000000E+00  0.00000000000E+00  0.19607778593E+04  0.19607778593E+04  0.25500000920E-02 0. -1.
        2   -1    0    0  501    0  0.00000000000E+00  0.00000000000E+00 -0.17634784216E+04  0.17634784216E+04  0.25500000920E-02 0.  1.
    10030    2    1    2    0    0  0.00000000000E+00  0.00000000000E+00  0.19729943770E+03  0.37242562809E+04  0.37190264556E+04 0.  0.
        3    1    3    3  502    0 -0.43542943125E+03  0.77298846000E+03 -0.15378697502E+04  0.17754304626E+04  0.10100000352E+00 0.  1.
       -3    1    3    3    0  502  0.43542943125E+03 -0.77298846000E+03  0.17351691879E+04  0.19488258182E+04  0.10100000352E+00 0. -1.
</event>
<event>
 5   0  0.2913025E-07  0.3716625E+04  0.7818609E-02  0.8064287E-01
        2   -1    0    0  501    0  0.00000000000E+00  0.00000000000E+00  0.12298979502E+04  0.12298979502E+04  0.25500000920E-02 0. -1.
       -2   -1    0    0    0  501  0.00000000000E+00  0.00000000000E+00 -0.28078150836E+04  0.28078150836E+04  0.25500000920E-02 0.  1.
    10030    2    1    2    0    0  0.00000000000E+00  0.00000000000E+00 -0.15779171334E+04  0.40377130338E+04  0.37166253595E+04 0.  0.
        5    1    3    3  502    0 -0.12548272884E+04  0.10157743526E+04 -0.17887433952E+04  0.24095671982E+04  0.46999998093E+01 0.  1.
       -5    1    3    3    0  502  0.12548272884E+04 -0.10157743526E+04  0.21082626179E+03  0.16281458355E+04  0.46999998093E+01 0. -1.
</event>
<event>
 5   0  0.3008879E-07  0.3707836E+04  0.7818609E-02  0.8066228E-01
       -2   -1    0    0    0  501  0.00000000000E+00  0.00000000000E+00  0.22378313084E+04  0.22378313084E+04  0.25500000920E-02 0.  1.
        2   -1    0    0  501    0  0.00000000000E+00  0.00000000000E+00 -0.15358669920E+04  0.15358669920E+04  0.25500000920E-02 0. -1.
    10030    2    1    2    0    0  0.00000000000E+00  0.00000000000E+00  0.70196431648E+03  0.37736983004E+04  0.37078356168E+04 0.  0.
        2    1    3    3  502    0 -0.86243668300E+03 -0.36116795074E+03  0.19802845038E+04  0.21899237514E+04  0.25500000920E-02 0.  1.
       -2    1    3    3    0  502  0.86243668300E+03  0.36116795074E+03 -0.12783201873E+04  0.15837745490E+04  0.25500000920E-02 0. -1.
</event>
<event>
 5   0  0.9341000E-08  0.3689997E+04  0.7818609E-02  0.8070182E-01
        1   -1    0    0  501    0  0.00000000000E+00  0.00000000000E+00  0.17126215983E+04  0.17126215983E+04  0.50400001928E-02 0. -1.
       -1   -1    0    0    0  501  0.00000000000E+00  0.00000000000E+00 -0.19876076992E+04  0.19876076992E+04  0.50400001928E-02 0.  1.
    10030    2    1    2    0    0  0.00000000000E+00  0.00000000000E+00 -0.27498610095E+03  0.37002292975E+04  0.36899972220E+04 0.  0.
        3    1    3    3  502    0  0.33431893244E+03 -0.17577077889E+04 -0.58897928910E+03  0.18836672830E+04  0.10100000352E+00 0. -1.
       -3    1    3    3    0  502 -0.33431893244E+03  0.17577077889E+04  0.31399318815E+03  0.18165620144E+04  0.10100000352E+00 0.  1.
</event>
<event>
 5   0  0.3008879E-07  0.3695705E+04  0.7818609E-02  0.8068914E-01
       -2   -1    0    0    0  501  0.00000000000E+00  0.00000000000E+00  0.13889808627E+04  0.13889808627E+04  0.25500000920E-02 0.  1.
        2   -1    0    0  501    0  0.00000000000E+00  0.00000000000E+00 -0.24583198227E+04  0.24583198227E+04  0.25500000920E-02 0. -1.
    10030    2    1    2    0    0  0.00000000000E+00  0.00000000000E+00 -0.10693389600E+04  0.38473006854E+04  0.36957051766E+04 0.  0.
        2    1    3    3  502    0  0.16221537694E+04 -0.83078860902E+03 -0.85208074901E+03  0.20118732980E+04  0.25500000920E-02 0.  1.
       -2    1    3    3    0  502 -0.16221537694E+04  0.83078860902E+03 -0.21725821102E+03  0.18354273874E+04  0.25500000920E-02 0. -1.
</event>
<event>
 5   0  0.9341000E-08  0.3678950E+04  0.7818609E-02  0.8072643E-01
       -1   -1    0    0    0  501  0.00000000000E+00  0.00000000000E+00  0.19708339543E+04  0.19708339543E+04  0.50400001928E-02 0. -1.
        1   -1    0    0  501    0  0.00000000000E+00  0.00000000000E+00 -0.17168710123E+04  0.17168710123E+04  0.50400001928E-02 0.  1.
    10030    2    1    2    0    0  0.00000000000E+00  0.00000000000E+00  0.25396294195E+03  0.36877049666E+04  0.36789496796E+04 0.  0.
        1    1    3    3  502    0 -0.17290523533E+04 -0.51473439030E+03 -0.23317034360E+03  0.18190497360E+04  0.50400001928E-02 0. -1.
       -1    1    3    3    0  502  0.17290523533E+04  0.51473439030E+03  0.48713328555E+03  0.18686552306E+04  0.50400001928E-02 0.  1.
</event>
<event>
 5   0  0.9341000E-08  0.3712173E+04  0.7818609E-02  0.8065269E-01
        3   -1    0    0  501    0  0.00000000000E+00  0.00000000000E+00  0.14902756749E+04  0.14902756783E+04  0.10100000352E+00 0. -1.
       -3   -1    0    0    0  501  0.00000000000E+00  0.00000000000E+00 -0.23116915694E+04  0.23116915716E+04  0.10100000352E+00 0.  1.
    10030    2    1    2    0    0  0.00000000000E+00  0.00000000000E+00 -0.82141589454E+03  0.38019672499E+04  0.37121733388E+04 0.  0.
        4    1    3    3  502    0 -0.64085351722E+03 -0.66453373380E+03  0.12384456210E+04  0.15446836191E+04  0.12699999809E+01 0. -1.
       -4    1    3    3    0  502  0.64085351722E+03  0.66453373380E+03 -0.20598615156E+04  0.22572836308E+04  0.12699999809E+01 0.  1.
</event>
<event>
 5   0  0.2897133E-07  0.3666544E+04  0.7818609E-02  0.8075417E-01
       -2   -1    0    0    0  501  0.00000000000E+00  0.00000000000E+00  0.18855460700E+04  0.18855460700E+04  0.25500000920E-02 0.  1.
        2   -1    0    0  501    0  0.00000000000E+00  0.00000000000E+00 -0.17824475597E+04  0.17824475597E+04  0.25500000920E-02 0. -1.
    10030    2    1    2    0    0  0.00000000000E+00  0.00000000000E+00  0.10309851027E+03  0.36679936298E+04  0.36665444175E+04 0.  0.
        4    1    3    3  502    0  0.88678110068E+03 -0.87265549179E+02 -0.15512354852E+04  0.17889463770E+04  0.12699999809E+01 0. -1.
       -4    1    3    3    0  502 -0.88678110068E+03  0.87265549179E+02  0.16543339954E+04  0.18790472527E+04  0.12699999809E+01 0.  1.
</event>
<event>
 5   0  0.9341000E-08  0.3730785E+04  0.7818609E-02  0.8061173E-01
       -1   -1    0    0    0  501  0.00000000000E+00  0.00000000000E+00  0.15431869917E+04  0.15431869917E+04  0.50400001928E-02 0.  1.
        1   -1    0    0  501    0  0.00000000000E+00  0.00000000000E+00 -0.22548722950E+04  0.22548722950E+04  0.50400001928E-02 0. -1.
    10030    2    1    2    0    0  0.00000000000E+00  0.00000000000E+00 -0.71168530322E+03  0.37980592867E+04  0.37307852222E+04 0.  0.
        3    1    3    3  502    0  0.50410017216E+03 -0.25990167445E+03  0.14532848916E+04  0.15600329645E+04  0.10100000352E+00 0.  1.
       -3    1    3    3    0  502 -0.50410017216E+03  0.25990167445E+03 -0.21649701948E+04  0.22380263222E+04  0.10100000352E+00 0. -1.
</event>
<event>
 5   0  0.9341000E-08  0.3699657E+04  0.7818609E-02  0.8068038E-01
       -1   -1    0    0    0  501  0.00000000000E+00  0.00000000000E+00  0.17684840893E+04  0.17684840893E+04  0.50400001928E-02 0. -1.
        1   -1    0    0  501    0  0.00000000000E+00  0.00000000000E+00 -0.19349147910E+04  0.19349147910E+04  0.50400001928E-02 0.  1.
    10030    2    1    2    0    0  0.00000000000E+00  0.00000000000E+00 -0.16643070171E+03  0.37033988803E+04  0.36996572934E+04 0.  0.
        1    1    3    3  502    0  0.77439969080E+03 -0.12780835220E+04 -0.11745810816E+04  0.19007454032E+04  0.50400001928E-02 0.  1.
       -1    1    3    3    0  502 -0.77439969080E+03  0.12780835220E+04  0.10081503799E+04  0.18026534772E+04  0.50400001928E-02 0. -1.
</event>
<event>
 5   0  0.9646615E-08  0.3706733E+04  0.7818609E-02  0.8066471E-01
       -1   -1    0    0    0  501  0.00000000000E+00  0.00000000000E+00  0.18093432264E+04  0.18093432265E+04  0.50400001928E-02 0. -1.
        1   -1    0    0  501    0  0.00000000000E+00  0.00000000000E+00 -0.18984609555E+04  0.18984609555E+04  0.50400001928E-02 0.  1.
    10030    2    1    2    0    0  0.00000000000E+00  0.00000000000E+00 -0.89117729010E+02  0.37078041819E+04  0.37067330470E+04 0.  0.
        2    1    3    3  502    0 -0.17860547561E+04  0.49194104353E+03 -0.99071293870E+02  0.18552123068E+04  0.25500000920E-02 0.  1.
       -2    1    3    3    0  502  0.17860547561E+04 -0.49194104353E+03  0.99535648602E+01  0.18525918751E+04  0.25500000920E-02 0. -1.
</event>
<event>
 5   0  0.9341000E-08  0.3682066E+04  0.7818609E-02  0.8071948E-01
        1   -1    0    0  501    0  0.00000000000E+00  0.00000000000E+00  0.27924738803E+04  0.27924738803E+04  0.50400001928E-02 0. -1.
       -1   -1    0    0    0  501  0.00000000000E+00  0.00000000000E+00 -0.12137630493E+04  0.12137630493E+04  0.50400001928E-02 0.  1.
    10030    2    1    2    0    0  0.00000000000E+00  0.00000000000E+00  0.15787108310E+04  0.40062369296E+04  0.36820655138E+04 0.  0.
        4    1    3    3  502    0  0.83568744001E+03  0.28608812004E+03 -0.96815191993E+03  0.13105493744E+04  0.12699999809E+01 0.  1.
       -4    1    3    3    0  502 -0.83568744001E+03 -0.28608812004E+03  0.25468627510E+04  0.26956875551E+04  0.12699999809E+01 0. -1.
</event>
<event>
 5   0  0.2996969E-07  0.3691252E+04  0.7818609E-02  0.8069903E-01
        2   -1    0    0  501    0  0.00000000000E+00  0.00000000000E+00  0.26203078074E+04  0.26203078074E+04  0.25500000920E-02 0. -1.
       -2   -1    0    0    0  501  0.00000000000E+00  0.00000000000E+00 -0.12999751929E+04  0.12999751929E+04  0.25500000920E-02 0.  1.
    10030    2    1    2    0    0  0.00000000000E+00  0.00000000000E+00  0.13203326145E+04  0.39202830003E+04  0.36912519000E+04 0.  0.
        1    1    3    3  502    0 -0.17791484835E+04 -0.81217278833E+02  0.14601096616E+03  0.17869764338E+04  0.50400001928E-02 0.  1.
       -1    1    3    3    0  502  0.17791484835E+04  0.81217278833E+02  0.11743216483E+04  0.21333065665E+04  0.50400001928E-02 0. -1.
</event>
<event>
 5   0  0.9646615E-08  0.3674401E+04  0.7818609E-02  0.8073659E-01
       -1   -1    0    0    0  501  0.00000000000E+00  0.00000000000E+00  0.18613700885E+04  0.18613700885E+04  0.50400001928E-02 0.  1.
        1   -1    0    0  501    0  0.00000000000E+00  0.00000000000E+00 -0.18133442566E+04  0.18133442566E+04  0.50400001928E-02 0. -1.
    10030    2    1    2    0    0  0.00000000000E+00  0.00000000000E+00  0.48025831889E+02  0.36747143452E+04  0.36744005005E+04 0.  0.
        2    1    3    3  502    0 -0.17102746042E+04 -0.11236634634E+03  0.68561257292E+03  0.18460037968E+04  0.25500000920E-02 0.  1.
       -2    1    3    3    0  502  0.17102746042E+04  0.11236634634E+03 -0.63758674104E+03  0.18287105484E+04  0.25500000920E-02 0. -1.
</event>
<event>
 5   0  0.3032442E-07  0.3596793E+04  0.7818609E-02  0.8091227E-01
        2   -1    0    0  501    0  0.00000000000E+00  0.00000000000E+00  0.15809597927E+04  0.15809597927E+04  0.25500000920E-02 0.  1.
       -2   -1    0    0    0  501  0.00000000000E+00  0.00000000000E+00 -0.20457386943E+04  0.20457386943E+04  0.25500000920E-02 0. -1.
    10030    2    1    2    0    0  0.00000000000E+00  0.00000000000E+00 -0.46477890158E+03  0.36266984870E+04  0.35967933619E+04 0.  0.
        3    1    3    3  502    0  0.67831357798E+03  0.15589345181E+04  0.35886848799E+03  0.17375766872E+04  0.10100000352E+00 0.  1.
       -3    1    3    3    0  502 -0.67831357798E+03 -0.15589345181E+04 -0.82364738957E+03  0.18891217998E+04  0.10100000352E+00 0. -1.
</event>
<event>
 5   0  0.9341000E-08  0.3722123E+04  0.7818609E-02  0.8063077E-01
        1   -1    0    0  501    0  0.00000000000E+00  0.00000000000E+00  0.18503937643E+04  0.18503937643E+04  0.50400001928E-02 0. -1.
       -1   -1    0    0    0  501  0.00000000000E+00  0.00000000000E+00 -0.18717904335E+04  0.18717904335E+04  0.50400001928E-02 0.  1.
    10030    2    1    2    0    0  0.00000000000E+00  0.00000000000E+00 -0.21396669234E+02  0.37221841978E+04  0.37221226988E+04 0.  0.
        4    1    3    3  502    0  0.64839334688E+03  0.15140257741E+04  0.85583762486E+03  0.18561108883E+04  0.12699999809E+01 0. -1.
       -4    1    3    3    0  502 -0.64839334688E+03 -0.15140257741E+04 -0.87723429410E+03  0.18660733095E+04  0.12699999809E+01 0.  1.
</event>
<event>
 5   0  0.2996969E-07  0.3690908E+04  0.7818609E-02  0.8069980E-01
       -2   -1    0    0    0  501  0.00000000000E+00  0.00000000000E+00  0.17230358714E+04  0.17230358714E+04  0.25500000920E-02 0. -1.
        2   -1    0    0  501    0  0.00000000000E+00  0.00000000000E+00 -0.19765700213E+04  0.19765700213E+04  0.25500000920E-02 0.  1.
    10030    2    1    2    0    0  0.00000000000E+00  0.00000000000E+00 -0.25353414996E+03  0.36996058927E+04  0.36909083158E+04 0.  0.
        1    1    3    3  502    0 -0.19561134672E+03  0.71723324578E+03  0.15662998884E+04  0.17337769950E+04  0.50400001928E-02 0. -1.
       -1    1    3    3    0  502  0.19561134672E+03 -0.71723324578E+03 -0.18198340384E+04  0.19658288977E+04  0.50400001928E-02 0.  1.
</event>
<event>
 5   0  0.9341000E-08  0.3702343E+04  0.7818609E-02  0.8067443E-01
        1   -1    0    0  501    0  0.00000000000E+00  0.00000000000E+00  0.27959119630E+04  0.27959119630E+04  0.50400001928E-02 0. -1.
       -1   -1    0    0    0  501  0.00000000000E+00  0.00000000000E+00 -0.12256594480E+04  0.12256594480E+04  0.50400001928E-02 0.  1.
    10030    2    1    2    0    0  0.00000000000E+00  0.00000000000E+00  0.15702525150E+04  0.40215714110E+04  0.37023429951E+04 0.  0.
        3    1    3    3  502    0 -0.24224398868E+03  0.16857821015E+04  0.15731380344E+04  0.23184707739E+04  0.10100000352E+00 0. -1.
       -3    1    3    3    0  502  0.24224398868E+03 -0.16857821015E+04 -0.28855194750E+01  0.17031006371E+04  0.10100000352E+00 0.  1.
</event>
<event>
 5   0  0.2897133E-07  0.3677962E+04  0.7818609E-02  0.8072863E-01
        2   -1    0    0  501    0  0.00000000000E+00  0.00000000000E+00  0.20680419395E+04  0.20680419396E+04  0.25500000920E-02 0.  1.
       -2   -1    0    0    0  501  0.00000000000E+00  0.00000000000E+00 -0.16352916188E+04  0.16352916188E+04  0.25500000920E-02 0. -1.
    10030    2    1    2    0    0  0.00000000000E+00  0.00000000000E+00  0.43275032077E+03  0.37033335583E+04  0.36779622897E+04 0.  0.
        4    1    3    3  502    0 -0.51442188668E+03  0.15261757225E+04  0.11101967150E+04  0.19561136399E+04  0.12699999809E+01 0.  1.
       -4    1    3    3    0  502  0.51442188668E+03 -0.15261757225E+04 -0.67744639426E+03  0.17472199184E+04  0.12699999809E+01 0. -1.
</event>
<event>
 5   0  0.2897133E-07  0.3717679E+04  0.7818609E-02  0.8064055E-01
        2   -1    0    0  501    0  0.00000000000E+00  0.00000000000E+00  0.26893086177E+04  0.26893086177E+04  0.25500000920E-02 0. -1.
       -2   -1    0    0    0  501  0.00000000000E+00  0.00000000000E+00 -0.12848225223E+04  0.12848225223E+04  0.25500000920E-02 0.  1.
    10030    2    1    2    0    0  0.00000000000E+00  0.00000000000E+00  0.14044860954E+04  0.39741311400E+04  0.37176789971E+04 0.  0.
        4    1    3    3  502    0 -0.12613010468E+04 -0.12899698229E+04  0.22372568289E+03  0.18179541437E+04  0.12699999809E+01 0.  1.
       -4    1    3    3    0  502  0.12613010468E+04  0.12899698229E+04  0.11807604125E+04  0.21561769963E+04  0.12699999809E+01 0. -1.
</event>
<event>
 5   0  0.2913025E-07  0.3665423E+04  0.7818609E-02  0.8075668E-01
        2   -1    0    0  501    0  0.00000000000E+00  0.00000000000E+00  0.28769665928E+04  0.28769665928E+04  0.25500000920E-02 0. -1.
       -2   -1    0    0    0  501  0.00000000000E+00  0.00000000000E+00 -0.11674904385E+04  0.11674904385E+04  0.25500000920E-02 0.  1.
    10030    2    1    2    0    0  0.00000000000E+00  0.00000000000E+00  0.17094761542E+04  0.40444570313E+04  0.36654227528E+04 0.  0.
        5    1    3    3  502    0  0.12781823269E+03 -0.14896829842E+04  0.20242028055E+04  0.25165277630E+04  0.46999998093E+01 0. -1.
       -5    1    3    3    0  502 -0.12781823269E+03  0.14896829842E+04 -0.31472665127E+03  0.15279292683E+04  0.46999998093E+01 0.  1.
</event>
<event>
 5   0  0.3008879E-07  0.3671345E+04  0.7818609E-02  0.8074342E-01
        2   -1    0    0  501    0  0.00000000000E+00  0.00000000000E+00  0.13362915401E+04  0.13362915401E+04  0.25500000920E-02 0. -1.
       -2   -1    0    0    0  501  0.00000000000E+00  0.00000000000E+00 -0.25216749439E+04  0.25216749439E+04  0.25500000920E-02 0.  1.
    10030    2    1    2    0    0  0.00000000000E+00  0.00000000000E+00 -0.11853834038E+04  0.38579664841E+04  0.36713446553E+04 0.  0.
        2    1    3    3  502    0  0.15702586154E+03 -0.10071486629E+04  0.10115703206E+04  0.14360640877E+04  0.25500000920E-02 0. -1.
       -2    1    3    3    0  502 -0.15702586154E+03  0.10071486629E+04 -0.21969537244E+04  0.24219023964E+04  0.25500000920E-02 0.  1.
</event>
<event>
 5   0  0.3032442E-07  0.3666641E+04  0.7818609E-02  0.8075395E-01
        2   -1    0    0  501    0  0.00000000000E+00  0.00000000000E+00  0.24684351827E+04  0.24684351828E+04  0.25500000920E-02 0. -1.
       -2   -1    0    0    0  501  0.00000000000E+00  0.00000000000E+00 -0.13616173026E+04  0.13616173026E+04  0.25500000920E-02 0.  1.
    10030    2    1    2    0    0  0.00000000000E+00  0.00000000000E+00  0.11068178801E+04  0.38300524854E+04  0.36666409997E+04 0.  0.
        3    1    3    3  502    0 -0.50096393823E+03 -0.10413848296E+04  0.20400803230E+04  0.23446481538E+04  0.10100000352E+00 0. -1.
       -3    1    3    3    0  502  0.50096393823E+03  0.10413848296E+04 -0.93326244286E+03  0.14854043315E+04  0.10100000352E+00 0.  1.
</event>
<event>
 5   0  0.3032442E-07  0.3684743E+04  0.7818609E-02  0.8071351E-01
       -2   -1    0    0    0  501  0.00000000000E+00  0.00000000000E+00  0.13409654827E+04  0.13409654827E+04  0.25500000920E-02 0. -1.
        2   -1    0    0  501    0  0.00000000000E+00  0.00000000000E+00 -0.25312598046E+04  0.25312598046E+04  0.25500000920E-02 0.  1.
    10030    2    1    2    0    0  0.00000000000E+00  0.00000000000E+00 -0.11902943219E+04  0.38722252872E+04  0.36847426101E+04 0.  0.
        3    1    3    3  502    0 -0.22755954052E+03  0.37235383577E+02 -0.25160360291E+04  0.25265801250E+04  0.10100000352E+00 0.  1.
       -3    1    3    3    0  502  0.22755954052E+03 -0.37235383577E+02  0.13257417072E+04  0.13456451622E+04  0.10100000352E+00 0. -1.
</event>
<event>
 5   0  0.3008879E-07  0.3698063E+04  0.7818609E-02  0.8068391E-01
        2   -1    0    0  501    0  0.00000000000E+00  0.00000000000E+00  0.29757372970E+04  0.29757372970E+04  0.25500000920E-02 0.  1.
       -2   -1    0    0    0  501  0.00000000000E+00  0.00000000000E+00 -0.11489312680E+04  0.11489312680E+04  0.25500000920E-02 0. -1.
    10030    2    1    2    0    0  0.00000000000E+00  0.00000000000E+00  0.18268060291E+04  0.41246685650E+04  0.36980630745E+04 0.  0.
        2    1    3    3  502    0 -0.81244060201E+03 -0.15667045920E+04  0.29813848799E+03  0.17898350674E+04  0.25500000920E-02 0. -1.
       -2    1    3    3    0  502  0.81244060201E+03  0.15667045920E+04  0.15286675411E+04  0.23348334976E+04  0.25500000920E-02 0.  1.
</event>
<event>
 5   0  0.9341000E-08  0.3678128E+04  0.7818609E-02  0.8072826E-01
       -4   -1    0    0    0  501  0.00000000000E+00  0.00000000000E+00  0.13300373287E+04  0.13300379350E+04  0.12699999809E+01 0. -1.
        4   -1    0    0  501    0  0.00000000000E+00  0.00000000000E+00 -0.25429024976E+04  0.25429028147E+04  0.12699999809E+01 0.  1.
    10030    2    1    2    0    0  0.00000000000E+00  0.00000000000E+00 -0.12128651689E+04  0.38729407497E+04  0.36781283464E+04 0.  0.
        1    1    3    3  502    0 -0.39215611632E+03  0.11221049631E+04 -0.20840585627E+04  0.23992094658E+04  0.50400001928E-02 0.  1.
       -1    1    3    3    0  502  0.39215611632E+03 -0.11221049631E+04  0.87119339386E+03  0.14737312839E+04  0.50400001928E-02 0. -1.
</event>
<event>
 5   0  0.3032442E-07  0.3665606E+04  0.7818609E-02  0.8075627E-01
        2   -1    0    0  501    0  0.00000000000E+00  0.00000000000E+00  0.23561433046E+04  0.23561433046E+04  0.25500000920E-02 0. -1.
       -2   -1    0    0    0  501  0.00000000000E+00  0.00000000000E+00 -0.14257053043E+04  0.14257053043E+04  0.25500000920E-02 0.  1.
    10030    2    1    2    0    0  0.00000000000E+00  0.00000000000E+00  0.93043800038E+03  0.37818486089E+04  0.36656055473E+04 0.  0.
        3    1    3    3  502    0  0.17126028626E+03  0.32885036551E+03  0.23170464217E+04  0.23465244041E+04  0.10100000352E+00 0. -1.
       -3    1    3    3    0  502 -0.17126028626E+03 -0.32885036551E+03 -0.13866084213E+04  0.14353242048E+04  0.10100000352E+00 0.  1.
</event>
<event>
 5   0  0.9341000E-08  0.3708920E+04  0.7818609E-02  0.8065988E-01
       -1   -1    0    0    0  501  0.00000000000E+00  0.00000000000E+00  0.12996153732E+04  0.12996153732E+04  0.50400001928E-02 0.  1.
        1   -1    0    0  501    0  0.00000000000E+00  0.00000000000E+00 -0.26461839937E+04  0.26461839937E+04  0.50400001928E-02 0. -1.
    10030    2    1    2    0    0  0.00000000000E+00  0.00000000000E+00 -0.13465686206E+04  0.39457993669E+04  0.37089197341E+04 0.  0.
        1    1    3    3  502    0 -0.40151095588E+03 -0.16817658503E+04 -0.13865311231E+04  0.22163068331E+04  0.50400001928E-02 0.  1.
       -1    1    3    3    0  502  0.40151095588E+03  0.16817658503E+04  0.39962502516E+02  0.17294925338E+04  0.50400001928E-02 0. -1.
</event>
<event>
 5   0  0.2996969E-07  0.3699356E+04  0.7818609E-02  0.8068105E-01
       -2   -1    0    0    0  501  0.00000000000E+00  0.00000000000E+00  0.19655840983E+04  0.19655840983E+04  0.25500000920E-02 0.  1.
        2   -1    0    0  501    0  0.00000000000E+00  0.00000000000E+00 -0.17406066782E+04  0.17406066782E+04  0.25500000920E-02 0. -1.
    10030    2    1    2    0    0  0.00000000000E+00  0.00000000000E+00  0.22497742002E+03  0.37061907765E+04  0.36993560564E+04 0.  0.
        1    1    3    3  502    0  0.47710674026E+03 -0.12810344166E+04  0.13608360924E+04  0.19288739950E+04  0.50400001928E-02 0.  1.
       -1    1    3    3    0  502 -0.47710674026E+03  0.12810344166E+04 -0.11358586724E+04  0.17773167815E+04  0.50400001928E-02 0. -1.
</event>
<event>
 5   0  0.3008879E-07  0.3619211E+04  0.7818609E-02  0.8086105E-01
       -2   -1    0    0    0  501  0.00000000000E+00  0.00000000000E+00  0.13200188495E+04  0.13200188495E+04  0.25500000920E-02 0.  1.
        2   -1    0    0  501    0  0.00000000000E+00  0.00000000000E+00 -0.24807771273E+04  0.24807771273E+04  0.25500000920E-02 0. -1.
    10030    2    1    2    0    0  0.00000000000E+00  0.00000000000E+00 -0.11607582778E+04  0.38007959768E+04  0.36192112784E+04 0.  0.
        2    1    3    3  502    0 -0.74225948554E+03  0.10372764774E+04  0.76768438586E+03  0.14887010952E+04  0.25500000920E-02 0.  1.
       -2    1    3    3    0  502  0.74225948554E+03 -0.10372764774E+04 -0.19284426637E+04  0.23120948816E+04  0.25500000920E-02 0. -1.
</event>
<event>
 5   0  0.9646615E-08  0.3709081E+04  0.7818609E-02  0.8065952E-01
       -1   -1    0    0    0  501  0.00000000000E+00  0.00000000000E+00  0.25616998214E+04  0.25616998214E+04  0.50400001928E-02 0. -1.
        1   -1    0    0  501    0  0.00000000000E+00  0.00000000000E+00 -0.13425932776E+04  0.13425932776E+04  0.50400001928E-02 0.  1.
    10030    2    1    2    0    0  0.00000000000E+00  0.00000000000E+00  0.12191065438E+04  0.39042930990E+04  0.37090812661E+04 0.  0.
        2    1    3    3  502    0  0.10126528248E+04  0.78428648549E+03  0.20213151767E+04  0.23929659585E+04  0.25500000920E-02 0. -1.
       -2    1    3    3    0  502 -0.10126528248E+04 -0.78428648549E+03 -0.80220863296E+03  0.15113271405E+04  0.25500000920E-02 0.  1.
</event>
<event>
 5   0  0.2913025E-07  0.3712883E+04  0.7818609E-02  0.8065113E-01
        2   -1    0    0  501    0  0.00000000000E+00  0.00000000000E+00  0.24019034786E+04  0.24019034786E+04  0.25500000920E-02 0. -1.
       -2   -1    0    0    0  501  0.00000000000E+00  0.00000000000E+00 -0.14348513485E+04  0.14348513485E+04  0.25500000920E-02 0.  1.
    10030    2    1    2    0    0  0.00000000000E+00  0.00000000000E+00  0.96705213006E+03  0.38367548271E+04  0.37128826781E+04 0.  0.
        5    1    3    3  502    0 -0.50586869600E+03  0.17831286991E+04  0.37563358649E+03  0.18911831684E+04  0.46999998093E+01 0. -1.
       -5    1    3    3    0  502  0.50586869600E+03 -0.17831286991E+04  0.59141854357E+03  0.19455716587E+04  0.46999998093E+01 0.  1.
</event>
<event>
 5   0  0.9341000E-08  0.3837300E+04  0.7818609E-02  0.8038197E-01
       -1   -1    0    0    0  501  0.00000000000E+00  0.00000000000E+00  0.21381884479E+04  0.21381884479E+04  0.50400001928E-02 0. -1.
        1   -1    0    0  501    0  0.00000000000E+00  0.00000000000E+00 -0.17216530013E+04  0.17216530014E+04  0.50400001928E-02 0.  1.
    10030    2    1    2    0    0  0.00000000000E+00  0.00000000000E+00  0.41653544654E+03  0.38598414493E+04  0.38373003838E+04 0.  0.
        3    1    3    3  502    0  0.90168694035E+03  0.10745058786E+04  0.15250090432E+04  0.20720170881E+04  0.10100000352E+00 0.  1.
       -3    1    3    3    0  502 -0.90168694035E+03 -0.10745058786E+04 -0.11084735967E+04  0.17878243611E+04  0.10100000352E+00 0. -1.
</event>
<event>
 5   0  0.9418945E-08  0.3710461E+04  0.7818609E-02  0.8065647E-01
       -1   -1    0    0    0  501  0.00000000000E+00  0.00000000000E+00  0.23446573783E+04  0.23446573783E+04  0.50400001928E-02 0. -1.
        1   -1    0    0  501    0  0.00000000000E+00  0.00000000000E+00 -0.14679673430E+04  0.14679673430E+04  0.50400001928E-02 0.  1.
    10030    2    1    2    0    0  0.00000000000E+00  0.00000000000E+00  0.87669003530E+03  0.38126247213E+04  0.37104611367E+04 0.  0.
        5    1    3    3  502    0 -0.16966103836E+04  0.71610126918E+03  0.20727424695E+03  0.18531790320E+04  0.46999998093E+01 0.  1.
       -5    1    3    3    0  502  0.16966103836E+04 -0.71610126918E+03  0.66941578835E+03  0.19594456892E+04  0.46999998093E+01 0. -1.
</event>
<event>
 5   0  0.9341000E-08  0.3612310E+04  0.7818609E-02  0.8087678E-01
       -1   -1    0    0    0  501  0.00000000000E+00  0.00000000000E+00  0.15682191825E+04  0.15682191825E+04  0.50400001928E-02 0. -1.
        1   -1    0    0  501    0  0.00000000000E+00  0.00000000000E+00 -0.20801911888E+04  0.20801911888E+04  0.50400001928E-02 0.  1.
    10030    2    1    2    0    0  0.00000000000E+00  0.00000000000E+00 -0.51197200632E+03  0.36484103713E+04  0.36123099122E+04 0.  0.
        4    1    3    3  502    0  0.53881830774E+03 -0.76743581844E+03  0.13031091047E+04  0.16054213951E+04  0.12699999809E+01 0. -1.
       -4    1    3    3    0  502 -0.53881830774E+03  0.76743581844E+03 -0.18150811110E+04  0.20429889762E+04  0.12699999809E+01 0.  1.
</event>
<event>
 5   0  0.2897133E-07  0.3696658E+04  0.7818609E-02  0.8068703E-01
       -2   -1    0    0    0  501  0.00000000000E+00  0.00000000000E+00  0.13980538448E+04  0.13980538448E+04  0.25500000920E-02 0.  1.
        2   -1    0    0  501    0  0.00000000000E+00  0.00000000000E+00 -0.24436255912E+04  0.24436255912E+04  0.25500000920E-02 0. -1.
    10030    2    1    2    0    0  0.00000000000E+00  0.00000000000E+00 -0.10455717464E+04  0.38416794361E+04  0.36966580330E+04 0.  0.
        4    1    3    3  502    0 -0.60687423940E+03  0.15283678128E+04 -0.13997596672E+04  0.21595215333E+04  0.12699999809E+01 0. -1.
       -4    1    3    3    0  502  0.60687423940E+03 -0.15283678128E+04  0.35418792084E+03  0.16821579028E+04  0.12699999809E+01 0.  1.
</event>
<event>
 5   0  0.3008879E-07  0.3759847E+04  0.7818609E-02  0.8054827E-01
       -2   -1    0    0    0  501  0.00000000000E+00  0.00000000000E+00  0.13311626703E+04  0.13311626703E+04  0.25500000920E-02 0.  1.
        2   -1    0    0  501    0  0.00000000000E+00  0.00000000000E+00 -0.26549063322E+04  0.26549063322E+04  0.25500000920E-02 0. -1.
    10030    2    1    2    0    0  0.00000000000E+00  0.00000000000E+00 -0.13237436619E+04  0.39860690025E+04  0.37598469131E+04 0.  0.
        2    1    3    3  502    0  0.71168579500E+03  0.10070089509E+04 -0.21662454118E+04  0.24926257004E+04  0.25500000920E-02 0. -1.
       -2    1    3    3    0  502 -0.71168579500E+03 -0.10070089509E+04  0.84250174994E+03  0.14934433021E+04  0.25500000920E-02 0.  1.
</event>
<event>
 5   0  0.2897133E-07  0.3698265E+04  0.7818609E-02  0.8068346E-01
       -2   -1    0    0    0  501  0.00000000000E+00  0.00000000000E+00  0.14403489327E+04  0.14403489327E+04  0.25500000920E-02 0. -1.
        2   -1    0    0  501    0  0.00000000000E+00  0.00000000000E+00 -0.23739323014E+04  0.23739323014E+04  0.25500000920E-02 0.  1.
    10030    2    1    2    0    0  0.00000000000E+00  0.00000000000E+00 -0.93358336870E+03  0.38142812341E+04  0.36982649211E+04 0.  0.
        4    1    3    3  502    0  0.11573629522E+03  0.79128817141E+03 -0.21863548726E+04  0.23280208552E+04  0.12699999809E+01 0.  1.
       -4    1    3    3    0  502 -0.11573629522E+03 -0.79128817141E+03  0.12527715039E+04  0.14862603790E+04  0.12699999809E+01 0. -1.
</event>
<event>
 5   0  0.2996969E-07  0.3678637E+04  0.7818609E-02  0.8072713E-01
        2   -1    0    0  501    0  0.00000000000E+00  0.00000000000E+00  0.14029172317E+04  0.14029172317E+04  0.25500000920E-02 0. -1.
       -2   -1    0    0    0  501  0.00000000000E+00  0.00000000000E+00 -0.24114702965E+04  0.24114702965E+04  0.25500000920E-02 0.  1.
    10030    2    1    2    0    0  0.00000000000E+00  0.00000000000E+00 -0.10085530648E+04  0.38143875282E+04  0.36786373742E+04 0.  0.
        1    1    3    3  502    0  0.53306322089E+03  0.17120889670E+04 -0.92888543130E+03  0.20194635855E+04  0.50400001928E-02 0. -1.
       -1    1    3    3    0  502 -0.53306322089E+03 -0.17120889670E+04 -0.79667633451E+02  0.17949239428E+04  0.50400001928E-02 0.  1.
</event>
<event>
 5   0  0.3032442E-07  0.3720390E+04  0.7818609E-02  0.8063458E-01
       -2   -1    0    0    0  501  0.00000000000E+00  0.00000000000E+00  0.14212402444E+04  0.14212402444E+04  0.25500000920E-02 0. -1.
        2   -1    0    0  501    0  0.00000000000E+00  0.00000000000E+00 -0.24347229099E+04  0.24347229099E+04  0.25500000920E-02 0.  1.
    10030    2    1    2    0    0  0.00000000000E+00  0.00000000000E+00 -0.10134826654E+04  0.38559631543E+04  0.37203904008E+04 0.  0.
        3    1    3    3  502    0  0.12950767062E+04 -0.13136826915E+04 -0.25855704561E+03  0.18627500221E+04  0.10100000352E+00 0. -1.
       -3    1    3    3    0  502 -0.12950767062E+04  0.13136826915E+04 -0.75492561983E+03  0.19932131322E+04  0.10100000352E+00 0.  1.
</event>
<event>
 5   0  0.9341000E-08  0.3704145E+04  0.7818609E-02  0.8067044E-01
       -1   -1    0    0    0  501  0.00000000000E+00  0.00000000000E+00  0.12832181851E+04  0.12832181851E+04  0.50400001928E-02 0.  1.
        1   -1    0    0  501    0  0.00000000000E+00  0.00000000000E+00 -0.26731012211E+04  0.26731012211E+04  0.50400001928E-02 0. -1.
    10030    2    1    2    0    0  0.00000000000E+00  0.00000000000E+00 -0.13898830360E+04  0.39563194062E+04  0.37041447583E+04 0.  0.
        1    1    3    3  502    0 -0.84937124603E+03  0.30234000714E+03 -0.24228977141E+04  0.25852029565E+04  0.50400001928E-02 0. -1.
       -1    1    3    3    0  502  0.84937124603E+03 -0.30234000714E+03  0.10330146781E+04  0.13711164497E+04  0.50400001928E-02 0.  1.
</event>
<event>
 5   0  0.3008879E-07  0.3644623E+04  0.7818609E-02  0.8080346E-01
       -2   -1    0    0    0  501  0.00000000000E+00  0.00000000000E+00  0.26976176029E+04  0.26976176029E+04  0.25500000920E-02 0.  1.
        2   -1    0    0  501    0  0.00000000000E+00  0.00000000000E+00 -0.12310191324E+04  0.12310191324E+04  0.25500000920E-02 0. -1.
    10030    2    1    2    0    0  0.00000000000E+00  0.00000000000E+00  0.14665984706E+04  0.39286367353E+04  0.36446228233E+04 0.  0.
        2    1    3    3  502    0  0.95844001295E+03  0.75773185234E+03  0.21907161326E+04  0.25083863323E+04  0.25500000920E-02 0.  1.
       -2    1    3    3    0  502 -0.95844001295E+03 -0.75773185234E+03 -0.72411766209E+03  0.14202504029E+04  0.25500000920E-02 0. -1.
</event>
<event>
 5   0  0.9341000E-08  0.3685801E+04  0.7818609E-02  0.8071116E-01
       -1   -1    0    0    0  501  0.00000000000E+00  0.00000000000E+00  0.29189355031E+04  0.29189355031E+04  0.50400001928E-02 0. -1.
        1   -1    0    0  501    0  0.00000000000E+00  0.00000000000E+00 -0.11635346782E+04  0.11635346782E+04  0.50400001928E-02 0.  1.
    10030    2    1    2    0    0  0.00000000000E+00  0.00000000000E+00  0.17554008250E+04  0.40824701813E+04  0.36858012324E+04 0.  0.
        4    1    3    3  502    0  0.16870532192E+04 -0.18257492853E+03  0.81445911114E+02  0.16988576215E+04  0.12699999809E+01 0.  1.
       -4    1    3    3    0  502 -0.16870532192E+04  0.18257492853E+03  0.16739549138E+04  0.23836125598E+04  0.12699999809E+01 0. -1.
</event>
<event>
 5   0  0.2897133E-07  0.3702140E+04  0.7818609E-02  0.8067488E-01
        2   -1    0    0  501    0  0.00000000000E+00  0.00000000000E+00  0.18731226227E+04  0.18731226227E+04  0.25500000920E-02 0. -1.
       -2   -1    0    0    0  501  0.00000000000E+00  0.00000000000E+00 -0.18292773116E+04  0.18292773116E+04  0.25500000920E-02 0.  1.
    10030    2    1    2    0    0  0.00000000000E+00  0.00000000000E+00  0.43845311149E+02  0.37023999343E+04  0.37021403082E+04 0.  0.
        4    1    3    3  502    0  0.96914852397E+02 -0.11590661100E+04 -0.14181895688E+04  0.18341455782E+04  0.12699999809E+01 0.  1.
       -4    1    3    3    0  502 -0.96914852397E+02  0.11590661100E+04  0.14620348800E+04  0.18682543561E+04  0.12699999809E+01 0. -1.
</event>
<event>
 5   0  0.2897133E-07  0.3706243E+04  0.7818609E-02  0.8066580E-01
       -2   -1    0    0    0  501  0.00000000000E+00  0.00000000000E+00  0.16280627296E+04  0.16280627296E+04  0.25500000920E-02 0. -1.
        2   -1    0    0  501    0  0.00000000000E+00  0.00000000000E+00 -0.21092914615E+04  0.21092914615E+04  0.25500000920E-02 0.  1.
    10030    2    1    2    0    0  0.00000000000E+00  0.00000000000E+00 -0.48122873186E+03  0.37373541911E+04  0.37062427413E+04 0.  0.
        4    1    3    3  502    0  0.88644061711E+03  0.11276345782E+04  0.94257235359E+03  0.17163277555E+04  0.12699999809E+01 0. -1.
       -4    1    3    3    0  502 -0.88644061711E+03 -0.11276345782E+04 -0.14238010854E+04  0.20210264356E+04  0.12699999809E+01 0.  1.
</event>
<event>
 5   0  0.9341000E-08  0.3685706E+04  0.7818609E-02  0.8071137E-01
       -1   -1    0    0    0  501  0.00000000000E+00  0.00000000000E+00  0.27334294006E+04  0.27334294006E+04  0.50400001928E-02 0.  1.
        1   -1    0    0  501    0  0.00000000000E+00  0.00000000000E+00 -0.12424348455E+04  0.12424348455E+04  0.50400001928E-02 0. -1.
    10030    2    1    2    0    0  0.00000000000E+00  0.00000000000E+00  0.14909945551E+04  0.39758642461E+04  0.36857064099E+04 0.  0.
        1    1    3    3  502    0 -0.84278499921E+02  0.17501737361E+04  0.13613132738E+04  0.22188701633E+04  0.50400001928E-02 0. -1.
       -1    1    3    3    0  502  0.84278499921E+02 -0.17501737361E+04  0.12968128123E+03  0.17569940828E+04  0.50400001928E-02 0.  1.
</event>
<event>
 5   0  0.9418945E-08  0.3722497E+04  0.7818609E-02  0.8062995E-01
       -1   -1    0    0    0  501  0.00000000000E+00  0.00000000000E+00  0.16871912857E+04  0.16871912857E+04  0.50400001928E-02 0.  1.
        1   -1    0    0  501    0  0.00000000000E+00  0.00000000000E+00 -0.20532617193E+04  0.20532617193E+04  0.50400001928E-02 0. -1.
    10030    2    1    2    0    0  0.00000000000E+00  0.00000000000E+00 -0.36607043360E+03  0.37404530051E+04  0.37224966247E+04 0.  0.
        5    1    3    3  502    0  0.12242867947E+04 -0.32565116079E+02 -0.15913251996E+04  0.20080529433E+04  0.46999998093E+01 0. -1.
       -5    1    3    3    0  502 -0.12242867947E+04  0.32565116079E+02  0.12252547660E+04  0.17324000618E+04  0.46999998093E+01 0.  1.
</event>
<event>
 5   0  0.3032442E-07  0.3697581E+04  0.7818609E-02  0.8068498E-01
        2   -1    0    0  501    0  0.00000000000E+00  0.00000000000E+00  0.15006137762E+04  0.15006137762E+04  0.25500000920E-02 0.  1.
       -2   -1    0    0    0  501  0.00000000000E+00  0.00000000000E+00 -0.22777516210E+04  0.22777516210E+04  0.25500000920E-02 0. -1.
    10030    2    1    2    0    0  0.00000000000E+00  0.00000000000E+00 -0.77713784471E+03  0.37783653972E+04  0.36975805394E+04 0.  0.
        3    1    3    3  502    0  0.11573880098E+04  0.70223276832E+03 -0.16751837749E+04  0.21538148843E+04  0.10100000352E+00 0. -1.
       -3    1    3    3    0  502 -0.11573880098E+04 -0.70223276832E+03  0.89804593017E+03  0.16245505129E+04  0.10100000352E+00 0.  1.
</event>
<event>
 5   0  0.9418945E-08  0.3717289E+04  0.7818609E-02  0.8064141E-01
        1   -1    0    0  501    0  0.00000000000E+00  0.00000000000E+00  0.19821724406E+04  0.19821724406E+04  0.50400001928E-02 0. -1.
       -1   -1    0    0    0  501  0.00000000000E+00  0.00000000000E+00 -0.17428150108E+04  0.17428150108E+04  0.50400001928E-02 0.  1.
    10030    2    1    2    0    0  0.00000000000E+00  0.00000000000E+00  0.23935742977E+03  0.37249874514E+04  0.37172892723E+04 0.  0.
        5    1    3    3  502    0 -0.25037302588E+03 -0.12403694593E+04 -0.12445129435E+04  0.17748345286E+04  0.46999998093E+01 0.  1.
       -5    1    3    3    0  502  0.25037302588E+03  0.12403694593E+04  0.14838703732E+04  0.19501529227E+04  0.46999998093E+01 0. -1.
</event>
<event>
 5   0  0.9341000E-08  0.3694570E+04  0.7818609E-02  0.8069166E-01
       -1   -1    0    0    0  501  0.00000000000E+00  0.00000000000E+00  0.15735854622E+04  0.15735854623E+04  0.50400001928E-02 0. -1.
        1   -1    0    0  501    0  0.00000000000E+00  0.00000000000E+00 -0.21685898225E+04  0.21685898225E+04  0.50400001928E-02 0.  1.
    10030    2    1    2    0    0  0.00000000000E+00  0.00000000000E+00 -0.59500436029E+03  0.37421752848E+04  0.36945697548E+04 0.  0.
        4    1    3    3  502    0 -0.24193449162E+02  0.18377884748E+04 -0.48538626702E+03  0.19009611364E+04  0.12699999809E+01 0. -1.
       -4    1    3    3    0  502  0.24193449162E+02 -0.18377884748E+04 -0.10961809327E+03  0.18412141484E+04  0.12699999809E+01 0.  1.
</event>
<event>
 5   0  0.2897133E-07  0.3688949E+04  0.7818609E-02  0.8070415E-01
       -2   -1    0    0    0  501  0.00000000000E+00  0.00000000000E+00  0.12493589983E+04  0.12493589983E+04  0.25500000920E-02 0.  1.
        2   -1    0    0  501    0  0.00000000000E+00  0.00000000000E+00 -0.27230660683E+04  0.27230660683E+04  0.25500000920E-02 0. -1.
    10030    2    1    2    0    0  0.00000000000E+00  0.00000000000E+00 -0.14737070701E+04  0.39724250666E+04  0.36889494956E+04 0.  0.
        4    1    3    3  502    0  0.12433931860E+03  0.18402191880E+04 -0.75277322805E+03  0.19921184884E+04  0.12699999809E+01 0. -1.
       -4    1    3    3    0  502 -0.12433931860E+03 -0.18402191880E+04 -0.72093384200E+03  0.19803065782E+04  0.12699999809E+01 0.  1.
</event>
<event>
 5   0  0.2996969E-07  0.3699651E+04  0.7818609E-02  0.8068039E-01
        2   -1    0    0  501    0  0.00000000000E+00  0.00000000000E+00  0.21292716271E+04  0.21292716271E+04  0.25500000920E-02 0. -1.
       -2   -1    0    0    0  501  0.00000000000E+00  0.00000000000E+00 -0.16070542085E+04  0.16070542085E+04  0.25500000920E-02 0.  1.
    10030    2    1    2    0    0  0.00000000000E+00  0.00000000000E+00  0.52221741859E+03  0.37363258356E+04  0.36996512968E+04 0.  0.
        1    1    3    3  502    0  0.17142338806E+04  0.66434993724E+03  0.46782359384E+03  0.18970549680E+04  0.50400001928E-02 0. -1.
       -1    1    3    3    0  502 -0.17142338806E+04 -0.66434993724E+03  0.54393824744E+02  0.18392708677E+04  0.50400001928E-02 0.  1.
</event>
<event>
 5   0  0.9646615E-08  0.3689552E+04  0.7818609E-02  0.8070281E-01
       -1   -1    0    0    0  501  0.00000000000E+00  0.00000000000E+00  0.21250165277E+04  0.21250165277E+04  0.50400001928E-02 0. -1.
        1   -1    0    0  501    0  0.00000000000E+00  0.00000000000E+00 -0.16014928321E+04  0.16014928321E+04  0.50400001928E-02 0.  1.
    10030    2    1    2    0    0  0.00000000000E+00  0.00000000000E+00  0.52352369563E+03  0.37265093598E+04  0.36895521339E+04 0.  0.
        2    1    3    3  502    0 -0.31049654190E+03  0.12081610983E+04  0.16344698498E+04  0.20561014158E+04  0.25500000920E-02 0. -1.
       -2    1    3    3    0  502  0.31049654190E+03 -0.12081610983E+04 -0.11109461542E+04  0.16704079440E+04  0.25500000920E-02 0.  1.
</event>
<event>
 5   0  0.3008879E-07  0.3743769E+04  0.7818609E-02  0.8058331E-01
        2   -1    0    0  501    0  0.00000000000E+00  0.00000000000E+00  0.24639588784E+04  0.24639588784E+04  0.25500000920E-02 0.  1.
       -2   -1    0    0    0  501  0.00000000000E+00  0.00000000000E+00 -0.14220821809E+04  0.14220821809E+04  0.25500000920E-02 0. -1.
    10030    2    1    2    0    0  0.00000000000E+00  0.00000000000E+00  0.10418766975E+04  0.38860410594E+04  0.37437692320E+04 0.  0.
        2    1    3    3  502    0  0.13787300316E+03 -0.68655220059E+03  0.23228783834E+04  0.24261341416E+04  0.25500000920E-02 0.  1.
       -2    1    3    3    0  502 -0.13787300316E+03  0.68655220059E+03 -0.12810016859E+04  0.14599069177E+04  0.25500000920E-02 0. -1.
</event>
<event>
 5   0  0.2996969E-07  0.3654701E+04  0.7818609E-02  0.8078076E-01
        2   -1    0    0  501    0  0.00000000000E+00  0.00000000000E+00  0.18168520420E+04  0.18168520420E+04  0.25500000920E-02 0.  1.
       -2   -1    0    0    0  501  0.00000000000E+00  0.00000000000E+00 -0.18379092317E+04  0.18379092317E+04  0.25500000920E-02 0. -1.
    10030    2    1    2    0    0  0.00000000000E+00  0.00000000000E+00 -0.21057189699E+02  0.36547612737E+04  0.36547006119E+04 0.  0.
        1    1    3    3  502    0 -0.18188703828E+04  0.15421980100E+03  0.73947205647E+02  0.18268939230E+04  0.50400001928E-02 0.  1.
       -1    1    3    3    0  502  0.18188703828E+04 -0.15421980100E+03 -0.95004395346E+02  0.18278673507E+04  0.50400001928E-02 0. -1.
</event>
<event>
 5   0  0.3032442E-07  0.3548547E+04  0.7818609E-02  0.8102380E-01
       -2   -1    0    0    0  501  0.00000000000E+00  0.00000000000E+00  0.19369828764E+04  0.19369828764E+04  0.25500000920E-02 0. -1.
        2   -1    0    0  501    0  0.00000000000E+00  0.00000000000E+00 -0.16252323552E+04  0.16252323552E+04  0.25500000920E-02 0.  1.
    10030    2    1    2    0    0  0.00000000000E+00  0.00000000000E+00  0.31175052114E+03  0.35622152316E+04  0.35485474449E+04 0.  0.
        3    1    3    3  502    0 -0.25043199270E+03 -0.42296523571E+03  0.18672675969E+04  0.19308816800E+04  0.10100000352E+00 0. -1.
       -3    1    3    3    0  502  0.25043199270E+03  0.42296523571E+03 -0.15555170757E+04  0.16313335516E+04  0.10100000352E+00 0.  1.
</event>
<event>
 5   0  0.3008879E-07  0.3679437E+04  0.7818609E-02  0.8072534E-01
       -2   -1    0    0    0  501  0.00000000000E+00  0.00000000000E+00  0.19007105309E+04  0.19007105309E+04  0.25500000920E-02 0.  1.
        2   -1    0    0  501    0  0.00000000000E+00  0.00000000000E+00 -0.17806834487E+04  0.17806834487E+04  0.25500000920E-02 0. -1.
    10030    2    1    2    0    0  0.00000000000E+00  0.00000000000E+00  0.12002708227E+03  0.36813939796E+04  0.36794367956E+04 0.  0.
        2    1    3    3  502    0 -0.65025967782E+03  0.13487900800E+04  0.11294560208E+04  0.18755647766E+04  0.25500000920E-02 0.  1.
       -2    1    3    3    0  502  0.65025967782E+03 -0.13487900800E+04 -0.10094289386E+04  0.18058292030E+04  0.25500000920E-02 0. -1.
</event>
<event>
 5   0  0.9418945E-08  0.3686002E+04  0.7818609E-02  0.8071071E-01
       -1   -1    0    0    0  501  0.00000000000E+00  0.00000000000E+00  0.13192992220E+04  0.13192992220E+04  0.50400001928E-02 0. -1.
        1   -1    0    0  501    0  0.00000000000E+00  0.00000000000E+00 -0.25745889762E+04  0.25745889762E+04  0.50400001928E-02 0.  1.
    10030    2    1    2    0    0  0.00000000000E+00  0.00000000000E+00 -0.12552897543E+04  0.38938881982E+04  0.36860022969E+04 0.  0.
        5    1    3    3  502    0 -0.18528710888E+03  0.31024820335E+03 -0.25367903287E+04  0.25624036610E+04  0.46999998093E+01 0.  1.
       -5    1    3    3    0  502  0.18528710888E+03 -0.31024820335E+03  0.12815005744E+04  0.13314845371E+04  0.46999998093E+01 0. -1.
</event>
<event>
 5   0  0.2897133E-07  0.3706702E+04  0.7818609E-02  0.8066478E-01
        2   -1    0    0  501    0  0.00000000000E+00  0.00000000000E+00  0.21459981467E+04  0.21459981467E+04  0.25500000920E-02 0.  1.
       -2   -1    0    0    0  501  0.00000000000E+00  0.00000000000E+00 -0.16006115028E+04  0.16006115028E+04  0.25500000920E-02 0. -1.
    10030    2    1    2    0    0  0.00000000000E+00  0.00000000000E+00  0.54538664389E+03  0.37466096496E+04  0.37067016706E+04 0.  0.
        4    1    3    3  502    0  0.15432935788E+04  0.76811614891E+03 -0.41518520038E+03  0.17731716928E+04  0.12699999809E+01 0.  1.
       -4    1    3    3    0  502 -0.15432935788E+04 -0.76811614891E+03  0.96057184427E+03  0.19734379568E+04  0.12699999809E+01 0. -1.
</event>
<event>
 5   0  0.9341000E-08  0.3698560E+04  0.7818609E-02  0.8068281E-01
        1   -1    0    0  501    0  0.00000000000E+00  0.00000000000E+00  0.24911480182E+04  0.24911480182E+04  0.50400001928E-02 0.  1.
       -1   -1    0    0    0  501  0.00000000000E+00  0.00000000000E+00 -0.13727951479E+04  0.13727951479E+04  0.50400001928E-02 0. -1.
    10030    2    1    2    0    0  0.00000000000E+00  0.00000000000E+00  0.11183528703E+04  0.38639431661E+04  0.36985596722E+04 0.  0.
        3    1    3    3  502    0  0.12511231473E+04  0.31481089100E+03  0.19433441944E+04  0.23325954846E+04  0.10100000352E+00 0.  1.
       -3    1    3    3    0  502 -0.12511231473E+04 -0.31481089100E+03 -0.82499132408E+03  0.15313476815E+04  0.10100000352E+00 0. -1.
</event>
<event>
 5   0  0.9341000E-08  0.3701414E+04  0.7818609E-02  0.8067649E-01
        1   -1    0    0  501    0  0.00000000000E+00  0.00000000000E+00  0.13908271970E+04  0.13908271970E+04  0.50400001928E-02 0.  1.
       -1   -1    0    0    0  501  0.00000000000E+00  0.00000000000E+00 -0.24626469791E+04  0.24626469791E+04  0.50400001928E-02 0. -1.
    10030    2    1    2    0    0  0.00000000000E+00  0.00000000000E+00 -0.10718197821E+04  0.38534741761E+04  0.37014139975E+04 0.  0.
        3    1    3    3  502    0  0.14918260992E+04 -0.10254315131E+04 -0.13531459753E+03  0.18153140084E+04  0.10100000352E+00 0. -1.
       -3    1    3    3    0  502 -0.14918260992E+04  0.10254315131E+04 -0.93650518456E+03  0.20381601677E+04  0.10100000352E+00 0.  1.
</event>
<event>
 5   0  0.3032442E-07  0.3357901E+04  0.7818609E-02  0.8148317E-01
       -2   -1    0    0    0  501  0.00000000000E+00  0.00000000000E+00  0.24738267494E+04  0.24738267494E+04  0.25500000920E-02 0.  1.
        2   -1    0    0  501    0  0.00000000000E+00  0.00000000000E+00 -0.11394796207E+04  0.11394796207E+04  0.25500000920E-02 0. -1.
    10030    2    1    2    0    0  0.00000000000E+00  0.00000000000E+00  0.13343471287E+04  0.36133063701E+04  0.33579012291E+04 0.  0.
        3    1    3    3  502    0 -0.49171018391E+03  0.10770607425E+04 -0.61376226517E+03  0.13336202144E+04  0.10100000352E+00 0. -1.
       -3    1    3    3    0  502  0.49171018391E+03 -0.10770607425E+04  0.19481093938E+04  0.22796861557E+04  0.10100000352E+00 0.  1.
</event>
<event>
 5   0  0.9341000E-08  0.3702321E+04  0.7818609E-02  0.8067448E-01
       -1   -1    0    0    0  501  0.00000000000E+00  0.00000000000E+00  0.17295395615E+04  0.17295395615E+04  0.50400001928E-02 0.  1.
        1   -1    0    0  501    0  0.00000000000E+00  0.00000000000E+00 -0.19813337647E+04  0.19813337647E+04  0.50400001928E-02 0. -1.
    10030    2    1    2    0    0  0.00000000000E+00  0.00000000000E+00 -0.25179420315E+03  0.37108733262E+04  0.37023209642E+04 0.  0.
        3    1    3    3  502    0 -0.12477959837E+04  0.73035050119E+03  0.10327959963E+04  0.17768157619E+04  0.10100000352E+00 0.  1.
       -3    1    3    3    0  502  0.12477959837E+04 -0.73035050119E+03 -0.12845901994E+04  0.19340575643E+04  0.10100000352E+00 0. -1.
</event>
<event>
 5   0  0.9341000E-08  0.3668529E+04  0.7818609E-02  0.8074972E-01
        1   -1    0    0  501    0  0.00000000000E+00  0.00000000000E+00  0.12187194164E+04  0.12187194164E+04  0.50400001928E-02 0.  1.
       -1   -1    0    0    0  501  0.00000000000E+00  0.00000000000E+00 -0.27607066996E+04  0.27607066996E+04  0.50400001928E-02 0. -1.
    10030    2    1    2    0    0  0.00000000000E+00  0.00000000000E+00 -0.15419872832E+04  0.39794261160E+04  0.36685293281E+04 0.  0.
        4    1    3    3  502    0 -0.15136534688E+04  0.10110076831E+04 -0.10165442439E+04  0.20848614274E+04  0.12699999809E+01 0. -1.
       -4    1    3    3    0  502  0.15136534688E+04 -0.10110076831E+04 -0.52544303927E+03  0.18945646886E+04  0.12699999809E+01 0.  1.
</event>
<event>
 5   0  0.9418945E-08  0.3664196E+04  0.7818609E-02  0.8075943E-01
        1   -1    0    0  501    0  0.00000000000E+00  0.00000000000E+00  0.23991574164E+04  0.23991574164E+04  0.50400001928E-02 0.  1.
       -1   -1    0    0    0  501  0.00000000000E+00  0.00000000000E+00 -0.13990672429E+04  0.13990672429E+04  0.50400001928E-02 0. -1.
    10030    2    1    2    0    0  0.00000000000E+00  0.00000000000E+00  0.10000901735E+04  0.37982246593E+04  0.36641957109E+04 0.  0.
        5    1    3    3  502    0  0.10881116215E+04  0.40496454616E+03  0.19691278381E+04  0.22859286335E+04  0.46999998093E+01 0.  1.
       -5    1    3    3    0  502 -0.10881116215E+04 -0.40496454616E+03 -0.96903766453E+03  0.15122960259E+04  0.46999998093E+01 0. -1.
</event>
<event>
 5   0  0.9341000E-08  0.3712832E+04  0.7818609E-02  0.8065124E-01
       -1   -1    0    0    0  501  0.00000000000E+00  0.00000000000E+00  0.11712205514E+04  0.11712205515E+04  0.50400001928E-02 0.  1.
        1   -1    0    0  501    0  0.00000000000E+00  0.00000000000E+00 -0.29424691455E+04  0.29424691455E+04  0.50400001928E-02 0. -1.
    10030    2    1    2    0    0  0.00000000000E+00  0.00000000000E+00 -0.17712485941E+04  0.41136896970E+04  0.37128319839E+04 0.  0.
        4    1    3    3  502    0  0.12197669481E+04 -0.12750136684E+04 -0.15247844748E+04  0.23320507220E+04  0.12699999809E+01 0.  1.
       -4    1    3    3    0  502 -0.12197669481E+04  0.12750136684E+04 -0.24646411927E+03  0.17816389750E+04  0.12699999809E+01 0. -1.
</event>
<event>
 5   0  0.3032442E-07  0.3760979E+04  0.7818609E-02  0.8054581E-01
       -2   -1    0    0    0  501  0.00000000000E+00  0.00000000000E+00  0.19664486155E+04  0.19664486155E+04  0.25500000920E-02 0. -1.
        2   -1    0    0  501    0  0.00000000000E+00  0.00000000000E+00 -0.17982877868E+04  0.17982877868E+04  0.25500000920E-02 0.  1.
    10030    2    1    2    0    0  0.00000000000E+00  0.00000000000E+00  0.16816082861E+03  0.37647364023E+04  0.37609788772E+04 0.  0.
        3    1    3    3  502    0  0.17147297009E+04 -0.32975225564E+03 -0.61461839396E+03  0.18511591714E+04  0.10100000352E+00 0.  1.
       -3    1    3    3    0  502 -0.17147297009E+04  0.32975225564E+03  0.78277922257E+03  0.19135772309E+04  0.10100000352E+00 0. -1.
</event>
<event>
 5   0  0.9341000E-08  0.3754745E+04  0.7818609E-02  0.8055937E-01
       -1   -1    0    0    0  501  0.00000000000E+00  0.00000000000E+00  0.27882035059E+04  0.27882035059E+04  0.50400001928E-02 0. -1.
        1   -1    0    0  501    0  0.00000000000E+00  0.00000000000E+00 -0.12640857463E+04  0.12640857463E+04  0.50400001928E-02 0.  1.
    10030    2    1    2    0    0  0.00000000000E+00  0.00000000000E+00  0.15241177596E+04  0.40522892523E+04  0.37547454293E+04 0.  0.
        1    1    3    3  502    0 -0.47008503446E+03  0.10355565130E+04  0.23741380865E+04  0.26324682116E+04  0.50400001928E-02 0. -1.
       -1    1    3    3    0  502  0.47008503446E+03 -0.10355565130E+04 -0.85002032692E+03  0.14198210407E+04  0.50400001928E-02 0.  1.
</event>
<event>
 5   0  0.3032442E-07  0.3641273E+04  0.7818609E-02  0.8081103E-01
       -2   -1    0    0    0  501  0.00000000000E+00  0.00000000000E+00  0.22430183267E+04  0.22430183267E+04  0.25500000920E-02 0. -1.
        2   -1    0    0  501    0  0.00000000000E+00  0.00000000000E+00 -0.14777931460E+04  0.14777931460E+04  0.25500000920E-02 0.  1.
    10030    2    1    2    0    0  0.00000000000E+00  0.00000000000E+00  0.76522518073E+03  0.37208114727E+04  0.36412729145E+04 0.  0.
        3    1    3    3  502    0 -0.28660169342E+03  0.15167613134E+04  0.13691081029E+04  0.20632892236E+04  0.10100000352E+00 0. -1.
       -3    1    3    3    0  502  0.28660169342E+03 -0.15167613134E+04 -0.60388292218E+03  0.16575222491E+04  0.10100000352E+00 0.  1.
</event>
<event>
 5   0  0.2897133E-07  0.3684955E+04  0.7818609E-02  0.8071304E-01
       -2   -1    0    0    0  501  0.00000000000E+00  0.00000000000E+00  0.23252355736E+04  0.23252355736E+04  0.25500000920E-02 0. -1.
        2   -1    0    0  501    0  0.00000000000E+00  0.00000000000E+00 -0.14599483416E+04  0.14599483416E+04  0.25500000920E-02 0.  1.
    10030    2    1    2    0    0  0.00000000000E+00  0.00000000000E+00  0.86528723203E+03  0.37851839152E+04  0.36849552613E+04 0.  0.
        4    1    3    3  502    0 -0.49432258840E+03  0.16487864414E+04  0.11076868902E+04  0.20469058138E+04  0.12699999809E+01 0. -1.
       -4    1    3    3    0  502  0.49432258840E+03 -0.16487864414E+04 -0.24239965821E+03  0.17382781014E+04  0.12699999809E+01 0.  1.
</event>
<event>
 5   0  0.9341000E-08  0.3720399E+04  0.7818609E-02  0.8063456E-01
       -1   -1    0    0    0  501  0.00000000000E+00  0.00000000000E+00  0.10559731870E+04  0.10559731870E+04  0.50400001928E-02 0. -1.
        1   -1    0    0  501    0  0.00000000000E+00  0.00000000000E+00 -0.32769223400E+04  0.32769223401E+04  0.50400001928E-02 0.  1.
    10030    2    1    2    0    0  0.00000000000E+00  0.00000000000E+00 -0.22209491530E+04  0.43328955271E+04  0.37203989717E+04 0.  0.
        1    1    3    3  502    0 -0.93270702031E+02 -0.18549779084E+04 -0.12309431427E+04  0.22281973623E+04  0.50400001928E-02 0.  1.
       -1    1    3    3    0  502  0.93270702031E+02  0.18549779084E+04 -0.99000601028E+03  0.21046981648E+04  0.50400001928E-02 0. -1.
</event>
<event>
 5   0  0.9341000E-08  0.3705763E+04  0.7818609E-02  0.8066686E-01
       -1   -1    0    0    0  501  0.00000000000E+00  0.00000000000E+00  0.16238745674E+04  0.16238745674E+04  0.50400001928E-02 0. -1.
        1   -1    0    0  501    0  0.00000000000E+00  0.00000000000E+00 -0.21141842193E+04  0.21141842193E+04  0.50400001928E-02 0.  1.
    10030    2    1    2    0    0  0.00000000000E+00  0.00000000000E+00 -0.49030965192E+03  0.37380587867E+04  0.37057630709E+04 0.  0.
        1    1    3    3  502    0 -0.49115547945E+02  0.59566795438E+03 -0.20142745304E+04  0.21010793733E+04  0.50400001928E-02 0.  1.
       -1    1    3    3    0  502  0.49115547945E+02 -0.59566795438E+03  0.15239648785E+04  0.16369794134E+04  0.50400001928E-02 0. -1.
</event>
<event>
 5   0  0.3008879E-07  0.3753178E+04  0.7818609E-02  0.8056278E-01
        2   -1    0    0  501    0  0.00000000000E+00  0.00000000000E+00  0.23866399963E+04  0.23866399963E+04  0.25500000920E-02 0. -1.
       -2   -1    0    0    0  501  0.00000000000E+00  0.00000000000E+00 -0.14755417414E+04  0.14755417414E+04  0.25500000920E-02 0.  1.
    10030    2    1    2    0    0  0.00000000000E+00  0.00000000000E+00  0.91109825495E+03  0.38621817377E+04  0.37531783524E+04 0.  0.
        2    1    3    3  502    0  0.45523826952E+03 -0.75046175618E+03  0.21623812684E+04  0.23337368060E+04  0.25500000920E-02 0. -1.
       -2    1    3    3    0  502 -0.45523826952E+03  0.75046175618E+03 -0.12512830135E+04  0.15284449317E+04  0.25500000920E-02 0.  1.
</event>
<event>
 5   0  0.3032442E-07  0.3715066E+04  0.7818609E-02  0.8064631E-01
       -2   -1    0    0    0  501  0.00000000000E+00  0.00000000000E+00  0.14667619949E+04  0.14667619949E+04  0.25500000920E-02 0.  1.
        2   -1    0    0  501    0  0.00000000000E+00  0.00000000000E+00 -0.23524120732E+04  0.23524120732E+04  0.25500000920E-02 0. -1.
    10030    2    1    2    0    0  0.00000000000E+00  0.00000000000E+00 -0.88565007830E+03  0.38191740682E+04  0.37150658812E+04 0.  0.
        3    1    3    3  502    0 -0.12082969441E+04 -0.96144293823E+03 -0.15042681641E+04  0.21557311401E+04  0.10100000352E+00 0. -1.
       -3    1    3    3    0  502  0.12082969441E+04  0.96144293823E+03  0.61861808580E+03  0.16634429281E+04  0.10100000352E+00 0.  1.
</event>
<event>
 5   0  0.9341000E-08  0.3676330E+04  0.7818609E-02  0.8073228E-01
        1   -1    0    0  501    0  0.00000000000E+00  0.00000000000E+00  0.15569017334E+04  0.15569017334E+04  0.50400001928E-02 0.  1.
       -1   -1    0    0    0  501  0.00000000000E+00  0.00000000000E+00 -0.21702401858E+04  0.21702401858E+04  0.50400001928E-02 0. -1.
    10030    2    1    2    0    0  0.00000000000E+00  0.00000000000E+00 -0.61333845244E+03  0.37271419192E+04  0.36763300761E+04 0.  0.
        4    1    3    3  502    0 -0.77618130939E+03  0.86375471471E+02 -0.19936785979E+04  0.21411852119E+04  0.12699999809E+01 0. -1.
       -4    1    3    3    0  502  0.77618130939E+03 -0.86375471471E+02  0.13803401455E+04  0.15859567072E+04  0.12699999809E+01 0.  1.
</event>
<event>
 5   0  0.9646615E-08  0.3690126E+04  0.7818609E-02  0.8070153E-01
       -1   -1    0    0    0  501  0.00000000000E+00  0.00000000000E+00  0.22045124021E+04  0.22045124021E+04  0.50400001928E-02 0. -1.
        1   -1    0    0  501    0  0.00000000000E+00  0.00000000000E+00 -0.15442226830E+04  0.15442226830E+04  0.50400001928E-02 0.  1.
    10030    2    1    2    0    0  0.00000000000E+00  0.00000000000E+00  0.66028971909E+03  0.37487350851E+04  0.36901263156E+04 0.  0.
        2    1    3    3  502    0 -0.13561749670E+04 -0.62746825589E+03  0.14296147893E+04  0.20680245161E+04  0.25500000920E-02 0. -1.
       -2    1    3    3    0  502  0.13561749670E+04  0.62746825589E+03 -0.76932507022E+03  0.16807105691E+04  0.25500000920E-02 0.  1.
</event>
<event>
 5   0  0.9341000E-08  0.3743207E+04  0.7818609E-02  0.8058454E-01
       -1   -1    0    0    0  501  0.00000000000E+00  0.00000000000E+00  0.13234370733E+04  0.13234370733E+04  0.50400001928E-02 0. -1.
        1   -1    0    0  501    0  0.00000000000E+00  0.00000000000E+00 -0.26468200770E+04  0.26468200770E+04  0.50400001928E-02 0.  1.
    10030    2    1    2    0    0  0.00000000000E+00  0.00000000000E+00 -0.13233830037E+04  0.39702571503E+04  0.37432070828E+04 0.  0.
        1    1    3    3  502    0  0.83293274121E+03 -0.14061523550E+04 -0.16290768178E+04  0.23075815641E+04  0.50400001928E-02 0.  1.
       -1    1    3    3    0  502 -0.83293274121E+03  0.14061523550E+04  0.30569381413E+03  0.16626755861E+04  0.50400001928E-02 0. -1.
</event>
<event>
 5   0  0.3008879E-07  0.3696319E+04  0.7818609E-02  0.8068778E-01
       -2   -1    0    0    0  501  0.00000000000E+00  0.00000000000E+00  0.10967836120E+04  0.10967836120E+04  0.25500000920E-02 0.  1.
        2   -1    0    0  501    0  0.00000000000E+00  0.00000000000E+00 -0.31142816672E+04  0.31142816672E+04  0.25500000920E-02 0. -1.
    10030    2    1    2    0    0  0.00000000000E+00  0.00000000000E+00 -0.20174980552E+04  0.42110652793E+04  0.36963187611E+04 0.  0.
        2    1    3    3  502    0 -0.10226734573E+03  0.18246717596E+04 -0.13224230239E+04  0.22558121142E+04  0.25500000920E-02 0.  1.
       -2    1    3    3    0  502  0.10226734573E+03 -0.18246717596E+04 -0.69507503126E+03  0.19552531650E+04  0.25500000920E-02 0. -1.
</event>
<event>
 5   0  0.9418945E-08  0.3674750E+04  0.7818609E-02  0.8073581E-01
       -1   -1    0    0    0  501  0.00000000000E+00  0.00000000000E+00  0.17234036236E+04  0.17234036237E+04  0.50400001928E-02 0. -1.
        1   -1    0    0  501    0  0.00000000000E+00  0.00000000000E+00 -0.19588831571E+04  0.19588831571E+04  0.50400001928E-02 0.  1.
    10030    2    1    2    0    0  0.00000000000E+00  0.00000000000E+00 -0.23547953346E+03  0.36822867808E+04  0.36747496956E+04 0.  0.
        5    1    3    3  502    0  0.40451189157E+02 -0.26674305504E+03 -0.19389206356E+04  0.19576065685E+04  0.46999998093E+01 0.  1.
       -5    1    3    3    0  502 -0.40451189157E+02  0.26674305504E+03  0.17034411021E+04  0.17246802122E+04  0.46999998093E+01 0. -1.
</event>
<event>
 5   0  0.9341000E-08  0.3703660E+04  0.7818609E-02  0.8067151E-01
        1   -1    0    0  501    0  0.00000000000E+00  0.00000000000E+00  0.16966917991E+04  0.16966917991E+04  0.50400001928E-02 0.  1.
       -1   -1    0    0    0  501  0.00000000000E+00  0.00000000000E+00 -0.20211532107E+04  0.20211532107E+04  0.50400001928E-02 0. -1.
    10030    2    1    2    0    0  0.00000000000E+00  0.00000000000E+00 -0.32446141154E+03  0.37178450098E+04  0.37036598533E+04 0.  0.
        3    1    3    3  502    0 -0.14464543068E+02  0.21055254346E+03 -0.20090413152E+04  0.20200961890E+04  0.10100000352E+00 0. -1.
       -3    1    3    3    0  502  0.14464543068E+02 -0.21055254346E+03  0.16845799036E+04  0.16977488208E+04  0.10100000352E+00 0.  1.
</event>
<event>
 5   0  0.3032442E-07  0.3584096E+04  0.7818609E-02  0.8094144E-01
       -2   -1    0    0    0  501  0.00000000000E+00  0.00000000000E+00  0.13994648359E+04  0.13994648359E+04  0.25500000920E-02 0. -1.
        2   -1    0    0  501    0  0.00000000000E+00  0.00000000000E+00 -0.22947601072E+04  0.22947601072E+04  0.25500000920E-02 0.  1.
    10030    2    1    2    0    0  0.00000000000E+00  0.00000000000E+00 -0.89529527135E+03  0.36942249431E+04  0.35840960237E+04 0.  0.
        3    1    3    3  502    0 -0.15577175142E+04  0.79163944159E+03 -0.37605778102E+02  0.17477388433E+04  0.10100000352E+00 0. -1.
       -3    1    3    3    0  502  0.15577175142E+04 -0.79163944159E+03 -0.85768949324E+03  0.19464860998E+04  0.10100000352E+00 0.  1.
</event>
<event>
 5   0  0.3032442E-07  0.3674238E+04  0.7818609E-02  0.8073695E-01
       -2   -1    0    0    0  501  0.00000000000E+00  0.00000000000E+00  0.19208415407E+04  0.19208415407E+04  0.25500000920E-02 0. -1.
        2   -1    0    0  501    0  0.00000000000E+00  0.00000000000E+00 -0.17570456416E+04  0.17570456416E+04  0.25500000920E-02 0.  1.
    10030    2    1    2    0    0  0.00000000000E+00  0.00000000000E+00  0.16379589908E+03  0.36778871823E+04  0.36742380202E+04 0.  0.
        3    1    3    3  502    0 -0.13822869161E+04  0.11459269310E+04 -0.30725621634E+03  0.18216124841E+04  0.10100000352E+00 0.  1.
       -3    1    3    3    0  502  0.13822869161E+04 -0.11459269310E+04  0.47105211542E+03  0.18562746982E+04  0.10100000352E+00 0. -1.
</event>
<event>
 5   0  0.9341000E-08  0.3695767E+04  0.7818609E-02  0.8068900E-01
       -1   -1    0    0    0  501  0.00000000000E+00  0.00000000000E+00  0.15866284039E+04  0.15866284039E+04  0.50400001928E-02 0. -1.
        1   -1    0    0  501    0  0.00000000000E+00  0.00000000000E+00 -0.21521574199E+04  0.21521574199E+04  0.50400001928E-02 0.  1.
    10030    2    1    2    0    0  0.00000000000E+00  0.00000000000E+00 -0.56552901599E+03  0.37387858238E+04  0.36957673585E+04 0.  0.
        1    1    3    3  502    0 -0.15575051135E+04 -0.93226147000E+03 -0.63282768675E+03  0.19223434938E+04  0.50400001928E-02 0.  1.
       -1    1    3    3    0  502  0.15575051135E+04  0.93226147000E+03  0.67298670762E+02  0.18164423300E+04  0.50400001928E-02 0. -1.
</event>
<event>
 5   0  0.2996969E-07  0.3717254E+04  0.7818609E-02  0.8064149E-01
        2   -1    0    0  501    0  0.00000000000E+00  0.00000000000E+00  0.15958557769E+04  0.15958557769E+04  0.25500000920E-02 0.  1.
       -2   -1    0    0    0  501  0.00000000000E+00  0.00000000000E+00 -0.21646662393E+04  0.21646662393E+04  0.25500000920E-02 0. -1.
    10030    2    1    2    0    0  0.00000000000E+00  0.00000000000E+00 -0.56881046243E+03  0.37605220162E+04  0.37172544293E+04 0.  0.
        1    1    3    3  502    0 -0.10211163038E+03  0.18176485292E+04  0.94415883753E+02  0.18229611405E+04  0.50400001928E-02 0.  1.
       -1    1    3    3    0  502  0.10211163038E+03 -0.18176485292E+04 -0.66322634619E+03  0.19375608757E+04  0.50400001928E-02 0. -1.
</event>
<event>
 5   0  0.9341000E-08  0.3703730E+04  0.7818609E-02  0.8067136E-01
        1   -1    0    0  501    0  0.00000000000E+00  0.00000000000E+00  0.17983852145E+04  0.17983852145E+04  0.50400001928E-02 0. -1.
       -1   -1    0    0    0  501  0.00000000000E+00  0.00000000000E+00 -0.19069352301E+04  0.19069352301E+04  0.50400001928E-02 0.  1.
    10030    2    1    2    0    0  0.00000000000E+00  0.00000000000E+00 -0.10855001568E+03  0.37053204446E+04  0.37037300781E+04 0.  0.
        4    1    3    3  502    0 -0.17629265474E+04  0.65982933959E+02  0.50911754209E+03  0.18361552341E+04  0.12699999809E+01 0. -1.
       -4    1    3    3    0  502  0.17629265474E+04 -0.65982933959E+02 -0.61766755777E+03  0.18691652105E+04  0.12699999809E+01 0.  1.
</event>
<event>
 5   0  0.9341000E-08  0.3712082E+04  0.7818609E-02  0.8065289E-01
       -1   -1    0    0    0  501  0.00000000000E+00  0.00000000000E+00  0.21853894773E+04  0.21853894773E+04  0.50400001928E-02 0. -1.
        1   -1    0    0  501    0  0.00000000000E+00  0.00000000000E+00 -0.15763272544E+04  0.15763272544E+04  0.50400001928E-02 0.  1.
    10030    2    1    2    0    0  0.00000000000E+00  0.00000000000E+00  0.60906222286E+03  0.37617167317E+04  0.37120824315E+04 0.  0.
        1    1    3    3  502    0  0.28581352971E+03 -0.14719331244E+04 -0.80399325643E+03  0.17013763996E+04  0.50400001928E-02 0.  1.
       -1    1    3    3    0  502 -0.28581352971E+03  0.14719331244E+04  0.14130554793E+04  0.20603403321E+04  0.50400001928E-02 0. -1.
</event>
<event>
 5   0  0.9646615E-08  0.3744244E+04  0.7818609E-02  0.8058227E-01
        1   -1    0    0  501    0  0.00000000000E+00  0.00000000000E+00  0.22242148733E+04  0.22242148733E+04  0.50400001928E-02 0.  1.
       -1   -1    0    0    0  501  0.00000000000E+00  0.00000000000E+00 -0.15757653978E+04  0.15757653979E+04  0.50400001928E-02 0. -1.
    10030    2    1    2    0    0  0.00000000000E+00  0.00000000000E+00  0.64844947549E+03  0.37999802712E+04  0.37442440277E+04 0.  0.
        2    1    3    3  502    0  0.75311922921E+02  0.12014435914E+04 -0.11308902074E+04  0.16516813404E+04  0.25500000920E-02 0. -1.
       -2    1    3    3    0  502 -0.75311922921E+02 -0.12014435914E+04  0.17793396829E+04  0.21482989308E+04  0.25500000920E-02 0.  1.
</event>
<event>
 5   0  0.2996969E-07  0.3697994E+04  0.7818609E-02  0.8068407E-01
       -2   -1    0    0    0  501  0.00000000000E+00  0.00000000000E+00  0.16574121920E+04  0.16574121920E+04  0.25500000920E-02 0. -1.
        2   -1    0    0  501    0  0.00000000000E+00  0.00000000000E+00 -0.20627270939E+04  0.20627270939E+04  0.25500000920E-02 0.  1.
    10030    2    1    2    0    0  0.00000000000E+00  0.00000000000E+00 -0.40531490192E+03  0.37201392859E+04  0.36979935285E+04 0.  0.
        1    1    3    3  502    0  0.38931837320E+03  0.89752480097E+03 -0.17810242014E+04  0.20320351301E+04  0.50400001928E-02 0.  1.
       -1    1    3    3    0  502 -0.38931837320E+03 -0.89752480097E+03  0.13757092994E+04  0.16881041558E+04  0.50400001928E-02 0. -1.
</event>
<event>
 5   0  0.9341000E-08  0.3351906E+04  0.7818609E-02  0.8149812E-01
       -1   -1    0    0    0  501  0.00000000000E+00  0.00000000000E+00  0.13690031944E+04  0.13690031944E+04  0.50400001928E-02 0. -1.
        1   -1    0    0  501    0  0.00000000000E+00  0.00000000000E+00 -0.20517258659E+04  0.20517258659E+04  0.50400001928E-02 0.  1.
    10030    2    1    2    0    0  0.00000000000E+00  0.00000000000E+00 -0.68272267142E+03  0.34207290603E+04  0.33519064811E+04 0.  0.
        4    1    3    3  502    0  0.44710219454E+03  0.14586330309E+04 -0.10493688306E+04  0.18516714737E+04  0.12699999809E+01 0.  1.
       -4    1    3    3    0  502 -0.44710219454E+03 -0.14586330309E+04  0.36664615917E+03  0.15690575866E+04  0.12699999809E+01 0. -1.
</event>
<event>
 5   0  0.9646615E-08  0.3670023E+04  0.7818609E-02  0.8074638E-01
       -1   -1    0    0    0  501  0.00000000000E+00  0.00000000000E+00  0.13923755179E+04  0.13923755179E+04  0.50400001928E-02 0.  1.
        1   -1    0    0  501    0  0.00000000000E+00  0.00000000000E+00 -0.24183610843E+04  0.24183610843E+04  0.50400001928E-02 0. -1.
    10030    2    1    2    0    0  0.00000000000E+00  0.00000000000E+00 -0.10259855664E+04  0.38107366022E+04  0.36700227614E+04 0.  0.
        2    1    3    3  502    0 -0.73682332541E+03 -0.15829158986E+04 -0.10992056309E+04  0.20631976090E+04  0.25500000920E-02 0. -1.
       -2    1    3    3    0  502  0.73682332541E+03  0.15829158986E+04  0.73220064577E+02  0.17475389932E+04  0.25500000920E-02 0.  1.
</event>
<event>
 5   0  0.3008879E-07  0.3709907E+04  0.7818609E-02  0.8065770E-01
        2   -1    0    0  501    0  0.00000000000E+00  0.00000000000E+00  0.22324810689E+04  0.22324810689E+04  0.25500000920E-02 0.  1.
       -2   -1    0    0    0  501  0.00000000000E+00  0.00000000000E+00 -0.15412684497E+04  0.15412684497E+04  0.25500000920E-02 0. -1.
    10030    2    1    2    0    0  0.00000000000E+00  0.00000000000E+00  0.69121261921E+03  0.37737495185E+04  0.37099070802E+04 0.  0.
        2    1    3    3  502    0  0.13177990089E+02  0.15594686558E+04  0.13672486977E+04  0.20740022057E+04  0.25500000920E-02 0.  1.
       -2    1    3    3    0  502 -0.13177990089E+02 -0.15594686558E+04 -0.67603607848E+03  0.16997473128E+04  0.25500000920E-02 0. -1.
</event>
<event>
 5   0  0.9341000E-08  0.3707115E+04  0.7818609E-02  0.8066387E-01
       -1   -1    0    0    0  501  0.00000000000E+00  0.00000000000E+00  0.20775551713E+04  0.20775551713E+04  0.50400001928E-02 0. -1.
        1   -1    0    0  501    0  0.00000000000E+00  0.00000000000E+00 -0.16537106718E+04  0.16537106718E+04  0.50400001928E-02 0.  1.
    10030    2    1    2    0    0  0.00000000000E+00  0.00000000000E+00  0.42384449942E+03  0.37312658431E+04  0.37071148663E+04 0.  0.
        3    1    3    3  502    0 -0.11006420257E+04 -0.14161314365E+04 -0.25892233759E+03  0.18121484214E+04  0.10100000352E+00 0. -1.
       -3    1    3    3    0  502  0.11006420257E+04  0.14161314365E+04  0.68276683701E+03  0.19191174217E+04  0.10100000352E+00 0.  1.
</event>
<event>
 5   0  0.2913025E-07  0.3713264E+04  0.7818609E-02  0.8065029E-01
        2   -1    0    0  501    0  0.00000000000E+00  0.00000000000E+00  0.25336028270E+04  0.25336028270E+04  0.25500000920E-02 0. -1.
       -2   -1    0    0    0  501  0.00000000000E+00  0.00000000000E+00 -0.13605453988E+04  0.13605453988E+04  0.25500000920E-02 0.  1.
    10030    2    1    2    0    0  0.00000000000E+00  0.00000000000E+00  0.11730574282E+04  0.38941482259E+04  0.37132636151E+04 0.  0.
        5    1    3    3  502    0 -0.15860825059E+04 -0.65939188313E+03  0.13255584169E+04  0.21696964252E+04  0.46999998093E+01 0. -1.
       -5    1    3    3    0  502  0.15860825059E+04  0.65939188313E+03 -0.15250098870E+03  0.17244518006E+04  0.46999998093E+01 0.  1.
</event>
<event>
 5   0  0.9341000E-08  0.3710608E+04  0.7818609E-02  0.8065615E-01
       -1   -1    0    0    0  501  0.00000000000E+00  0.00000000000E+00  0.13837789304E+04  0.13837789304E+04  0.50400001928E-02 0.  1.
        1   -1    0    0  501    0  0.00000000000E+00  0.00000000000E+00 -0.24875019659E+04  0.24875019659E+04  0.50400001928E-02 0. -1.
    10030    2    1    2    0    0  0.00000000000E+00  0.00000000000E+00 -0.11037230354E+04  0.38712808963E+04  0.37106079339E+04 0.  0.
        3    1    3    3  502    0 -0.16218734851E+04 -0.17318953684E+03  0.37055142632E+03  0.16726555494E+04  0.10100000352E+00 0.  1.
       -3    1    3    3    0  502  0.16218734851E+04  0.17318953684E+03 -0.14742744617E+04  0.21986253469E+04  0.10100000352E+00 0. -1.
</event>
<event>
 5   0  0.3008879E-07  0.3705032E+04  0.7818609E-02  0.8066848E-01
        2   -1    0    0  501    0  0.00000000000E+00  0.00000000000E+00  0.23207085455E+04  0.23207085455E+04  0.25500000920E-02 0.  1.
       -2   -1    0    0    0  501  0.00000000000E+00  0.00000000000E+00 -0.14787794831E+04  0.14787794831E+04  0.25500000920E-02 0. -1.
    10030    2    1    2    0    0  0.00000000000E+00  0.00000000000E+00  0.84192906231E+03  0.37994880286E+04  0.37050323526E+04 0.  0.
        2    1    3    3  502    0  0.23221962024E+03 -0.11240472878E+03 -0.14602663156E+04  0.14828818184E+04  0.25500000920E-02 0. -1.
       -2    1    3    3    0  502 -0.23221962024E+03  0.11240472878E+03  0.23021953779E+04  0.23166062102E+04  0.25500000920E-02 0.  1.
</event>
<event>
 5   0  0.3008879E-07  0.3685090E+04  0.7818609E-02  0.8071274E-01
       -2   -1    0    0    0  501  0.00000000000E+00  0.00000000000E+00  0.12038137169E+04  0.12038137169E+04  0.25500000920E-02 0. -1.
        2   -1    0    0  501    0  0.00000000000E+00  0.00000000000E+00 -0.28201808381E+04  0.28201808381E+04  0.25500000920E-02 0.  1.
    10030    2    1    2    0    0  0.00000000000E+00  0.00000000000E+00 -0.16163671212E+04  0.40239945551E+04  0.36850901629E+04 0.  0.
        2    1    3    3  502    0 -0.18975937466E+03 -0.25219305484E+03  0.11740775401E+04  0.12157582109E+04  0.25500000920E-02 0. -1.
       -2    1    3    3    0  502  0.18975937466E+03  0.25219305484E+03 -0.27904446613E+04  0.28082363442E+04  0.25500000920E-02 0.  1.
</event>
<event>
 5   0  0.9341000E-08  0.3674237E+04  0.7818609E-02  0.8073695E-01
       -1   -1    0    0    0  501  0.00000000000E+00  0.00000000000E+00  0.20904876195E+04  0.20904876195E+04  0.50400001928E-02 0.  1.
        1   -1    0    0  501    0  0.00000000000E+00  0.00000000000E+00 -0.16144581018E+04  0.16144581018E+04  0.50400001928E-02 0. -1.
    10030    2    1    2    0    0  0.00000000000E+00  0.00000000000E+00  0.47602951771E+03  0.37049457213E+04  0.36742371584E+04 0.  0.
        1    1    3    3  502    0 -0.16259974227E+04 -0.15027614208E+03  0.10868065753E+04  0.19615297779E+04  0.50400001928E-02 0.  1.
       -1    1    3    3    0  502  0.16259974227E+04  0.15027614208E+03 -0.61077705764E+03  0.17434159434E+04  0.50400001928E-02 0. -1.
</event>
<event>
 5   0  0.3032442E-07  0.3688316E+04  0.7818609E-02  0.8070556E-01
       -2   -1    0    0    0  501  0.00000000000E+00  0.00000000000E+00  0.17715010700E+04  0.17715010700E+04  0.25500000920E-02 0. -1.
        2   -1    0    0  501    0  0.00000000000E+00  0.00000000000E+00 -0.19197948637E+04  0.19197948637E+04  0.25500000920E-02 0.  1.
    10030    2    1    2    0    0  0.00000000000E+00  0.00000000000E+00 -0.14829379370E+03  0.36912959338E+04  0.36883159601E+04 0.  0.
        3    1    3    3  502    0 -0.17125909172E+04 -0.15699293484E+03 -0.74049578313E+03  0.18724178076E+04  0.10100000352E+00 0.  1.
       -3    1    3    3    0  502  0.17125909172E+04  0.15699293484E+03  0.59220198943E+03  0.18188781261E+04  0.10100000352E+00 0. -1.
</event>
<event>
 5   0  0.3008879E-07  0.3691371E+04  0.7818609E-02  0.8069877E-01
        2   -1    0    0  501    0  0.00000000000E+00  0.00000000000E+00  0.11351140600E+04  0.11351140601E+04  0.25500000920E-02 0. -1.
       -2   -1    0    0    0  501  0.00000000000E+00  0.00000000000E+00 -0.30010680444E+04  0.30010680444E+04  0.25500000920E-02 0.  1.
    10030    2    1    2    0    0  0.00000000000E+00  0.00000000000E+00 -0.18659539843E+04  0.41361821044E+04  0.36913707656E+04 0.  0.
        2    1    3    3  502    0  0.63697785945E+03  0.20544850909E+03 -0.28603041919E+04  0.29375653105E+04  0.25500000920E-02 0.  1.
       -2    1    3    3    0  502 -0.63697785945E+03 -0.20544850909E+03  0.99435020758E+03  0.11986167939E+04  0.25500000920E-02 0. -1.
</event>
<event>
 5   0  0.9341000E-08  0.3701845E+04  0.7818609E-02  0.8067553E-01
        1   -1    0    0  501    0  0.00000000000E+00  0.00000000000E+00  0.27074449101E+04  0.27074449101E+04  0.50400001928E-02 0. -1.
       -1   -1    0    0    0  501  0.00000000000E+00  0.00000000000E+00 -0.12653676480E+04  0.12653676480E+04  0.50400001928E-02 0.  1.
    10030    2    1    2    0    0  0.00000000000E+00  0.00000000000E+00  0.14420772621E+04  0.39728125580E+04  0.37018445120E+04 0.  0.
        3    1    3    3  502    0  0.12982871376E+04  0.88438763370E+03 -0.32950239693E+03  0.16050740849E+04  0.10100000352E+00 0.  1.
       -3    1    3    3    0  502 -0.12982871376E+04 -0.88438763370E+03  0.17715796590E+04  0.23677384731E+04  0.10100000352E+00 0. -1.
</event>
<event>
 5   0  0.9418945E-08  0.3701642E+04  0.7818609E-02  0.8067598E-01
       -1   -1    0    0    0  501  0.00000000000E+00  0.00000000000E+00  0.14001910399E+04  0.14001910399E+04  0.50400001928E-02 0.  1.
        1   -1    0    0  501    0  0.00000000000E+00  0.00000000000E+00 -0.24464795773E+04  0.24464795773E+04  0.50400001928E-02 0. -1.
    10030    2    1    2    0    0  0.00000000000E+00  0.00000000000E+00 -0.10462885374E+04  0.38466706172E+04  0.37016422212E+04 0.  0.
        5    1    3    3  502    0  0.39974632562E+03  0.66910069796E+03 -0.22676117985E+04  0.23978278145E+04  0.46999998093E+01 0. -1.
       -5    1    3    3    0  502 -0.39974632562E+03 -0.66910069796E+03  0.12213232612E+04  0.14488428028E+04  0.46999998093E+01 0.  1.
</event>
<event>
 5   0  0.9341000E-08  0.3650849E+04  0.7818609E-02  0.8078942E-01
        1   -1    0    0  501    0  0.00000000000E+00  0.00000000000E+00  0.23527322136E+04  0.23527322136E+04  0.50400001928E-02 0.  1.
       -1   -1    0    0    0  501  0.00000000000E+00  0.00000000000E+00 -0.14162999756E+04  0.14162999756E+04  0.50400001928E-02 0. -1.
    10030    2    1    2    0    0  0.00000000000E+00  0.00000000000E+00  0.93643223795E+03  0.37690321892E+04  0.36508489844E+04 0.  0.
        4    1    3    3  502    0 -0.33507708523E+03 -0.17830988141E+04  0.67586122688E+03  0.19361064136E+04  0.12699999809E+01 0.  1.
       -4    1    3    3    0  502  0.33507708523E+03  0.17830988141E+04  0.26057101106E+03  0.18329257755E+04  0.12699999809E+01 0. -1.
</event>
<event>
 5   0  0.3032442E-07  0.3721138E+04  0.7818609E-02  0.8063293E-01
       -2   -1    0    0    0  501  0.00000000000E+00  0.00000000000E+00  0.16057024383E+04  0.16057024383E+04  0.25500000920E-02 0.  1.
        2   -1    0    0  501    0  0.00000000000E+00  0.00000000000E+00 -0.21558900265E+04  0.21558900265E+04  0.25500000920E-02 0. -1.
    10030    2    1    2    0    0  0.00000000000E+00  0.00000000000E+00 -0.55018758819E+03  0.37615924648E+04  0.37211384668E+04 0.  0.
        3    1    3    3  502    0 -0.52583724783E+03 -0.92846011818E+03 -0.18158604126E+04  0.21061557518E+04  0.10100000352E+00 0. -1.
       -3    1    3    3    0  502  0.52583724783E+03  0.92846011818E+03  0.12656728244E+04  0.16554367131E+04  0.10100000352E+00 0.  1.
</event>
<event>
 5   0  0.3008879E-07  0.3694247E+04  0.7818609E-02  0.8069238E-01
       -2   -1    0    0    0  501  0.00000000000E+00  0.00000000000E+00  0.14084380014E+04  0.14084380014E+04  0.25500000920E-02 0. -1.
        2   -1    0    0  501    0  0.00000000000E+00  0.00000000000E+00 -0.24224465026E+04  0.24224465026E+04  0.25500000920E-02 0.  1.
    10030    2    1    2    0    0  0.00000000000E+00  0.00000000000E+00 -0.10140085012E+04  0.38308845040E+04  0.36942472633E+04 0.  0.
        2    1    3    3  502    0  0.15864894230E+04  0.53568531609E+03  0.30155152082E+03  0.17014231593E+04  0.25500000920E-02 0. -1.
       -2    1    3    3    0  502 -0.15864894230E+04 -0.53568531609E+03 -0.13155600221E+04  0.21294613448E+04  0.25500000920E-02 0.  1.
</event>
<event>
 5   0  0.2897133E-07  0.3723198E+04  0.7818609E-02  0.8062840E-01
       -2   -1    0    0    0  501  0.00000000000E+00  0.00000000000E+00  0.11375078373E+04  0.11375078373E+04  0.25500000920E-02 0.  1.
        2   -1    0    0  501    0  0.00000000000E+00  0.00000000000E+00 -0.30466171309E+04  0.30466171309E+04  0.25500000920E-02 0. -1.
    10030    2    1    2    0    0  0.00000000000E+00  0.00000000000E+00 -0.19091092937E+04  0.41841249682E+04  0.37231980144E+04 0.  0.
        4    1    3    3  502    0  0.10819213488E+04 -0.15660296330E+03  0.73879440309E+03  0.13194305878E+04  0.12699999809E+01 0.  1.
       -4    1    3    3    0  502 -0.10819213488E+04  0.15660296330E+03 -0.26479036967E+04  0.28646943804E+04  0.12699999809E+01 0. -1.
</event>
<event>
 5   0  0.9646615E-08  0.3719306E+04  0.7818609E-02  0.8063697E-01
        1   -1    0    0  501    0  0.00000000000E+00  0.00000000000E+00  0.22855594268E+04  0.22855594268E+04  0.50400001928E-02 0. -1.
       -1   -1    0    0    0  501  0.00000000000E+00  0.00000000000E+00 -0.15131129313E+04  0.15131129313E+04  0.50400001928E-02 0.  1.
    10030    2    1    2    0    0  0.00000000000E+00  0.00000000000E+00  0.77244649548E+03  0.37986723580E+04  0.37193061309E+04 0.  0.
        2    1    3    3  502    0 -0.26721722730E+03  0.47086636577E+03 -0.14308388016E+04  0.15298430825E+04  0.25500000920E-02 0.  1.
       -2    1    3    3    0  502  0.26721722730E+03 -0.47086636577E+03  0.22032852971E+04  0.22688292755E+04  0.25500000920E-02 0. -1.
</event>
<event>
 5   0  0.3032442E-07  0.3713965E+04  0.7818609E-02  0.8064874E-01
       -2   -1    0    0    0  501  0.00000000000E+00  0.00000000000E+00  0.17404837521E+04  0.17404837521E+04  0.25500000920E-02 0.  1.
        2   -1    0    0  501    0  0.00000000000E+00  0.00000000000E+00 -0.19812791906E+04  0.19812791906E+04  0.25500000920E-02 0. -1.
    10030    2    1    2    0    0  0.00000000000E+00  0.00000000000E+00 -0.24079543850E+03  0.37217629426E+04  0.37139651261E+04 0.  0.
        3    1    3    3  502    0  0.10306870404E+04  0.12844213960E+04 -0.98029618139E+03  0.19165162956E+04  0.10100000352E+00 0. -1.
       -3    1    3    3    0  502 -0.10306870404E+04 -0.12844213960E+04  0.73950074289E+03  0.18052466471E+04  0.10100000352E+00 0.  1.
</event>
<event>
 5   0  0.3008879E-07  0.3624454E+04  0.7818609E-02  0.8084913E-01
       -2   -1    0    0    0  501  0.00000000000E+00  0.00000000000E+00  0.16520767624E+04  0.16520767624E+04  0.25500000920E-02 0. -1.
        2   -1    0    0  501    0  0.00000000000E+00  0.00000000000E+00 -0.19879017546E+04  0.19879017546E+04  0.25500000920E-02 0.  1.
    10030    2    1    2    0    0  0.00000000000E+00  0.00000000000E+00 -0.33582499223E+03  0.36399785169E+04  0.36244537766E+04 0.  0.
        2    1    3    3  502    0  0.16160136479E+04  0.82015717364E+03 -0.16500266665E+03  0.18197207971E+04  0.25500000920E-02 0. -1.
       -2    1    3    3    0  502 -0.16160136479E+04 -0.82015717364E+03 -0.17082232558E+03  0.18202577198E+04  0.25500000920E-02 0.  1.
</event>
<event>
 5   0  0.9341000E-08  0.3675574E+04  0.7818609E-02  0.8073396E-01
       -1   -1    0    0    0  501  0.00000000000E+00  0.00000000000E+00  0.12175114392E+04  0.12175114392E+04  0.50400001928E-02 0.  1.
        1   -1    0    0  501    0  0.00000000000E+00  0.00000000000E+00 -0.27740700060E+04  0.27740700060E+04  0.50400001928E-02 0. -1.
    10030    2    1    2    0    0  0.00000000000E+00  0.00000000000E+00 -0.15565585668E+04  0.39915814452E+04  0.36755744941E+04 0.  0.
        1    1    3    3  502    0 -0.67148856077E+03 -0.16240340610E+04 -0.13621646921E+04  0.22234828911E+04  0.50400001928E-02 0. -1.
       -1    1    3    3    0  502  0.67148856077E+03  0.16240340610E+04 -0.19439387473E+03  0.17680985541E+04  0.50400001928E-02 0.  1.
</event>
<event>
 5   0  0.9418945E-08  0.3682877E+04  0.7818609E-02  0.8071767E-01
        1   -1    0    0  501    0  0.00000000000E+00  0.00000000000E+00  0.30758752364E+04  0.30758752364E+04  0.50400001928E-02 0. -1.
       -1   -1    0    0    0  501  0.00000000000E+00  0.00000000000E+00 -0.11024166029E+04  0.11024166029E+04  0.50400001928E-02 0.  1.
    10030    2    1    2    0    0  0.00000000000E+00  0.00000000000E+00  0.19734586335E+04  0.41782918393E+04  0.36828770976E+04 0.  0.
        5    1    3    3  502    0 -0.83063508609E+02  0.51238291143E+03  0.29911501326E+04  0.30358585276E+04  0.46999998093E+01 0. -1.
       -5    1    3    3    0  502  0.83063508609E+02 -0.51238291143E+03 -0.10176914990E+04  0.11424333116E+04  0.46999998093E+01 0.  1.
</event>
<event>
 5   0  0.9341000E-08  0.3747434E+04  0.7818609E-02  0.8057530E-01
       -1   -1    0    0    0  501  0.00000000000E+00  0.00000000000E+00  0.23935896239E+04  0.23935896239E+04  0.50400001928E-02 0.  1.
        1   -1    0    0  501    0  0.00000000000E+00  0.00000000000E+00 -0.14667573355E+04  0.14667573355E+04  0.50400001928E-02 0. -1.
    10030    2    1    2    0    0  0.00000000000E+00  0.00000000000E+00  0.92683228834E+03  0.38603469594E+04  0.37474338628E+04 0.  0.
        4    1    3    3  502    0  0.62306382195E+02  0.12569165903E+04  0.18934410502E+04  0.22735087472E+04  0.12699999809E+01 0.  1.
       -4    1    3    3    0  502 -0.62306382195E+02 -0.12569165903E+04 -0.96660876185E+03  0.15868382122E+04  0.12699999809E+01 0. -1.
</event>
<event>
 5   0  0.9341000E-08  0.3926863E+04  0.7818609E-02  0.8019465E-01
        1   -1    0    0  501    0  0.00000000000E+00  0.00000000000E+00  0.16601001297E+04  0.16601001297E+04  0.50400001928E-02 0. -1.
       -1   -1    0    0    0  501  0.00000000000E+00  0.00000000000E+00 -0.23221873208E+04  0.23221873208E+04  0.50400001928E-02 0.  1.
    10030    2    1    2    0    0  0.00000000000E+00  0.00000000000E+00 -0.66208719110E+03  0.39822874506E+04  0.39268631107E+04 0.  0.
        3    1    3    3  502    0  0.15181683516E+04  0.10927619656E+04 -0.93620690492E+03  0.20917569735E+04  0.10100000352E+00 0.  1.
       -3    1    3    3    0  502 -0.15181683516E+04 -0.10927619656E+04  0.27411971382E+03  0.18905304771E+04  0.10100000352E+00 0. -1.
</event>
<event>
 5   0  0.3032442E-07  0.3477965E+04  0.7818609E-02  0.8119032E-01
       -2   -1    0    0    0  501  0.00000000000E+00  0.00000000000E+00  0.22507320131E+04  0.22507320132E+04  0.25500000920E-02 0. -1.
        2   -1    0    0  501    0  0.00000000000E+00  0.00000000000E+00 -0.13435895387E+04  0.13435895387E+04  0.25500000920E-02 0.  1.
    10030    2    1    2    0    0  0.00000000000E+00  0.00000000000E+00  0.90714247443E+03  0.35943215519E+04  0.34779649149E+04 0.  0.
        3    1    3    3  502    0 -0.13182218501E+04 -0.63231834051E+03  0.14266256748E+04  0.20427423127E+04  0.10100000352E+00 0. -1.
       -3    1    3    3    0  502  0.13182218501E+04  0.63231834051E+03 -0.51948320033E+03  0.15515792392E+04  0.10100000352E+00 0.  1.
</event>
<event>
 5   0  0.9341000E-08  0.3638254E+04  0.7818609E-02  0.8081785E-01
       -1   -1    0    0    0  501  0.00000000000E+00  0.00000000000E+00  0.17080120413E+04  0.17080120413E+04  0.50400001928E-02 0. -1.
        1   -1    0    0  501    0  0.00000000000E+00  0.00000000000E+00 -0.19374704843E+04  0.19374704843E+04  0.50400001928E-02 0.  1.
    10030    2    1    2    0    0  0.00000000000E+00  0.00000000000E+00 -0.22945844293E+03  0.36454825256E+04  0.36382539312E+04 0.  0.
        4    1    3    3  502    0 -0.67534570391E+03 -0.12466900065E+04 -0.12566836873E+04  0.18946195647E+04  0.12699999809E+01 0.  1.
       -4    1    3    3    0  502  0.67534570391E+03  0.12466900065E+04  0.10272252444E+04  0.17508629609E+04  0.12699999809E+01 0. -1.
</event>
<event>
 5   0  0.2996969E-07  0.3695262E+04  0.7818609E-02  0.8069013E-01
        2   -1    0    0  501    0  0.00000000000E+00  0.00000000000E+00  0.25237447112E+04  0.25237447112E+04  0.25500000920E-02 0.  1.
       -2   -1    0    0    0  501  0.00000000000E+00  0.00000000000E+00 -0.13526489678E+04  0.13526489678E+04  0.25500000920E-02 0. -1.
    10030    2    1    2    0    0  0.00000000000E+00  0.00000000000E+00  0.11710957434E+04  0.38763936790E+04  0.36952621983E+04 0.  0.
        1    1    3    3  502    0  0.10762924023E+04 -0.14002731333E+04  0.11548951383E+04  0.21102021144E+04  0.50400001928E-02 0.  1.
       -1    1    3    3    0  502 -0.10762924023E+04  0.14002731333E+04  0.16200605106E+02  0.17661915646E+04  0.50400001928E-02 0. -1.
</event>
<event>
 5   0  0.9646615E-08  0.3763499E+04  0.7818609E-02  0.8054034E-01
       -1   -1    0    0    0  501  0.00000000000E+00  0.00000000000E+00  0.18456885846E+04  0.18456885846E+04  0.50400001928E-02 0. -1.
        1   -1    0    0  501    0  0.00000000000E+00  0.00000000000E+00 -0.19185144754E+04  0.19185144754E+04  0.50400001928E-02 0.  1.
    10030    2    1    2    0    0  0.00000000000E+00  0.00000000000E+00 -0.72825890872E+02  0.37642030600E+04  0.37634985142E+04 0.  0.
        2    1    3    3  502    0 -0.50328762905E+03  0.14207767672E+03 -0.18443729175E+04  0.19170800616E+04  0.25500000920E-02 0.  1.
       -2    1    3    3    0  502  0.50328762905E+03 -0.14207767672E+03  0.17715470266E+04  0.18471229984E+04  0.25500000920E-02 0. -1.
</event>
<event>
 5   0  0.9341000E-08  0.3716436E+04  0.7818609E-02  0.8064329E-01
        1   -1    0    0  501    0  0.00000000000E+00  0.00000000000E+00  0.28065058109E+04  0.28065058109E+04  0.50400001928E-02 0. -1.
       -1   -1    0    0    0  501  0.00000000000E+00  0.00000000000E+00 -0.12303460401E+04  0.12303460401E+04  0.50400001928E-02 0.  1.
    10030    2    1    2    0    0  0.00000000000E+00  0.00000000000E+00  0.15761597708E+04  0.40368518510E+04  0.37164355563E+04 0.  0.
        3    1    3    3  502    0  0.33589077848E+03 -0.12651766097E+04  0.22206826307E+04  0.25777753637E+04  0.10100000352E+00 0. -1.
       -3    1    3    3    0  502 -0.33589077848E+03  0.12651766097E+04 -0.64452285993E+03  0.14590764874E+04  0.10100000352E+00 0.  1.
</event>
<event>
 5   0  0.2897133E-07  0.3706788E+04  0.7818609E-02  0.8066459E-01
        2   -1    0    0  501    0  0.00000000000E+00  0.00000000000E+00  0.21374973788E+04  0.21374973788E+04  0.25500000920E-02 0. -1.
       -2   -1    0    0    0  501  0.00000000000E+00  0.00000000000E+00 -0.16070522624E+04  0.16070522624E+04  0.25500000920E-02 0.  1.
    10030    2    1    2    0    0  0.00000000000E+00  0.00000000000E+00  0.53044511638E+03  0.37445496413E+04  0.37067883665E+04 0.  0.
        4    1    3    3  502    0  0.10789245193E+04 -0.12837879484E+04  0.10624891494E+04  0.19852139482E+04  0.12699999809E+01 0.  1.
       -4    1    3    3    0  502 -0.10789245193E+04  0.12837879484E+04 -0.53204403306E+03  0.17593356930E+04  0.12699999809E+01 0. -1.
</event>
<event>
 5   0  0.9341000E-08  0.3701137E+04  0.7818609E-02  0.8067710E-01
        1   -1    0    0  501    0  0.00000000000E+00  0.00000000000E+00  0.16153919213E+04  0.16153919213E+04  0.50400001928E-02 0.  1.
       -1   -1    0    0    0  501  0.00000000000E+00  0.00000000000E+00 -0.21199830829E+04  0.21199830829E+04  0.50400001928E-02 0. -1.
    10030    2    1    2    0    0  0.00000000000E+00  0.00000000000E+00 -0.50459116156E+03  0.37353750042E+04  0.37011368770E+04 0.  0.
        4    1    3    3  502    0 -0.84827623422E+02  0.52136979766E+02  0.16126861084E+04  0.16157574346E+04  0.12699999809E+01 0.  1.
       -4    1    3    3    0  502  0.84827623422E+02 -0.52136979766E+02 -0.21172772700E+04  0.21196175696E+04  0.12699999809E+01 0. -1.
</event>
<event>
 5   0  0.3008879E-07  0.3718362E+04  0.7818609E-02  0.8063905E-01
       -2   -1    0    0    0  501  0.00000000000E+00  0.00000000000E+00  0.15634799689E+04  0.15634799689E+04  0.25500000920E-02 0. -1.
        2   -1    0    0  501    0  0.00000000000E+00  0.00000000000E+00 -0.22108081287E+04  0.22108081287E+04  0.25500000920E-02 0.  1.
    10030    2    1    2    0    0  0.00000000000E+00  0.00000000000E+00 -0.64732815980E+03  0.37742880975E+04  0.37183621255E+04 0.  0.
        2    1    3    3  502    0  0.15808473851E+03 -0.45223414809E+01 -0.22039681522E+04  0.22096350043E+04  0.25500000920E-02 0.  1.
       -2    1    3    3    0  502 -0.15808473851E+03  0.45223414809E+01  0.15566399924E+04  0.15646530932E+04  0.25500000920E-02 0. -1.
</event>
<event>
 5   0  0.9418945E-08  0.3766752E+04  0.7818609E-02  0.8053328E-01
       -1   -1    0    0    0  501  0.00000000000E+00  0.00000000000E+00  0.13377015640E+04  0.13377015640E+04  0.50400001928E-02 0.  1.
        1   -1    0    0  501    0  0.00000000000E+00  0.00000000000E+00 -0.26516417910E+04  0.26516417910E+04  0.50400001928E-02 0. -1.
    10030    2    1    2    0    0  0.00000000000E+00  0.00000000000E+00 -0.13139402270E+04  0.39893433551E+04  0.37667521135E+04 0.  0.
        5    1    3    3  502    0 -0.11910259514E+04  0.37708240325E+03  0.83569433719E+03  0.15030439352E+04  0.46999998093E+01 0.  1.
       -5    1    3    3    0  502  0.11910259514E+04 -0.37708240325E+03 -0.21496345642E+04  0.24862994199E+04  0.46999998093E+01 0. -1.
</event>
<event>
 5   0  0.3032442E-07  0.3693384E+04  0.7818609E-02  0.8069430E-01
       -2   -1    0    0    0  501  0.00000000000E+00  0.00000000000E+00  0.19968777696E+04  0.19968777696E+04  0.25500000920E-02 0. -1.
        2   -1    0    0  501    0  0.00000000000E+00  0.00000000000E+00 -0.17078015987E+04  0.17078015987E+04  0.25500000920E-02 0.  1.
    10030    2    1    2    0    0  0.00000000000E+00  0.00000000000E+00  0.28907617091E+03  0.37046793683E+04  0.36933838400E+04 0.  0.
        3    1    3    3  502    0  0.12542710752E+04  0.23788650652E+03 -0.11938909699E+04  0.17479020506E+04  0.10100000352E+00 0.  1.
       -3    1    3    3    0  502 -0.12542710752E+04 -0.23788650652E+03  0.14829671409E+04  0.19567773177E+04  0.10100000352E+00 0. -1.
</event>
<event>
 5   0  0.9646615E-08  0.3697607E+04  0.7818609E-02  0.8068492E-01
        1   -1    0    0  501    0  0.00000000000E+00  0.00000000000E+00  0.12806326470E+04  0.12806326470E+04  0.50400001928E-02 0.  1.
       -1   -1    0    0    0  501  0.00000000000E+00  0.00000000000E+00 -0.26690516856E+04  0.26690516856E+04  0.50400001928E-02 0. -1.
    10030    2    1    2    0    0  0.00000000000E+00  0.00000000000E+00 -0.13884190387E+04  0.39496843326E+04  0.36976071858E+04 0.  0.
        2    1    3    3  502    0 -0.41318498937E+03  0.17263460444E+04 -0.12462413340E+04  0.21688960240E+04  0.25500000920E-02 0.  1.
       -2    1    3    3    0  502  0.41318498937E+03 -0.17263460444E+04 -0.14217770470E+03  0.17807883086E+04  0.25500000920E-02 0. -1.
</event>
<event>
 5   0  0.3008879E-07  0.3676550E+04  0.7818609E-02  0.8073179E-01
       -2   -1    0    0    0  501  0.00000000000E+00  0.00000000000E+00  0.29896232873E+04  0.29896232873E+04  0.25500000920E-02 0.  1.
        2   -1    0    0  501    0  0.00000000000E+00  0.00000000000E+00 -0.11303281923E+04  0.11303281923E+04  0.25500000920E-02 0. -1.
    10030    2    1    2    0    0  0.00000000000E+00  0.00000000000E+00  0.18592950950E+04  0.41199514796E+04  0.36765502777E+04 0.  0.
        2    1    3    3  502    0  0.17174337628E+04 -0.15570304252E+03  0.21611907088E+03  0.17379670940E+04  0.25500000920E-02 0. -1.
       -2    1    3    3    0  502 -0.17174337628E+04  0.15570304252E+03  0.16431760241E+04  0.23819843856E+04  0.25500000920E-02 0.  1.
</event>
<event>
 5   0  0.2996969E-07  0.3716652E+04  0.7818609E-02  0.8064281E-01
        2   -1    0    0  501    0  0.00000000000E+00  0.00000000000E+00  0.27527037695E+04  0.27527037695E+04  0.25500000920E-02 0.  1.
       -2   -1    0    0    0  501  0.00000000000E+00  0.00000000000E+00 -0.12545397884E+04  0.12545397884E+04  0.25500000920E-02 0. -1.
    10030    2    1    2    0    0  0.00000000000E+00  0.00000000000E+00  0.14981639811E+04  0.40072435580E+04  0.37166524748E+04 0.  0.
        1    1    3    3  502    0  0.15761136134E+04 -0.88048606723E+03  0.12239573272E+04  0.21811605571E+04  0.50400001928E-02 0. -1.
       -1    1    3    3    0  502 -0.15761136134E+04  0.88048606723E+03  0.27420665384E+03  0.18260830009E+04  0.50400001928E-02 0.  1.
</event>
<event>
 5   0  0.9341000E-08  0.3491367E+04  0.7818609E-02  0.8115839E-01
       -1   -1    0    0    0  501  0.00000000000E+00  0.00000000000E+00  0.19313658565E+04  0.19313658565E+04  0.50400001928E-02 0.  1.
        1   -1    0    0  501    0  0.00000000000E+00  0.00000000000E+00 -0.15778527899E+04  0.15778527899E+04  0.50400001928E-02 0. -1.
    10030    2    1    2    0    0  0.00000000000E+00  0.00000000000E+00  0.35351306665E+03  0.35092186464E+04  0.34913670703E+04 0.  0.
        3    1    3    3  502    0 -0.85671464808E+03 -0.35122381209E+03  0.16642195606E+04  0.19044539665E+04  0.10100000352E+00 0.  1.
       -3    1    3    3    0  502  0.85671464808E+03  0.35122381209E+03 -0.13107064939E+04  0.16047646799E+04  0.10100000352E+00 0. -1.
</event>
<event>
 5   0  0.9341000E-08  0.3735206E+04  0.7818609E-02  0.8060204E-01
       -1   -1    0    0    0  501  0.00000000000E+00  0.00000000000E+00  0.15669151090E+04  0.15669151090E+04  0.50400001928E-02 0.  1.
        1   -1    0    0  501    0  0.00000000000E+00  0.00000000000E+00 -0.22259927024E+04  0.22259927024E+04  0.50400001928E-02 0. -1.
    10030    2    1    2    0    0  0.00000000000E+00  0.00000000000E+00 -0.65907759342E+03  0.37929078114E+04  0.37352063385E+04 0.  0.
        4    1    3    3  502    0  0.18069401892E+04 -0.41165970125E+03 -0.94789206345E+02  0.18556624595E+04  0.12699999809E+01 0.  1.
       -4    1    3    3    0  502 -0.18069401892E+04  0.41165970125E+03 -0.56428838707E+03  0.19372453519E+04  0.12699999809E+01 0. -1.
</event>
<event>
 5   0  0.3008879E-07  0.3707245E+04  0.7818609E-02  0.8066358E-01
        2   -1    0    0  501    0  0.00000000000E+00  0.00000000000E+00  0.12871039023E+04  0.12871039023E+04  0.25500000920E-02 0.  1.
       -2   -1    0    0    0  501  0.00000000000E+00  0.00000000000E+00 -0.26694937282E+04  0.26694937282E+04  0.25500000920E-02 0. -1.
    10030    2    1    2    0    0  0.00000000000E+00  0.00000000000E+00 -0.13823898259E+04  0.39565976305E+04  0.37072446883E+04 0.  0.
        2    1    3    3  502    0 -0.68236948613E+03  0.13721556603E+04  0.42176771118E+03  0.15894424412E+04  0.25500000920E-02 0.  1.
       -2    1    3    3    0  502  0.68236948613E+03 -0.13721556603E+04 -0.18041575371E+04  0.23671551893E+04  0.25500000920E-02 0. -1.
</event>
<event>
 5   0  0.2897133E-07  0.3700873E+04  0.7818609E-02  0.8067768E-01
       -2   -1    0    0    0  501  0.00000000000E+00  0.00000000000E+00  0.15912990147E+04  0.15912990147E+04  0.25500000920E-02 0.  1.
        2   -1    0    0  501    0  0.00000000000E+00  0.00000000000E+00 -0.21517734950E+04  0.21517734950E+04  0.25500000920E-02 0. -1.
    10030    2    1    2    0    0  0.00000000000E+00  0.00000000000E+00 -0.56047448025E+03  0.37430725097E+04  0.37008728930E+04 0.  0.
        4    1    3    3  502    0 -0.16038059094E+04 -0.90947295263E+03 -0.43944557857E+03  0.18953755501E+04  0.12699999809E+01 0.  1.
       -4    1    3    3    0  502  0.16038059094E+04  0.90947295263E+03 -0.12102890168E+03  0.18476969596E+04  0.12699999809E+01 0. -1.
</event>
<event>
 5   0  0.3032442E-07  0.3707017E+04  0.7818609E-02  0.8066409E-01
       -2   -1    0    0    0  501  0.00000000000E+00  0.00000000000E+00  0.18387587221E+04  0.18387587221E+04  0.25500000920E-02 0.  1.
        2   -1    0    0  501    0  0.00000000000E+00  0.00000000000E+00 -0.18683764265E+04  0.18683764265E+04  0.25500000920E-02 0. -1.
    10030    2    1    2    0    0  0.00000000000E+00  0.00000000000E+00 -0.29617704428E+02  0.37071351486E+04  0.37070168332E+04 0.  0.
        3    1    3    3  502    0  0.78448007290E+03 -0.77652439834E+03  0.14742297104E+04  0.18416710822E+04  0.10100000352E+00 0.  1.
       -3    1    3    3    0  502 -0.78448007290E+03  0.77652439834E+03 -0.15038474148E+04  0.18654640664E+04  0.10100000352E+00 0. -1.
</event>
<event>
 5   0  0.2913025E-07  0.3718322E+04  0.7818609E-02  0.8063914E-01
       -2   -1    0    0    0  501  0.00000000000E+00  0.00000000000E+00  0.20634548035E+04  0.20634548035E+04  0.25500000920E-02 0. -1.
        2   -1    0    0  501    0  0.00000000000E+00  0.00000000000E+00 -0.16750932629E+04  0.16750932629E+04  0.25500000920E-02 0.  1.
    10030    2    1    2    0    0  0.00000000000E+00  0.00000000000E+00  0.38836154063E+03  0.37385480664E+04  0.37183217933E+04 0.  0.
        5    1    3    3  502    0 -0.85033611000E+03  0.17737312407E+03  0.18468753216E+04  0.20409564593E+04  0.46999998093E+01 0. -1.
       -5    1    3    3    0  502  0.85033611000E+03 -0.17737312407E+03 -0.14585137810E+04  0.16975916071E+04  0.46999998093E+01 0.  1.
</event>
<event>
 5   0  0.9341000E-08  0.3702588E+04  0.7818609E-02  0.8067389E-01
       -1   -1    0    0    0  501  0.00000000000E+00  0.00000000000E+00  0.18891733911E+04  0.18891733911E+04  0.50400001928E-02 0. -1.
        1   -1    0    0  501    0  0.00000000000E+00  0.00000000000E+00 -0.18141737867E+04  0.18141737867E+04  0.50400001928E-02 0.  1.
    10030    2    1    2    0    0  0.00000000000E+00  0.00000000000E+00  0.74999604456E+02  0.37033471778E+04  0.37025876598E+04 0.  0.
        4    1    3    3  502    0  0.10150750758E+04  0.14860439254E+04  0.47185064060E+03  0.18604699937E+04  0.12699999809E+01 0. -1.
       -4    1    3    3    0  502 -0.10150750758E+04 -0.14860439254E+04 -0.39685103615E+03  0.18428771840E+04  0.12699999809E+01 0.  1.
</event>
<event>
 5   0  0.9418945E-08  0.3702723E+04  0.7818609E-02  0.8067359E-01
        1   -1    0    0  501    0  0.00000000000E+00  0.00000000000E+00  0.16395851282E+04  0.16395851282E+04  0.50400001928E-02 0.  1.
       -1   -1    0    0    0  501  0.00000000000E+00  0.00000000000E+00 -0.20904914926E+04  0.20904914926E+04  0.50400001928E-02 0. -1.
    10030    2    1    2    0    0  0.00000000000E+00  0.00000000000E+00 -0.45090636435E+03  0.37300766208E+04  0.37027226534E+04 0.  0.
        5    1    3    3  502    0  0.18064773445E+04  0.14041225342E+03  0.15740798945E+03  0.18187565429E+04  0.46999998093E+01 0. -1.
       -5    1    3    3    0  502 -0.18064773445E+04 -0.14041225342E+03 -0.60831435380E+03  0.19113200779E+04  0.46999998093E+01 0.  1.
</event>
<event>
 5   0  0.9341000E-08  0.3707405E+04  0.7818609E-02  0.8066323E-01
        1   -1    0    0  501    0  0.00000000000E+00  0.00000000000E+00  0.24640985655E+04  0.24640985655E+04  0.50400001928E-02 0.  1.
       -1   -1    0    0    0  501  0.00000000000E+00  0.00000000000E+00 -0.13945114757E+04  0.13945114757E+04  0.50400001928E-02 0. -1.
    10030    2    1    2    0    0  0.00000000000E+00  0.00000000000E+00  0.10695870898E+04  0.38586100413E+04  0.37074054146E+04 0.  0.
        1    1    3    3  502    0  0.85135555569E+03  0.13370475464E+04  0.15350904827E+04  0.22065822472E+04  0.50400001928E-02 0.  1.
       -1    1    3    3    0  502 -0.85135555569E+03 -0.13370475464E+04 -0.46550339285E+03  0.16520277941E+04  0.50400001928E-02 0. -1.
</event>
<event>
 5   0  0.2897133E-07  0.3727164E+04  0.7818609E-02  0.8061968E-01
        2   -1    0    0  501    0  0.00000000000E+00  0.00000000000E+00  0.23579859982E+04  0.23579859982E+04  0.25500000920E-02 0.  1.
       -2   -1    0    0    0  501  0.00000000000E+00  0.00000000000E+00 -0.14728410802E+04  0.14728410802E+04  0.25500000920E-02 0. -1.
    10030    2    1    2    0    0  0.00000000000E+00  0.00000000000E+00  0.88514491798E+03  0.38308270783E+04  0.37271644152E+04 0.  0.
        4    1    3    3  502    0 -0.14588363378E+03  0.11484763538E+04 -0.10584061744E+04  0.15685997618E+04  0.12699999809E+01 0. -1.
       -4    1    3    3    0  502  0.14588363378E+03 -0.11484763538E+04  0.19435510924E+04  0.22622273165E+04  0.12699999809E+01 0.  1.
</event>
<event>
 5   0  0.2897133E-07  0.3707495E+04  0.7818609E-02  0.8066303E-01
        2   -1    0    0  501    0  0.00000000000E+00  0.00000000000E+00  0.11802979804E+04  0.11802979804E+04  0.25500000920E-02 0.  1.
       -2   -1    0    0    0  501  0.00000000000E+00  0.00000000000E+00 -0.29114513533E+04  0.29114513533E+04  0.25500000920E-02 0. -1.
    10030    2    1    2    0    0  0.00000000000E+00  0.00000000000E+00 -0.17311533729E+04  0.40917493337E+04  0.37074951935E+04 0.  0.
        4    1    3    3  502    0  0.99672455409E+03  0.14956128577E+04 -0.36458998070E+03  0.18339152445E+04  0.12699999809E+01 0. -1.
       -4    1    3    3    0  502 -0.99672455409E+03 -0.14956128577E+04 -0.13665633922E+04  0.22578340893E+04  0.12699999809E+01 0.  1.
</event>
<event>
 5   0  0.3008879E-07  0.3695367E+04  0.7818609E-02  0.8068989E-01
        2   -1    0    0  501    0  0.00000000000E+00  0.00000000000E+00  0.19167345807E+04  0.19167345807E+04  0.25500000920E-02 0. -1.
       -2   -1    0    0    0  501  0.00000000000E+00  0.00000000000E+00 -0.17811204318E+04  0.17811204318E+04  0.25500000920E-02 0.  1.
    10030    2    1    2    0    0  0.00000000000E+00  0.00000000000E+00  0.13561414884E+03  0.36978550125E+04  0.36953674372E+04 0.  0.
        2    1    3    3  502    0 -0.48946404342E+03 -0.74602163691E+03 -0.15512474004E+04  0.17895507341E+04  0.25500000920E-02 0.  1.
       -2    1    3    3    0  502  0.48946404342E+03  0.74602163691E+03  0.16868615493E+04  0.19083042784E+04  0.25500000920E-02 0. -1.
</event>
<event>
 5   0  0.9646615E-08  0.3737259E+04  0.7818609E-02  0.8059755E-01
       -1   -1    0    0    0  501  0.00000000000E+00  0.00000000000E+00  0.17988936616E+04  0.17988936616E+04  0.50400001928E-02 0.  1.
        1   -1    0    0  501    0  0.00000000000E+00  0.00000000000E+00 -0.19410684492E+04  0.19410684492E+04  0.50400001928E-02 0. -1.
    10030    2    1    2    0    0  0.00000000000E+00  0.00000000000E+00 -0.14217478763E+03  0.37399621109E+04  0.37372587441E+04 0.  0.
        2    1    3    3  502    0 -0.64653262917E+03 -0.20796748117E+03  0.16710109645E+04  0.18037551267E+04  0.25500000920E-02 0.  1.
       -2    1    3    3    0  502  0.64653262917E+03  0.20796748117E+03 -0.18131857521E+04  0.19362069841E+04  0.25500000920E-02 0. -1.
</event>
<event>
 5   0  0.9341000E-08  0.3656643E+04  0.7818609E-02  0.8077639E-01
       -1   -1    0    0    0  501  0.00000000000E+00  0.00000000000E+00  0.12140909559E+04  0.12140909560E+04  0.50400001928E-02 0.  1.
        1   -1    0    0  501    0  0.00000000000E+00  0.00000000000E+00 -0.27533019645E+04  0.27533019645E+04  0.50400001928E-02 0. -1.
    10030    2    1    2    0    0  0.00000000000E+00  0.00000000000E+00 -0.15392110085E+04  0.39673929204E+04  0.36566427302E+04 0.  0.
        3    1    3    3  502    0  0.67682450579E+03 -0.14650130968E+04  0.16272473109E+03  0.16219846281E+04  0.10100000352E+00 0.  1.
       -3    1    3    3    0  502 -0.67682450579E+03  0.14650130968E+04 -0.17019357396E+04  0.23454082923E+04  0.10100000352E+00 0. -1.
</event>
<event>
 5   0  0.2913025E-07  0.3738130E+04  0.7818609E-02  0.8059564E-01
       -2   -1    0    0    0  501  0.00000000000E+00  0.00000000000E+00  0.16888261245E+04  0.16888261245E+04  0.25500000920E-02 0.  1.
        2   -1    0    0  501    0  0.00000000000E+00  0.00000000000E+00 -0.20685395971E+04  0.20685395971E+04  0.25500000920E-02 0. -1.
    10030    2    1    2    0    0  0.00000000000E+00  0.00000000000E+00 -0.37971347257E+03  0.37573657216E+04  0.37381298593E+04 0.  0.
        5    1    3    3  502    0 -0.17301807194E+04  0.66696477214E+03  0.45901486520E+02  0.18548575055E+04  0.46999998093E+01 0.  1.
       -5    1    3    3    0  502  0.17301807194E+04 -0.66696477214E+03 -0.42561495909E+03  0.19025082161E+04  0.46999998093E+01 0. -1.
</event>
<event>
 5   0  0.2996969E-07  0.3721378E+04  0.7818609E-02  0.8063241E-01
        2   -1    0    0  501    0  0.00000000000E+00  0.00000000000E+00  0.31882707003E+04  0.31882707003E+04  0.25500000920E-02 0. -1.
       -2   -1    0    0    0  501  0.00000000000E+00  0.00000000000E+00 -0.10859066016E+04  0.10859066016E+04  0.25500000920E-02 0.  1.
    10030    2    1    2    0    0  0.00000000000E+00  0.00000000000E+00  0.21023640987E+04  0.42741773018E+04  0.37213783473E+04 0.  0.
        1    1    3    3  502    0 -0.74359384925E+03  0.13442570596E+04 -0.15463095652E+03  0.15439784933E+04  0.50400001928E-02 0.  1.
       -1    1    3    3    0  502  0.74359384925E+03 -0.13442570596E+04  0.22569950552E+04  0.27301988086E+04  0.50400001928E-02 0. -1.
</event>
<event>
 5   0  0.9341000E-08  0.3699038E+04  0.7818609E-02  0.8068175E-01
       -1   -1    0    0    0  501  0.00000000000E+00  0.00000000000E+00  0.14795212668E+04  0.14795212668E+04  0.50400001928E-02 0. -1.
        1   -1    0    0  501    0  0.00000000000E+00  0.00000000000E+00 -0.23120461438E+04  0.23120461438E+04  0.50400001928E-02 0.  1.
    10030    2    1    2    0    0  0.00000000000E+00  0.00000000000E+00 -0.83252487701E+03  0.37915674107E+04  0.36990384911E+04 0.  0.
        4    1    3    3  502    0  0.26610917576E+03 -0.39121381568E+03 -0.22489632375E+04  0.22981948567E+04  0.12699999809E+01 0.  1.
       -4    1    3    3    0  502 -0.26610917576E+03  0.39121381568E+03  0.14164383605E+04  0.14933725540E+04  0.12699999809E+01 0. -1.
</event>
<event>
 5   0  0.9341000E-08  0.3624140E+04  0.7818609E-02  0.8084984E-01
        1   -1    0    0  501    0  0.00000000000E+00  0.00000000000E+00  0.25208765130E+04  0.25208765130E+04  0.50400001928E-02 0. -1.
       -1   -1    0    0    0  501  0.00000000000E+00  0.00000000000E+00 -0.13025616519E+04  0.13025616519E+04  0.50400001928E-02 0.  1.
    10030    2    1    2    0    0  0.00000000000E+00  0.00000000000E+00  0.12183148611E+04  0.38234381649E+04  0.36241396634E+04 0.  0.
        4    1    3    3  502    0 -0.15485101066E+03 -0.11027349549E+04  0.21173134375E+04  0.23922836416E+04  0.12699999809E+01 0. -1.
       -4    1    3    3    0  502  0.15485101066E+03  0.11027349549E+04 -0.89899857640E+03  0.14311545233E+04  0.12699999809E+01 0.  1.
</event>
<event>
 5   0  0.9418945E-08  0.3783162E+04  0.7818609E-02  0.8049778E-01
        1   -1    0    0  501    0  0.00000000000E+00  0.00000000000E+00  0.97298073211E+03  0.97298073213E+03  0.50400001928E-02 0. -1.
       -1   -1    0    0    0  501  0.00000000000E+00  0.00000000000E+00 -0.36774411215E+04  0.36774411215E+04  0.50400001928E-02 0.  1.
    10030    2    1    2    0    0  0.00000000000E+00  0.00000000000E+00 -0.27044603894E+04  0.46504218536E+04  0.37831623569E+04 0.  0.
        5    1    3    3  502    0  0.15244064090E+04 -0.10464035261E+04 -0.86163786265E+03  0.20399061585E+04  0.46999998093E+01 0. -1.
       -5    1    3    3    0  502 -0.15244064090E+04  0.10464035261E+04 -0.18428225267E+04  0.26105156951E+04  0.46999998093E+01 0.  1.
</event>
<event>
 5   0  0.2897133E-07  0.3714126E+04  0.7818609E-02  0.8064839E-01
       -2   -1    0    0    0  501  0.00000000000E+00  0.00000000000E+00  0.18367878691E+04  0.18367878691E+04  0.25500000920E-02 0. -1.
        2   -1    0    0  501    0  0.00000000000E+00  0.00000000000E+00 -0.18775617939E+04  0.18775617939E+04  0.25500000920E-02 0.  1.
    10030    2    1    2    0    0  0.00000000000E+00  0.00000000000E+00 -0.40773924790E+02  0.37143496630E+04  0.37141258603E+04 0.  0.
        4    1    3    3  502    0  0.35336097061E+03  0.17819997765E+04 -0.40549968172E+03  0.18614023702E+04  0.12699999809E+01 0. -1.
       -4    1    3    3    0  502 -0.35336097061E+03 -0.17819997765E+04  0.36472575693E+03  0.18529472928E+04  0.12699999809E+01 0.  1.
</event>
<event>
 5   0  0.9341000E-08  0.3697444E+04  0.7818609E-02  0.8068528E-01
        3   -1    0    0  501    0  0.00000000000E+00  0.00000000000E+00  0.20539079287E+04  0.20539079312E+04  0.10100000352E+00 0. -1.
       -3   -1    0    0    0  501  0.00000000000E+00  0.00000000000E+00 -0.16640344506E+04  0.16640344537E+04  0.10100000352E+00 0.  1.
    10030    2    1    2    0    0  0.00000000000E+00  0.00000000000E+00  0.38987347811E+03  0.37179423849E+04  0.36974442860E+04 0.  0.
        4    1    3    3  502    0  0.50232520982E+03 -0.18531445236E+03 -0.15843644869E+04  0.16723888612E+04  0.12699999809E+01 0.  1.
       -4    1    3    3    0  502 -0.50232520982E+03  0.18531445236E+03  0.19742379650E+04  0.20455535237E+04  0.12699999809E+01 0. -1.
</event>
<event>
 5   0  0.3032442E-07  0.3666057E+04  0.7818609E-02  0.8075526E-01
       -2   -1    0    0    0  501  0.00000000000E+00  0.00000000000E+00  0.16886991429E+04  0.16886991429E+04  0.25500000920E-02 0. -1.
        2   -1    0    0  501    0  0.00000000000E+00  0.00000000000E+00 -0.19896935851E+04  0.19896935851E+04  0.25500000920E-02 0.  1.
    10030    2    1    2    0    0  0.00000000000E+00  0.00000000000E+00 -0.30099444222E+03  0.36783927281E+04  0.36660572019E+04 0.  0.
        3    1    3    3  502    0 -0.18924000823E+03  0.84068132370E+03  0.14727959989E+04  0.17063660021E+04  0.10100000352E+00 0. -1.
       -3    1    3    3    0  502  0.18924000823E+03 -0.84068132370E+03 -0.17737904411E+04  0.19720267259E+04  0.10100000352E+00 0.  1.
</event>
<event>
 5   0  0.3032442E-07  0.3704286E+04  0.7818609E-02  0.8067013E-01
        2   -1    0    0  501    0  0.00000000000E+00  0.00000000000E+00  0.25036964237E+04  0.25036964237E+04  0.25500000920E-02 0. -1.
       -2   -1    0    0    0  501  0.00000000000E+00  0.00000000000E+00 -0.13701475143E+04  0.13701475143E+04  0.25500000920E-02 0.  1.
    10030    2    1    2    0    0  0.00000000000E+00  0.00000000000E+00  0.11335489094E+04  0.38738439379E+04  0.37042858590E+04 0.  0.
        3    1    3    3  502    0 -0.11533112012E+04 -0.14099061872E+04  0.91749270331E+03  0.20395477573E+04  0.10100000352E+00 0. -1.
       -3    1    3    3    0  502  0.11533112012E+04  0.14099061872E+04  0.21605620609E+03  0.18342961806E+04  0.10100000352E+00 0.  1.
</event>
<event>
 5   0  0.9418945E-08  0.3713724E+04  0.7818609E-02  0.8064927E-01
       -1   -1    0    0    0  501  0.00000000000E+00  0.00000000000E+00  0.22857505177E+04  0.22857505177E+04  0.50400001928E-02 0.  1.
        1   -1    0    0  501    0  0.00000000000E+00  0.00000000000E+00 -0.15084482933E+04  0.15084482933E+04  0.50400001928E-02 0. -1.
    10030    2    1    2    0    0  0.00000000000E+00  0.00000000000E+00  0.77730222434E+03  0.37941988110E+04  0.37137239894E+04 0.  0.
        5    1    3    3  502    0  0.87383987535E+03  0.14534598538E+04 -0.38389101215E+03  0.17388318129E+04  0.46999998093E+01 0. -1.
       -5    1    3    3    0  502 -0.87383987535E+03 -0.14534598538E+04  0.11611932365E+04  0.20553669981E+04  0.46999998093E+01 0.  1.
</event>
<event>
 5   0  0.3032442E-07  0.3702250E+04  0.7818609E-02  0.8067463E-01
       -2   -1    0    0    0  501  0.00000000000E+00  0.00000000000E+00  0.14661792602E+04  0.14661792602E+04  0.25500000920E-02 0.  1.
        2   -1    0    0  501    0  0.00000000000E+00  0.00000000000E+00 -0.23371381262E+04  0.23371381262E+04  0.25500000920E-02 0. -1.
    10030    2    1    2    0    0  0.00000000000E+00  0.00000000000E+00 -0.87095886608E+03  0.38033173864E+04  0.37022498288E+04 0.  0.
        3    1    3    3  502    0  0.98231207235E+03  0.95293763680E+02 -0.20443245624E+04  0.22700838829E+04  0.10100000352E+00 0. -1.
       -3    1    3    3    0  502 -0.98231207235E+03 -0.95293763680E+02  0.11733656963E+04  0.15332335035E+04  0.10100000352E+00 0.  1.
</event>
<event>
 5   0  0.3008879E-07  0.3697836E+04  0.7818609E-02  0.8068442E-01
        2   -1    0    0  501    0  0.00000000000E+00  0.00000000000E+00  0.25277681587E+04  0.25277681587E+04  0.25500000920E-02 0.  1.
       -2   -1    0    0    0  501  0.00000000000E+00  0.00000000000E+00 -0.13523776220E+04  0.13523776220E+04  0.25500000920E-02 0. -1.
    10030    2    1    2    0    0  0.00000000000E+00  0.00000000000E+00  0.11753905367E+04  0.38801457807E+04  0.36978356326E+04 0.  0.
        2    1    3    3  502    0  0.13658898888E+04 -0.12189202474E+04  0.85945296966E+03  0.20223949082E+04  0.25500000920E-02 0. -1.
       -2    1    3    3    0  502 -0.13658898888E+04  0.12189202474E+04  0.31593756706E+03  0.18577508724E+04  0.25500000920E-02 0.  1.
</event>
<event>
 5   0  0.2996969E-07  0.3698189E+04  0.7818609E-02  0.8068363E-01
       -2   -1    0    0    0  501  0.00000000000E+00  0.00000000000E+00  0.17434225919E+04  0.17434225919E+04  0.25500000920E-02 0. -1.
        2   -1    0    0  501    0  0.00000000000E+00  0.00000000000E+00 -0.19611715446E+04  0.19611715446E+04  0.25500000920E-02 0.  1.
    10030    2    1    2    0    0  0.00000000000E+00  0.00000000000E+00 -0.21774895264E+03  0.37045941365E+04  0.36981891663E+04 0.  0.
        1    1    3    3  502    0  0.99728293898E+03 -0.11642150463E+04  0.92692836343E+03  0.17914145599E+04  0.50400001928E-02 0. -1.
       -1    1    3    3    0  502 -0.99728293898E+03  0.11642150463E+04 -0.11446773161E+04  0.19131795766E+04  0.50400001928E-02 0.  1.
</event>
<event>
 5   0  0.9341000E-08  0.3672797E+04  0.7818609E-02  0.8074017E-01
       -1   -1    0    0    0  501  0.00000000000E+00  0.00000000000E+00  0.15799631950E+04  0.15799631950E+04  0.50400001928E-02 0. -1.
        1   -1    0    0  501    0  0.00000000000E+00  0.00000000000E+00 -0.21344539843E+04  0.21344539843E+04  0.50400001928E-02 0.  1.
    10030    2    1    2    0    0  0.00000000000E+00  0.00000000000E+00 -0.55449078925E+03  0.37144171793E+04  0.36727966111E+04 0.  0.
        3    1    3    3  502    0 -0.12466354883E+04 -0.46484423122E+03  0.10028703925E+04  0.16661120114E+04  0.10100000352E+00 0. -1.
       -3    1    3    3    0  502  0.12466354883E+04  0.46484423122E+03 -0.15573611818E+04  0.20483051679E+04  0.10100000352E+00 0.  1.
</event>
<event>
 5   0  0.2897133E-07  0.3471341E+04  0.7818609E-02  0.8120615E-01
        2   -1    0    0  501    0  0.00000000000E+00  0.00000000000E+00  0.17545437241E+04  0.17545437241E+04  0.25500000920E-02 0.  1.
       -2   -1    0    0    0  501  0.00000000000E+00  0.00000000000E+00 -0.17170004175E+04  0.17170004175E+04  0.25500000920E-02 0. -1.
    10030    2    1    2    0    0  0.00000000000E+00  0.00000000000E+00  0.37543306639E+02  0.34715441416E+04  0.34713411281E+04 0.  0.
        4    1    3    3  502    0 -0.16599252411E+04 -0.47378917612E+03  0.19967641278E+03  0.17377284806E+04  0.12699999809E+01 0. -1.
       -4    1    3    3    0  502  0.16599252411E+04  0.47378917612E+03 -0.16213310614E+03  0.17338156611E+04  0.12699999809E+01 0.  1.
</event>
<event>
 5   0  0.2897133E-07  0.3756772E+04  0.7818609E-02  0.8055496E-01
        2   -1    0    0  501    0  0.00000000000E+00  0.00000000000E+00  0.18980967396E+04  0.18980967397E+04  0.25500000920E-02 0. -1.
       -2   -1    0    0    0  501  0.00000000000E+00  0.00000000000E+00 -0.18588794573E+04  0.18588794573E+04  0.25500000920E-02 0.  1.
    10030    2    1    2    0    0  0.00000000000E+00  0.00000000000E+00  0.39217282384E+02  0.37569761969E+04  0.37567715061E+04 0.  0.
        4    1    3    3  502    0 -0.13818849647E+04 -0.53905886138E+03 -0.11329041121E+04  0.18664575676E+04  0.12699999809E+01 0.  1.
       -4    1    3    3    0  502  0.13818849647E+04  0.53905886138E+03  0.11721213944E+04  0.18905186293E+04  0.12699999809E+01 0. -1.
</event>
<event>
 5   0  0.2913025E-07  0.3778166E+04  0.7818609E-02  0.8050857E-01
        2   -1    0    0  501    0  0.00000000000E+00  0.00000000000E+00  0.22529480315E+04  0.22529480315E+04  0.25500000920E-02 0.  1.
       -2   -1    0    0    0  501  0.00000000000E+00  0.00000000000E+00 -0.15839846608E+04  0.15839846608E+04  0.25500000920E-02 0. -1.
    10030    2    1    2    0    0  0.00000000000E+00  0.00000000000E+00  0.66896337074E+03  0.38369326923E+04  0.37781662872E+04 0.  0.
        5    1    3    3  502    0  0.18410947536E+04 -0.20824074783E+03  0.70847451322E+03  0.19836714260E+04  0.46999998093E+01 0.  1.
       -5    1    3    3    0  502 -0.18410947536E+04  0.20824074783E+03 -0.39511142482E+02  0.18532612663E+04  0.46999998093E+01 0. -1.
</event>
<event>
 5   0  0.9341000E-08  0.3724651E+04  0.7818609E-02  0.8062521E-01
       -1   -1    0    0    0  501  0.00000000000E+00  0.00000000000E+00  0.19235511730E+04  0.19235511730E+04  0.50400001928E-02 0. -1.
        1   -1    0    0  501    0  0.00000000000E+00  0.00000000000E+00 -0.18030481695E+04  0.18030481695E+04  0.50400001928E-02 0.  1.
    10030    2    1    2    0    0  0.00000000000E+00  0.00000000000E+00  0.12050300345E+03  0.37265993425E+04  0.37246505454E+04 0.  0.
        4    1    3    3  502    0 -0.38779166298E+03  0.15932485679E+04 -0.82306399686E+03  0.18347368554E+04  0.12699999809E+01 0.  1.
       -4    1    3    3    0  502  0.38779166298E+03 -0.15932485679E+04  0.94356700031E+03  0.18918624870E+04  0.12699999809E+01 0. -1.
</event>
<event>
 5   0  0.9646615E-08  0.3695820E+04  0.7818609E-02  0.8068889E-01
       -1   -1    0    0    0  501  0.00000000000E+00  0.00000000000E+00  0.18674627642E+04  0.18674627642E+04  0.50400001928E-02 0. -1.
        1   -1    0    0  501    0  0.00000000000E+00  0.00000000000E+00 -0.18285618211E+04  0.18285618211E+04  0.50400001928E-02 0.  1.
    10030    2    1    2    0    0  0.00000000000E+00  0.00000000000E+00  0.38900943164E+02  0.36960245853E+04  0.36958198619E+04 0.  0.
        2    1    3    3  502    0 -0.17100274650E+03  0.16202456534E+04 -0.85256869870E+03  0.18388342238E+04  0.25500000920E-02 0.  1.
       -2    1    3    3    0  502  0.17100274650E+03 -0.16202456534E+04  0.89146964186E+03  0.18571903615E+04  0.25500000920E-02 0. -1.
</event>
<event>
 5   0  0.3032442E-07  0.3690544E+04  0.7818609E-02  0.8070061E-01
       -2   -1    0    0    0  501  0.00000000000E+00  0.00000000000E+00  0.17003289156E+04  0.17003289156E+04  0.25500000920E-02 0. -1.
        2   -1    0    0  501    0  0.00000000000E+00  0.00000000000E+00 -0.20025703761E+04  0.20025703761E+04  0.25500000920E-02 0.  1.
    10030    2    1    2    0    0  0.00000000000E+00  0.00000000000E+00 -0.30224146045E+03  0.37028992917E+04  0.36905437627E+04 0.  0.
        3    1    3    3  502    0  0.12805830976E+04 -0.62654773690E+03 -0.13266116904E+04  0.19473966529E+04  0.10100000352E+00 0.  1.
       -3    1    3    3    0  502 -0.12805830976E+04  0.62654773690E+03  0.10243702299E+04  0.17555026388E+04  0.10100000352E+00 0. -1.
</event>
<event>
 5   0  0.2897133E-07  0.3700720E+04  0.7818609E-02  0.8067802E-01
        2   -1    0    0  501    0  0.00000000000E+00  0.00000000000E+00  0.18537938115E+04  0.18537938115E+04  0.25500000920E-02 0.  1.
       -2   -1    0    0    0  501  0.00000000000E+00  0.00000000000E+00 -0.18469325451E+04  0.18469325451E+04  0.25500000920E-02 0. -1.
    10030    2    1    2    0    0  0.00000000000E+00  0.00000000000E+00  0.68612663705E+01  0.37007263565E+04  0.37007199960E+04 0.  0.
        4    1    3    3  502    0 -0.12300438773E+04 -0.12831240827E+04  0.51764466113E+03  0.18513165477E+04  0.12699999809E+01 0. -1.
       -4    1    3    3    0  502  0.12300438773E+04  0.12831240827E+04 -0.51078339476E+03  0.18494098088E+04  0.12699999809E+01 0.  1.
</event>
<event>
 5   0  0.2897133E-07  0.3714077E+04  0.7818609E-02  0.8064849E-01
       -2   -1    0    0    0  501  0.00000000000E+00  0.00000000000E+00  0.18725809020E+04  0.18725809020E+04  0.25500000920E-02 0. -1.
        2   -1    0    0  501    0  0.00000000000E+00  0.00000000000E+00 -0.18416253081E+04  0.18416253081E+04  0.25500000920E-02 0.  1.
    10030    2    1    2    0    0  0.00000000000E+00  0.00000000000E+00  0.30955593919E+02  0.37142062101E+04  0.37140772101E+04 0.  0.
        4    1    3    3  502    0  0.72791959893E+02  0.11768004866E+04 -0.14192959502E+04  0.18451451601E+04  0.12699999809E+01 0.  1.
       -4    1    3    3    0  502 -0.72791959893E+02 -0.11768004866E+04  0.14502515441E+04  0.18690610500E+04  0.12699999809E+01 0. -1.
</event>
<event>
 5   0  0.9341000E-08  0.3720499E+04  0.7818609E-02  0.8063434E-01
        1   -1    0    0  501    0  0.00000000000E+00  0.00000000000E+00  0.20560416526E+04  0.20560416526E+04  0.50400001928E-02 0.  1.
       -1   -1    0    0    0  501  0.00000000000E+00  0.00000000000E+00 -0.16831019011E+04  0.16831019011E+04  0.50400001928E-02 0. -1.
    10030    2    1    2    0    0  0.00000000000E+00  0.00000000000E+00  0.37293975149E+03  0.37391435536E+04  0.37204986838E+04 0.  0.
        3    1    3    3  502    0  0.15292125930E+04  0.75594223042E+03  0.93220444078E+03  0.19439508584E+04  0.10100000352E+00 0. -1.
       -3    1    3    3    0  502 -0.15292125930E+04 -0.75594223042E+03 -0.55926468930E+03  0.17951926953E+04  0.10100000352E+00 0.  1.
</event>
<event>
 5   0  0.9341000E-08  0.3714878E+04  0.7818609E-02  0.8064673E-01
        1   -1    0    0  501    0  0.00000000000E+00  0.00000000000E+00  0.19329931036E+04  0.19329931036E+04  0.50400001928E-02 0.  1.
       -1   -1    0    0    0  501  0.00000000000E+00  0.00000000000E+00 -0.17848383043E+04  0.17848383043E+04  0.50400001928E-02 0. -1.
    10030    2    1    2    0    0  0.00000000000E+00  0.00000000000E+00  0.14815479927E+03  0.37178314080E+04  0.37148782663E+04 0.  0.
        1    1    3    3  502    0 -0.12304519801E+04  0.82141346124E+03 -0.10499129016E+04  0.18141249270E+04  0.50400001928E-02 0. -1.
       -1    1    3    3    0  502  0.12304519801E+04 -0.82141346124E+03  0.11980677009E+04  0.19037064810E+04  0.50400001928E-02 0.  1.
</event>
<event>
 5   0  0.9341000E-08  0.3709551E+04  0.7818609E-02  0.8065848E-01
        1   -1    0    0  501    0  0.00000000000E+00  0.00000000000E+00  0.25423400894E+04  0.25423400894E+04  0.50400001928E-02 0.  1.
       -1   -1    0    0    0  501  0.00000000000E+00  0.00000000000E+00 -0.13531598624E+04  0.13531598624E+04  0.50400001928E-02 0. -1.
    10030    2    1    2    0    0  0.00000000000E+00  0.00000000000E+00  0.11891802270E+04  0.38954999519E+04  0.37095512212E+04 0.  0.
        4    1    3    3  502    0  0.20891877690E+03  0.10247529967E+03  0.25269501496E+04  0.25376419987E+04  0.12699999809E+01 0.  1.
       -4    1    3    3    0  502 -0.20891877690E+03 -0.10247529967E+03 -0.13377699226E+04  0.13578579532E+04  0.12699999809E+01 0. -1.
</event>
<event>
 5   0  0.2996969E-07  0.3720792E+04  0.7818609E-02  0.8063370E-01
        2   -1    0    0  501    0  0.00000000000E+00  0.00000000000E+00  0.26280922459E+04  0.26280922459E+04  0.25500000920E-02 0.  1.
       -2   -1    0    0    0  501  0.00000000000E+00  0.00000000000E+00 -0.13169524598E+04  0.13169524598E+04  0.25500000920E-02 0. -1.
    10030    2    1    2    0    0  0.00000000000E+00  0.00000000000E+00  0.13111397861E+04  0.39450447057E+04  0.37207916081E+04 0.  0.
        1    1    3    3  502    0  0.42735941111E+03 -0.30319878003E+03  0.25482360618E+04  0.26015519585E+04  0.50400001928E-02 0.  1.
       -1    1    3    3    0  502 -0.42735941111E+03  0.30319878003E+03 -0.12370962756E+04  0.13434927472E+04  0.50400001928E-02 0. -1.
</event>
<event>
 5   0  0.2897133E-07  0.3680106E+04  0.7818609E-02  0.8072385E-01
        2   -1    0    0  501    0  0.00000000000E+00  0.00000000000E+00  0.15650342167E+04  0.15650342167E+04  0.25500000920E-02 0. -1.
       -2   -1    0    0    0  501  0.00000000000E+00  0.00000000000E+00 -0.21634004795E+04  0.21634004795E+04  0.25500000920E-02 0.  1.
    10030    2    1    2    0    0  0.00000000000E+00  0.00000000000E+00 -0.59836626277E+03  0.37284346962E+04  0.36801063978E+04 0.  0.
        4    1    3    3  502    0 -0.13808648267E+03 -0.14671341879E+04  0.81721492101E+03  0.16850496853E+04  0.12699999809E+01 0. -1.
       -4    1    3    3    0  502  0.13808648267E+03  0.14671341879E+04 -0.14155811838E+04  0.20433850109E+04  0.12699999809E+01 0.  1.
</event>
<event>
 5   0  0.9418945E-08  0.3696982E+04  0.7818609E-02  0.8068631E-01
        1   -1    0    0  501    0  0.00000000000E+00  0.00000000000E+00  0.23060494785E+04  0.23060494785E+04  0.50400001928E-02 0.  1.
       -1   -1    0    0    0  501  0.00000000000E+00  0.00000000000E+00 -0.14817200885E+04  0.14817200885E+04  0.50400001928E-02 0. -1.
    10030    2    1    2    0    0  0.00000000000E+00  0.00000000000E+00  0.82432939002E+03  0.37877695671E+04  0.36969824655E+04 0.  0.
        5    1    3    3  502    0  0.11508660888E+04  0.84936356724E+03  0.16118097069E+04  0.21549626087E+04  0.46999998093E+01 0.  1.
       -5    1    3    3    0  502 -0.11508660888E+04 -0.84936356724E+03 -0.78748031693E+03  0.16328069583E+04  0.46999998093E+01 0. -1.
</event>
<event>
 5   0  0.2996969E-07  0.3685938E+04  0.7818609E-02  0.8071085E-01
        2   -1    0    0  501    0  0.00000000000E+00  0.00000000000E+00  0.14494060070E+04  0.14494060070E+04  0.25500000920E-02 0. -1.
       -2   -1    0    0    0  501  0.00000000000E+00  0.00000000000E+00 -0.23433971576E+04  0.23433971576E+04  0.25500000920E-02 0.  1.
    10030    2    1    2    0    0  0.00000000000E+00  0.00000000000E+00 -0.89399115064E+03  0.37928031646E+04  0.36859375561E+04 0.  0.
        1    1    3    3  502    0  0.75107276672E+03  0.16675254995E+04 -0.21284075555E+03  0.18412095969E+04  0.50400001928E-02 0. -1.
       -1    1    3    3    0  502 -0.75107276672E+03 -0.16675254995E+04 -0.68115039509E+03  0.19515935676E+04  0.50400001928E-02 0.  1.
</event>
<event>
 5   0  0.9341000E-08  0.3708259E+04  0.7818609E-02  0.8066134E-01
        1   -1    0    0  501    0  0.00000000000E+00  0.00000000000E+00  0.20226494831E+04  0.20226494832E+04  0.50400001928E-02 0.  1.
       -1   -1    0    0    0  501  0.00000000000E+00  0.00000000000E+00 -0.16996499710E+04  0.16996499710E+04  0.50400001928E-02 0. -1.
    10030    2    1    2    0    0  0.00000000000E+00  0.00000000000E+00  0.32299951213E+03  0.37222994542E+04  0.37082589637E+04 0.  0.
        3    1    3    3  502    0 -0.16238188585E+04  0.14954285731E+03 -0.72425013436E+03  0.17842894997E+04  0.10100000352E+00 0. -1.
       -3    1    3    3    0  502  0.16238188585E+04 -0.14954285731E+03  0.10472496465E+04  0.19380099545E+04  0.10100000352E+00 0.  1.
</event>
<event>
 5   0  0.9418945E-08  0.3740050E+04  0.7818609E-02  0.8059144E-01
       -1   -1    0    0    0  501  0.00000000000E+00  0.00000000000E+00  0.25053117359E+04  0.25053117359E+04  0.50400001928E-02 0.  1.
        1   -1    0    0  501    0  0.00000000000E+00  0.00000000000E+00 -0.13958314608E+04  0.13958314608E+04  0.50400001928E-02 0. -1.
    10030    2    1    2    0    0  0.00000000000E+00  0.00000000000E+00  0.11094802751E+04  0.39011431968E+04  0.37400497003E+04 0.  0.
        5    1    3    3  502    0 -0.11525224099E+02 -0.18619503877E+04  0.73534167642E+03  0.20019344515E+04  0.46999998093E+01 0.  1.
       -5    1    3    3    0  502  0.11525224099E+02  0.18619503877E+04  0.37413859865E+03  0.18992087453E+04  0.46999998093E+01 0. -1.
</event>
<event>
 5   0  0.9341000E-08  0.3715513E+04  0.7818609E-02  0.8064533E-01
        4   -1    0    0  501    0  0.00000000000E+00  0.00000000000E+00  0.17861738176E+04  0.17861742691E+04  0.12699999809E+01 0. -1.
       -4   -1    0    0    0  501  0.00000000000E+00  0.00000000000E+00 -0.19322073129E+04  0.19322077302E+04  0.12699999809E+01 0.  1.
    10030    2    1    2    0    0  0.00000000000E+00  0.00000000000E+00 -0.14603349526E+03  0.37183819993E+04  0.37155132769E+04 0.  0.
        2    1    3    3  502    0 -0.46801602470E+03 -0.84172806462E+03 -0.16628636534E+04  0.19216296896E+04  0.25500000920E-02 0.  1.
       -2    1    3    3    0  502  0.46801602470E+03  0.84172806462E+03  0.15168301581E+04  0.17967523098E+04  0.25500000920E-02 0. -1.
</event>
<event>
 5   0  0.2913025E-07  0.3739223E+04  0.7818609E-02  0.8059325E-01
        2   -1    0    0  501    0  0.00000000000E+00  0.00000000000E+00  0.31961957644E+04  0.31961957644E+04  0.25500000920E-02 0. -1.
       -2   -1    0    0    0  501  0.00000000000E+00  0.00000000000E+00 -0.10936272265E+04  0.10936272265E+04  0.25500000920E-02 0.  1.
    10030    2    1    2    0    0  0.00000000000E+00  0.00000000000E+00  0.21025685380E+04  0.42898229909E+04  0.37392227583E+04 0.  0.
        5    1    3    3  502    0 -0.42986913673E+03  0.17912726811E+04  0.68491916261E+03  0.19653451712E+04  0.46999998093E+01 0. -1.
       -5    1    3    3    0  502  0.42986913673E+03 -0.17912726811E+04  0.14176493754E+04  0.23244778197E+04  0.46999998093E+01 0.  1.
</event>
<event>
 5   0  0.2897133E-07  0.3705710E+04  0.7818609E-02  0.8066698E-01
       -2   -1    0    0    0  501  0.00000000000E+00  0.00000000000E+00  0.18424654901E+04  0.18424654901E+04  0.25500000920E-02 0. -1.
        2   -1    0    0  501    0  0.00000000000E+00  0.00000000000E+00 -0.18633026936E+04  0.18633026936E+04  0.25500000920E-02 0.  1.
    10030    2    1    2    0    0  0.00000000000E+00  0.00000000000E+00 -0.20837203486E+02  0.37057681838E+04  0.37057096004E+04 0.  0.
        4    1    3    3  502    0  0.10079672438E+04 -0.12967371806E+04 -0.86807078896E+03  0.18577065935E+04  0.12699999809E+01 0.  1.
       -4    1    3    3    0  502 -0.10079672438E+04  0.12967371806E+04  0.84723358548E+03  0.18480615902E+04  0.12699999809E+01 0. -1.
</event>
<event>
 5   0  0.9341000E-08  0.3713780E+04  0.7818609E-02  0.8064915E-01
       -1   -1    0    0    0  501  0.00000000000E+00  0.00000000000E+00  0.14569218222E+04  0.14569218222E+04  0.50400001928E-02 0. -1.
        1   -1    0    0  501    0  0.00000000000E+00  0.00000000000E+00 -0.23666613265E+04  0.23666613265E+04  0.50400001928E-02 0.  1.
    10030    2    1    2    0    0  0.00000000000E+00  0.00000000000E+00 -0.90973950437E+03  0.38235831487E+04  0.37137800324E+04 0.  0.
        1    1    3    3  502    0 -0.31793037139E+03 -0.17783085997E+04 -0.12540255717E+02  0.18065487690E+04  0.50400001928E-02 0.  1.
       -1    1    3    3    0  502  0.31793037139E+03  0.17783085997E+04 -0.89719924866E+03  0.20170343797E+04  0.50400001928E-02 0. -1.
</event>
<event>
 5   0  0.2913025E-07  0.3699798E+04  0.7818609E-02  0.8068007E-01
       -2   -1    0    0    0  501  0.00000000000E+00  0.00000000000E+00  0.14486395992E+04  0.14486395992E+04  0.25500000920E-02 0. -1.
        2   -1    0    0  501    0  0.00000000000E+00  0.00000000000E+00 -0.23623032323E+04  0.23623032323E+04  0.25500000920E-02 0.  1.
    10030    2    1    2    0    0  0.00000000000E+00  0.00000000000E+00 -0.91366363314E+03  0.38109428315E+04  0.36997978364E+04 0.  0.
        5    1    3    3  502    0 -0.98040322038E+03 -0.91294861743E+03 -0.17708661156E+04  0.22205077217E+04  0.46999998093E+01 0. -1.
       -5    1    3    3    0  502  0.98040322038E+03  0.91294861743E+03  0.85720248249E+03  0.15904351098E+04  0.46999998093E+01 0.  1.
</event>
<event>
 5   0  0.9418945E-08  0.3674376E+04  0.7818609E-02  0.8073664E-01
        1   -1    0    0  501    0  0.00000000000E+00  0.00000000000E+00  0.20536661975E+04  0.20536661975E+04  0.50400001928E-02 0. -1.
       -1   -1    0    0    0  501  0.00000000000E+00  0.00000000000E+00 -0.16435286877E+04  0.16435286877E+04  0.50400001928E-02 0.  1.
    10030    2    1    2    0    0  0.00000000000E+00  0.00000000000E+00  0.41013750976E+03  0.36971948852E+04  0.36743757623E+04 0.  0.
        5    1    3    3  502    0  0.18937557491E+03  0.14860998184E+04 -0.86496459730E+03  0.17298964198E+04  0.46999998093E+01 0.  1.
       -5    1    3    3    0  502 -0.18937557491E+03 -0.14860998184E+04  0.12751021071E+04  0.19672984654E+04  0.46999998093E+01 0. -1.
</event>
<event>
 5   0  0.3032442E-07  0.3708795E+04  0.7818609E-02  0.8066016E-01
       -2   -1    0    0    0  501  0.00000000000E+00  0.00000000000E+00  0.12852418454E+04  0.12852418454E+04  0.25500000920E-02 0.  1.
        2   -1    0    0  501    0  0.00000000000E+00  0.00000000000E+00 -0.26755975186E+04  0.26755975186E+04  0.25500000920E-02 0. -1.
    10030    2    1    2    0    0  0.00000000000E+00  0.00000000000E+00 -0.13903556731E+04  0.39608393640E+04  0.37087948945E+04 0.  0.
        3    1    3    3  502    0  0.60578181585E+03 -0.16633747591E+03 -0.25584978373E+04  0.26344925428E+04  0.10100000352E+00 0. -1.
       -3    1    3    3    0  502 -0.60578181585E+03  0.16633747591E+03  0.11681421642E+04  0.13263468212E+04  0.10100000352E+00 0.  1.
</event>
<event>
 5   0  0.2913025E-07  0.3701956E+04  0.7818609E-02  0.8067528E-01
       -2   -1    0    0    0  501  0.00000000000E+00  0.00000000000E+00  0.17168290497E+04  0.17168290497E+04  0.25500000920E-02 0.  1.
        2   -1    0    0  501    0  0.00000000000E+00  0.00000000000E+00 -0.19956094121E+04  0.19956094121E+04  0.25500000920E-02 0. -1.
    10030    2    1    2    0    0  0.00000000000E+00  0.00000000000E+00 -0.27878036243E+03  0.37124384617E+04  0.37019563533E+04 0.  0.
        5    1    3    3  502    0 -0.16734064991E+04 -0.33468031636E+03  0.57943640234E+03  0.18022399562E+04  0.46999998093E+01 0.  1.
       -5    1    3    3    0  502  0.16734064991E+04  0.33468031636E+03 -0.85821676477E+03  0.19101985056E+04  0.46999998093E+01 0. -1.
</event>
<event>
 5   0  0.9341000E-08  0.3787854E+04  0.7818609E-02  0.8048767E-01
       -1   -1    0    0    0  501  0.00000000000E+00  0.00000000000E+00  0.12879501352E+04  0.12879501352E+04  0.50400001928E-02 0. -1.
        1   -1    0    0  501    0  0.00000000000E+00  0.00000000000E+00 -0.27850136152E+04  0.27850136152E+04  0.50400001928E-02 0.  1.
    10030    2    1    2    0    0  0.00000000000E+00  0.00000000000E+00 -0.14970634799E+04  0.40729637504E+04  0.37878535675E+04 0.  0.
        4    1    3    3  502    0  0.10939291295E+04  0.71479240910E+03 -0.22226114123E+04  0.25782963816E+04  0.12699999809E+01 0.  1.
       -4    1    3    3    0  502 -0.10939291295E+04 -0.71479240910E+03  0.72554793235E+03  0.14946673688E+04  0.12699999809E+01 0. -1.
</event>
<event>
 5   0  0.3032442E-07  0.3728230E+04  0.7818609E-02  0.8061734E-01
        2   -1    0    0  501    0  0.00000000000E+00  0.00000000000E+00  0.16353117995E+04  0.16353117995E+04  0.25500000920E-02 0. -1.
       -2   -1    0    0    0  501  0.00000000000E+00  0.00000000000E+00 -0.21249313805E+04  0.21249313805E+04  0.25500000920E-02 0.  1.
    10030    2    1    2    0    0  0.00000000000E+00  0.00000000000E+00 -0.48961958103E+03  0.37602431800E+04  0.37282303360E+04 0.  0.
        3    1    3    3  502    0 -0.17775492593E+04  0.46441062864E+03  0.73441635523E+02  0.18386822143E+04  0.10100000352E+00 0. -1.
       -3    1    3    3    0  502  0.17775492593E+04 -0.46441062864E+03 -0.56306121655E+03  0.19215609657E+04  0.10100000352E+00 0.  1.
</event>
<event>
 5   0  0.3008879E-07  0.3682948E+04  0.7818609E-02  0.8071751E-01
        2   -1    0    0  501    0  0.00000000000E+00  0.00000000000E+00  0.11173854034E+04  0.11173854034E+04  0.25500000920E-02 0.  1.
       -2   -1    0    0    0  501  0.00000000000E+00  0.00000000000E+00 -0.30347872630E+04  0.30347872630E+04  0.25500000920E-02 0. -1.
    10030    2    1    2    0    0  0.00000000000E+00  0.00000000000E+00 -0.19174018596E+04  0.41521726664E+04  0.36829482701E+04 0.  0.
        2    1    3    3  502    0  0.10276628658E+04 -0.37984365451E+03  0.70995486991E+03  0.13055298100E+04  0.25500000920E-02 0.  1.
       -2    1    3    3    0  502 -0.10276628658E+04  0.37984365451E+03 -0.26273567295E+04  0.28466428564E+04  0.25500000920E-02 0. -1.
</event>
<event>
 5   0  0.2897133E-07  0.3691415E+04  0.7818609E-02  0.8069867E-01
       -2   -1    0    0    0  501  0.00000000000E+00  0.00000000000E+00  0.21259364465E+04  0.21259364465E+04  0.25500000920E-02 0.  1.
        2   -1    0    0  501    0  0.00000000000E+00  0.00000000000E+00 -0.16024164368E+04  0.16024164368E+04  0.25500000920E-02 0. -1.
    10030    2    1    2    0    0  0.00000000000E+00  0.00000000000E+00  0.52352000970E+03  0.37283528832E+04  0.36914146369E+04 0.  0.
        4    1    3    3  502    0  0.13374434663E+04  0.58565603535E+03  0.14021669034E+04  0.20243076978E+04  0.12699999809E+01 0.  1.
       -4    1    3    3    0  502 -0.13374434663E+04 -0.58565603535E+03 -0.87864689373E+03  0.17040451855E+04  0.12699999809E+01 0. -1.
</event>
<event>
 5   0  0.2913025E-07  0.3713162E+04  0.7818609E-02  0.8065051E-01
        2   -1    0    0  501    0  0.00000000000E+00  0.00000000000E+00  0.21049047143E+04  0.21049047143E+04  0.25500000920E-02 0.  1.
       -2   -1    0    0    0  501  0.00000000000E+00  0.00000000000E+00 -0.16375531193E+04  0.16375531193E+04  0.25500000920E-02 0. -1.
    10030    2    1    2    0    0  0.00000000000E+00  0.00000000000E+00  0.46735159504E+03  0.37424578336E+04  0.37131621461E+04 0.  0.
        5    1    3    3  502    0 -0.28967913468E+03 -0.27197276940E+03  0.20615409198E+04  0.20994895195E+04  0.46999998093E+01 0.  1.
       -5    1    3    3    0  502  0.28967913468E+03  0.27197276940E+03 -0.15941893247E+04  0.16429683142E+04  0.46999998093E+01 0. -1.
</event>
<event>
 5   0  0.2996969E-07  0.3694804E+04  0.7818609E-02  0.8069114E-01
        2   -1    0    0  501    0  0.00000000000E+00  0.00000000000E+00  0.23981255894E+04  0.23981255894E+04  0.25500000920E-02 0.  1.
       -2   -1    0    0    0  501  0.00000000000E+00  0.00000000000E+00 -0.14231510763E+04  0.14231510763E+04  0.25500000920E-02 0. -1.
    10030    2    1    2    0    0  0.00000000000E+00  0.00000000000E+00  0.97497451311E+03  0.38212766657E+04  0.36948044677E+04 0.  0.
        1    1    3    3  502    0  0.81501727128E+03  0.73379598828E+03 -0.10500702438E+04  0.15183402852E+04  0.50400001928E-02 0. -1.
       -1    1    3    3    0  502 -0.81501727128E+03 -0.73379598828E+03  0.20250447569E+04  0.23029363804E+04  0.50400001928E-02 0.  1.
</event>
<event>
 5   0  0.2996969E-07  0.3723779E+04  0.7818609E-02  0.8062712E-01
        2   -1    0    0  501    0  0.00000000000E+00  0.00000000000E+00  0.24924471682E+04  0.24924471682E+04  0.25500000920E-02 0. -1.
       -2   -1    0    0    0  501  0.00000000000E+00  0.00000000000E+00 -0.13908550160E+04  0.13908550160E+04  0.25500000920E-02 0.  1.
    10030    2    1    2    0    0  0.00000000000E+00  0.00000000000E+00  0.11015921522E+04  0.38833021842E+04  0.37237790730E+04 0.  0.
        1    1    3    3  502    0  0.12581533717E+04 -0.24522405301E+03 -0.85744130492E+03  0.15421706567E+04  0.50400001928E-02 0.  1.
       -1    1    3    3    0  502 -0.12581533717E+04  0.24522405301E+03  0.19590334571E+04  0.23411315275E+04  0.50400001928E-02 0. -1.
</event>
<event>
 5   0  0.9341000E-08  0.3725547E+04  0.7818609E-02  0.8062324E-01
       -1   -1    0    0    0  501  0.00000000000E+00  0.00000000000E+00  0.14860700279E+04  0.14860700279E+04  0.50400001928E-02 0. -1.
        1   -1    0    0  501    0  0.00000000000E+00  0.00000000000E+00 -0.23349675032E+04  0.23349675032E+04  0.50400001928E-02 0.  1.
    10030    2    1    2    0    0  0.00000000000E+00  0.00000000000E+00 -0.84889747534E+03  0.38210375311E+04  0.37255470592E+04 0.  0.
        1    1    3    3  502    0  0.12943529476E+04  0.35005791106E+02  0.94903591340E+03  0.16053797442E+04  0.50400001928E-02 0. -1.
       -1    1    3    3    0  502 -0.12943529476E+04 -0.35005791106E+02 -0.17979333887E+04  0.22156577869E+04  0.50400001928E-02 0.  1.
</event>
<event>
 5   0  0.9646615E-08  0.3711252E+04  0.7818609E-02  0.8065473E-01
        1   -1    0    0  501    0  0.00000000000E+00  0.00000000000E+00  0.23706976673E+04  0.23706976673E+04  0.50400001928E-02 0. -1.
       -1   -1    0    0    0  501  0.00000000000E+00  0.00000000000E+00 -0.14524615840E+04  0.14524615840E+04  0.50400001928E-02 0.  1.
    10030    2    1    2    0    0  0.00000000000E+00  0.00000000000E+00  0.91823608329E+03  0.38231592512E+04  0.37112516966E+04 0.  0.
        2    1    3    3  502    0  0.13532647070E+04 -0.97769458868E+03 -0.37532875618E+03  0.17111644430E+04  0.25500000920E-02 0.  1.
       -2    1    3    3    0  502 -0.13532647070E+04  0.97769458868E+03  0.12935648395E+04  0.21119948082E+04  0.25500000920E-02 0. -1.
</event>
<event>
 5   0  0.2996969E-07  0.3650550E+04  0.7818609E-02  0.8079010E-01
       -2   -1    0    0    0  501  0.00000000000E+00  0.00000000000E+00  0.20547982483E+04  0.20547982483E+04  0.25500000920E-02 0.  1.
        2   -1    0    0  501    0  0.00000000000E+00  0.00000000000E+00 -0.16213900433E+04  0.16213900433E+04  0.25500000920E-02 0. -1.
    10030    2    1    2    0    0  0.00000000000E+00  0.00000000000E+00  0.43340820502E+03  0.36761882916E+04  0.36505503261E+04 0.  0.
        1    1    3    3  502    0 -0.52528925090E+02  0.97488105230E+03 -0.13363582484E+04  0.16549941759E+04  0.50400001928E-02 0. -1.
       -1    1    3    3    0  502  0.52528925090E+02 -0.97488105230E+03  0.17697664534E+04  0.20211941158E+04  0.50400001928E-02 0.  1.
</event>
<event>
 5   0  0.9418945E-08  0.3673349E+04  0.7818609E-02  0.8073894E-01
        1   -1    0    0  501    0  0.00000000000E+00  0.00000000000E+00  0.30265793711E+04  0.30265793711E+04  0.50400001928E-02 0. -1.
       -1   -1    0    0    0  501  0.00000000000E+00  0.00000000000E+00 -0.11145825984E+04  0.11145825984E+04  0.50400001928E-02 0.  1.
    10030    2    1    2    0    0  0.00000000000E+00  0.00000000000E+00  0.19119967727E+04  0.41411619696E+04  0.36733487174E+04 0.  0.
        5    1    3    3  502    0  0.17961253542E+04  0.24313763033E+03  0.12907452941E+04  0.22251354340E+04  0.46999998093E+01 0.  1.
       -5    1    3    3    0  502 -0.17961253542E+04 -0.24313763033E+03  0.62125147859E+03  0.19160265356E+04  0.46999998093E+01 0. -1.
</event>
<event>
 5   0  0.2913025E-07  0.3697257E+04  0.7818609E-02  0.8068570E-01
       -2   -1    0    0    0  501  0.00000000000E+00  0.00000000000E+00  0.16629895297E+04  0.16629895297E+04  0.25500000920E-02 0.  1.
        2   -1    0    0  501    0  0.00000000000E+00  0.00000000000E+00 -0.20549900626E+04  0.20549900626E+04  0.25500000920E-02 0. -1.
    10030    2    1    2    0    0  0.00000000000E+00  0.00000000000E+00 -0.39200053288E+03  0.37179795922E+04  0.36972567980E+04 0.  0.
        5    1    3    3  502    0 -0.31162917220E+03  0.56625966650E+03 -0.19376551700E+04  0.20426190048E+04  0.46999998093E+01 0. -1.
       -5    1    3    3    0  502  0.31162917220E+03 -0.56625966650E+03  0.15456546371E+04  0.16753605875E+04  0.46999998093E+01 0.  1.
</event>
<event>
 5   0  0.9341000E-08  0.3676173E+04  0.7818609E-02  0.8073263E-01
       -1   -1    0    0    0  501  0.00000000000E+00  0.00000000000E+00  0.16622793888E+04  0.16622793888E+04  0.50400001928E-02 0. -1.
        1   -1    0    0  501    0  0.00000000000E+00  0.00000000000E+00 -0.20324875626E+04  0.20324875626E+04  0.50400001928E-02 0.  1.
    10030    2    1    2    0    0  0.00000000000E+00  0.00000000000E+00 -0.37020817374E+03  0.36947669514E+04  0.36761731098E+04 0.  0.
        3    1    3    3  502    0  0.13578548163E+04 -0.59646026326E+03 -0.12764265306E+04  0.19567317767E+04  0.10100000352E+00 0.  1.
       -3    1    3    3    0  502 -0.13578548163E+04  0.59646026326E+03  0.90621835682E+03  0.17380351747E+04  0.10100000352E+00 0. -1.
</event>
<event>
 5   0  0.3008879E-07  0.3701695E+04  0.7818609E-02  0.8067586E-01
       -2   -1    0    0    0  501  0.00000000000E+00  0.00000000000E+00  0.25840874197E+04  0.25840874197E+04  0.25500000920E-02 0.  1.
        2   -1    0    0  501    0  0.00000000000E+00  0.00000000000E+00 -0.13256659397E+04  0.13256659397E+04  0.25500000920E-02 0. -1.
    10030    2    1    2    0    0  0.00000000000E+00  0.00000000000E+00  0.12584214800E+04  0.39097533594E+04  0.37016951131E+04 0.  0.
        2    1    3    3  502    0 -0.15855292569E+04 -0.95090717130E+03  0.72073699357E+03  0.19843359813E+04  0.25500000920E-02 0.  1.
       -2    1    3    3    0  502  0.15855292569E+04  0.95090717130E+03  0.53768448647E+03  0.19254173781E+04  0.25500000920E-02 0. -1.
</event>
<event>
 5   0  0.9341000E-08  0.3946016E+04  0.7818609E-02  0.8015526E-01
       -1   -1    0    0    0  501  0.00000000000E+00  0.00000000000E+00  0.16880402144E+04  0.16880402144E+04  0.50400001928E-02 0. -1.
        1   -1    0    0  501    0  0.00000000000E+00  0.00000000000E+00 -0.23060831698E+04  0.23060831698E+04  0.50400001928E-02 0.  1.
    10030    2    1    2    0    0  0.00000000000E+00  0.00000000000E+00 -0.61804295545E+03  0.39941233842E+04  0.39460162840E+04 0.  0.
        4    1    3    3  502    0  0.82974231265E+03  0.49329978688E+03 -0.20507384853E+04  0.22665716254E+04  0.12699999809E+01 0.  1.
       -4    1    3    3    0  502 -0.82974231265E+03 -0.49329978688E+03  0.14326955298E+04  0.17275517588E+04  0.12699999809E+01 0. -1.
</event>
<event>
 5   0  0.9418945E-08  0.3696782E+04  0.7818609E-02  0.8068675E-01
       -1   -1    0    0    0  501  0.00000000000E+00  0.00000000000E+00  0.11064335134E+04  0.11064335134E+04  0.50400001928E-02 0.  1.
        1   -1    0    0  501    0  0.00000000000E+00  0.00000000000E+00 -0.30878933484E+04  0.30878933484E+04  0.50400001928E-02 0. -1.
    10030    2    1    2    0    0  0.00000000000E+00  0.00000000000E+00 -0.19814598350E+04  0.41943268617E+04  0.36967816740E+04 0.  0.
        5    1    3    3  502    0 -0.10357685114E+03 -0.99968843089E+03  0.76931728940E+03  0.12656920260E+04  0.46999998093E+01 0.  1.
       -5    1    3    3    0  502  0.10357685114E+03  0.99968843089E+03 -0.27507771244E+04  0.29286348357E+04  0.46999998093E+01 0. -1.
</event>
<event>
 5   0  0.9341000E-08  0.3698819E+04  0.7818609E-02  0.8068224E-01
       -1   -1    0    0    0  501  0.00000000000E+00  0.00000000000E+00  0.15923393453E+04  0.15923393453E+04  0.50400001928E-02 0.  1.
        1   -1    0    0  501    0  0.00000000000E+00  0.00000000000E+00 -0.21479815929E+04  0.21479815929E+04  0.50400001928E-02 0. -1.
    10030    2    1    2    0    0  0.00000000000E+00  0.00000000000E+00 -0.55564224761E+03  0.37403209383E+04  0.36988190566E+04 0.  0.
        3    1    3    3  502    0 -0.10054866280E+04 -0.15220252060E+04  0.30147355397E+02  0.18244103047E+04  0.10100000352E+00 0. -1.
       -3    1    3    3    0  502  0.10054866280E+04  0.15220252060E+04 -0.58578960301E+03  0.19159106336E+04  0.10100000352E+00 0.  1.
</event>
<event>
 5   0  0.9646615E-08  0.3700108E+04  0.7818609E-02  0.8067938E-01
       -1   -1    0    0    0  501  0.00000000000E+00  0.00000000000E+00  0.16414850739E+04  0.16414850739E+04  0.50400001928E-02 0.  1.
        1   -1    0    0  501    0  0.00000000000E+00  0.00000000000E+00 -0.20851244175E+04  0.20851244175E+04  0.50400001928E-02 0. -1.
    10030    2    1    2    0    0  0.00000000000E+00  0.00000000000E+00 -0.44363934358E+03  0.37266094914E+04  0.37001084355E+04 0.  0.
        2    1    3    3  502    0  0.48512928340E+01  0.18454743938E+04 -0.90883407744E+02  0.18477172584E+04  0.25500000920E-02 0. -1.
       -2    1    3    3    0  502 -0.48512928340E+01 -0.18454743938E+04 -0.35275593584E+03  0.18788922330E+04  0.25500000920E-02 0.  1.
</event>
<event>
 5   0  0.3032442E-07  0.3599527E+04  0.7818609E-02  0.8090600E-01
       -2   -1    0    0    0  501  0.00000000000E+00  0.00000000000E+00  0.31737589355E+04  0.31737589355E+04  0.25500000920E-02 0. -1.
        2   -1    0    0  501    0  0.00000000000E+00  0.00000000000E+00 -0.10206030100E+04  0.10206030100E+04  0.25500000920E-02 0.  1.
    10030    2    1    2    0    0  0.00000000000E+00  0.00000000000E+00  0.21531559255E+04  0.41943619456E+04  0.35995265926E+04 0.  0.
        3    1    3    3  502    0 -0.62192567451E+03 -0.11593498972E+04 -0.35448659888E+03  0.13625507285E+04  0.10100000352E+00 0.  1.
       -3    1    3    3    0  502  0.62192567451E+03  0.11593498972E+04  0.25076425244E+04  0.28318112171E+04  0.10100000352E+00 0. -1.
</event>
<event>
 5   0  0.2996969E-07  0.3693280E+04  0.7818609E-02  0.8069453E-01
        2   -1    0    0  501    0  0.00000000000E+00  0.00000000000E+00  0.20685547550E+04  0.20685547550E+04  0.25500000920E-02 0.  1.
       -2   -1    0    0    0  501  0.00000000000E+00  0.00000000000E+00 -0.16485319329E+04  0.16485319329E+04  0.25500000920E-02 0. -1.
    10030    2    1    2    0    0  0.00000000000E+00  0.00000000000E+00  0.42002282211E+03  0.37170866879E+04  0.36932796095E+04 0.  0.
        1    1    3    3  502    0  0.16057463473E+04  0.20527946860E+03 -0.68426423284E+03  0.17574921145E+04  0.50400001928E-02 0. -1.
       -1    1    3    3    0  502 -0.16057463473E+04 -0.20527946860E+03  0.11042870550E+04  0.19595945734E+04  0.50400001928E-02 0.  1.
</event>
<event>
 5   0  0.9646615E-08  0.3713227E+04  0.7818609E-02  0.8065037E-01
        1   -1    0    0  501    0  0.00000000000E+00  0.00000000000E+00  0.16013785470E+04  0.16013785470E+04  0.50400001928E-02 0.  1.
       -1   -1    0    0    0  501  0.00000000000E+00  0.00000000000E+00 -0.21525285863E+04  0.21525285863E+04  0.50400001928E-02 0. -1.
    10030    2    1    2    0    0  0.00000000000E+00  0.00000000000E+00 -0.55115003938E+03  0.37539071333E+04  0.37132266830E+04 0.  0.
        2    1    3    3  502    0 -0.15819980226E+04 -0.83302322675E+03 -0.78142434744E+03  0.19512225528E+04  0.25500000920E-02 0. -1.
       -2    1    3    3    0  502  0.15819980226E+04  0.83302322675E+03  0.23027430806E+03  0.18026845805E+04  0.25500000920E-02 0.  1.
</event>
<event>
 5   0  0.9341000E-08  0.3702277E+04  0.7818609E-02  0.8067458E-01
       -1   -1    0    0    0  501  0.00000000000E+00  0.00000000000E+00  0.19925011740E+04  0.19925011740E+04  0.50400001928E-02 0.  1.
        1   -1    0    0  501    0  0.00000000000E+00  0.00000000000E+00 -0.17198046894E+04  0.17198046894E+04  0.50400001928E-02 0. -1.
    10030    2    1    2    0    0  0.00000000000E+00  0.00000000000E+00  0.27269648458E+03  0.37123058635E+04  0.37022765228E+04 0.  0.
        4    1    3    3  502    0  0.16031849172E+04 -0.48798799213E+03  0.92484805417E+03  0.19140741092E+04  0.12699999809E+01 0.  1.
       -4    1    3    3    0  502 -0.16031849172E+04  0.48798799213E+03 -0.65215156959E+03  0.17982317542E+04  0.12699999809E+01 0. -1.
</event>
<event>
 5   0  0.9341000E-08  0.3660894E+04  0.7818609E-02  0.8076684E-01
        1   -1    0    0  501    0  0.00000000000E+00  0.00000000000E+00  0.14022848408E+04  0.14022848408E+04  0.50400001928E-02 0.  1.
       -1   -1    0    0    0  501  0.00000000000E+00  0.00000000000E+00 -0.23893409757E+04  0.23893409757E+04  0.50400001928E-02 0. -1.
    10030    2    1    2    0    0  0.00000000000E+00  0.00000000000E+00 -0.98705613494E+03  0.37916258165E+04  0.36608942239E+04 0.  0.
        3    1    3    3  502    0 -0.59475482014E+03  0.14369020191E+04 -0.14934664788E+04  0.21561221769E+04  0.10100000352E+00 0. -1.
       -3    1    3    3    0  502  0.59475482014E+03 -0.14369020191E+04  0.50641034382E+03  0.16355036395E+04  0.10100000352E+00 0.  1.
</event>
<event>
 5   0  0.9341000E-08  0.3686976E+04  0.7818609E-02  0.8070854E-01
       -1   -1    0    0    0  501  0.00000000000E+00  0.00000000000E+00  0.17588901637E+04  0.17588901637E+04  0.50400001928E-02 0.  1.
        1   -1    0    0  501    0  0.00000000000E+00  0.00000000000E+00 -0.19321548747E+04  0.19321548747E+04  0.50400001928E-02 0. -1.
    10030    2    1    2    0    0  0.00000000000E+00  0.00000000000E+00 -0.17326471100E+03  0.36910450384E+04  0.36869761072E+04 0.  0.
        4    1    3    3  502    0 -0.12897386949E+04  0.19041498684E+02 -0.14051500635E+04  0.19074162613E+04  0.12699999809E+01 0. -1.
       -4    1    3    3    0  502  0.12897386949E+04 -0.19041498684E+02  0.12318853525E+04  0.17836287771E+04  0.12699999809E+01 0.  1.
</event>
<event>
 5   0  0.3008879E-07  0.3718193E+04  0.7818609E-02  0.8063942E-01
       -2   -1    0    0    0  501  0.00000000000E+00  0.00000000000E+00  0.12341357621E+04  0.12341357621E+04  0.25500000920E-02 0.  1.
        2   -1    0    0  501    0  0.00000000000E+00  0.00000000000E+00 -0.28005345922E+04  0.28005345922E+04  0.25500000920E-02 0. -1.
    10030    2    1    2    0    0  0.00000000000E+00  0.00000000000E+00 -0.15663988301E+04  0.40346703543E+04  0.37181930522E+04 0.  0.
        2    1    3    3  502    0  0.65717433814E+03  0.11200325223E+04  0.66040808221E+03  0.14568767267E+04  0.25500000920E-02 0.  1.
       -2    1    3    3    0  502 -0.65717433814E+03 -0.11200325223E+04 -0.22268069123E+04  0.25777936276E+04  0.25500000920E-02 0. -1.
</event>
<event>
 5   0  0.2996969E-07  0.3695450E+04  0.7818609E-02  0.8068971E-01
       -2   -1    0    0    0  501  0.00000000000E+00  0.00000000000E+00  0.15220087161E+04  0.15220087161E+04  0.25500000920E-02 0. -1.
        2   -1    0    0  501    0  0.00000000000E+00  0.00000000000E+00 -0.22431456907E+04  0.22431456907E+04  0.25500000920E-02 0.  1.
    10030    2    1    2    0    0  0.00000000000E+00  0.00000000000E+00 -0.72113697469E+03  0.37651544068E+04  0.36954497928E+04 0.  0.
        1    1    3    3  502    0 -0.10459813911E+04 -0.33445360290E+03 -0.18745824139E+04  0.21725550648E+04  0.50400001928E-02 0.  1.
       -1    1    3    3    0  502  0.10459813911E+04  0.33445360290E+03  0.11534454392E+04  0.15925993420E+04  0.50400001928E-02 0. -1.
</event>
<event>
 5   0  0.9341000E-08  0.3716173E+04  0.7818609E-02  0.8064387E-01
        1   -1    0    0  501    0  0.00000000000E+00  0.00000000000E+00  0.17618341306E+04  0.17618341306E+04  0.50400001928E-02 0.  1.
       -1   -1    0    0    0  501  0.00000000000E+00  0.00000000000E+00 -0.19595968335E+04  0.19595968335E+04  0.50400001928E-02 0. -1.
    10030    2    1    2    0    0  0.00000000000E+00  0.00000000000E+00 -0.19776270292E+03  0.37214309641E+04  0.37161725382E+04 0.  0.
        1    1    3    3  502    0  0.95460178850E+03  0.15800070292E+04 -0.31083574476E+03  0.18719790723E+04  0.50400001928E-02 0. -1.
       -1    1    3    3    0  502 -0.95460178850E+03 -0.15800070292E+04  0.11307304184E+03  0.18494518917E+04  0.50400001928E-02 0.  1.
</event>
<event>
 5   0  0.3008879E-07  0.3690480E+04  0.7818609E-02  0.8070075E-01
       -2   -1    0    0    0  501  0.00000000000E+00  0.00000000000E+00  0.17979723996E+04  0.17979723996E+04  0.25500000920E-02 0. -1.
        2   -1    0    0  501    0  0.00000000000E+00  0.00000000000E+00 -0.18937504070E+04  0.18937504070E+04  0.25500000920E-02 0.  1.
    10030    2    1    2    0    0  0.00000000000E+00  0.00000000000E+00 -0.95778007363E+02  0.36917228066E+04  0.36904801658E+04 0.  0.
        2    1    3    3  502    0 -0.10805822082E+04 -0.14258318864E+04  0.40421061166E+03  0.18341321369E+04  0.25500000920E-02 0. -1.
       -2    1    3    3    0  502  0.10805822082E+04  0.14258318864E+04 -0.49998861902E+03  0.18575906697E+04  0.25500000920E-02 0.  1.
</event>
<event>
 5   0  0.9341000E-08  0.3660590E+04  0.7818609E-02  0.8076752E-01
       -1   -1    0    0    0  501  0.00000000000E+00  0.00000000000E+00  0.24614341589E+04  0.24614341589E+04  0.50400001928E-02 0. -1.
        1   -1    0    0  501    0  0.00000000000E+00  0.00000000000E+00 -0.13609867269E+04  0.13609867269E+04  0.50400001928E-02 0.  1.
    10030    2    1    2    0    0  0.00000000000E+00  0.00000000000E+00  0.11004474320E+04  0.38224208858E+04  0.36605896899E+04 0.  0.
        3    1    3    3  502    0  0.37616442271E+03 -0.16795997682E+04  0.12001749916E+04  0.20983267322E+04  0.10100000352E+00 0.  1.
       -3    1    3    3    0  502 -0.37616442271E+03  0.16795997682E+04 -0.99727559540E+02  0.17240941537E+04  0.10100000352E+00 0. -1.
</event>
<event>
 5   0  0.2996969E-07  0.3732620E+04  0.7818609E-02  0.8060771E-01
        2   -1    0    0  501    0  0.00000000000E+00  0.00000000000E+00  0.17623746524E+04  0.17623746524E+04  0.25500000920E-02 0. -1.
       -2   -1    0    0    0  501  0.00000000000E+00  0.00000000000E+00 -0.19763751815E+04  0.19763751815E+04  0.25500000920E-02 0.  1.
    10030    2    1    2    0    0  0.00000000000E+00  0.00000000000E+00 -0.21400052910E+03  0.37387498339E+04  0.37326202719E+04 0.  0.
        1    1    3    3  502    0 -0.15892796299E+04  0.88869619117E+03  0.30296743177E+03  0.18459089704E+04  0.50400001928E-02 0. -1.
       -1    1    3    3    0  502  0.15892796299E+04 -0.88869619117E+03 -0.51696796087E+03  0.18928408636E+04  0.50400001928E-02 0.  1.
</event>
<event>
 5   0  0.9341000E-08  0.3721158E+04  0.7818609E-02  0.8063289E-01
        1   -1    0    0  501    0  0.00000000000E+00  0.00000000000E+00  0.13433035545E+04  0.13433035545E+04  0.50400001928E-02 0. -1.
       -1   -1    0    0    0  501  0.00000000000E+00  0.00000000000E+00 -0.25770451989E+04  0.25770451989E+04  0.50400001928E-02 0.  1.
    10030    2    1    2    0    0  0.00000000000E+00  0.00000000000E+00 -0.12337416444E+04  0.39203487535E+04  0.37211578714E+04 0.  0.
        3    1    3    3  502    0 -0.17947723294E+04 -0.47165173838E+03 -0.47516863197E+03  0.19155804122E+04  0.10100000352E+00 0. -1.
       -3    1    3    3    0  502  0.17947723294E+04  0.47165173838E+03 -0.75857301245E+03  0.20047683413E+04  0.10100000352E+00 0.  1.
</event>
<event>
 5   0  0.2913025E-07  0.3707596E+04  0.7818609E-02  0.8066280E-01
       -2   -1    0    0    0  501  0.00000000000E+00  0.00000000000E+00  0.26366331751E+04  0.26366331751E+04  0.25500000920E-02 0.  1.
        2   -1    0    0  501    0  0.00000000000E+00  0.00000000000E+00 -0.13033923795E+04  0.13033923795E+04  0.25500000920E-02 0. -1.
    10030    2    1    2    0    0  0.00000000000E+00  0.00000000000E+00  0.13332407956E+04  0.39400255546E+04  0.37075963038E+04 0.  0.
        5    1    3    3  502    0 -0.48562023442E+03 -0.13371914526E+04 -0.59643373525E+03  0.15426157278E+04  0.46999998093E+01 0. -1.
       -5    1    3    3    0  502  0.48562023442E+03  0.13371914526E+04  0.19296745308E+04  0.23974098268E+04  0.46999998093E+01 0.  1.
</event>
<event>
 5   0  0.2996969E-07  0.3690481E+04  0.7818609E-02  0.8070075E-01
        2   -1    0    0  501    0  0.00000000000E+00  0.00000000000E+00  0.17878720712E+04  0.17878720712E+04  0.25500000920E-02 0. -1.
       -2   -1    0    0    0  501  0.00000000000E+00  0.00000000000E+00 -0.19044501734E+04  0.19044501734E+04  0.25500000920E-02 0.  1.
    10030    2    1    2    0    0  0.00000000000E+00  0.00000000000E+00 -0.11657810212E+03  0.36923222446E+04  0.36904814190E+04 0.  0.
        1    1    3    3  502    0  0.30173460141E+03  0.45788356569E+03  0.17044672292E+04  0.17905054216E+04  0.50400001928E-02 0. -1.
       -1    1    3    3    0  502 -0.30173460141E+03 -0.45788356569E+03 -0.18210453313E+04  0.19018168230E+04  0.50400001928E-02 0.  1.
</event>
<event>
 5   0  0.9646615E-08  0.3718408E+04  0.7818609E-02  0.8063895E-01
       -1   -1    0    0    0  501  0.00000000000E+00  0.00000000000E+00  0.14379539483E+04  0.14379539483E+04  0.50400001928E-02 0.  1.
        1   -1    0    0  501    0  0.00000000000E+00  0.00000000000E+00 -0.24038596428E+04  0.24038596428E+04  0.50400001928E-02 0. -1.
    10030    2    1    2    0    0  0.00000000000E+00  0.00000000000E+00 -0.96590569458E+03  0.38418135911E+04  0.37184079736E+04 0.  0.
        2    1    3    3  502    0 -0.22066641885E+03  0.52315421062E+03 -0.23120907413E+04  0.23807871791E+04  0.25500000920E-02 0. -1.
       -2    1    3    3    0  502  0.22066641885E+03 -0.52315421062E+03  0.13461850467E+04  0.14610264120E+04  0.25500000920E-02 0.  1.
</event>
<event>
 5   0  0.3008879E-07  0.3684521E+04  0.7818609E-02  0.8071401E-01
        2   -1    0    0  501    0  0.00000000000E+00  0.00000000000E+00  0.17623407263E+04  0.17623407263E+04  0.25500000920E-02 0. -1.
       -2   -1    0    0    0  501  0.00000000000E+00  0.00000000000E+00 -0.19258049593E+04  0.19258049593E+04  0.25500000920E-02 0.  1.
    10030    2    1    2    0    0  0.00000000000E+00  0.00000000000E+00 -0.16346423297E+03  0.36881456856E+04  0.36845214130E+04 0.  0.
        2    1    3    3  502    0 -0.98835464800E+02  0.13414519013E+04 -0.13418042940E+04  0.18999211605E+04  0.25500000920E-02 0.  1.
       -2    1    3    3    0  502  0.98835464800E+02 -0.13414519013E+04  0.11783400611E+04  0.17882245251E+04  0.25500000920E-02 0. -1.
</event>
<event>
 5   0  0.2996969E-07  0.3711437E+04  0.7818609E-02  0.8065432E-01
       -2   -1    0    0    0  501  0.00000000000E+00  0.00000000000E+00  0.16032344577E+04  0.16032344577E+04  0.25500000920E-02 0. -1.
        2   -1    0    0  501    0  0.00000000000E+00  0.00000000000E+00 -0.21479651168E+04  0.21479651168E+04  0.25500000920E-02 0.  1.
    10030    2    1    2    0    0  0.00000000000E+00  0.00000000000E+00 -0.54473065914E+03  0.37511995745E+04  0.37114372899E+04 0.  0.
        1    1    3    3  502    0 -0.15366586187E+04  0.74773700802E+03 -0.10034831513E+04  0.19817691032E+04  0.50400001928E-02 0.  1.
       -1    1    3    3    0  502  0.15366586187E+04 -0.74773700802E+03  0.45875249214E+03  0.17694304713E+04  0.50400001928E-02 0. -1.
</event>
<event>
 5   0  0.9646615E-08  0.3727080E+04  0.7818609E-02  0.8061987E-01
        1   -1    0    0  501    0  0.00000000000E+00  0.00000000000E+00  0.20580164364E+04  0.20580164364E+04  0.50400001928E-02 0. -1.
       -1   -1    0    0    0  501  0.00000000000E+00  0.00000000000E+00 -0.16874407511E+04  0.16874407512E+04  0.50400001928E-02 0.  1.
    10030    2    1    2    0    0  0.00000000000E+00  0.00000000000E+00  0.37057568522E+03  0.37454571875E+04  0.37270797154E+04 0.  0.
        2    1    3    3  502    0  0.10636066948E+04 -0.60123509857E+03  0.15993643700E+04  0.20126373824E+04  0.25500000920E-02 0. -1.
       -2    1    3    3    0  502 -0.10636066948E+04  0.60123509857E+03 -0.12287886848E+04  0.17328198051E+04  0.25500000920E-02 0.  1.
</event>
<event>
 5   0  0.9341000E-08  0.3703176E+04  0.7818609E-02  0.8067258E-01
        1   -1    0    0  501    0  0.00000000000E+00  0.00000000000E+00  0.18049749183E+04  0.18049749183E+04  0.50400001928E-02 0.  1.
       -1   -1    0    0    0  501  0.00000000000E+00  0.00000000000E+00 -0.18994052171E+04  0.18994052171E+04  0.50400001928E-02 0. -1.
    10030    2    1    2    0    0  0.00000000000E+00  0.00000000000E+00 -0.94430298726E+02  0.37043801354E+04  0.37031763537E+04 0.  0.
        4    1    3    3  502    0  0.80091292606E+03  0.15147791730E+04  0.65469642462E+03  0.18342972713E+04  0.12699999809E+01 0.  1.
       -4    1    3    3    0  502 -0.80091292606E+03 -0.15147791730E+04 -0.74912672334E+03  0.18700828641E+04  0.12699999809E+01 0. -1.
</event>
<event>
 5   0  0.2913025E-07  0.3879804E+04  0.7818609E-02  0.8029243E-01
        2   -1    0    0  501    0  0.00000000000E+00  0.00000000000E+00  0.14202930585E+04  0.14202930585E+04  0.25500000920E-02 0.  1.
       -2   -1    0    0    0  501  0.00000000000E+00  0.00000000000E+00 -0.26496079733E+04  0.26496079733E+04  0.25500000920E-02 0. -1.
    10030    2    1    2    0    0  0.00000000000E+00  0.00000000000E+00 -0.12293149149E+04  0.40699010318E+04  0.38798040220E+04 0.  0.
        5    1    3    3  502    0 -0.68883336015E+03  0.17227212025E+04 -0.12089285686E+04  0.22144502961E+04  0.46999998093E+01 0. -1.
       -5    1    3    3    0  502  0.68883336015E+03 -0.17227212025E+04 -0.20386346253E+02  0.18554507358E+04  0.46999998093E+01 0.  1.
</event>
<event>
 5   0  0.9418945E-08  0.3693616E+04  0.7818609E-02  0.8069378E-01
        1   -1    0    0  501    0  0.00000000000E+00  0.00000000000E+00  0.20088912800E+04  0.20088912800E+04  0.50400001928E-02 0.  1.
       -1   -1    0    0    0  501  0.00000000000E+00  0.00000000000E+00 -0.16978017171E+04  0.16978017171E+04  0.50400001928E-02 0. -1.
    10030    2    1    2    0    0  0.00000000000E+00  0.00000000000E+00  0.31108956288E+03  0.37066929971E+04  0.36936156078E+04 0.  0.
        5    1    3    3  502    0  0.16765673942E+04 -0.19777002808E+03 -0.59589586898E+03  0.17902807567E+04  0.46999998093E+01 0. -1.
       -5    1    3    3    0  502 -0.16765673942E+04  0.19777002808E+03  0.90698543186E+03  0.19164122403E+04  0.46999998093E+01 0.  1.
</event>
<event>
 5   0  0.9341000E-08  0.3675932E+04  0.7818609E-02  0.8073317E-01
       -1   -1    0    0    0  501  0.00000000000E+00  0.00000000000E+00  0.24296390248E+04  0.24296390248E+04  0.50400001928E-02 0.  1.
        1   -1    0    0  501    0  0.00000000000E+00  0.00000000000E+00 -0.13903788958E+04  0.13903788958E+04  0.50400001928E-02 0. -1.
    10030    2    1    2    0    0  0.00000000000E+00  0.00000000000E+00  0.10392601289E+04  0.38200179206E+04  0.36759318952E+04 0.  0.
        3    1    3    3  502    0  0.10380251532E+04  0.46676033189E+03  0.20193745911E+04  0.23180239808E+04  0.10100000352E+00 0.  1.
       -3    1    3    3    0  502 -0.10380251532E+04 -0.46676033189E+03 -0.98011446216E+03  0.15019939398E+04  0.10100000352E+00 0. -1.
</event>
<event>
 5   0  0.3032442E-07  0.3697230E+04  0.7818609E-02  0.8068576E-01
        2   -1    0    0  501    0  0.00000000000E+00  0.00000000000E+00  0.10691409822E+04  0.10691409822E+04  0.25500000920E-02 0.  1.
       -2   -1    0    0    0  501  0.00000000000E+00  0.00000000000E+00 -0.31963773852E+04  0.31963773852E+04  0.25500000920E-02 0. -1.
    10030    2    1    2    0    0  0.00000000000E+00  0.00000000000E+00 -0.21272364030E+04  0.42655183674E+04  0.36972303456E+04 0.  0.
        3    1    3    3  502    0 -0.92270906530E+02  0.15352173209E+04  0.11968864678E+03  0.15426378463E+04  0.10100000352E+00 0.  1.
       -3    1    3    3    0  502  0.92270906530E+02 -0.15352173209E+04 -0.22469250498E+04  0.27228805211E+04  0.10100000352E+00 0. -1.
</event>
<event>
 5   0  0.2913025E-07  0.3599474E+04  0.7818609E-02  0.8090612E-01
       -2   -1    0    0    0  501  0.00000000000E+00  0.00000000000E+00  0.99280562182E+03  0.99280562182E+03  0.25500000920E-02 0. -1.
        2   -1    0    0  501    0  0.00000000000E+00  0.00000000000E+00 -0.32625258661E+04  0.32625258661E+04  0.25500000920E-02 0.  1.
    10030    2    1    2    0    0  0.00000000000E+00  0.00000000000E+00 -0.22697202442E+04  0.42553314879E+04  0.35994744178E+04 0.  0.
        5    1    3    3  502    0  0.17988236932E+04  0.56968925050E+02 -0.11401197427E+04  0.21304711346E+04  0.46999998093E+01 0.  1.
       -5    1    3    3    0  502 -0.17988236932E+04 -0.56968925050E+02 -0.11296005015E+04  0.21248603532E+04  0.46999998093E+01 0. -1.
</event>
<event>
 5   0  0.9418945E-08  0.3706319E+04  0.7818609E-02  0.8066563E-01
        1   -1    0    0  501    0  0.00000000000E+00  0.00000000000E+00  0.25957026539E+04  0.25957026539E+04  0.50400001928E-02 0.  1.
       -1   -1    0    0    0  501  0.00000000000E+00  0.00000000000E+00 -0.13230327634E+04  0.13230327635E+04  0.50400001928E-02 0. -1.
    10030    2    1    2    0    0  0.00000000000E+00  0.00000000000E+00  0.12726698904E+04  0.39187354173E+04  0.37063187425E+04 0.  0.
        5    1    3    3  502    0  0.16350056398E+04  0.99979602184E+01 -0.28591402521E+03  0.16598531023E+04  0.46999998093E+01 0. -1.
       -5    1    3    3    0  502 -0.16350056398E+04 -0.99979602184E+01  0.15585839156E+04  0.22588823151E+04  0.46999998093E+01 0.  1.
</event>
<event>
 5   0  0.9646615E-08  0.3698234E+04  0.7818609E-02  0.8068353E-01
       -1   -1    0    0    0  501  0.00000000000E+00  0.00000000000E+00  0.12625749401E+04  0.12625749402E+04  0.50400001928E-02 0.  1.
        1   -1    0    0  501    0  0.00000000000E+00  0.00000000000E+00 -0.27081428592E+04  0.27081428592E+04  0.50400001928E-02 0. -1.
    10030    2    1    2    0    0  0.00000000000E+00  0.00000000000E+00 -0.14455679190E+04  0.39707177993E+04  0.36982337992E+04 0.  0.
        2    1    3    3  502    0 -0.18414106997E+04  0.14801012867E+03 -0.80956586222E+03  0.20169524656E+04  0.25500000920E-02 0. -1.
       -2    1    3    3    0  502  0.18414106997E+04 -0.14801012867E+03 -0.63600205681E+03  0.19537653338E+04  0.25500000920E-02 0.  1.
</event>
<event>
 5   0  0.2897133E-07  0.3688896E+04  0.7818609E-02  0.8070427E-01
       -2   -1    0    0    0  501  0.00000000000E+00  0.00000000000E+00  0.13522921228E+04  0.13522921228E+04  0.25500000920E-02 0.  1.
        2   -1    0    0  501    0  0.00000000000E+00  0.00000000000E+00 -0.25157196584E+04  0.25157196584E+04  0.25500000920E-02 0. -1.
    10030    2    1    2    0    0  0.00000000000E+00  0.00000000000E+00 -0.11634275356E+04  0.38680117812E+04  0.36888957032E+04 0.  0.
        4    1    3    3  502    0 -0.17817409940E+04 -0.47080588990E+03 -0.66106599509E+03  0.19578735961E+04  0.12699999809E+01 0. -1.
       -4    1    3    3    0  502  0.17817409940E+04  0.47080588990E+03 -0.50236154048E+03  0.19101381850E+04  0.12699999809E+01 0.  1.
</event>
<event>
 5   0  0.2913025E-07  0.3695559E+04  0.7818609E-02  0.8068947E-01
       -2   -1    0    0    0  501  0.00000000000E+00  0.00000000000E+00  0.15581533486E+04  0.15581533486E+04  0.25500000920E-02 0.  1.
        2   -1    0    0  501    0  0.00000000000E+00  0.00000000000E+00 -0.21912410056E+04  0.21912410056E+04  0.25500000920E-02 0. -1.
    10030    2    1    2    0    0  0.00000000000E+00  0.00000000000E+00 -0.63308765699E+03  0.37493943542E+04  0.36955592326E+04 0.  0.
        5    1    3    3  502    0  0.89440494851E+03 -0.11669447141E+04 -0.14520199644E+04  0.20664230556E+04  0.46999998093E+01 0. -1.
       -5    1    3    3    0  502 -0.89440494851E+03  0.11669447141E+04  0.81893230742E+03  0.16829712986E+04  0.46999998093E+01 0.  1.
</event>
<event>
 5   0  0.9341000E-08  0.3701277E+04  0.7818609E-02  0.8067679E-01
        1   -1    0    0  501    0  0.00000000000E+00  0.00000000000E+00  0.18165213971E+04  0.18165213971E+04  0.50400001928E-02 0. -1.
       -1   -1    0    0    0  501  0.00000000000E+00  0.00000000000E+00 -0.18853965058E+04  0.18853965058E+04  0.50400001928E-02 0.  1.
    10030    2    1    2    0    0  0.00000000000E+00  0.00000000000E+00 -0.68875108692E+02  0.37019179029E+04  0.37012771281E+04 0.  0.
        1    1    3    3  502    0 -0.53615619915E+03  0.56393618796E+03 -0.17138278844E+04  0.18822044287E+04  0.50400001928E-02 0.  1.
       -1    1    3    3    0  502  0.53615619915E+03 -0.56393618796E+03  0.16449527757E+04  0.18197134742E+04  0.50400001928E-02 0. -1.
</event>
<event>
 5   0  0.3008879E-07  0.3729026E+04  0.7818609E-02  0.8061560E-01
        2   -1    0    0  501    0  0.00000000000E+00  0.00000000000E+00  0.19827808313E+04  0.19827808313E+04  0.25500000920E-02 0.  1.
       -2   -1    0    0    0  501  0.00000000000E+00  0.00000000000E+00 -0.17532998982E+04  0.17532998982E+04  0.25500000920E-02 0. -1.
    10030    2    1    2    0    0  0.00000000000E+00  0.00000000000E+00  0.22948093311E+03  0.37360807295E+04  0.37290263768E+04 0.  0.
        2    1    3    3  502    0  0.40730255029E+01  0.90946004634E+03 -0.15159980874E+04  0.17678756649E+04  0.25500000920E-02 0. -1.
       -2    1    3    3    0  502 -0.40730255029E+01 -0.90946004634E+03  0.17454790205E+04  0.19682050647E+04  0.25500000920E-02 0.  1.
</event>
<event>
 5   0  0.9646615E-08  0.3700960E+04  0.7818609E-02  0.8067749E-01
        1   -1    0    0  501    0  0.00000000000E+00  0.00000000000E+00  0.22249180722E+04  0.22249180722E+04  0.50400001928E-02 0. -1.
       -1   -1    0    0    0  501  0.00000000000E+00  0.00000000000E+00 -0.15390575276E+04  0.15390575277E+04  0.50400001928E-02 0.  1.
    10030    2    1    2    0    0  0.00000000000E+00  0.00000000000E+00  0.68586054455E+03  0.37639755998E+04  0.37009603659E+04 0.  0.
        2    1    3    3  502    0 -0.77550400653E+02 -0.17301460170E+04 -0.31997895212E+03  0.17611944341E+04  0.25500000920E-02 0.  1.
       -2    1    3    3    0  502  0.77550400653E+02  0.17301460170E+04  0.10058394967E+04  0.20027811658E+04  0.25500000920E-02 0. -1.
</event>
<event>
 5   0  0.2996969E-07  0.3701297E+04  0.7818609E-02  0.8067675E-01
       -2   -1    0    0    0  501  0.00000000000E+00  0.00000000000E+00  0.19426449268E+04  0.19426449268E+04  0.25500000920E-02 0.  1.
        2   -1    0    0  501    0  0.00000000000E+00  0.00000000000E+00 -0.17630083799E+04  0.17630083799E+04  0.25500000920E-02 0. -1.
    10030    2    1    2    0    0  0.00000000000E+00  0.00000000000E+00  0.17963654692E+03  0.37056533067E+04  0.37012966837E+04 0.  0.
        1    1    3    3  502    0  0.12327482163E+04  0.49454725069E+03 -0.12003622544E+04  0.17902834105E+04  0.50400001928E-02 0. -1.
       -1    1    3    3    0  502 -0.12327482163E+04 -0.49454725069E+03  0.13799988013E+04  0.19153698963E+04  0.50400001928E-02 0.  1.
</event>
<event>
 5   0  0.9341000E-08  0.3697184E+04  0.7818609E-02  0.8068586E-01
        1   -1    0    0  501    0  0.00000000000E+00  0.00000000000E+00  0.18636884408E+04  0.18636884408E+04  0.50400001928E-02 0. -1.
       -1   -1    0    0    0  501  0.00000000000E+00  0.00000000000E+00 -0.18336178242E+04  0.18336178242E+04  0.50400001928E-02 0.  1.
    10030    2    1    2    0    0  0.00000000000E+00  0.00000000000E+00  0.30070616648E+02  0.36973062650E+04  0.36971839791E+04 0.  0.
        3    1    3    3  502    0  0.13519241468E+04 -0.12482490064E+04  0.19243298246E+03  0.18500959282E+04  0.10100000352E+00 0. -1.
       -3    1    3    3    0  502 -0.13519241468E+04  0.12482490064E+04 -0.16236236582E+03  0.18472103368E+04  0.10100000352E+00 0.  1.
</event>
<event>
 5   0  0.9341000E-08  0.3662286E+04  0.7818609E-02  0.8076372E-01
       -1   -1    0    0    0  501  0.00000000000E+00  0.00000000000E+00  0.27859932173E+04  0.27859932173E+04  0.50400001928E-02 0. -1.
        1   -1    0    0  501    0  0.00000000000E+00  0.00000000000E+00 -0.12035506174E+04  0.12035506174E+04  0.50400001928E-02 0.  1.
    10030    2    1    2    0    0  0.00000000000E+00  0.00000000000E+00  0.15824425999E+04  0.39895438347E+04  0.36622855468E+04 0.  0.
        3    1    3    3  502    0  0.31456024652E+03 -0.16298383966E+04  0.16334603453E+04  0.23288439316E+04  0.10100000352E+00 0. -1.
       -3    1    3    3    0  502 -0.31456024652E+03  0.16298383966E+04 -0.51017745363E+02  0.16606999031E+04  0.10100000352E+00 0.  1.
</event>
<event>
 5   0  0.2897133E-07  0.3680851E+04  0.7818609E-02  0.8072219E-01
        2   -1    0    0  501    0  0.00000000000E+00  0.00000000000E+00  0.19905304063E+04  0.19905304063E+04  0.25500000920E-02 0.  1.
       -2   -1    0    0    0  501  0.00000000000E+00  0.00000000000E+00 -0.17016395354E+04  0.17016395354E+04  0.25500000920E-02 0. -1.
    10030    2    1    2    0    0  0.00000000000E+00  0.00000000000E+00  0.28889087096E+03  0.36921699417E+04  0.36808505733E+04 0.  0.
        4    1    3    3  502    0  0.90124994894E+03  0.26068485222E+03  0.17326513637E+04  0.19703528678E+04  0.12699999809E+01 0.  1.
       -4    1    3    3    0  502 -0.90124994894E+03 -0.26068485222E+03 -0.14437604928E+04  0.17218170739E+04  0.12699999809E+01 0. -1.
</event>
<event>
 5   0  0.2996969E-07  0.3704826E+04  0.7818609E-02  0.8066893E-01
        2   -1    0    0  501    0  0.00000000000E+00  0.00000000000E+00  0.19942375746E+04  0.19942375746E+04  0.25500000920E-02 0.  1.
       -2   -1    0    0    0  501  0.00000000000E+00  0.00000000000E+00 -0.17206742277E+04  0.17206742277E+04  0.25500000920E-02 0. -1.
    10030    2    1    2    0    0  0.00000000000E+00  0.00000000000E+00  0.27356334690E+03  0.37149118023E+04  0.37048256091E+04 0.  0.
        1    1    3    3  502    0 -0.60419099368E+03 -0.10683152138E+04  0.15280347854E+04  0.19599067473E+04  0.50400001928E-02 0.  1.
       -1    1    3    3    0  502  0.60419099368E+03  0.10683152138E+04 -0.12544714385E+04  0.17550050549E+04  0.50400001928E-02 0. -1.
</event>
<event>
 5   0  0.9646615E-08  0.3579201E+04  0.7818609E-02  0.8095273E-01
       -1   -1    0    0    0  501  0.00000000000E+00  0.00000000000E+00  0.17289472022E+04  0.17289472022E+04  0.50400001928E-02 0. -1.
        1   -1    0    0  501    0  0.00000000000E+00  0.00000000000E+00 -0.18523820199E+04  0.18523820199E+04  0.50400001928E-02 0.  1.
    10030    2    1    2    0    0  0.00000000000E+00  0.00000000000E+00 -0.12343481773E+03  0.35813292221E+04  0.35792014253E+04 0.  0.
        2    1    3    3  502    0  0.93526524437E+03  0.89776201201E+03  0.11726987018E+04  0.17481189756E+04  0.25500000920E-02 0. -1.
       -2    1    3    3    0  502 -0.93526524437E+03 -0.89776201201E+03 -0.12961335195E+04  0.18332102465E+04  0.25500000920E-02 0.  1.
</event>
<event>
 5   0  0.9341000E-08  0.3705845E+04  0.7818609E-02  0.8066668E-01
        1   -1    0    0  501    0  0.00000000000E+00  0.00000000000E+00  0.10742782619E+04  0.10742782619E+04  0.50400001928E-02 0. -1.
       -1   -1    0    0    0  501  0.00000000000E+00  0.00000000000E+00 -0.31959335953E+04  0.31959335953E+04  0.50400001928E-02 0.  1.
    10030    2    1    2    0    0  0.00000000000E+00  0.00000000000E+00 -0.21216553334E+04  0.42702118573E+04  0.37058451064E+04 0.  0.
        1    1    3    3  502    0 -0.80612999769E+03  0.16549247737E+04 -0.13044504523E+04  0.22561499423E+04  0.50400001928E-02 0.  1.
       -1    1    3    3    0  502  0.80612999769E+03 -0.16549247737E+04 -0.81720488115E+03  0.20140619150E+04  0.50400001928E-02 0. -1.
</event>
<event>
 5   0  0.9418945E-08  0.3700385E+04  0.7818609E-02  0.8067877E-01
        1   -1    0    0  501    0  0.00000000000E+00  0.00000000000E+00  0.22911123021E+04  0.22911123021E+04  0.50400001928E-02 0.  1.
       -1   -1    0    0    0  501  0.00000000000E+00  0.00000000000E+00 -0.14941264692E+04  0.14941264693E+04  0.50400001928E-02 0. -1.
    10030    2    1    2    0    0  0.00000000000E+00  0.00000000000E+00  0.79698583287E+03  0.37852387714E+04  0.37003845933E+04 0.  0.
        5    1    3    3  502    0  0.16182758064E+04 -0.88665772880E+03  0.26045052019E+03  0.18635544202E+04  0.46999998093E+01 0.  1.
       -5    1    3    3    0  502 -0.16182758064E+04  0.88665772880E+03  0.53653531268E+03  0.19216843512E+04  0.46999998093E+01 0. -1.
</event>
<event>
 5   0  0.3008879E-07  0.3694776E+04  0.7818609E-02  0.8069120E-01
       -2   -1    0    0    0  501  0.00000000000E+00  0.00000000000E+00  0.15164793446E+04  0.15164793446E+04  0.25500000920E-02 0. -1.
        2   -1    0    0  501    0  0.00000000000E+00  0.00000000000E+00 -0.22505039064E+04  0.22505039064E+04  0.25500000920E-02 0.  1.
    10030    2    1    2    0    0  0.00000000000E+00  0.00000000000E+00 -0.73402456180E+03  0.37669832510E+04  0.36947761442E+04 0.  0.
        2    1    3    3  502    0  0.45132157394E+03  0.15213853609E+04  0.59727176625E+03  0.16955937433E+04  0.25500000920E-02 0. -1.
       -2    1    3    3    0  502 -0.45132157394E+03 -0.15213853609E+04 -0.13312963281E+04  0.20713895077E+04  0.25500000920E-02 0.  1.
</event>
<event>
 5   0  0.9341000E-08  0.3694326E+04  0.7818609E-02  0.8069220E-01
        1   -1    0    0  501    0  0.00000000000E+00  0.00000000000E+00  0.14255632711E+04  0.14255632711E+04  0.50400001928E-02 0.  1.
       -1   -1    0    0    0  501  0.00000000000E+00  0.00000000000E+00 -0.23934479269E+04  0.23934479269E+04  0.50400001928E-02 0. -1.
    10030    2    1    2    0    0  0.00000000000E+00  0.00000000000E+00 -0.96788465586E+03  0.38190111980E+04  0.36943261664E+04 0.  0.
        4    1    3    3  502    0 -0.26154276155E+03  0.13803929069E+04 -0.17236330671E+04  0.22236910209E+04  0.12699999809E+01 0. -1.
       -4    1    3    3    0  502  0.26154276155E+03 -0.13803929069E+04  0.75574841123E+03  0.15953201771E+04  0.12699999809E+01 0.  1.
</event>
<event>
 5   0  0.2913025E-07  0.3706783E+04  0.7818609E-02  0.8066460E-01
        2   -1    0    0  501    0  0.00000000000E+00  0.00000000000E+00  0.23132304952E+04  0.23132304952E+04  0.25500000920E-02 0.  1.
       -2   -1    0    0    0  501  0.00000000000E+00  0.00000000000E+00 -0.14849619106E+04  0.14849619106E+04  0.25500000920E-02 0. -1.
    10030    2    1    2    0    0  0.00000000000E+00  0.00000000000E+00  0.82826858465E+03  0.37981924058E+04  0.37067825271E+04 0.  0.
        5    1    3    3  502    0 -0.14204382769E+03  0.13427212591E+04 -0.88680496421E+03  0.16154014867E+04  0.46999998093E+01 0. -1.
       -5    1    3    3    0  502  0.14204382769E+03 -0.13427212591E+04  0.17150735489E+04  0.21827909191E+04  0.46999998093E+01 0.  1.
</event>
<event>
 5   0  0.9418945E-08  0.3696274E+04  0.7818609E-02  0.8068788E-01
       -1   -1    0    0    0  501  0.00000000000E+00  0.00000000000E+00  0.15524194344E+04  0.15524194344E+04  0.50400001928E-02 0.  1.
        1   -1    0    0  501    0  0.00000000000E+00  0.00000000000E+00 -0.22001852729E+04  0.22001852729E+04  0.50400001928E-02 0. -1.
    10030    2    1    2    0    0  0.00000000000E+00  0.00000000000E+00 -0.64776583849E+03  0.37526047073E+04  0.36962740033E+04 0.  0.
        5    1    3    3  502    0 -0.34402740280E+03 -0.46139874873E+03  0.14591120183E+04  0.15685259421E+04  0.46999998093E+01 0.  1.
       -5    1    3    3    0  502  0.34402740280E+03  0.46139874873E+03 -0.21068778568E+04  0.21840787652E+04  0.46999998093E+01 0. -1.
</event>
<event>
 5   0  0.9341000E-08  0.3694477E+04  0.7818609E-02  0.8069187E-01
        1   -1    0    0  501    0  0.00000000000E+00  0.00000000000E+00  0.21693374085E+04  0.21693374085E+04  0.50400001928E-02 0. -1.
       -1   -1    0    0    0  501  0.00000000000E+00  0.00000000000E+00 -0.15729639823E+04  0.15729639823E+04  0.50400001928E-02 0.  1.
    10030    2    1    2    0    0  0.00000000000E+00  0.00000000000E+00  0.59637342623E+03  0.37423013908E+04  0.36944767473E+04 0.  0.
        1    1    3    3  502    0 -0.17791797981E+04 -0.19972139096E+03 -0.16258657088E+03  0.17977218308E+04  0.50400001928E-02 0.  1.
       -1    1    3    3    0  502  0.17791797981E+04  0.19972139096E+03  0.75895999711E+03  0.19445795600E+04  0.50400001928E-02 0. -1.
</event>
<event>
 5   0  0.3008879E-07  0.3701827E+04  0.7818609E-02  0.8067557E-01
        2   -1    0    0  501    0  0.00000000000E+00  0.00000000000E+00  0.18898230942E+04  0.18898230942E+04  0.25500000920E-02 0.  1.
       -2   -1    0    0    0  501  0.00000000000E+00  0.00000000000E+00 -0.18128052447E+04  0.18128052447E+04  0.25500000920E-02 0. -1.
    10030    2    1    2    0    0  0.00000000000E+00  0.00000000000E+00  0.77017849482E+02  0.37026283388E+04  0.37018272334E+04 0.  0.
        2    1    3    3  502    0 -0.15592015171E+04  0.92986261092E+03 -0.32230085595E+03  0.18438090161E+04  0.25500000920E-02 0.  1.
       -2    1    3    3    0  502  0.15592015171E+04 -0.92986261092E+03  0.39931870543E+03  0.18588193227E+04  0.25500000920E-02 0. -1.
</event>
<event>
 5   0  0.9418945E-08  0.3649618E+04  0.7818609E-02  0.8079220E-01
       -1   -1    0    0    0  501  0.00000000000E+00  0.00000000000E+00  0.11715618395E+04  0.11715618395E+04  0.50400001928E-02 0. -1.
        1   -1    0    0  501    0  0.00000000000E+00  0.00000000000E+00 -0.28422987336E+04  0.28422987336E+04  0.50400001928E-02 0.  1.
    10030    2    1    2    0    0  0.00000000000E+00  0.00000000000E+00 -0.16707368940E+04  0.40138605731E+04  0.36496184638E+04 0.  0.
        5    1    3    3  502    0  0.46104686678E+03  0.10544838304E+04  0.72208833032E+03  0.13586515406E+04  0.46999998093E+01 0. -1.
       -5    1    3    3    0  502 -0.46104686678E+03 -0.10544838304E+04 -0.23928252244E+04  0.26552090325E+04  0.46999998093E+01 0.  1.
</event>
<event>
 5   0  0.2996969E-07  0.3706572E+04  0.7818609E-02  0.8066507E-01
       -2   -1    0    0    0  501  0.00000000000E+00  0.00000000000E+00  0.13934135750E+04  0.13934135750E+04  0.25500000920E-02 0.  1.
        2   -1    0    0  501    0  0.00000000000E+00  0.00000000000E+00 -0.24649321334E+04  0.24649321334E+04  0.25500000920E-02 0. -1.
    10030    2    1    2    0    0  0.00000000000E+00  0.00000000000E+00 -0.10715185585E+04  0.38583457084E+04  0.37065724847E+04 0.  0.
        1    1    3    3  502    0  0.16810711263E+04  0.72822640810E+03 -0.24437578723E+03  0.18482514327E+04  0.50400001928E-02 0. -1.
       -1    1    3    3    0  502 -0.16810711263E+04 -0.72822640810E+03 -0.82714277123E+03  0.20100942757E+04  0.50400001928E-02 0.  1.
</event>
<event>
 5   0  0.9341000E-08  0.3767649E+04  0.7818609E-02  0.8053133E-01
       -1   -1    0    0    0  501  0.00000000000E+00  0.00000000000E+00  0.12752319472E+04  0.12752319472E+04  0.50400001928E-02 0. -1.
        1   -1    0    0  501    0  0.00000000000E+00  0.00000000000E+00 -0.27828628360E+04  0.27828628360E+04  0.50400001928E-02 0.  1.
    10030    2    1    2    0    0  0.00000000000E+00  0.00000000000E+00 -0.15076308888E+04  0.40580947832E+04  0.37676494493E+04 0.  0.
        1    1    3    3  502    0  0.99350593275E+03 -0.67553740015E+02  0.96857727839E+03  0.13891578350E+04  0.50400001928E-02 0. -1.
       -1    1    3    3    0  502 -0.99350593275E+03  0.67553740015E+02 -0.24762081672E+04  0.26689369482E+04  0.50400001928E-02 0.  1.
</event>
<event>
 5   0  0.9646615E-08  0.3693030E+04  0.7818609E-02  0.8069508E-01
        1   -1    0    0  501    0  0.00000000000E+00  0.00000000000E+00  0.16872647672E+04  0.16872647672E+04  0.50400001928E-02 0.  1.
       -1   -1    0    0    0  501  0.00000000000E+00  0.00000000000E+00 -0.20207956631E+04  0.20207956631E+04  0.50400001928E-02 0. -1.
    10030    2    1    2    0    0  0.00000000000E+00  0.00000000000E+00 -0.33353089595E+03  0.37080604303E+04  0.36930298260E+04 0.  0.
        2    1    3    3  502    0 -0.21186358937E+03  0.15822289017E+03 -0.20016869896E+04  0.20190768850E+04  0.25500000920E-02 0. -1.
       -2    1    3    3    0  502  0.21186358937E+03 -0.15822289017E+03  0.16681560936E+04  0.16889835452E+04  0.25500000920E-02 0.  1.
</event>
<event>
 5   0  0.2897133E-07  0.3667602E+04  0.7818609E-02  0.8075180E-01
        2   -1    0    0  501    0  0.00000000000E+00  0.00000000000E+00  0.17027469975E+04  0.17027469975E+04  0.25500000920E-02 0. -1.
       -2   -1    0    0    0  501  0.00000000000E+00  0.00000000000E+00 -0.19749412538E+04  0.19749412538E+04  0.25500000920E-02 0.  1.
    10030    2    1    2    0    0  0.00000000000E+00  0.00000000000E+00 -0.27219425633E+03  0.36776882513E+04  0.36676015542E+04 0.  0.
        4    1    3    3  502    0  0.15318436598E+03  0.61610659824E+03 -0.18612270633E+04  0.19665250022E+04  0.12699999809E+01 0.  1.
       -4    1    3    3    0  502 -0.15318436598E+03 -0.61610659824E+03  0.15890328070E+04  0.17111632490E+04  0.12699999809E+01 0. -1.
</event>
<event>
 5   0  0.3008879E-07  0.3705229E+04  0.7818609E-02  0.8066804E-01
       -2   -1    0    0    0  501  0.00000000000E+00  0.00000000000E+00  0.31149718965E+04  0.31149718965E+04  0.25500000920E-02 0.  1.
        2   -1    0    0  501    0  0.00000000000E+00  0.00000000000E+00 -0.11018336005E+04  0.11018336005E+04  0.25500000920E-02 0. -1.
    10030    2    1    2    0    0  0.00000000000E+00  0.00000000000E+00  0.20131382960E+04  0.42168054970E+04  0.37052291158E+04 0.  0.
        2    1    3    3  502    0 -0.76281279568E+02  0.16340092417E+04  0.16792336402E+02  0.16358750008E+04  0.25500000920E-02 0. -1.
       -2    1    3    3    0  502  0.76281279568E+02 -0.16340092417E+04  0.19963459596E+04  0.25809304962E+04  0.25500000920E-02 0.  1.
</event>
<event>
 5   0  0.2897133E-07  0.3808127E+04  0.7818609E-02  0.8044413E-01
       -2   -1    0    0    0  501  0.00000000000E+00  0.00000000000E+00  0.16485566958E+04  0.16485566958E+04  0.25500000920E-02 0.  1.
        2   -1    0    0  501    0  0.00000000000E+00  0.00000000000E+00 -0.21991709802E+04  0.21991709802E+04  0.25500000920E-02 0. -1.
    10030    2    1    2    0    0  0.00000000000E+00  0.00000000000E+00 -0.55061428443E+03  0.38477276760E+04  0.38081271221E+04 0.  0.
        4    1    3    3  502    0  0.48675929684E+03 -0.36168333722E+03  0.15483739651E+04  0.16628929605E+04  0.12699999809E+01 0.  1.
       -4    1    3    3    0  502 -0.48675929684E+03  0.36168333722E+03 -0.20989882495E+04  0.21848347155E+04  0.12699999809E+01 0. -1.
</event>
<event>
 5   0  0.9646615E-08  0.3726390E+04  0.7818609E-02  0.8062139E-01
        1   -1    0    0  501    0  0.00000000000E+00  0.00000000000E+00  0.19997991812E+04  0.19997991812E+04  0.50400001928E-02 0.  1.
       -1   -1    0    0    0  501  0.00000000000E+00  0.00000000000E+00 -0.17359219681E+04  0.17359219681E+04  0.50400001928E-02 0. -1.
    10030    2    1    2    0    0  0.00000000000E+00  0.00000000000E+00  0.26387721306E+03  0.37357211493E+04  0.37263898510E+04 0.  0.
        2    1    3    3  502    0 -0.41826750188E+02 -0.84054693724E+03  0.17983967926E+04  0.19855728782E+04  0.25500000920E-02 0.  1.
       -2    1    3    3    0  502  0.41826750188E+02  0.84054693724E+03 -0.15345195796E+04  0.17501482711E+04  0.25500000920E-02 0. -1.
</event>
<event>
 5   0  0.2996969E-07  0.3567062E+04  0.7818609E-02  0.8098078E-01
       -2   -1    0    0    0  501  0.00000000000E+00  0.00000000000E+00  0.14873815447E+04  0.14873815447E+04  0.25500000920E-02 0.  1.
        2   -1    0    0  501    0  0.00000000000E+00  0.00000000000E+00 -0.21386463193E+04  0.21386463193E+04  0.25500000920E-02 0. -1.
    10030    2    1    2    0    0  0.00000000000E+00  0.00000000000E+00 -0.65126477456E+03  0.36260278640E+04  0.35670621335E+04 0.  0.
        1    1    3    3  502    0  0.38700509686E+03 -0.14426205639E+04 -0.13164530895E+04  0.19909735742E+04  0.50400001928E-02 0. -1.
       -1    1    3    3    0  502 -0.38700509686E+03  0.14426205639E+04  0.66518831492E+03  0.16350542898E+04  0.50400001928E-02 0.  1.
</event>
<event>
 5   0  0.9341000E-08  0.3648721E+04  0.7818609E-02  0.8079422E-01
        1   -1    0    0  501    0  0.00000000000E+00  0.00000000000E+00  0.17575750038E+04  0.17575750038E+04  0.50400001928E-02 0.  1.
       -1   -1    0    0    0  501  0.00000000000E+00  0.00000000000E+00 -0.18936838461E+04  0.18936838461E+04  0.50400001928E-02 0. -1.
    10030    2    1    2    0    0  0.00000000000E+00  0.00000000000E+00 -0.13610884238E+03  0.36512588499E+04  0.36487210872E+04 0.  0.
        4    1    3    3  502    0 -0.20291687560E+03 -0.10300026377E+04  0.14250319514E+04  0.17699712900E+04  0.12699999809E+01 0.  1.
       -4    1    3    3    0  502  0.20291687560E+03  0.10300026377E+04 -0.15611407938E+04  0.18812875599E+04  0.12699999809E+01 0. -1.
</event>
<event>
 5   0  0.9646615E-08  0.3694828E+04  0.7818609E-02  0.8069109E-01
        1   -1    0    0  501    0  0.00000000000E+00  0.00000000000E+00  0.13063932981E+04  0.13063932981E+04  0.50400001928E-02 0. -1.
       -1   -1    0    0    0  501  0.00000000000E+00  0.00000000000E+00 -0.26124885787E+04  0.26124885787E+04  0.50400001928E-02 0.  1.
    10030    2    1    2    0    0  0.00000000000E+00  0.00000000000E+00 -0.13060952807E+04  0.39188818768E+04  0.36948275037E+04 0.  0.
        2    1    3    3  502    0 -0.13432504548E+04  0.40430762237E+03  0.62199479553E+03  0.15344914348E+04  0.25500000920E-02 0. -1.
       -2    1    3    3    0  502  0.13432504548E+04 -0.40430762237E+03 -0.19280900762E+04  0.23843904420E+04  0.25500000920E-02 0.  1.
</event>
<event>
 5   0  0.9341000E-08  0.3677947E+04  0.7818609E-02  0.8072867E-01
       -1   -1    0    0    0  501  0.00000000000E+00  0.00000000000E+00  0.11879495566E+04  0.11879495566E+04  0.50400001928E-02 0.  1.
        1   -1    0    0  501    0  0.00000000000E+00  0.00000000000E+00 -0.28467732655E+04  0.28467732655E+04  0.50400001928E-02 0. -1.
    10030    2    1    2    0    0  0.00000000000E+00  0.00000000000E+00 -0.16588237089E+04  0.40347228221E+04  0.36779467307E+04 0.  0.
        1    1    3    3  502    0  0.56823406927E+03  0.19199555827E+03  0.10776315878E+04  0.12333053518E+04  0.50400001928E-02 0.  1.
       -1    1    3    3    0  502 -0.56823406927E+03 -0.19199555827E+03 -0.27364552967E+04  0.28014174703E+04  0.50400001928E-02 0. -1.
</event>
<event>
 5   0  0.2996969E-07  0.3698418E+04  0.7818609E-02  0.8068312E-01
        2   -1    0    0  501    0  0.00000000000E+00  0.00000000000E+00  0.29038746423E+04  0.29038746423E+04  0.25500000920E-02 0.  1.
       -2   -1    0    0    0  501  0.00000000000E+00  0.00000000000E+00 -0.11775902157E+04  0.11775902157E+04  0.25500000920E-02 0. -1.
    10030    2    1    2    0    0  0.00000000000E+00  0.00000000000E+00  0.17262844266E+04  0.40814648580E+04  0.36984182384E+04 0.  0.
        1    1    3    3  502    0  0.11083057029E+04 -0.12738713962E+04  0.16952112361E+04  0.23926619068E+04  0.50400001928E-02 0.  1.
       -1    1    3    3    0  502 -0.11083057029E+04  0.12738713962E+04  0.31073190483E+02  0.16888029513E+04  0.50400001928E-02 0. -1.
</event>
<event>
 5   0  0.9341000E-08  0.3717782E+04  0.7818609E-02  0.8064032E-01
        1   -1    0    0  501    0  0.00000000000E+00  0.00000000000E+00  0.17024843553E+04  0.17024843553E+04  0.50400001928E-02 0. -1.
       -1   -1    0    0    0  501  0.00000000000E+00  0.00000000000E+00 -0.20296669244E+04  0.20296669244E+04  0.50400001928E-02 0.  1.
    10030    2    1    2    0    0  0.00000000000E+00  0.00000000000E+00 -0.32718256906E+03  0.37321512797E+04  0.37177822342E+04 0.  0.
        3    1    3    3  502    0 -0.73287680666E+02 -0.16880381371E+04  0.61440880528E+03  0.17978715267E+04  0.10100000352E+00 0. -1.
       -3    1    3    3    0  502  0.73287680666E+02  0.16880381371E+04 -0.94159137434E+03  0.19342797530E+04  0.10100000352E+00 0.  1.
</event>
<event>
 5   0  0.9418945E-08  0.3593603E+04  0.7818609E-02  0.8091958E-01
       -1   -1    0    0    0  501  0.00000000000E+00  0.00000000000E+00  0.14808289060E+04  0.14808289060E+04  0.50400001928E-02 0.  1.
        1   -1    0    0  501    0  0.00000000000E+00  0.00000000000E+00 -0.21801952886E+04  0.21801952886E+04  0.50400001928E-02 0. -1.
    10030    2    1    2    0    0  0.00000000000E+00  0.00000000000E+00 -0.69936638265E+03  0.36610241946E+04  0.35936033193E+04 0.  0.
        5    1    3    3  502    0 -0.70618270754E+03 -0.44995710491E+03  0.12698970463E+04  0.15211232728E+04  0.46999998093E+01 0.  1.
       -5    1    3    3    0  502  0.70618270754E+03  0.44995710491E+03 -0.19692634290E+04  0.21399009219E+04  0.46999998093E+01 0. -1.
</event>
<event>
 5   0  0.9341000E-08  0.3745885E+04  0.7818609E-02  0.8057869E-01
        1   -1    0    0  501    0  0.00000000000E+00  0.00000000000E+00  0.20843939820E+04  0.20843939820E+04  0.50400001928E-02 0.  1.
       -1   -1    0    0    0  501  0.00000000000E+00  0.00000000000E+00 -0.16829419140E+04  0.16829419140E+04  0.50400001928E-02 0. -1.
    10030    2    1    2    0    0  0.00000000000E+00  0.00000000000E+00  0.40145206801E+03  0.37673358960E+04  0.37458852078E+04 0.  0.
        3    1    3    3  502    0  0.97629700230E+03 -0.81311210976E+03 -0.11832379460E+04  0.17361909995E+04  0.10100000352E+00 0. -1.
       -3    1    3    3    0  502 -0.97629700230E+03  0.81311210976E+03  0.15846900140E+04  0.20311448965E+04  0.10100000352E+00 0.  1.
</event>
<event>
 5   0  0.3008879E-07  0.3699475E+04  0.7818609E-02  0.8068078E-01
       -2   -1    0    0    0  501  0.00000000000E+00  0.00000000000E+00  0.17095147909E+04  0.17095147909E+04  0.25500000920E-02 0. -1.
        2   -1    0    0  501    0  0.00000000000E+00  0.00000000000E+00 -0.20014624460E+04  0.20014624460E+04  0.25500000920E-02 0.  1.
    10030    2    1    2    0    0  0.00000000000E+00  0.00000000000E+00 -0.29194765513E+03  0.37109772370E+04  0.36994754520E+04 0.  0.
        2    1    3    3  502    0 -0.20308113095E+03  0.20224809645E+03 -0.19790532559E+04  0.19996994844E+04  0.25500000920E-02 0.  1.
       -2    1    3    3    0  502  0.20308113095E+03 -0.20224809645E+03  0.16871056008E+04  0.17112777526E+04  0.25500000920E-02 0. -1.
</event>
<event>
 5   0  0.3008879E-07  0.3710263E+04  0.7818609E-02  0.8065691E-01
        2   -1    0    0  501    0  0.00000000000E+00  0.00000000000E+00  0.23751726799E+04  0.23751726799E+04  0.25500000920E-02 0.  1.
       -2   -1    0    0    0  501  0.00000000000E+00  0.00000000000E+00 -0.14489523164E+04  0.14489523164E+04  0.25500000920E-02 0. -1.
    10030    2    1    2    0    0  0.00000000000E+00  0.00000000000E+00  0.92622036357E+03  0.38241249963E+04  0.37102625009E+04 0.  0.
        2    1    3    3  502    0 -0.10852290899E+04  0.13352983942E+04  0.11777631611E+04  0.20851546808E+04  0.25500000920E-02 0.  1.
       -2    1    3    3    0  502  0.10852290899E+04 -0.13352983942E+04 -0.25154279751E+03  0.17389703155E+04  0.25500000920E-02 0. -1.
</event>
<event>
 5   0  0.2897133E-07  0.3703459E+04  0.7818609E-02  0.8067196E-01
       -2   -1    0    0    0  501  0.00000000000E+00  0.00000000000E+00  0.20947669150E+04  0.20947669150E+04  0.25500000920E-02 0. -1.
        2   -1    0    0  501    0  0.00000000000E+00  0.00000000000E+00 -0.16368898259E+04  0.16368898259E+04  0.25500000920E-02 0.  1.
    10030    2    1    2    0    0  0.00000000000E+00  0.00000000000E+00  0.45787708905E+03  0.37316567409E+04  0.37034592752E+04 0.  0.
        4    1    3    3  502    0  0.84698909410E+02  0.14392963103E+04  0.13997464602E+04  0.20094873824E+04  0.12699999809E+01 0. -1.
       -4    1    3    3    0  502 -0.84698909410E+02 -0.14392963103E+04 -0.94186937113E+03  0.17221693585E+04  0.12699999809E+01 0.  1.
</event>
<event>
 5   0  0.9341000E-08  0.3703300E+04  0.7818609E-02  0.8067231E-01
       -1   -1    0    0    0  501  0.00000000000E+00  0.00000000000E+00  0.15148868098E+04  0.15148868098E+04  0.50400001928E-02 0.  1.
        1   -1    0    0  501    0  0.00000000000E+00  0.00000000000E+00 -0.22632768134E+04  0.22632768134E+04  0.50400001928E-02 0. -1.
    10030    2    1    2    0    0  0.00000000000E+00  0.00000000000E+00 -0.74839000357E+03  0.37781636233E+04  0.37033002534E+04 0.  0.
        3    1    3    3  502    0 -0.47820995970E+03  0.15572541457E+04 -0.12722643784E+04  0.20669740924E+04  0.10100000352E+00 0. -1.
       -3    1    3    3    0  502  0.47820995970E+03 -0.15572541457E+04  0.52387437482E+03  0.17111895309E+04  0.10100000352E+00 0.  1.
</event>
<event>
 5   0  0.9341000E-08  0.3697143E+04  0.7818609E-02  0.8068595E-01
        1   -1    0    0  501    0  0.00000000000E+00  0.00000000000E+00  0.15219603607E+04  0.15219603607E+04  0.50400001928E-02 0. -1.
       -1   -1    0    0    0  501  0.00000000000E+00  0.00000000000E+00 -0.22452727561E+04  0.22452727561E+04  0.50400001928E-02 0.  1.
    10030    2    1    2    0    0  0.00000000000E+00  0.00000000000E+00 -0.72331239542E+03  0.37672331168E+04  0.36971427529E+04 0.  0.
        4    1    3    3  502    0  0.49742906490E+03  0.13623014022E+04  0.80633535524E+03  0.16593610526E+04  0.12699999809E+01 0. -1.
       -4    1    3    3    0  502 -0.49742906490E+03 -0.13623014022E+04 -0.15296477507E+04  0.21078720642E+04  0.12699999809E+01 0.  1.
</event>
<event>
 5   0  0.2913025E-07  0.3687708E+04  0.7818609E-02  0.8070691E-01
       -2   -1    0    0    0  501  0.00000000000E+00  0.00000000000E+00  0.12816254228E+04  0.12816254228E+04  0.25500000920E-02 0.  1.
        2   -1    0    0  501    0  0.00000000000E+00  0.00000000000E+00 -0.26527226494E+04  0.26527226494E+04  0.25500000920E-02 0. -1.
    10030    2    1    2    0    0  0.00000000000E+00  0.00000000000E+00 -0.13710972266E+04  0.39343480722E+04  0.36877075736E+04 0.  0.
        5    1    3    3  502    0  0.51660706789E+03  0.11781600758E+04 -0.20948145262E+04  0.24582949408E+04  0.46999998093E+01 0. -1.
       -5    1    3    3    0  502 -0.51660706789E+03 -0.11781600758E+04  0.72371729965E+03  0.14760531314E+04  0.46999998093E+01 0.  1.
</event>
<event>
 5   0  0.9418945E-08  0.3695531E+04  0.7818609E-02  0.8068953E-01
       -1   -1    0    0    0  501  0.00000000000E+00  0.00000000000E+00  0.13890882874E+04  0.13890882874E+04  0.50400001928E-02 0. -1.
        1   -1    0    0  501    0  0.00000000000E+00  0.00000000000E+00 -0.24578983031E+04  0.24578983031E+04  0.50400001928E-02 0.  1.
    10030    2    1    2    0    0  0.00000000000E+00  0.00000000000E+00 -0.10688100158E+04  0.38469865905E+04  0.36955312173E+04 0.  0.
        5    1    3    3  502    0  0.93671072776E+03  0.64531360893E+03 -0.20502280257E+04  0.23446350865E+04  0.46999998093E+01 0.  1.
       -5    1    3    3    0  502 -0.93671072776E+03 -0.64531360893E+03  0.98141800999E+03  0.15023515040E+04  0.46999998093E+01 0. -1.
</event>
<event>
 5   0  0.9646615E-08  0.3625106E+04  0.7818609E-02  0.8084765E-01
        1   -1    0    0  501    0  0.00000000000E+00  0.00000000000E+00  0.15250680505E+04  0.15250680505E+04  0.50400001928E-02 0.  1.
       -1   -1    0    0    0  501  0.00000000000E+00  0.00000000000E+00 -0.21542303972E+04  0.21542303973E+04  0.50400001928E-02 0. -1.
    10030    2    1    2    0    0  0.00000000000E+00  0.00000000000E+00 -0.62916234675E+03  0.36792984478E+04  0.36251057652E+04 0.  0.
        2    1    3    3  502    0 -0.10503730569E+04  0.14693289910E+04 -0.46896263091E+03  0.18660485501E+04  0.25500000920E-02 0. -1.
       -2    1    3    3    0  502  0.10503730569E+04 -0.14693289910E+04 -0.16019971584E+03  0.18132498976E+04  0.25500000920E-02 0.  1.
</event>
<event>
 5   0  0.3032442E-07  0.3731752E+04  0.7818609E-02  0.8060961E-01
       -2   -1    0    0    0  501  0.00000000000E+00  0.00000000000E+00  0.19663540162E+04  0.19663540162E+04  0.25500000920E-02 0. -1.
        2   -1    0    0  501    0  0.00000000000E+00  0.00000000000E+00 -0.17705323680E+04  0.17705323680E+04  0.25500000920E-02 0.  1.
    10030    2    1    2    0    0  0.00000000000E+00  0.00000000000E+00  0.19582164826E+03  0.37368863842E+04  0.37317520993E+04 0.  0.
        3    1    3    3  502    0  0.55710571170E+03  0.15876200420E+04  0.90561169241E+03  0.19107686200E+04  0.10100000352E+00 0. -1.
       -3    1    3    3    0  502 -0.55710571170E+03 -0.15876200420E+04 -0.70979004415E+03  0.18261177642E+04  0.10100000352E+00 0.  1.
</event>
<event>
 5   0  0.9341000E-08  0.3663813E+04  0.7818609E-02  0.8076029E-01
       -1   -1    0    0    0  501  0.00000000000E+00  0.00000000000E+00  0.26092151073E+04  0.26092151073E+04  0.50400001928E-02 0. -1.
        1   -1    0    0  501    0  0.00000000000E+00  0.00000000000E+00 -0.12861651412E+04  0.12861651413E+04  0.50400001928E-02 0.  1.
    10030    2    1    2    0    0  0.00000000000E+00  0.00000000000E+00  0.13230499660E+04  0.38953802485E+04  0.36638130504E+04 0.  0.
        3    1    3    3  502    0  0.11212877875E+04 -0.13904815626E+04  0.10936048504E+04  0.20944442837E+04  0.10100000352E+00 0. -1.
       -3    1    3    3    0  502 -0.11212877875E+04  0.13904815626E+04  0.22944511562E+03  0.18009359649E+04  0.10100000352E+00 0.  1.
</event>
<event>
 5   0  0.9341000E-08  0.3667354E+04  0.7818609E-02  0.8075235E-01
        1   -1    0    0  501    0  0.00000000000E+00  0.00000000000E+00  0.17033017924E+04  0.17033017924E+04  0.50400001928E-02 0.  1.
       -1   -1    0    0    0  501  0.00000000000E+00  0.00000000000E+00 -0.19740317677E+04  0.19740317677E+04  0.50400001928E-02 0. -1.
    10030    2    1    2    0    0  0.00000000000E+00  0.00000000000E+00 -0.27072997532E+03  0.36773335600E+04  0.36673542769E+04 0.  0.
        3    1    3    3  502    0  0.29568170085E+03 -0.83532790389E+03  0.14743604832E+04  0.17201567428E+04  0.10100000352E+00 0.  1.
       -3    1    3    3    0  502 -0.29568170085E+03  0.83532790389E+03 -0.17450904585E+04  0.19571768172E+04  0.10100000352E+00 0. -1.
</event>
<event>
 5   0  0.9341000E-08  0.3692623E+04  0.7818609E-02  0.8069599E-01
       -1   -1    0    0    0  501  0.00000000000E+00  0.00000000000E+00  0.20755566924E+04  0.20755566924E+04  0.50400001928E-02 0. -1.
        1   -1    0    0  501    0  0.00000000000E+00  0.00000000000E+00 -0.16423867116E+04  0.16423867116E+04  0.50400001928E-02 0.  1.
    10030    2    1    2    0    0  0.00000000000E+00  0.00000000000E+00  0.43316998087E+03  0.37179434040E+04  0.36926233118E+04 0.  0.
        3    1    3    3  502    0  0.86756198479E+03  0.15918670357E+04 -0.13532881435E+03  0.18179709445E+04  0.10100000352E+00 0.  1.
       -3    1    3    3    0  502 -0.86756198479E+03 -0.15918670357E+04  0.56849879522E+03  0.18999724596E+04  0.10100000352E+00 0. -1.
</event>
<event>
 5   0  0.9646615E-08  0.3729703E+04  0.7818609E-02  0.8061411E-01
        1   -1    0    0  501    0  0.00000000000E+00  0.00000000000E+00  0.19244419560E+04  0.19244419560E+04  0.50400001928E-02 0.  1.
       -1   -1    0    0    0  501  0.00000000000E+00  0.00000000000E+00 -0.18071063903E+04  0.18071063904E+04  0.50400001928E-02 0. -1.
    10030    2    1    2    0    0  0.00000000000E+00  0.00000000000E+00  0.11733556563E+03  0.37315483463E+04  0.37297031284E+04 0.  0.
        2    1    3    3  502    0  0.71485619998E+03  0.35085855894E+03  0.17457850135E+04  0.19188242307E+04  0.25500000920E-02 0.  1.
       -2    1    3    3    0  502 -0.71485619998E+03 -0.35085855894E+03 -0.16284494479E+04  0.18127241156E+04  0.25500000920E-02 0. -1.
</event>
<event>
 5   0  0.9341000E-08  0.3728392E+04  0.7818609E-02  0.8061699E-01
       -1   -1    0    0    0  501  0.00000000000E+00  0.00000000000E+00  0.29913221084E+04  0.29913221084E+04  0.50400001928E-02 0.  1.
        1   -1    0    0  501    0  0.00000000000E+00  0.00000000000E+00 -0.11617694921E+04  0.11617694921E+04  0.50400001928E-02 0. -1.
    10030    2    1    2    0    0  0.00000000000E+00  0.00000000000E+00  0.18295526163E+04  0.41530916006E+04  0.37283920216E+04 0.  0.
        4    1    3    3  502    0 -0.17691522878E+04  0.15207559492E+03  0.28249317595E+03  0.17980074558E+04  0.12699999809E+01 0. -1.
       -4    1    3    3    0  502  0.17691522878E+04 -0.15207559492E+03  0.15470594403E+04  0.23550841447E+04  0.12699999809E+01 0.  1.
</event>
<event>
 5   0  0.9341000E-08  0.3677878E+04  0.7818609E-02  0.8072882E-01
       -1   -1    0    0    0  501  0.00000000000E+00  0.00000000000E+00  0.22312422028E+04  0.22312422028E+04  0.50400001928E-02 0.  1.
        1   -1    0    0  501    0  0.00000000000E+00  0.00000000000E+00 -0.15156113232E+04  0.15156113232E+04  0.50400001928E-02 0. -1.
    10030    2    1    2    0    0  0.00000000000E+00  0.00000000000E+00  0.71563087957E+03  0.37468535261E+04  0.36778776203E+04 0.  0.
        4    1    3    3  502    0 -0.95326048477E+03  0.10179557460E+04  0.15789422947E+04  0.21066560791E+04  0.12699999809E+01 0.  1.
       -4    1    3    3    0  502  0.95326048477E+03 -0.10179557460E+04 -0.86331141511E+03  0.16401974470E+04  0.12699999809E+01 0. -1.
</event>
<event>
 5   0  0.3032442E-07  0.3714201E+04  0.7818609E-02  0.8064822E-01
       -2   -1    0    0    0  501  0.00000000000E+00  0.00000000000E+00  0.14472102703E+04  0.14472102703E+04  0.25500000920E-02 0.  1.
        2   -1    0    0  501    0  0.00000000000E+00  0.00000000000E+00 -0.23830824627E+04  0.23830824627E+04  0.25500000920E-02 0. -1.
    10030    2    1    2    0    0  0.00000000000E+00  0.00000000000E+00 -0.93587219242E+03  0.38302927330E+04  0.37142005411E+04 0.  0.
        3    1    3    3  502    0  0.11245387260E+03  0.14530624711E+04  0.71903273915E+03  0.16251290744E+04  0.10100000352E+00 0.  1.
       -3    1    3    3    0  502 -0.11245387260E+03 -0.14530624711E+04 -0.16549049316E+04  0.22051636586E+04  0.10100000352E+00 0. -1.
</event>
<event>
 5   0  0.2897133E-07  0.3699037E+04  0.7818609E-02  0.8068175E-01
        2   -1    0    0  501    0  0.00000000000E+00  0.00000000000E+00  0.10516747257E+04  0.10516747257E+04  0.25500000920E-02 0. -1.
       -2   -1    0    0    0  501  0.00000000000E+00  0.00000000000E+00 -0.32526399438E+04  0.32526399438E+04  0.25500000920E-02 0.  1.
    10030    2    1    2    0    0  0.00000000000E+00  0.00000000000E+00 -0.22009652180E+04  0.43043146695E+04  0.36990372914E+04 0.  0.
        4    1    3    3  502    0 -0.13707847863E+04  0.12239641426E+04 -0.13433958668E+04  0.22763684281E+04  0.12699999809E+01 0.  1.
       -4    1    3    3    0  502  0.13707847863E+04 -0.12239641426E+04 -0.85756935126E+03  0.20279462414E+04  0.12699999809E+01 0. -1.
</event>
<event>
 5   0  0.2897133E-07  0.3684675E+04  0.7818609E-02  0.8071366E-01
        2   -1    0    0  501    0  0.00000000000E+00  0.00000000000E+00  0.16217495541E+04  0.16217495541E+04  0.25500000920E-02 0. -1.
       -2   -1    0    0    0  501  0.00000000000E+00  0.00000000000E+00 -0.20929298148E+04  0.20929298148E+04  0.25500000920E-02 0.  1.
    10030    2    1    2    0    0  0.00000000000E+00  0.00000000000E+00 -0.47118026068E+03  0.37146793689E+04  0.36846752877E+04 0.  0.
        4    1    3    3  502    0 -0.38372172386E+02 -0.88374808063E+03 -0.18648324892E+04  0.20639973157E+04  0.12699999809E+01 0.  1.
       -4    1    3    3    0  502  0.38372172386E+02  0.88374808063E+03  0.13936522285E+04  0.16506820532E+04  0.12699999809E+01 0. -1.
</event>
<event>
 5   0  0.9418945E-08  0.3694196E+04  0.7818609E-02  0.8069249E-01
       -1   -1    0    0    0  501  0.00000000000E+00  0.00000000000E+00  0.15621780247E+04  0.15621780247E+04  0.50400001928E-02 0. -1.
        1   -1    0    0  501    0  0.00000000000E+00  0.00000000000E+00 -0.21839829484E+04  0.21839829485E+04  0.50400001928E-02 0.  1.
    10030    2    1    2    0    0  0.00000000000E+00  0.00000000000E+00 -0.62180492378E+03  0.37461609731E+04  0.36941955380E+04 0.  0.
        5    1    3    3  502    0  0.40782007105E+03  0.16651189847E+04  0.38638156173E+03  0.17573420967E+04  0.46999998093E+01 0. -1.
       -5    1    3    3    0  502 -0.40782007105E+03 -0.16651189847E+04 -0.10081864855E+04  0.19888188764E+04  0.46999998093E+01 0.  1.
</event>
<event>
 5   0  0.9341000E-08  0.3694801E+04  0.7818609E-02  0.8069115E-01
       -1   -1    0    0    0  501  0.00000000000E+00  0.00000000000E+00  0.21271496099E+04  0.21271496099E+04  0.50400001928E-02 0.  1.
        1   -1    0    0  501    0  0.00000000000E+00  0.00000000000E+00 -0.16044421366E+04  0.16044421366E+04  0.50400001928E-02 0. -1.
    10030    2    1    2    0    0  0.00000000000E+00  0.00000000000E+00  0.52270747328E+03  0.37315917465E+04  0.36948009230E+04 0.  0.
        3    1    3    3  502    0  0.13344858960E+04 -0.11597560816E+04  0.80241357605E+03  0.19415855204E+04  0.10100000352E+00 0.  1.
       -3    1    3    3    0  502 -0.13344858960E+04  0.11597560816E+04 -0.27970610277E+03  0.17900062262E+04  0.10100000352E+00 0. -1.
</event>
<event>
 5   0  0.2897133E-07  0.3715546E+04  0.7818609E-02  0.8064525E-01
        2   -1    0    0  501    0  0.00000000000E+00  0.00000000000E+00  0.10599911802E+04  0.10599911802E+04  0.25500000920E-02 0.  1.
       -2   -1    0    0    0  501  0.00000000000E+00  0.00000000000E+00 -0.32559890660E+04  0.32559890660E+04  0.25500000920E-02 0. -1.
    10030    2    1    2    0    0  0.00000000000E+00  0.00000000000E+00 -0.21959978859E+04  0.43159802462E+04  0.37155455550E+04 0.  0.
        4    1    3    3  502    0  0.97667286356E+03 -0.10182196867E+04 -0.25018820891E+04  0.28722946948E+04  0.12699999809E+01 0. -1.
       -4    1    3    3    0  502 -0.97667286356E+03  0.10182196867E+04  0.30588420324E+03  0.14436855515E+04  0.12699999809E+01 0.  1.
</event>
<event>
 5   0  0.2913025E-07  0.3625921E+04  0.7818609E-02  0.8084580E-01
       -2   -1    0    0    0  501  0.00000000000E+00  0.00000000000E+00  0.25447746843E+04  0.25447746844E+04  0.25500000920E-02 0.  1.
        2   -1    0    0  501    0  0.00000000000E+00  0.00000000000E+00 -0.12915977808E+04  0.12915977808E+04  0.25500000920E-02 0. -1.
    10030    2    1    2    0    0  0.00000000000E+00  0.00000000000E+00  0.12531769035E+04  0.38363724652E+04  0.36259207575E+04 0.  0.
        5    1    3    3  502    0  0.17240306352E+04 -0.53669496450E+03  0.79876044380E+03  0.19744273733E+04  0.46999998093E+01 0. -1.
       -5    1    3    3    0  502 -0.17240306352E+04  0.53669496450E+03  0.45441645974E+03  0.18619450918E+04  0.46999998093E+01 0.  1.
</event>
<event>
 5   0  0.9418945E-08  0.3737391E+04  0.7818609E-02  0.8059726E-01
        1   -1    0    0  501    0  0.00000000000E+00  0.00000000000E+00  0.14778691714E+04  0.14778691714E+04  0.50400001928E-02 0.  1.
       -1   -1    0    0    0  501  0.00000000000E+00  0.00000000000E+00 -0.23628774333E+04  0.23628774334E+04  0.50400001928E-02 0. -1.
    10030    2    1    2    0    0  0.00000000000E+00  0.00000000000E+00 -0.88500826191E+03  0.38407466048E+04  0.37373914511E+04 0.  0.
        5    1    3    3  502    0  0.15513020747E+04 -0.10380179796E+04 -0.53431785401E+03  0.19415295805E+04  0.46999998093E+01 0.  1.
       -5    1    3    3    0  502 -0.15513020747E+04  0.10380179796E+04 -0.35069040790E+03  0.18992170243E+04  0.46999998093E+01 0. -1.
</event>
<event>
 5   0  0.9341000E-08  0.3685885E+04  0.7818609E-02  0.8071097E-01
       -1   -1    0    0    0  501  0.00000000000E+00  0.00000000000E+00  0.15786820144E+04  0.15786820144E+04  0.50400001928E-02 0. -1.
        1   -1    0    0  501    0  0.00000000000E+00  0.00000000000E+00 -0.21514388492E+04  0.21514388492E+04  0.50400001928E-02 0.  1.
    10030    2    1    2    0    0  0.00000000000E+00  0.00000000000E+00 -0.57275683477E+03  0.37301208636E+04  0.36858854113E+04 0.  0.
        3    1    3    3  502    0  0.15285957911E+04  0.71250622880E+03  0.46561931237E+03  0.17495918303E+04  0.10100000352E+00 0. -1.
       -3    1    3    3    0  502 -0.15285957911E+04 -0.71250622880E+03 -0.10383761471E+04  0.19805290333E+04  0.10100000352E+00 0.  1.
</event>
<event>
 5   0  0.3008879E-07  0.3714299E+04  0.7818609E-02  0.8064800E-01
        2   -1    0    0  501    0  0.00000000000E+00  0.00000000000E+00  0.19378255049E+04  0.19378255049E+04  0.25500000920E-02 0. -1.
       -2   -1    0    0    0  501  0.00000000000E+00  0.00000000000E+00 -0.17798319291E+04  0.17798319291E+04  0.25500000920E-02 0.  1.
    10030    2    1    2    0    0  0.00000000000E+00  0.00000000000E+00  0.15799357579E+03  0.37176574340E+04  0.37142986992E+04 0.  0.
        2    1    3    3  502    0 -0.48199266313E+03  0.17325118075E+04 -0.38520014342E+03  0.18391012046E+04  0.25500000920E-02 0. -1.
       -2    1    3    3    0  502  0.48199266313E+03 -0.17325118075E+04  0.54319371921E+03  0.18785562294E+04  0.25500000920E-02 0.  1.
</event>
<event>
 5   0  0.2913025E-07  0.3714778E+04  0.7818609E-02  0.8064695E-01
       -2   -1    0    0    0  501  0.00000000000E+00  0.00000000000E+00  0.11968406153E+04  0.11968406153E+04  0.25500000920E-02 0. -1.
        2   -1    0    0  501    0  0.00000000000E+00  0.00000000000E+00 -0.28825008972E+04  0.28825008972E+04  0.25500000920E-02 0.  1.
    10030    2    1    2    0    0  0.00000000000E+00  0.00000000000E+00 -0.16856602819E+04  0.40793415125E+04  0.37147781346E+04 0.  0.
        5    1    3    3  502    0 -0.15680793876E+04  0.55780407849E+03 -0.17482810677E+04  0.24138200300E+04  0.46999998093E+01 0.  1.
       -5    1    3    3    0  502  0.15680793876E+04 -0.55780407849E+03  0.62620785763E+02  0.16655214824E+04  0.46999998093E+01 0. -1.
</event>
<event>
 5   0  0.2996969E-07  0.3711252E+04  0.7818609E-02  0.8065473E-01
       -2   -1    0    0    0  501  0.00000000000E+00  0.00000000000E+00  0.23915615859E+04  0.23915615859E+04  0.25500000920E-02 0. -1.
        2   -1    0    0  501    0  0.00000000000E+00  0.00000000000E+00 -0.14397904773E+04  0.14397904773E+04  0.25500000920E-02 0.  1.
    10030    2    1    2    0    0  0.00000000000E+00  0.00000000000E+00  0.95177110854E+03  0.38313520632E+04  0.37112518628E+04 0.  0.
        1    1    3    3  502    0  0.93347170086E+02  0.47287030729E+03 -0.13740374380E+04  0.14561246179E+04  0.50400001928E-02 0.  1.
       -1    1    3    3    0  502 -0.93347170086E+02 -0.47287030729E+03  0.23258085466E+04  0.23752274453E+04  0.50400001928E-02 0. -1.
</event>
<event>
 5   0  0.2897133E-07  0.3634129E+04  0.7818609E-02  0.8082718E-01
       -2   -1    0    0    0  501  0.00000000000E+00  0.00000000000E+00  0.10822276498E+04  0.10822276498E+04  0.25500000920E-02 0. -1.
        2   -1    0    0  501    0  0.00000000000E+00  0.00000000000E+00 -0.30508591854E+04  0.30508591854E+04  0.25500000920E-02 0.  1.
    10030    2    1    2    0    0  0.00000000000E+00  0.00000000000E+00 -0.19686315356E+04  0.41330868351E+04  0.36341294231E+04 0.  0.
        4    1    3    3  502    0 -0.14595416245E+04 -0.10610852392E+04 -0.74156488125E+03  0.19509186873E+04  0.12699999809E+01 0. -1.
       -4    1    3    3    0  502  0.14595416245E+04  0.10610852392E+04 -0.12270666544E+04  0.21821681479E+04  0.12699999809E+01 0.  1.
</event>
<event>
 5   0  0.2913025E-07  0.3712716E+04  0.7818609E-02  0.8065150E-01
       -2   -1    0    0    0  501  0.00000000000E+00  0.00000000000E+00  0.17848219628E+04  0.17848219628E+04  0.25500000920E-02 0. -1.
        2   -1    0    0  501    0  0.00000000000E+00  0.00000000000E+00 -0.19307607269E+04  0.19307607269E+04  0.25500000920E-02 0.  1.
    10030    2    1    2    0    0  0.00000000000E+00  0.00000000000E+00 -0.14593876411E+03  0.37155826897E+04  0.37127155293E+04 0.  0.
        5    1    3    3  502    0 -0.74783696352E+02  0.78705509204E+02 -0.19275747811E+04  0.19306355910E+04  0.46999998093E+01 0.  1.
       -5    1    3    3    0  502  0.74783696352E+02 -0.78705509204E+02  0.17816360170E+04  0.17849470988E+04  0.46999998093E+01 0. -1.
</event>
<event>
 5   0  0.3032442E-07  0.3699251E+04  0.7818609E-02  0.8068128E-01
        2   -1    0    0  501    0  0.00000000000E+00  0.00000000000E+00  0.24818881936E+04  0.24818881936E+04  0.25500000920E-02 0.  1.
       -2   -1    0    0    0  501  0.00000000000E+00  0.00000000000E+00 -0.13784319398E+04  0.13784319398E+04  0.25500000920E-02 0. -1.
    10030    2    1    2    0    0  0.00000000000E+00  0.00000000000E+00  0.11034562538E+04  0.38603201334E+04  0.36992507117E+04 0.  0.
        3    1    3    3  502    0  0.51729707152E+03  0.44039026023E+03  0.23469749433E+04  0.24433238091E+04  0.10100000352E+00 0.  1.
       -3    1    3    3    0  502 -0.51729707152E+03 -0.44039026023E+03 -0.12435186895E+04  0.14169963242E+04  0.10100000352E+00 0. -1.
</event>
<event>
 5   0  0.9341000E-08  0.3676028E+04  0.7818609E-02  0.8073295E-01
        1   -1    0    0  501    0  0.00000000000E+00  0.00000000000E+00  0.18036406994E+04  0.18036406994E+04  0.50400001928E-02 0. -1.
       -1   -1    0    0    0  501  0.00000000000E+00  0.00000000000E+00 -0.18730427433E+04  0.18730427433E+04  0.50400001928E-02 0.  1.
    10030    2    1    2    0    0  0.00000000000E+00  0.00000000000E+00 -0.69402043942E+02  0.36766834427E+04  0.36760283587E+04 0.  0.
        4    1    3    3  502    0  0.92575030043E+02  0.10712408921E+04  0.14562581980E+04  0.18101979829E+04  0.12699999809E+01 0. -1.
       -4    1    3    3    0  502 -0.92575030043E+02 -0.10712408921E+04 -0.15256602419E+04  0.18664854598E+04  0.12699999809E+01 0.  1.
</event>
<event>
 5   0  0.2913025E-07  0.3690474E+04  0.7818609E-02  0.8070076E-01
        2   -1    0    0  501    0  0.00000000000E+00  0.00000000000E+00  0.17050984251E+04  0.17050984251E+04  0.25500000920E-02 0. -1.
       -2   -1    0    0    0  501  0.00000000000E+00  0.00000000000E+00 -0.19968928843E+04  0.19968928843E+04  0.25500000920E-02 0.  1.
    10030    2    1    2    0    0  0.00000000000E+00  0.00000000000E+00 -0.29179445927E+03  0.37019913094E+04  0.36904736347E+04 0.  0.
        5    1    3    3  502    0 -0.60810442588E+03 -0.10021127640E+04  0.12836313281E+04  0.17383188606E+04  0.46999998093E+01 0.  1.
       -5    1    3    3    0  502  0.60810442588E+03  0.10021127640E+04 -0.15754257874E+04  0.19636724488E+04  0.46999998093E+01 0. -1.
</event>
<event>
 5   0  0.9418945E-08  0.3701433E+04  0.7818609E-02  0.8067644E-01
        1   -1    0    0  501    0  0.00000000000E+00  0.00000000000E+00  0.19834882232E+04  0.19834882232E+04  0.50400001928E-02 0.  1.
       -1   -1    0    0    0  501  0.00000000000E+00  0.00000000000E+00 -0.17268327723E+04  0.17268327723E+04  0.50400001928E-02 0. -1.
    10030    2    1    2    0    0  0.00000000000E+00  0.00000000000E+00  0.25665545095E+03  0.37103209955E+04  0.37014334884E+04 0.  0.
        5    1    3    3  502    0 -0.18258773087E+04  0.15091708214E+03  0.39073187516E+03  0.18733118802E+04  0.46999998093E+01 0.  1.
       -5    1    3    3    0  502  0.18258773087E+04 -0.15091708214E+03 -0.13407642420E+03  0.18370091153E+04  0.46999998093E+01 0. -1.
</event>
<event>
 5   0  0.9418945E-08  0.3695144E+04  0.7818609E-02  0.8069039E-01
        1   -1    0    0  501    0  0.00000000000E+00  0.00000000000E+00  0.21458607492E+04  0.21458607492E+04  0.50400001928E-02 0. -1.
       -1   -1    0    0    0  501  0.00000000000E+00  0.00000000000E+00 -0.15907472175E+04  0.15907472175E+04  0.50400001928E-02 0.  1.
    10030    2    1    2    0    0  0.00000000000E+00  0.00000000000E+00  0.55511353172E+03  0.37366079668E+04  0.36951438489E+04 0.  0.
        5    1    3    3  502    0  0.24637795759E+02  0.86146101647E+03 -0.13750330279E+04  0.16227938938E+04  0.46999998093E+01 0.  1.
       -5    1    3    3    0  502 -0.24637795759E+02 -0.86146101647E+03  0.19301465596E+04  0.21138140730E+04  0.46999998093E+01 0. -1.
</event>
<event>
 5   0  0.9418945E-08  0.3699460E+04  0.7818609E-02  0.8068082E-01
       -1   -1    0    0    0  501  0.00000000000E+00  0.00000000000E+00  0.16441150755E+04  0.16441150755E+04  0.50400001928E-02 0. -1.
        1   -1    0    0  501    0  0.00000000000E+00  0.00000000000E+00 -0.20810590456E+04  0.20810590456E+04  0.50400001928E-02 0.  1.
    10030    2    1    2    0    0  0.00000000000E+00  0.00000000000E+00 -0.43694397010E+03  0.37251741212E+04  0.36994597173E+04 0.  0.
        5    1    3    3  502    0  0.12450119416E+04  0.62379503625E+03 -0.14444335033E+04  0.20063861088E+04  0.46999998093E+01 0.  1.
       -5    1    3    3    0  502 -0.12450119416E+04 -0.62379503625E+03  0.10074895332E+04  0.17187880124E+04  0.46999998093E+01 0. -1.
</event>
<event>
 5   0  0.9341000E-08  0.3708210E+04  0.7818609E-02  0.8066145E-01
        1   -1    0    0  501    0  0.00000000000E+00  0.00000000000E+00  0.11451927082E+04  0.11451927083E+04  0.50400001928E-02 0. -1.
       -1   -1    0    0    0  501  0.00000000000E+00  0.00000000000E+00 -0.30018570255E+04  0.30018570255E+04  0.50400001928E-02 0.  1.
    10030    2    1    2    0    0  0.00000000000E+00  0.00000000000E+00 -0.18566643173E+04  0.41470497338E+04  0.37082096903E+04 0.  0.
        1    1    3    3  502    0 -0.10249395396E+04 -0.12178656810E+04 -0.19916444445E+04  0.25495775081E+04  0.50400001928E-02 0.  1.
       -1    1    3    3    0  502  0.10249395396E+04  0.12178656810E+04  0.13498012720E+03  0.15974722256E+04  0.50400001928E-02 0. -1.
</event>
<event>
 5   0  0.3032442E-07  0.3681252E+04  0.7818609E-02  0.8072129E-01
       -2   -1    0    0    0  501  0.00000000000E+00  0.00000000000E+00  0.31086240248E+04  0.31086240248E+04  0.25500000920E-02 0.  1.
        2   -1    0    0  501    0  0.00000000000E+00  0.00000000000E+00 -0.10898401655E+04  0.10898401655E+04  0.25500000920E-02 0. -1.
    10030    2    1    2    0    0  0.00000000000E+00  0.00000000000E+00  0.20187838593E+04  0.41984641903E+04  0.36812515924E+04 0.  0.
        3    1    3    3  502    0 -0.48978864646E+03  0.11222659006E+04 -0.55792511359E+03  0.13456054817E+04  0.10100000352E+00 0. -1.
       -3    1    3    3    0  502  0.48978864646E+03 -0.11222659006E+04  0.25767089729E+04  0.28528587086E+04  0.10100000352E+00 0.  1.
</event>
<event>
 5   0  0.9646615E-08  0.3686018E+04  0.7818609E-02  0.8071067E-01
       -1   -1    0    0    0  501  0.00000000000E+00  0.00000000000E+00  0.19238299610E+04  0.19238299611E+04  0.50400001928E-02 0.  1.
        1   -1    0    0  501    0  0.00000000000E+00  0.00000000000E+00 -0.17655834864E+04  0.17655834864E+04  0.50400001928E-02 0. -1.
    10030    2    1    2    0    0  0.00000000000E+00  0.00000000000E+00  0.15824647465E+03  0.36894134475E+04  0.36860181279E+04 0.  0.
        2    1    3    3  502    0 -0.13569337650E+04  0.12212564048E+04  0.33223155623E+03  0.18555630562E+04  0.25500000920E-02 0.  1.
       -2    1    3    3    0  502  0.13569337650E+04 -0.12212564048E+04 -0.17398508157E+03  0.18338503912E+04  0.25500000920E-02 0. -1.
</event>
<event>
 5   0  0.9341000E-08  0.3723611E+04  0.7818609E-02  0.8062749E-01
       -1   -1    0    0    0  501  0.00000000000E+00  0.00000000000E+00  0.27298388044E+04  0.27298388044E+04  0.50400001928E-02 0. -1.
        1   -1    0    0  501    0  0.00000000000E+00  0.00000000000E+00 -0.12697893585E+04  0.12697893585E+04  0.50400001928E-02 0.  1.
    10030    2    1    2    0    0  0.00000000000E+00  0.00000000000E+00  0.14600494459E+04  0.39996281629E+04  0.37236112924E+04 0.  0.
        4    1    3    3  502    0  0.12819729137E+04 -0.11753084196E+04  0.14437443275E+04  0.22603547794E+04  0.12699999809E+01 0. -1.
       -4    1    3    3    0  502 -0.12819729137E+04  0.11753084196E+04  0.16305118362E+02  0.17392733835E+04  0.12699999809E+01 0.  1.
</event>
<event>
 5   0  0.2897133E-07  0.3699086E+04  0.7818609E-02  0.8068164E-01
       -2   -1    0    0    0  501  0.00000000000E+00  0.00000000000E+00  0.31625714867E+04  0.31625714867E+04  0.25500000920E-02 0. -1.
        2   -1    0    0  501    0  0.00000000000E+00  0.00000000000E+00 -0.10816542011E+04  0.10816542011E+04  0.25500000920E-02 0.  1.
    10030    2    1    2    0    0  0.00000000000E+00  0.00000000000E+00  0.20809172856E+04  0.42442256878E+04  0.36990856897E+04 0.  0.
        4    1    3    3  502    0 -0.20089493372E+03  0.18185572045E+04  0.13510935538E+04  0.22744151962E+04  0.12699999809E+01 0.  1.
       -4    1    3    3    0  502  0.20089493372E+03 -0.18185572045E+04  0.72982373175E+03  0.19698104916E+04  0.12699999809E+01 0. -1.
</event>
<event>
 5   0  0.3008879E-07  0.3719196E+04  0.7818609E-02  0.8063721E-01
        2   -1    0    0  501    0  0.00000000000E+00  0.00000000000E+00  0.21807336711E+04  0.21807336712E+04  0.25500000920E-02 0.  1.
       -2   -1    0    0    0  501  0.00000000000E+00  0.00000000000E+00 -0.15857525723E+04  0.15857525723E+04  0.25500000920E-02 0. -1.
    10030    2    1    2    0    0  0.00000000000E+00  0.00000000000E+00  0.59498109889E+03  0.37664862434E+04  0.37191956272E+04 0.  0.
        2    1    3    3  502    0  0.86023665751E+03  0.13813226190E+04  0.12089594754E+04  0.20272252706E+04  0.25500000920E-02 0.  1.
       -2    1    3    3    0  502 -0.86023665751E+03 -0.13813226190E+04 -0.61397837648E+03  0.17392609728E+04  0.25500000920E-02 0. -1.
</event>
<event>
 5   0  0.9341000E-08  0.3730251E+04  0.7818609E-02  0.8061291E-01
       -1   -1    0    0    0  501  0.00000000000E+00  0.00000000000E+00  0.16336123913E+04  0.16336123913E+04  0.50400001928E-02 0.  1.
        1   -1    0    0  501    0  0.00000000000E+00  0.00000000000E+00 -0.21294487590E+04  0.21294487590E+04  0.50400001928E-02 0. -1.
    10030    2    1    2    0    0  0.00000000000E+00  0.00000000000E+00 -0.49583636770E+03  0.37630611503E+04  0.37302514014E+04 0.  0.
        1    1    3    3  502    0  0.25366770460E+03 -0.18477928253E+04 -0.25081570304E+03  0.18819123642E+04  0.50400001928E-02 0. -1.
       -1    1    3    3    0  502 -0.25366770460E+03  0.18477928253E+04 -0.24502066466E+03  0.18811487862E+04  0.50400001928E-02 0.  1.
</event>
<event>
 5   0  0.2913025E-07  0.3693285E+04  0.7818609E-02  0.8069452E-01
        2   -1    0    0  501    0  0.00000000000E+00  0.00000000000E+00  0.22639989478E+04  0.22639989478E+04  0.25500000920E-02 0. -1.
       -2   -1    0    0    0  501  0.00000000000E+00  0.00000000000E+00 -0.15062236222E+04  0.15062236222E+04  0.25500000920E-02 0.  1.
    10030    2    1    2    0    0  0.00000000000E+00  0.00000000000E+00  0.75777532561E+03  0.37702225699E+04  0.36932850936E+04 0.  0.
        5    1    3    3  502    0 -0.73625162848E+03 -0.16928394112E+04  0.42779043592E+03  0.18949402312E+04  0.46999998093E+01 0. -1.
       -5    1    3    3    0  502  0.73625162848E+03  0.16928394112E+04  0.32998488969E+03  0.18752823388E+04  0.46999998093E+01 0.  1.
</event>
<event>
 5   0  0.9341000E-08  0.3702054E+04  0.7818609E-02  0.8067507E-01
        1   -1    0    0  501    0  0.00000000000E+00  0.00000000000E+00  0.20024247570E+04  0.20024247570E+04  0.50400001928E-02 0.  1.
       -1   -1    0    0    0  501  0.00000000000E+00  0.00000000000E+00 -0.17110761592E+04  0.17110761592E+04  0.50400001928E-02 0. -1.
    10030    2    1    2    0    0  0.00000000000E+00  0.00000000000E+00  0.29134859776E+03  0.37135009163E+04  0.37020541662E+04 0.  0.
        3    1    3    3  502    0  0.20481886514E+03  0.57333195535E+03  0.18991184093E+04  0.19943196938E+04  0.10100000352E+00 0.  1.
       -3    1    3    3    0  502 -0.20481886514E+03 -0.57333195535E+03 -0.16077698115E+04  0.17191812224E+04  0.10100000352E+00 0. -1.
</event>
<event>
 5   0  0.2897133E-07  0.3664362E+04  0.7818609E-02  0.8075906E-01
        2   -1    0    0  501    0  0.00000000000E+00  0.00000000000E+00  0.23341119995E+04  0.23341119995E+04  0.25500000920E-02 0.  1.
       -2   -1    0    0    0  501  0.00000000000E+00  0.00000000000E+00 -0.14381862483E+04  0.14381862483E+04  0.25500000920E-02 0. -1.
    10030    2    1    2    0    0  0.00000000000E+00  0.00000000000E+00  0.89592575118E+03  0.37722982479E+04  0.36643623073E+04 0.  0.
        4    1    3    3  502    0  0.15755824761E+04 -0.81677352648E+03 -0.20758364576E+02  0.17748272184E+04  0.12699999809E+01 0. -1.
       -4    1    3    3    0  502 -0.15755824761E+04  0.81677352648E+03  0.91668411576E+03  0.19974710295E+04  0.12699999809E+01 0.  1.
</event>
<event>
 5   0  0.9646615E-08  0.3685587E+04  0.7818609E-02  0.8071163E-01
        1   -1    0    0  501    0  0.00000000000E+00  0.00000000000E+00  0.21330380128E+04  0.21330380128E+04  0.50400001928E-02 0.  1.
       -1   -1    0    0    0  501  0.00000000000E+00  0.00000000000E+00 -0.15920432068E+04  0.15920432068E+04  0.50400001928E-02 0. -1.
    10030    2    1    2    0    0  0.00000000000E+00  0.00000000000E+00  0.54099480594E+03  0.37250812196E+04  0.36855874311E+04 0.  0.
        2    1    3    3  502    0  0.12035235076E+04  0.12754470192E+04 -0.30183438052E+03  0.17794206712E+04  0.25500000920E-02 0. -1.
       -2    1    3    3    0  502 -0.12035235076E+04 -0.12754470192E+04  0.84282918646E+03  0.19456605484E+04  0.25500000920E-02 0.  1.
</event>
<event>
 5   0  0.9341000E-08  0.3559173E+04  0.7818609E-02  0.8099908E-01
       -1   -1    0    0    0  501  0.00000000000E+00  0.00000000000E+00  0.15227654820E+04  0.15227654820E+04  0.50400001928E-02 0.  1.
        1   -1    0    0  501    0  0.00000000000E+00  0.00000000000E+00 -0.20797219334E+04  0.20797219334E+04  0.50400001928E-02 0. -1.
    10030    2    1    2    0    0  0.00000000000E+00  0.00000000000E+00 -0.55695645138E+03  0.36024874154E+04  0.35591733716E+04 0.  0.
        3    1    3    3  502    0  0.30601759098E+03 -0.13323901269E+04  0.87469294804E+03  0.16229596360E+04  0.10100000352E+00 0.  1.
       -3    1    3    3    0  502 -0.30601759098E+03  0.13323901269E+04 -0.14316493994E+04  0.19795277794E+04  0.10100000352E+00 0. -1.
</event>
<event>
 5   0  0.9341000E-08  0.3696805E+04  0.7818609E-02  0.8068670E-01
       -1   -1    0    0    0  501  0.00000000000E+00  0.00000000000E+00  0.14349220576E+04  0.14349220576E+04  0.50400001928E-02 0.  1.
        1   -1    0    0  501    0  0.00000000000E+00  0.00000000000E+00 -0.23810296306E+04  0.23810296306E+04  0.50400001928E-02 0. -1.
    10030    2    1    2    0    0  0.00000000000E+00  0.00000000000E+00 -0.94610757299E+03  0.38159516881E+04  0.36968050728E+04 0.  0.
        1    1    3    3  502    0  0.22003803910E+03 -0.16884223864E+04  0.26943798483E+03  0.17238862263E+04  0.50400001928E-02 0.  1.
       -1    1    3    3    0  502 -0.22003803910E+03  0.16884223864E+04 -0.12155455578E+04  0.20920654618E+04  0.50400001928E-02 0. -1.
</event>
<event>
 5   0  0.9341000E-08  0.3693048E+04  0.7818609E-02  0.8069504E-01
       -1   -1    0    0    0  501  0.00000000000E+00  0.00000000000E+00  0.21180396845E+04  0.21180396845E+04  0.50400001928E-02 0.  1.
        1   -1    0    0  501    0  0.00000000000E+00  0.00000000000E+00 -0.16098146443E+04  0.16098146443E+04  0.50400001928E-02 0. -1.
    10030    2    1    2    0    0  0.00000000000E+00  0.00000000000E+00  0.50822504019E+03  0.37278543288E+04  0.36930482267E+04 0.  0.
        3    1    3    3  502    0  0.16108616129E+03 -0.16995347013E+04  0.96450973820E+03  0.19607768862E+04  0.10100000352E+00 0.  1.
       -3    1    3    3    0  502 -0.16108616129E+03  0.16995347013E+04 -0.45628469801E+03  0.17670774426E+04  0.10100000352E+00 0. -1.
</event>
<event>
 5   0  0.2897133E-07  0.3632957E+04  0.7818609E-02  0.8082984E-01
       -2   -1    0    0    0  501  0.00000000000E+00  0.00000000000E+00  0.14318740258E+04  0.14318740258E+04  0.25500000920E-02 0.  1.
        2   -1    0    0  501    0  0.00000000000E+00  0.00000000000E+00 -0.23043889971E+04  0.23043889971E+04  0.25500000920E-02 0. -1.
    10030    2    1    2    0    0  0.00000000000E+00  0.00000000000E+00 -0.87251497131E+03  0.37362630229E+04  0.36329573355E+04 0.  0.
        4    1    3    3  502    0 -0.14241246963E+03  0.12039586052E+04 -0.18274217786E+04  0.21930046978E+04  0.12699999809E+01 0. -1.
       -4    1    3    3    0  502  0.14241246963E+03 -0.12039586052E+04  0.95490680732E+03  0.15432583251E+04  0.12699999809E+01 0.  1.
</event>
<event>
 5   0  0.2996969E-07  0.3699405E+04  0.7818609E-02  0.8068094E-01
       -2   -1    0    0    0  501  0.00000000000E+00  0.00000000000E+00  0.12851387043E+04  0.12851387043E+04  0.25500000920E-02 0. -1.
        2   -1    0    0  501    0  0.00000000000E+00  0.00000000000E+00 -0.26622804576E+04  0.26622804576E+04  0.25500000920E-02 0.  1.
    10030    2    1    2    0    0  0.00000000000E+00  0.00000000000E+00 -0.13771417533E+04  0.39474191619E+04  0.36994051726E+04 0.  0.
        1    1    3    3  502    0 -0.39468681281E+03 -0.15476550217E+04 -0.16840617250E+04  0.23210078931E+04  0.50400001928E-02 0.  1.
       -1    1    3    3    0  502  0.39468681281E+03  0.15476550217E+04  0.30691997169E+03  0.16264112688E+04  0.50400001928E-02 0. -1.
</event>
<event>
 5   0  0.9646615E-08  0.3658606E+04  0.7818609E-02  0.8077198E-01
        1   -1    0    0  501    0  0.00000000000E+00  0.00000000000E+00  0.26393450652E+04  0.26393450652E+04  0.50400001928E-02 0.  1.
       -1   -1    0    0    0  501  0.00000000000E+00  0.00000000000E+00 -0.12678711353E+04  0.12678711353E+04  0.50400001928E-02 0. -1.
    10030    2    1    2    0    0  0.00000000000E+00  0.00000000000E+00  0.13714739298E+04  0.39072162005E+04  0.36586059773E+04 0.  0.
        2    1    3    3  502    0  0.15649107057E+04  0.20856801361E+03 -0.30112440049E+03  0.16072093945E+04  0.25500000920E-02 0. -1.
       -2    1    3    3    0  502 -0.15649107057E+04 -0.20856801361E+03  0.16725983303E+04  0.23000068060E+04  0.25500000920E-02 0.  1.
</event>
<event>
 5   0  0.9646615E-08  0.3700943E+04  0.7818609E-02  0.8067753E-01
        1   -1    0    0  501    0  0.00000000000E+00  0.00000000000E+00  0.13038409288E+04  0.13038409288E+04  0.50400001928E-02 0.  1.
       -1   -1    0    0    0  501  0.00000000000E+00  0.00000000000E+00 -0.26262753206E+04  0.26262753206E+04  0.50400001928E-02 0. -1.
    10030    2    1    2    0    0  0.00000000000E+00  0.00000000000E+00 -0.13224343919E+04  0.39301162494E+04  0.37009432599E+04 0.  0.
        2    1    3    3  502    0  0.13295999212E+04 -0.45350190020E+03  0.61783586175E+03  0.15346729541E+04  0.25500000920E-02 0.  1.
       -2    1    3    3    0  502 -0.13295999212E+04  0.45350190020E+03 -0.19402702536E+04  0.23954432953E+04  0.25500000920E-02 0. -1.
</event>
<event>
 5   0  0.2897133E-07  0.3765778E+04  0.7818609E-02  0.8053539E-01
        2   -1    0    0  501    0  0.00000000000E+00  0.00000000000E+00  0.15470260403E+04  0.15470260403E+04  0.25500000920E-02 0. -1.
       -2   -1    0    0    0  501  0.00000000000E+00  0.00000000000E+00 -0.22916691748E+04  0.22916691748E+04  0.25500000920E-02 0.  1.
    10030    2    1    2    0    0  0.00000000000E+00  0.00000000000E+00 -0.74464313448E+03  0.38386952151E+04  0.37657784795E+04 0.  0.
        4    1    3    3  502    0 -0.50136762177E+03  0.34283249440E+03  0.14444242832E+04  0.15669290776E+04  0.12699999809E+01 0. -1.
       -4    1    3    3    0  502  0.50136762177E+03 -0.34283249440E+03 -0.21890674177E+04  0.22717661375E+04  0.12699999809E+01 0.  1.
</event>
<event>
 5   0  0.9341000E-08  0.3708363E+04  0.7818609E-02  0.8066111E-01
       -1   -1    0    0    0  501  0.00000000000E+00  0.00000000000E+00  0.19156125473E+04  0.19156125473E+04  0.50400001928E-02 0. -1.
        1   -1    0    0  501    0  0.00000000000E+00  0.00000000000E+00 -0.17947207033E+04  0.17947207033E+04  0.50400001928E-02 0.  1.
    10030    2    1    2    0    0  0.00000000000E+00  0.00000000000E+00  0.12089184403E+03  0.37103332506E+04  0.37083632498E+04 0.  0.
        3    1    3    3  502    0  0.13664364443E+04 -0.11728541756E+04  0.50255622473E+03  0.18695716736E+04  0.10100000352E+00 0. -1.
       -3    1    3    3    0  502 -0.13664364443E+04  0.11728541756E+04 -0.38166438071E+03  0.18407615770E+04  0.10100000352E+00 0.  1.
</event>
<event>
 5   0  0.2897133E-07  0.3725669E+04  0.7818609E-02  0.8062297E-01
        2   -1    0    0  501    0  0.00000000000E+00  0.00000000000E+00  0.20909424263E+04  0.20909424263E+04  0.25500000920E-02 0.  1.
       -2   -1    0    0    0  501  0.00000000000E+00  0.00000000000E+00 -0.16596120213E+04  0.16596120213E+04  0.25500000920E-02 0. -1.
    10030    2    1    2    0    0  0.00000000000E+00  0.00000000000E+00  0.43133040501E+03  0.37505544477E+04  0.37256694360E+04 0.  0.
        4    1    3    3  502    0 -0.18190018186E+04 -0.40032370794E+03  0.24942855221E+03  0.18791601589E+04  0.12699999809E+01 0. -1.
       -4    1    3    3    0  502  0.18190018186E+04  0.40032370794E+03  0.18190185280E+03  0.18713942888E+04  0.12699999809E+01 0.  1.
</event>
<event>
 5   0  0.9341000E-08  0.3650176E+04  0.7818609E-02  0.8079094E-01
        1   -1    0    0  501    0  0.00000000000E+00  0.00000000000E+00  0.26399484729E+04  0.26399484729E+04  0.50400001928E-02 0. -1.
       -1   -1    0    0    0  501  0.00000000000E+00  0.00000000000E+00 -0.12617465098E+04  0.12617465098E+04  0.50400001928E-02 0.  1.
    10030    2    1    2    0    0  0.00000000000E+00  0.00000000000E+00  0.13782019631E+04  0.39016949827E+04  0.36501757611E+04 0.  0.
        3    1    3    3  502    0  0.34654762819E+03  0.94516577574E+03 -0.93813503821E+03  0.13760563078E+04  0.10100000352E+00 0.  1.
       -3    1    3    3    0  502 -0.34654762819E+03 -0.94516577574E+03  0.23163370013E+04  0.25256386749E+04  0.10100000352E+00 0. -1.
</event>
<event>
 5   0  0.9341000E-08  0.3696784E+04  0.7818609E-02  0.8068675E-01
       -1   -1    0    0    0  501  0.00000000000E+00  0.00000000000E+00  0.26828264667E+04  0.26828264667E+04  0.50400001928E-02 0. -1.
        1   -1    0    0  501    0  0.00000000000E+00  0.00000000000E+00 -0.12734902913E+04  0.12734902913E+04  0.50400001928E-02 0.  1.
    10030    2    1    2    0    0  0.00000000000E+00  0.00000000000E+00  0.14093361754E+04  0.39563167580E+04  0.36967842558E+04 0.  0.
        3    1    3    3  502    0  0.16864292288E+04  0.74350976818E+03  0.85489043831E+03  0.20316712310E+04  0.10100000352E+00 0. -1.
       -3    1    3    3    0  502 -0.16864292288E+04 -0.74350976818E+03  0.55444573714E+03  0.19246455270E+04  0.10100000352E+00 0.  1.
</event>
<event>
 5   0  0.2897133E-07  0.3683829E+04  0.7818609E-02  0.8071555E-01
       -2   -1    0    0    0  501  0.00000000000E+00  0.00000000000E+00  0.17885745149E+04  0.17885745149E+04  0.25500000920E-02 0.  1.
        2   -1    0    0  501    0  0.00000000000E+00  0.00000000000E+00 -0.18968457243E+04  0.18968457243E+04  0.25500000920E-02 0. -1.
    10030    2    1    2    0    0  0.00000000000E+00  0.00000000000E+00 -0.10827120933E+03  0.36854202392E+04  0.36838294864E+04 0.  0.
        4    1    3    3  502    0  0.13590588801E+04 -0.11736205165E+04  0.35619044499E+03  0.18306554570E+04  0.12699999809E+01 0.  1.
       -4    1    3    3    0  502 -0.13590588801E+04  0.11736205165E+04 -0.46446165431E+03  0.18547647822E+04  0.12699999809E+01 0. -1.
</event>
<event>
 5   0  0.2996969E-07  0.3676676E+04  0.7818609E-02  0.8073150E-01
       -2   -1    0    0    0  501  0.00000000000E+00  0.00000000000E+00  0.97790208942E+03  0.97790208942E+03  0.25500000920E-02 0. -1.
        2   -1    0    0  501    0  0.00000000000E+00  0.00000000000E+00 -0.34558537305E+04  0.34558537305E+04  0.25500000920E-02 0.  1.
    10030    2    1    2    0    0  0.00000000000E+00  0.00000000000E+00 -0.24779516411E+04  0.44337558199E+04  0.36766759900E+04 0.  0.
        1    1    3    3  502    0 -0.15543735414E+04 -0.95427098863E+03 -0.96193987666E+03  0.20620471751E+04  0.50400001928E-02 0. -1.
       -1    1    3    3    0  502  0.15543735414E+04  0.95427098863E+03 -0.15160117644E+04  0.23717086448E+04  0.50400001928E-02 0.  1.
</event>
<event>
 5   0  0.2897133E-07  0.3803036E+04  0.7818609E-02  0.8045504E-01
        2   -1    0    0  501    0  0.00000000000E+00  0.00000000000E+00  0.18558446879E+04  0.18558446879E+04  0.25500000920E-02 0.  1.
       -2   -1    0    0    0  501  0.00000000000E+00  0.00000000000E+00 -0.19483157417E+04  0.19483157417E+04  0.25500000920E-02 0. -1.
    10030    2    1    2    0    0  0.00000000000E+00  0.00000000000E+00 -0.92471053775E+02  0.38041604296E+04  0.38030363762E+04 0.  0.
        4    1    3    3  502    0  0.14574421841E+04 -0.14584686412E+03  0.11667072124E+04  0.18725961551E+04  0.12699999809E+01 0.  1.
       -4    1    3    3    0  502 -0.14574421841E+04  0.14584686412E+03 -0.12591782661E+04  0.19315642745E+04  0.12699999809E+01 0. -1.
</event>
<event>
 5   0  0.2897133E-07  0.3720228E+04  0.7818609E-02  0.8063494E-01
       -2   -1    0    0    0  501  0.00000000000E+00  0.00000000000E+00  0.22673973553E+04  0.22673973553E+04  0.25500000920E-02 0. -1.
        2   -1    0    0  501    0  0.00000000000E+00  0.00000000000E+00 -0.15259895435E+04  0.15259895435E+04  0.25500000920E-02 0.  1.
    10030    2    1    2    0    0  0.00000000000E+00  0.00000000000E+00  0.74140781179E+03  0.37933868988E+04  0.37202283022E+04 0.  0.
        4    1    3    3  502    0  0.76913289722E+03  0.12613461731E+04  0.15231796427E+04  0.21219418980E+04  0.12699999809E+01 0. -1.
       -4    1    3    3    0  502 -0.76913289722E+03 -0.12613461731E+04 -0.78177183087E+03  0.16714450007E+04  0.12699999809E+01 0.  1.
</event>
<event>
 5   0  0.9341000E-08  0.3670421E+04  0.7818609E-02  0.8074549E-01
        1   -1    0    0  501    0  0.00000000000E+00  0.00000000000E+00  0.17120746505E+04  0.17120746505E+04  0.50400001928E-02 0. -1.
       -1   -1    0    0    0  501  0.00000000000E+00  0.00000000000E+00 -0.19672020728E+04  0.19672020728E+04  0.50400001928E-02 0.  1.
    10030    2    1    2    0    0  0.00000000000E+00  0.00000000000E+00 -0.25512742229E+03  0.36792767233E+04  0.36704205760E+04 0.  0.
        1    1    3    3  502    0 -0.49519724151E+03  0.15293324832E+03 -0.18923193966E+04  0.19620095783E+04  0.50400001928E-02 0.  1.
       -1    1    3    3    0  502  0.49519724151E+03 -0.15293324832E+03  0.16371919743E+04  0.17172671450E+04  0.50400001928E-02 0. -1.
</event>
<event>
 5   0  0.9341000E-08  0.3696407E+04  0.7818609E-02  0.8068758E-01
       -1   -1    0    0    0  501  0.00000000000E+00  0.00000000000E+00  0.15073807537E+04  0.15073807538E+04  0.50400001928E-02 0. -1.
        1   -1    0    0  501    0  0.00000000000E+00  0.00000000000E+00 -0.22660875300E+04  0.22660875300E+04  0.50400001928E-02 0.  1.
    10030    2    1    2    0    0  0.00000000000E+00  0.00000000000E+00 -0.75870677626E+03  0.37734682838E+04  0.36964072985E+04 0.  0.
        3    1    3    3  502    0  0.79293857243E+03  0.12892259239E+04  0.70341973210E+03  0.16690279783E+04  0.10100000352E+00 0. -1.
       -3    1    3    3    0  502 -0.79293857243E+03 -0.12892259239E+04 -0.14621265084E+04  0.21044403055E+04  0.10100000352E+00 0.  1.
</event>
<event>
 5   0  0.3008879E-07  0.3616089E+04  0.7818609E-02  0.8086816E-01
        2   -1    0    0  501    0  0.00000000000E+00  0.00000000000E+00  0.15787235719E+04  0.15787235719E+04  0.25500000920E-02 0. -1.
       -2   -1    0    0    0  501  0.00000000000E+00  0.00000000000E+00 -0.20706756195E+04  0.20706756195E+04  0.25500000920E-02 0.  1.
    10030    2    1    2    0    0  0.00000000000E+00  0.00000000000E+00 -0.49195204759E+03  0.36493991914E+04  0.36160887214E+04 0.  0.
        2    1    3    3  502    0 -0.85062408075E+03  0.96867950822E+03 -0.15253775515E+04  0.19971674920E+04  0.25500000920E-02 0.  1.
       -2    1    3    3    0  502  0.85062408075E+03 -0.96867950822E+03  0.10334255039E+04  0.16522316994E+04  0.25500000920E-02 0. -1.
</event>
<event>
 5   0  0.9646615E-08  0.3682991E+04  0.7818609E-02  0.8071742E-01
       -1   -1    0    0    0  501  0.00000000000E+00  0.00000000000E+00  0.18157807866E+04  0.18157807866E+04  0.50400001928E-02 0.  1.
        1   -1    0    0  501    0  0.00000000000E+00  0.00000000000E+00 -0.18675741295E+04  0.18675741295E+04  0.50400001928E-02 0. -1.
    10030    2    1    2    0    0  0.00000000000E+00  0.00000000000E+00 -0.51793342898E+02  0.36833549161E+04  0.36829907531E+04 0.  0.
        2    1    3    3  502    0  0.12169234393E+04 -0.10005347399E+04  0.92768216239E+03  0.18282687487E+04  0.25500000920E-02 0.  1.
       -2    1    3    3    0  502 -0.12169234393E+04  0.10005347399E+04 -0.97947550529E+03  0.18550861674E+04  0.25500000920E-02 0. -1.
</event>
<event>
 5   0  0.9341000E-08  0.3931592E+04  0.7818609E-02  0.8018491E-01
        1   -1    0    0  501    0  0.00000000000E+00  0.00000000000E+00  0.21298125493E+04  0.21298125493E+04  0.50400001928E-02 0.  1.
       -1   -1    0    0    0  501  0.00000000000E+00  0.00000000000E+00 -0.18144103869E+04  0.18144103870E+04  0.50400001928E-02 0. -1.
    10030    2    1    2    0    0  0.00000000000E+00  0.00000000000E+00  0.31540216231E+03  0.39442229362E+04  0.39315920499E+04 0.  0.
        4    1    3    3  502    0 -0.15694238714E+04 -0.11589664872E+04 -0.84024862208E+02  0.19527817075E+04  0.12699999809E+01 0. -1.
       -4    1    3    3    0  502  0.15694238714E+04  0.11589664872E+04  0.39942702452E+03  0.19914412287E+04  0.12699999809E+01 0.  1.
</event>
<event>
 5   0  0.9341000E-08  0.3700888E+04  0.7818609E-02  0.8067765E-01
       -1   -1    0    0    0  501  0.00000000000E+00  0.00000000000E+00  0.22229704528E+04  0.22229704528E+04  0.50400001928E-02 0. -1.
        1   -1    0    0  501    0  0.00000000000E+00  0.00000000000E+00 -0.15403458666E+04  0.15403458666E+04  0.50400001928E-02 0.  1.
    10030    2    1    2    0    0  0.00000000000E+00  0.00000000000E+00  0.68262458617E+03  0.37633163194E+04  0.37008881899E+04 0.  0.
        4    1    3    3  502    0 -0.17599030506E+03  0.12770934403E+04 -0.10085595598E+04  0.16368061099E+04  0.12699999809E+01 0.  1.
       -4    1    3    3    0  502  0.17599030506E+03 -0.12770934403E+04  0.16911841459E+04  0.21265102095E+04  0.12699999809E+01 0. -1.
</event>
<event>
 5   0  0.3008879E-07  0.3695512E+04  0.7818609E-02  0.8068957E-01
       -2   -1    0    0    0  501  0.00000000000E+00  0.00000000000E+00  0.22146489376E+04  0.22146489376E+04  0.25500000920E-02 0. -1.
        2   -1    0    0  501    0  0.00000000000E+00  0.00000000000E+00 -0.15416450300E+04  0.15416450300E+04  0.25500000920E-02 0.  1.
    10030    2    1    2    0    0  0.00000000000E+00  0.00000000000E+00  0.67300390761E+03  0.37562939676E+04  0.36955121582E+04 0.  0.
        2    1    3    3  502    0 -0.29006828544E+03  0.51791925270E+03  0.21150882716E+04  0.21968109521E+04  0.25500000920E-02 0. -1.
       -2    1    3    3    0  502  0.29006828544E+03 -0.51791925270E+03 -0.14420843640E+04  0.15594830155E+04  0.25500000920E-02 0.  1.
</event>
<event>
 5   0  0.9341000E-08  0.3709116E+04  0.7818609E-02  0.8065945E-01
        1   -1    0    0  501    0  0.00000000000E+00  0.00000000000E+00  0.26231552693E+04  0.26231552693E+04  0.50400001928E-02 0. -1.
       -1   -1    0    0    0  501  0.00000000000E+00  0.00000000000E+00 -0.13111637014E+04  0.13111637014E+04  0.50400001928E-02 0.  1.
    10030    2    1    2    0    0  0.00000000000E+00  0.00000000000E+00  0.13119915679E+04  0.39343189706E+04  0.37091163218E+04 0.  0.
        1    1    3    3  502    0  0.68575956278E+03 -0.40904550168E+03  0.24314840268E+04  0.25592379672E+04  0.50400001928E-02 0. -1.
       -1    1    3    3    0  502 -0.68575956278E+03  0.40904550168E+03 -0.11194924589E+04  0.13750810034E+04  0.50400001928E-02 0.  1.
</event>
<event>
 5   0  0.3008879E-07  0.3709364E+04  0.7818609E-02  0.8065890E-01
       -2   -1    0    0    0  501  0.00000000000E+00  0.00000000000E+00  0.12914375785E+04  0.12914375785E+04  0.25500000920E-02 0.  1.
        2   -1    0    0  501    0  0.00000000000E+00  0.00000000000E+00 -0.26635780633E+04  0.26635780633E+04  0.25500000920E-02 0. -1.
    10030    2    1    2    0    0  0.00000000000E+00  0.00000000000E+00 -0.13721404847E+04  0.39550156418E+04  0.37093637213E+04 0.  0.
        2    1    3    3  502    0 -0.12586111102E+04 -0.20755545655E+03  0.74944362892E+03  0.14794752270E+04  0.25500000920E-02 0.  1.
       -2    1    3    3    0  502  0.12586111102E+04  0.20755545655E+03 -0.21215841137E+04  0.24755404149E+04  0.25500000920E-02 0. -1.
</event>
<event>
 5   0  0.3008879E-07  0.3676183E+04  0.7818609E-02  0.8073261E-01
        2   -1    0    0  501    0  0.00000000000E+00  0.00000000000E+00  0.31900685806E+04  0.31900685806E+04  0.25500000920E-02 0. -1.
       -2   -1    0    0    0  501  0.00000000000E+00  0.00000000000E+00 -0.10590933815E+04  0.10590933815E+04  0.25500000920E-02 0.  1.
    10030    2    1    2    0    0  0.00000000000E+00  0.00000000000E+00  0.21309751991E+04  0.42491619621E+04  0.36761830859E+04 0.  0.
        2    1    3    3  502    0 -0.17671881592E+04 -0.47766021787E+03  0.12570515190E+04  0.22206512098E+04  0.25500000920E-02 0. -1.
       -2    1    3    3    0  502  0.17671881592E+04  0.47766021787E+03  0.87392368006E+03  0.20285107524E+04  0.25500000920E-02 0.  1.
</event>
<event>
 5   0  0.3008879E-07  0.3713088E+04  0.7818609E-02  0.8065067E-01
       -2   -1    0    0    0  501  0.00000000000E+00  0.00000000000E+00  0.13632004279E+04  0.13632004279E+04  0.25500000920E-02 0. -1.
        2   -1    0    0  501    0  0.00000000000E+00  0.00000000000E+00 -0.25284296425E+04  0.25284296425E+04  0.25500000920E-02 0.  1.
    10030    2    1    2    0    0  0.00000000000E+00  0.00000000000E+00 -0.11652292147E+04  0.38916300704E+04  0.37130884021E+04 0.  0.
        2    1    3    3  502    0 -0.10831542063E+04 -0.68361458474E+03 -0.19911887559E+04  0.23675693436E+04  0.25500000920E-02 0.  1.
       -2    1    3    3    0  502  0.10831542063E+04  0.68361458474E+03  0.82595954123E+03  0.15240607268E+04  0.25500000920E-02 0. -1.
</event>
<event>
 5   0  0.2996969E-07  0.3689309E+04  0.7818609E-02  0.8070335E-01
        2   -1    0    0  501    0  0.00000000000E+00  0.00000000000E+00  0.23495086048E+04  0.23495086048E+04  0.25500000920E-02 0. -1.
       -2   -1    0    0    0  501  0.00000000000E+00  0.00000000000E+00 -0.14482817539E+04  0.14482817539E+04  0.25500000920E-02 0.  1.
    10030    2    1    2    0    0  0.00000000000E+00  0.00000000000E+00  0.90122685086E+03  0.37977903587E+04  0.36893091185E+04 0.  0.
        1    1    3    3  502    0  0.56557330962E+03 -0.17470046124E+04  0.26980081332E+03  0.18559878133E+04  0.50400001928E-02 0.  1.
       -1    1    3    3    0  502 -0.56557330962E+03  0.17470046124E+04  0.63142603754E+03  0.19418025454E+04  0.50400001928E-02 0. -1.
</event>
<event>
 5   0  0.9646615E-08  0.3655643E+04  0.7818609E-02  0.8077864E-01
        1   -1    0    0  501    0  0.00000000000E+00  0.00000000000E+00  0.24050917466E+04  0.24050917466E+04  0.50400001928E-02 0.  1.
       -1   -1    0    0    0  501  0.00000000000E+00  0.00000000000E+00 -0.13891077272E+04  0.13891077273E+04  0.50400001928E-02 0. -1.
    10030    2    1    2    0    0  0.00000000000E+00  0.00000000000E+00  0.10159840193E+04  0.37941994738E+04  0.36556430515E+04 0.  0.
        2    1    3    3  502    0  0.15526813246E+04  0.41878668401E+02  0.15080247405E+04  0.21648814601E+04  0.25500000920E-02 0.  1.
       -2    1    3    3    0  502 -0.15526813246E+04 -0.41878668401E+02 -0.49204072112E+03  0.16293180137E+04  0.25500000920E-02 0. -1.
</event>
<event>
 5   0  0.2897133E-07  0.3706248E+04  0.7818609E-02  0.8066579E-01
       -2   -1    0    0    0  501  0.00000000000E+00  0.00000000000E+00  0.16223956167E+04  0.16223956167E+04  0.25500000920E-02 0. -1.
        2   -1    0    0  501    0  0.00000000000E+00  0.00000000000E+00 -0.21166652506E+04  0.21166652506E+04  0.25500000920E-02 0.  1.
    10030    2    1    2    0    0  0.00000000000E+00  0.00000000000E+00 -0.49426963389E+03  0.37390608673E+04  0.37062479272E+04 0.  0.
        4    1    3    3  502    0  0.16313199785E+04  0.85719677635E+03 -0.50277485478E+02  0.18435076957E+04  0.12699999809E+01 0. -1.
       -4    1    3    3    0  502 -0.16313199785E+04 -0.85719677635E+03 -0.44399214842E+03  0.18955531716E+04  0.12699999809E+01 0.  1.
</event>
<event>
 5   0  0.2913025E-07  0.3729274E+04  0.7818609E-02  0.8061505E-01
        2   -1    0    0  501    0  0.00000000000E+00  0.00000000000E+00  0.15095802966E+04  0.15095802966E+04  0.25500000920E-02 0.  1.
       -2   -1    0    0    0  501  0.00000000000E+00  0.00000000000E+00 -0.23032035184E+04  0.23032035184E+04  0.25500000920E-02 0. -1.
    10030    2    1    2    0    0  0.00000000000E+00  0.00000000000E+00 -0.79362322182E+03  0.38127838150E+04  0.37292737365E+04 0.  0.
        5    1    3    3  502    0  0.82858717947E+03 -0.53733859834E+03  0.12202378378E+04  0.15698063428E+04  0.46999998093E+01 0.  1.
       -5    1    3    3    0  502 -0.82858717947E+03  0.53733859834E+03 -0.20138610596E+04  0.22429774722E+04  0.46999998093E+01 0. -1.
</event>
<event>
 5   0  0.9418945E-08  0.3682834E+04  0.7818609E-02  0.8071777E-01
        1   -1    0    0  501    0  0.00000000000E+00  0.00000000000E+00  0.19184109113E+04  0.19184109113E+04  0.50400001928E-02 0. -1.
       -1   -1    0    0    0  501  0.00000000000E+00  0.00000000000E+00 -0.17675129931E+04  0.17675129931E+04  0.50400001928E-02 0.  1.
    10030    2    1    2    0    0  0.00000000000E+00  0.00000000000E+00  0.15089791824E+03  0.36859239044E+04  0.36828338066E+04 0.  0.
        5    1    3    3  502    0  0.73549810429E+03  0.21990068538E+03 -0.15997177519E+04  0.17743823570E+04  0.46999998093E+01 0.  1.
       -5    1    3    3    0  502 -0.73549810429E+03 -0.21990068538E+03  0.17506156702E+04  0.19115415474E+04  0.46999998093E+01 0. -1.
</event>
<event>
 5   0  0.2913025E-07  0.3692213E+04  0.7818609E-02  0.8069690E-01
       -2   -1    0    0    0  501  0.00000000000E+00  0.00000000000E+00  0.18660026394E+04  0.18660026394E+04  0.25500000920E-02 0.  1.
        2   -1    0    0  501    0  0.00000000000E+00  0.00000000000E+00 -0.18264229362E+04  0.18264229362E+04  0.25500000920E-02 0. -1.
    10030    2    1    2    0    0  0.00000000000E+00  0.00000000000E+00  0.39579703261E+02  0.36924255756E+04  0.36922134389E+04 0.  0.
        5    1    3    3  502    0  0.46988957118E+03  0.12415476900E+04 -0.12631911243E+04  0.18324603085E+04  0.46999998093E+01 0. -1.
       -5    1    3    3    0  502 -0.46988957118E+03 -0.12415476900E+04  0.13027708276E+04  0.18599652671E+04  0.46999998093E+01 0.  1.
</event>
<event>
 5   0  0.9418945E-08  0.3622729E+04  0.7818609E-02  0.8085305E-01
        1   -1    0    0  501    0  0.00000000000E+00  0.00000000000E+00  0.16997950411E+04  0.16997950411E+04  0.50400001928E-02 0.  1.
       -1   -1    0    0    0  501  0.00000000000E+00  0.00000000000E+00 -0.19302571798E+04  0.19302571798E+04  0.50400001928E-02 0. -1.
    10030    2    1    2    0    0  0.00000000000E+00  0.00000000000E+00 -0.23046213868E+03  0.36300522209E+04  0.36227291272E+04 0.  0.
        5    1    3    3  502    0 -0.62410866235E+02  0.32555116018E+03  0.16691383585E+04  0.17017413505E+04  0.46999998093E+01 0.  1.
       -5    1    3    3    0  502  0.62410866235E+02 -0.32555116018E+03 -0.18996004972E+04  0.19283108704E+04  0.46999998093E+01 0. -1.
</event>
<event>
 5   0  0.2913025E-07  0.3598537E+04  0.7818609E-02  0.8090827E-01
       -2   -1    0    0    0  501  0.00000000000E+00  0.00000000000E+00  0.15325120560E+04  0.15325120560E+04  0.25500000920E-02 0. -1.
        2   -1    0    0  501    0  0.00000000000E+00  0.00000000000E+00 -0.21124575451E+04  0.21124575451E+04  0.25500000920E-02 0.  1.
    10030    2    1    2    0    0  0.00000000000E+00  0.00000000000E+00 -0.57994548914E+03  0.36449696011E+04  0.35985367335E+04 0.  0.
        5    1    3    3  502    0  0.86353020459E+03  0.11656536591E+04 -0.13680900100E+04  0.19940223751E+04  0.46999998093E+01 0.  1.
       -5    1    3    3    0  502 -0.86353020459E+03 -0.11656536591E+04  0.78814452082E+03  0.16509472259E+04  0.46999998093E+01 0. -1.
</event>
<event>
 5   0  0.3008879E-07  0.3663809E+04  0.7818609E-02  0.8076030E-01
       -2   -1    0    0    0  501  0.00000000000E+00  0.00000000000E+00  0.17239835051E+04  0.17239835051E+04  0.25500000920E-02 0. -1.
        2   -1    0    0  501    0  0.00000000000E+00  0.00000000000E+00 -0.19465812146E+04  0.19465812146E+04  0.25500000920E-02 0.  1.
    10030    2    1    2    0    0  0.00000000000E+00  0.00000000000E+00 -0.22259770955E+03  0.36705647197E+04  0.36638088953E+04 0.  0.
        2    1    3    3  502    0  0.64511648487E+03 -0.16408401801E+04 -0.60955093554E+03  0.18654983567E+04  0.25500000920E-02 0.  1.
       -2    1    3    3    0  502 -0.64511648487E+03  0.16408401801E+04  0.38695322599E+03  0.18050663630E+04  0.25500000920E-02 0. -1.
</event>
<event>
 5   0  0.9341000E-08  0.3705601E+04  0.7818609E-02  0.8066722E-01
       -1   -1    0    0    0  501  0.00000000000E+00  0.00000000000E+00  0.21893942903E+04  0.21893942903E+04  0.50400001928E-02 0.  1.
        1   -1    0    0  501    0  0.00000000000E+00  0.00000000000E+00 -0.15679538249E+04  0.15679538249E+04  0.50400001928E-02 0. -1.
    10030    2    1    2    0    0  0.00000000000E+00  0.00000000000E+00  0.62144046537E+03  0.37573481152E+04  0.37056007080E+04 0.  0.
        1    1    3    3  502    0 -0.18049358606E+03 -0.35847351102E+03  0.21447880409E+04  0.21820167124E+04  0.50400001928E-02 0.  1.
       -1    1    3    3    0  502  0.18049358606E+03  0.35847351102E+03 -0.15233475756E+04  0.15753314028E+04  0.50400001928E-02 0. -1.
</event>
<event>
 5   0  0.9341000E-08  0.3610153E+04  0.7818609E-02  0.8088170E-01
        1   -1    0    0  501    0  0.00000000000E+00  0.00000000000E+00  0.22329650723E+04  0.22329650723E+04  0.50400001928E-02 0.  1.
       -1   -1    0    0    0  501  0.00000000000E+00  0.00000000000E+00 -0.14591817436E+04  0.14591817436E+04  0.50400001928E-02 0. -1.
    10030    2    1    2    0    0  0.00000000000E+00  0.00000000000E+00  0.77378332874E+03  0.36921468159E+04  0.36101533860E+04 0.  0.
        3    1    3    3  502    0 -0.37572504886E+03  0.49112292672E+03 -0.13474814194E+04  0.14825913892E+04  0.10100000352E+00 0. -1.
       -3    1    3    3    0  502  0.37572504886E+03 -0.49112292672E+03  0.21212647482E+04  0.22095554267E+04  0.10100000352E+00 0.  1.
</event>
<event>
 5   0  0.2897133E-07  0.3396215E+04  0.7818609E-02  0.8138836E-01
       -2   -1    0    0    0  501  0.00000000000E+00  0.00000000000E+00  0.20429097972E+04  0.20429097972E+04  0.25500000920E-02 0. -1.
        2   -1    0    0  501    0  0.00000000000E+00  0.00000000000E+00 -0.14115009896E+04  0.14115009896E+04  0.25500000920E-02 0.  1.
    10030    2    1    2    0    0  0.00000000000E+00  0.00000000000E+00  0.63140880755E+03  0.34544107868E+04  0.33962150700E+04 0.  0.
        4    1    3    3  502    0 -0.16153529109E+04  0.52314989573E+03  0.29258280078E+03  0.17229791492E+04  0.12699999809E+01 0.  1.
       -4    1    3    3    0  502  0.16153529109E+04 -0.52314989573E+03  0.33882600678E+03  0.17314316377E+04  0.12699999809E+01 0. -1.
</event>
<event>
 5   0  0.2897133E-07  0.3638744E+04  0.7818609E-02  0.8081674E-01
       -2   -1    0    0    0  501  0.00000000000E+00  0.00000000000E+00  0.10322136056E+04  0.10322136056E+04  0.25500000920E-02 0. -1.
        2   -1    0    0  501    0  0.00000000000E+00  0.00000000000E+00 -0.32068120330E+04  0.32068120331E+04  0.25500000920E-02 0.  1.
    10030    2    1    2    0    0  0.00000000000E+00  0.00000000000E+00 -0.21745984274E+04  0.42390256387E+04  0.36387442950E+04 0.  0.
        4    1    3    3  502    0 -0.50605069164E+03 -0.17216468507E+04 -0.14367088880E+04  0.22987581915E+04  0.12699999809E+01 0.  1.
       -4    1    3    3    0  502  0.50605069164E+03  0.17216468507E+04 -0.73788953942E+03  0.19402674472E+04  0.12699999809E+01 0. -1.
</event>
<event>
 5   0  0.2996969E-07  0.3663970E+04  0.7818609E-02  0.8075994E-01
       -2   -1    0    0    0  501  0.00000000000E+00  0.00000000000E+00  0.10778914628E+04  0.10778914628E+04  0.25500000920E-02 0. -1.
        2   -1    0    0  501    0  0.00000000000E+00  0.00000000000E+00 -0.31136432192E+04  0.31136432192E+04  0.25500000920E-02 0.  1.
    10030    2    1    2    0    0  0.00000000000E+00  0.00000000000E+00 -0.20357517564E+04  0.41915346820E+04  0.36639702205E+04 0.  0.
        1    1    3    3  502    0  0.25237833005E+03 -0.55517451379E+03  0.95836172223E+03  0.11359448723E+04  0.50400001928E-02 0. -1.
       -1    1    3    3    0  502 -0.25237833005E+03  0.55517451379E+03 -0.29941134787E+04  0.30555898097E+04  0.50400001928E-02 0.  1.
</event>
<event>
 5   0  0.2913025E-07  0.3685866E+04  0.7818609E-02  0.8071101E-01
        2   -1    0    0  501    0  0.00000000000E+00  0.00000000000E+00  0.16521264265E+04  0.16521264265E+04  0.25500000920E-02 0.  1.
       -2   -1    0    0    0  501  0.00000000000E+00  0.00000000000E+00 -0.20557766611E+04  0.20557766611E+04  0.25500000920E-02 0. -1.
    10030    2    1    2    0    0  0.00000000000E+00  0.00000000000E+00 -0.40365023465E+03  0.37079030876E+04  0.36858664918E+04 0.  0.
        5    1    3    3  502    0 -0.29120596072E+02  0.80188886235E+03 -0.18708122883E+04  0.20356410452E+04  0.46999998093E+01 0. -1.
       -5    1    3    3    0  502  0.29120596072E+02 -0.80188886235E+03  0.14671620537E+04  0.16722620424E+04  0.46999998093E+01 0.  1.
</event>
<event>
 5   0  0.9341000E-08  0.3586570E+04  0.7818609E-02  0.8093575E-01
       -1   -1    0    0    0  501  0.00000000000E+00  0.00000000000E+00  0.16614526435E+04  0.16614526435E+04  0.50400001928E-02 0.  1.
        1   -1    0    0  501    0  0.00000000000E+00  0.00000000000E+00 -0.19355779212E+04  0.19355779212E+04  0.50400001928E-02 0. -1.
    10030    2    1    2    0    0  0.00000000000E+00  0.00000000000E+00 -0.27412527771E+03  0.35970305647E+04  0.35865699792E+04 0.  0.
        3    1    3    3  502    0 -0.35187936472E+03  0.51842760717E+03 -0.18222265972E+04  0.19269395561E+04  0.10100000352E+00 0. -1.
       -3    1    3    3    0  502  0.35187936472E+03 -0.51842760717E+03  0.15481013195E+04  0.16700910085E+04  0.10100000352E+00 0.  1.
</event>
<event>
 5   0  0.9341000E-08  0.3720064E+04  0.7818609E-02  0.8063530E-01
        1   -1    0    0  501    0  0.00000000000E+00  0.00000000000E+00  0.21082471284E+04  0.21082471284E+04  0.50400001928E-02 0. -1.
       -1   -1    0    0    0  501  0.00000000000E+00  0.00000000000E+00 -0.16410406587E+04  0.16410406587E+04  0.50400001928E-02 0.  1.
    10030    2    1    2    0    0  0.00000000000E+00  0.00000000000E+00  0.46720646975E+03  0.37492877872E+04  0.37200641158E+04 0.  0.
        1    1    3    3  502    0 -0.17265919087E+04 -0.66880761391E+03  0.55306719045E+02  0.18524259977E+04  0.50400001928E-02 0. -1.
       -1    1    3    3    0  502  0.17265919087E+04  0.66880761391E+03  0.41189975070E+03  0.18968617895E+04  0.50400001928E-02 0.  1.
</event>
<event>
 5   0  0.3008879E-07  0.3632239E+04  0.7818609E-02  0.8083147E-01
        2   -1    0    0  501    0  0.00000000000E+00  0.00000000000E+00  0.25070967992E+04  0.25070967992E+04  0.25500000920E-02 0.  1.
       -2   -1    0    0    0  501  0.00000000000E+00  0.00000000000E+00 -0.13155812052E+04  0.13155812052E+04  0.25500000920E-02 0. -1.
    10030    2    1    2    0    0  0.00000000000E+00  0.00000000000E+00  0.11915155940E+04  0.38226780044E+04  0.36322386644E+04 0.  0.
        2    1    3    3  502    0  0.12917371228E+04 -0.97109273054E+03  0.14678685879E+04  0.21831729380E+04  0.25500000920E-02 0.  1.
       -2    1    3    3    0  502 -0.12917371228E+04  0.97109273054E+03 -0.27635299383E+03  0.16395050665E+04  0.25500000920E-02 0. -1.
</event>
<event>
 5   0  0.9418945E-08  0.3820055E+04  0.7818609E-02  0.8041865E-01
        1   -1    0    0  501    0  0.00000000000E+00  0.00000000000E+00  0.22874193139E+04  0.22874193139E+04  0.50400001928E-02 0. -1.
       -1   -1    0    0    0  501  0.00000000000E+00  0.00000000000E+00 -0.15948998478E+04  0.15948998478E+04  0.50400001928E-02 0.  1.
    10030    2    1    2    0    0  0.00000000000E+00  0.00000000000E+00  0.69251946612E+03  0.38823191618E+04  0.38200548246E+04 0.  0.
        5    1    3    3  502    0  0.13173967131E+04  0.27518406442E+03  0.17236817728E+04  0.21868610639E+04  0.46999998093E+01 0. -1.
       -5    1    3    3    0  502 -0.13173967131E+04 -0.27518406442E+03 -0.10311623066E+04  0.16954580979E+04  0.46999998093E+01 0.  1.
</event>
<event>
 5   0  0.9341000E-08  0.3709141E+04  0.7818609E-02  0.8065939E-01
        1   -1    0    0  501    0  0.00000000000E+00  0.00000000000E+00  0.23092857997E+04  0.23092857997E+04  0.50400001928E-02 0. -1.
       -1   -1    0    0    0  501  0.00000000000E+00  0.00000000000E+00 -0.14893918964E+04  0.14893918964E+04  0.50400001928E-02 0.  1.
    10030    2    1    2    0    0  0.00000000000E+00  0.00000000000E+00  0.81989390331E+03  0.37986776961E+04  0.37091409013E+04 0.  0.
        3    1    3    3  502    0 -0.15036354689E+04  0.23599009437E+03  0.14951582358E+04  0.21335672261E+04  0.10100000352E+00 0. -1.
       -3    1    3    3    0  502  0.15036354689E+04 -0.23599009437E+03 -0.67526433250E+03  0.16651104699E+04  0.10100000352E+00 0.  1.
</event>
<event>
 5   0  0.9646615E-08  0.3702320E+04  0.7818609E-02  0.8067448E-01
       -1   -1    0    0    0  501  0.00000000000E+00  0.00000000000E+00  0.23291425006E+04  0.23291425006E+04  0.50400001928E-02 0.  1.
        1   -1    0    0  501    0  0.00000000000E+00  0.00000000000E+00 -0.14712681433E+04  0.14712681433E+04  0.50400001928E-02 0. -1.
    10030    2    1    2    0    0  0.00000000000E+00  0.00000000000E+00  0.85787435735E+03  0.38004106439E+04  0.37023199010E+04 0.  0.
        2    1    3    3  502    0 -0.90016429250E+03 -0.88117041986E+03  0.18213555866E+04  0.22145187367E+04  0.25500000920E-02 0.  1.
       -2    1    3    3    0  502  0.90016429250E+03  0.88117041986E+03 -0.96348122923E+03  0.15858919072E+04  0.25500000920E-02 0. -1.
</event>
<event>
 5   0  0.3008879E-07  0.3685085E+04  0.7818609E-02  0.8071275E-01
        2   -1    0    0  501    0  0.00000000000E+00  0.00000000000E+00  0.23725257657E+04  0.23725257657E+04  0.25500000920E-02 0. -1.
       -2   -1    0    0    0  501  0.00000000000E+00  0.00000000000E+00 -0.14309491129E+04  0.14309491129E+04  0.25500000920E-02 0.  1.
    10030    2    1    2    0    0  0.00000000000E+00  0.00000000000E+00  0.94157665273E+03  0.38034748786E+04  0.36850854209E+04 0.  0.
        2    1    3    3  502    0  0.12192918101E+04 -0.34972062153E+03  0.18501307442E+04  0.22432032458E+04  0.25500000920E-02 0. -1.
       -2    1    3    3    0  502 -0.12192918101E+04  0.34972062153E+03 -0.90855409146E+03  0.15602716329E+04  0.25500000920E-02 0.  1.
</event>
<event>
 5   0  0.3032442E-07  0.3625746E+04  0.7818609E-02  0.8084620E-01
        2   -1    0    0  501    0  0.00000000000E+00  0.00000000000E+00  0.26375053432E+04  0.26375053432E+04  0.25500000920E-02 0. -1.
       -2   -1    0    0    0  501  0.00000000000E+00  0.00000000000E+00 -0.12460667879E+04  0.12460667879E+04  0.25500000920E-02 0.  1.
    10030    2    1    2    0    0  0.00000000000E+00  0.00000000000E+00  0.13914385552E+04  0.38835721311E+04  0.36257456122E+04 0.  0.
        3    1    3    3  502    0 -0.56137704326E+03 -0.17232525201E+04  0.65072796698E+03  0.19256662042E+04  0.10100000352E+00 0.  1.
       -3    1    3    3    0  502  0.56137704326E+03  0.17232525201E+04  0.74071058827E+03  0.19579059269E+04  0.10100000352E+00 0. -1.
</event>
<event>
 5   0  0.9418945E-08  0.3703085E+04  0.7818609E-02  0.8067279E-01
        1   -1    0    0  501    0  0.00000000000E+00  0.00000000000E+00  0.19805954907E+04  0.19805954907E+04  0.50400001928E-02 0. -1.
       -1   -1    0    0    0  501  0.00000000000E+00  0.00000000000E+00 -0.17308982615E+04  0.17308982615E+04  0.50400001928E-02 0.  1.
    10030    2    1    2    0    0  0.00000000000E+00  0.00000000000E+00  0.24969722923E+03  0.37114937522E+04  0.37030848176E+04 0.  0.
        5    1    3    3  502    0 -0.16592193753E+04  0.80151104702E+03  0.30625217379E+03  0.18679511176E+04  0.46999998093E+01 0. -1.
       -5    1    3    3    0  502  0.16592193753E+04 -0.80151104702E+03 -0.56554944555E+02  0.18435426346E+04  0.46999998093E+01 0.  1.
</event>
<event>
 5   0  0.9341000E-08  0.3698542E+04  0.7818609E-02  0.8068285E-01
        1   -1    0    0  501    0  0.00000000000E+00  0.00000000000E+00  0.26052427140E+04  0.26052427140E+04  0.50400001928E-02 0. -1.
       -1   -1    0    0    0  501  0.00000000000E+00  0.00000000000E+00 -0.13126618812E+04  0.13126618812E+04  0.50400001928E-02 0.  1.
    10030    2    1    2    0    0  0.00000000000E+00  0.00000000000E+00  0.12925808328E+04  0.39179045952E+04  0.36985417678E+04 0.  0.
        1    1    3    3  502    0 -0.17303511878E+04 -0.17571743574E+03  0.13118974831E+04  0.21785469599E+04  0.50400001928E-02 0. -1.
       -1    1    3    3    0  502  0.17303511878E+04  0.17571743574E+03 -0.19316650323E+02  0.17393576353E+04  0.50400001928E-02 0.  1.
</event>
<event>
 5   0  0.9418945E-08  0.3657989E+04  0.7818609E-02  0.8077336E-01
       -1   -1    0    0    0  501  0.00000000000E+00  0.00000000000E+00  0.14638118201E+04  0.14638118201E+04  0.50400001928E-02 0.  1.
        1   -1    0    0  501    0  0.00000000000E+00  0.00000000000E+00 -0.22852809052E+04  0.22852809052E+04  0.50400001928E-02 0. -1.
    10030    2    1    2    0    0  0.00000000000E+00  0.00000000000E+00 -0.82146908507E+03  0.37490927253E+04  0.36579891751E+04 0.  0.
        5    1    3    3  502    0 -0.82119897253E+03  0.16236164586E+04 -0.60165588279E+03  0.19163794114E+04  0.46999998093E+01 0. -1.
       -5    1    3    3    0  502  0.82119897253E+03 -0.16236164586E+04 -0.21981320228E+03  0.18327133139E+04  0.46999998093E+01 0.  1.
</event>
<event>
 5   0  0.2913025E-07  0.3746736E+04  0.7818609E-02  0.8057683E-01
        2   -1    0    0  501    0  0.00000000000E+00  0.00000000000E+00  0.18227742636E+04  0.18227742636E+04  0.25500000920E-02 0.  1.
       -2   -1    0    0    0  501  0.00000000000E+00  0.00000000000E+00 -0.19253659861E+04  0.19253659861E+04  0.25500000920E-02 0. -1.
    10030    2    1    2    0    0  0.00000000000E+00  0.00000000000E+00 -0.10259172248E+03  0.37481402497E+04  0.37467359488E+04 0.  0.
        5    1    3    3  502    0 -0.18470646247E+04  0.28648649919E+03 -0.17689464248E+03  0.18775079352E+04  0.46999998093E+01 0. -1.
       -5    1    3    3    0  502  0.18470646247E+04 -0.28648649919E+03  0.74302920003E+02  0.18706323145E+04  0.46999998093E+01 0.  1.
</event>
<event>
 5   0  0.3008879E-07  0.3792473E+04  0.7818609E-02  0.8047772E-01
        2   -1    0    0  501    0  0.00000000000E+00  0.00000000000E+00  0.28461929285E+04  0.28461929285E+04  0.25500000920E-02 0. -1.
       -2   -1    0    0    0  501  0.00000000000E+00  0.00000000000E+00 -0.12633413348E+04  0.12633413348E+04  0.25500000920E-02 0.  1.
    10030    2    1    2    0    0  0.00000000000E+00  0.00000000000E+00  0.15828515937E+04  0.41095342633E+04  0.37924731632E+04 0.  0.
        2    1    3    3  502    0 -0.20157383570E+03  0.15183505859E+03  0.28279150093E+04  0.28391529011E+04  0.25500000920E-02 0. -1.
       -2    1    3    3    0  502  0.20157383570E+03 -0.15183505859E+03 -0.12450634156E+04  0.12703813621E+04  0.25500000920E-02 0.  1.
</event>
<event>
 5   0  0.3008879E-07  0.3726493E+04  0.7818609E-02  0.8062116E-01
       -2   -1    0    0    0  501  0.00000000000E+00  0.00000000000E+00  0.14924470118E+04  0.14924470118E+04  0.25500000920E-02 0.  1.
        2   -1    0    0  501    0  0.00000000000E+00  0.00000000000E+00 -0.23261708362E+04  0.23261708362E+04  0.25500000920E-02 0. -1.
    10030    2    1    2    0    0  0.00000000000E+00  0.00000000000E+00 -0.83372382440E+03  0.38186178481E+04  0.37264925673E+04 0.  0.
        2    1    3    3  502    0 -0.14911749703E+04 -0.77896160312E+03 -0.12374732014E+04  0.20884740591E+04  0.25500000920E-02 0. -1.
       -2    1    3    3    0  502  0.14911749703E+04  0.77896160312E+03  0.40374937695E+03  0.17301437890E+04  0.25500000920E-02 0.  1.
</event>
<event>
 5   0  0.2913025E-07  0.3713519E+04  0.7818609E-02  0.8064972E-01
        2   -1    0    0  501    0  0.00000000000E+00  0.00000000000E+00  0.14124114632E+04  0.14124114632E+04  0.25500000920E-02 0.  1.
       -2   -1    0    0    0  501  0.00000000000E+00  0.00000000000E+00 -0.24409001818E+04  0.24409001818E+04  0.25500000920E-02 0. -1.
    10030    2    1    2    0    0  0.00000000000E+00  0.00000000000E+00 -0.10284887186E+04  0.38533116450E+04  0.37135187611E+04 0.  0.
        5    1    3    3  502    0  0.95885516363E+02  0.48098236099E+03 -0.23724666715E+04  0.24226345703E+04  0.46999998093E+01 0. -1.
       -5    1    3    3    0  502 -0.95885516363E+02 -0.48098236099E+03  0.13439779530E+04  0.14306770746E+04  0.46999998093E+01 0.  1.
</event>
<event>
 5   0  0.2996969E-07  0.3659141E+04  0.7818609E-02  0.8077077E-01
        2   -1    0    0  501    0  0.00000000000E+00  0.00000000000E+00  0.13142466144E+04  0.13142466144E+04  0.25500000920E-02 0.  1.
       -2   -1    0    0    0  501  0.00000000000E+00  0.00000000000E+00 -0.25469559342E+04  0.25469559342E+04  0.25500000920E-02 0. -1.
    10030    2    1    2    0    0  0.00000000000E+00  0.00000000000E+00 -0.12327093198E+04  0.38612025486E+04  0.36591409995E+04 0.  0.
        1    1    3    3  502    0  0.17291779912E+04 -0.47572191927E+03 -0.99822272669E+03  0.20525146728E+04  0.50400001928E-02 0. -1.
       -1    1    3    3    0  502 -0.17291779912E+04  0.47572191927E+03 -0.23448659310E+03  0.18086878758E+04  0.50400001928E-02 0.  1.
</event>
<event>
 5   0  0.3008879E-07  0.3452486E+04  0.7818609E-02  0.8125143E-01
        2   -1    0    0  501    0  0.00000000000E+00  0.00000000000E+00  0.22985794125E+04  0.22985794125E+04  0.25500000920E-02 0.  1.
       -2   -1    0    0    0  501  0.00000000000E+00  0.00000000000E+00 -0.12964159254E+04  0.12964159254E+04  0.25500000920E-02 0. -1.
    10030    2    1    2    0    0  0.00000000000E+00  0.00000000000E+00  0.10021634871E+04  0.35949953379E+04  0.34524860354E+04 0.  0.
        2    1    3    3  502    0 -0.18998938848E+03 -0.61626505665E+03  0.21684383374E+04  0.22623004688E+04  0.25500000920E-02 0.  1.
       -2    1    3    3    0  502  0.18998938848E+03  0.61626505665E+03 -0.11662748503E+04  0.13326948691E+04  0.25500000920E-02 0. -1.
</event>
<event>
 5   0  0.2996969E-07  0.3703774E+04  0.7818609E-02  0.8067126E-01
        2   -1    0    0  501    0  0.00000000000E+00  0.00000000000E+00  0.25075360433E+04  0.25075360433E+04  0.25500000920E-02 0.  1.
       -2   -1    0    0    0  501  0.00000000000E+00  0.00000000000E+00 -0.13676716921E+04  0.13676716921E+04  0.25500000920E-02 0. -1.
    10030    2    1    2    0    0  0.00000000000E+00  0.00000000000E+00  0.11398643513E+04  0.38752077354E+04  0.37037743253E+04 0.  0.
        1    1    3    3  502    0 -0.97092755799E+03  0.64351570327E+03 -0.93638315404E+03  0.14945320988E+04  0.50400001928E-02 0. -1.
       -1    1    3    3    0  502  0.97092755799E+03 -0.64351570327E+03  0.20762475053E+04  0.23806756366E+04  0.50400001928E-02 0.  1.
</event>
<event>
 5   0  0.9341000E-08  0.3688777E+04  0.7818609E-02  0.8070453E-01
       -1   -1    0    0    0  501  0.00000000000E+00  0.00000000000E+00  0.23032299872E+04  0.23032299872E+04  0.50400001928E-02 0.  1.
        1   -1    0    0  501    0  0.00000000000E+00  0.00000000000E+00 -0.14769561767E+04  0.14769561767E+04  0.50400001928E-02 0. -1.
    10030    2    1    2    0    0  0.00000000000E+00  0.00000000000E+00  0.82627381056E+03  0.37801861639E+04  0.36887774429E+04 0.  0.
        4    1    3    3  502    0  0.15821445046E+04 -0.54407829207E+03 -0.38234983657E+03  0.17162154386E+04  0.12699999809E+01 0. -1.
       -4    1    3    3    0  502 -0.15821445046E+04  0.54407829207E+03  0.12086236471E+04  0.20639707252E+04  0.12699999809E+01 0.  1.
</event>
<event>
 5   0  0.9341000E-08  0.3708350E+04  0.7818609E-02  0.8066114E-01
        1   -1    0    0  501    0  0.00000000000E+00  0.00000000000E+00  0.18168920523E+04  0.18168920523E+04  0.50400001928E-02 0.  1.
       -1   -1    0    0    0  501  0.00000000000E+00  0.00000000000E+00 -0.18922231378E+04  0.18922231378E+04  0.50400001928E-02 0. -1.
    10030    2    1    2    0    0  0.00000000000E+00  0.00000000000E+00 -0.75331085455E+02  0.37091151901E+04  0.37083501346E+04 0.  0.
        1    1    3    3  502    0  0.15238252422E+04 -0.10137031423E+04  0.25959562122E+03  0.18485203045E+04  0.50400001928E-02 0.  1.
       -1    1    3    3    0  502 -0.15238252422E+04  0.10137031423E+04 -0.33492670667E+03  0.18605948856E+04  0.50400001928E-02 0. -1.
</event>
<event>
 5   0  0.9341000E-08  0.3756086E+04  0.7818609E-02  0.8055645E-01
       -1   -1    0    0    0  501  0.00000000000E+00  0.00000000000E+00  0.24826636324E+04  0.24826636324E+04  0.50400001928E-02 0. -1.
        1   -1    0    0  501    0  0.00000000000E+00  0.00000000000E+00 -0.14206697361E+04  0.14206697361E+04  0.50400001928E-02 0.  1.
    10030    2    1    2    0    0  0.00000000000E+00  0.00000000000E+00  0.10619938963E+04  0.39033333685E+04  0.37560857751E+04 0.  0.
        1    1    3    3  502    0 -0.10736887725E+04 -0.60981827063E+03 -0.93952372692E+03  0.15515768549E+04  0.50400001928E-02 0.  1.
       -1    1    3    3    0  502  0.10736887725E+04  0.60981827063E+03  0.20015176232E+04  0.23517565136E+04  0.50400001928E-02 0. -1.
</event>
<event>
 5   0  0.2897133E-07  0.3792015E+04  0.7818609E-02  0.8047871E-01
       -2   -1    0    0    0  501  0.00000000000E+00  0.00000000000E+00  0.18953144884E+04  0.18953144884E+04  0.25500000920E-02 0. -1.
        2   -1    0    0  501    0  0.00000000000E+00  0.00000000000E+00 -0.18967006572E+04  0.18967006572E+04  0.25500000920E-02 0.  1.
    10030    2    1    2    0    0  0.00000000000E+00  0.00000000000E+00 -0.13861687762E+01  0.37920151456E+04  0.37920148922E+04 0.  0.
        4    1    3    3  502    0  0.15878021575E+03  0.67531640238E+01  0.18886418085E+04  0.18953169276E+04  0.12699999809E+01 0. -1.
       -4    1    3    3    0  502 -0.15878021575E+03 -0.67531640238E+01 -0.18900279773E+04  0.18966982180E+04  0.12699999809E+01 0.  1.
</event>
<event>
 5   0  0.9418945E-08  0.3744401E+04  0.7818609E-02  0.8058193E-01
        1   -1    0    0  501    0  0.00000000000E+00  0.00000000000E+00  0.12707052530E+04  0.12707052530E+04  0.50400001928E-02 0.  1.
       -1   -1    0    0    0  501  0.00000000000E+00  0.00000000000E+00 -0.27584169916E+04  0.27584169916E+04  0.50400001928E-02 0. -1.
    10030    2    1    2    0    0  0.00000000000E+00  0.00000000000E+00 -0.14877117386E+04  0.40291222446E+04  0.37444011330E+04 0.  0.
        5    1    3    3  502    0 -0.65759979383E+03  0.27999094515E+02 -0.26298094866E+04  0.27109299999E+04  0.46999998093E+01 0. -1.
       -5    1    3    3    0  502  0.65759979383E+03 -0.27999094515E+02  0.11420977480E+04  0.13181922448E+04  0.46999998093E+01 0.  1.
</event>
<event>
 5   0  0.9646615E-08  0.3726780E+04  0.7818609E-02  0.8062053E-01
        1   -1    0    0  501    0  0.00000000000E+00  0.00000000000E+00  0.10874920022E+04  0.10874920022E+04  0.50400001928E-02 0. -1.
       -1   -1    0    0    0  501  0.00000000000E+00  0.00000000000E+00 -0.31928711914E+04  0.31928711914E+04  0.50400001928E-02 0.  1.
    10030    2    1    2    0    0  0.00000000000E+00  0.00000000000E+00 -0.21053791892E+04  0.42803631936E+04  0.37267797814E+04 0.  0.
        2    1    3    3  502    0  0.84081996478E+03  0.10050229714E+04 -0.25743116444E+04  0.28886207485E+04  0.25500000920E-02 0.  1.
       -2    1    3    3    0  502 -0.84081996478E+03 -0.10050229714E+04  0.46893245512E+03  0.13917424452E+04  0.25500000920E-02 0. -1.
</event>
<event>
 5   0  0.9341000E-08  0.3692693E+04  0.7818609E-02  0.8069583E-01
       -1   -1    0    0    0  501  0.00000000000E+00  0.00000000000E+00  0.16288202922E+04  0.16288202922E+04  0.50400001928E-02 0. -1.
        1   -1    0    0  501    0  0.00000000000E+00  0.00000000000E+00 -0.20929232010E+04  0.20929232010E+04  0.50400001928E-02 0.  1.
    10030    2    1    2    0    0  0.00000000000E+00  0.00000000000E+00 -0.46410290879E+03  0.37217434932E+04  0.36926932068E+04 0.  0.
        4    1    3    3  502    0  0.12241785087E+04  0.92033275148E+03  0.80725867839E+03  0.17312693555E+04  0.12699999809E+01 0. -1.
       -4    1    3    3    0  502 -0.12241785087E+04 -0.92033275148E+03 -0.12713615872E+04  0.19904741377E+04  0.12699999809E+01 0.  1.
</event>
<event>
 5   0  0.9341000E-08  0.3736262E+04  0.7818609E-02  0.8059973E-01
        1   -1    0    0  501    0  0.00000000000E+00  0.00000000000E+00  0.14258084891E+04  0.14258084891E+04  0.50400001928E-02 0. -1.
       -1   -1    0    0    0  501  0.00000000000E+00  0.00000000000E+00 -0.24476733724E+04  0.24476733724E+04  0.50400001928E-02 0.  1.
    10030    2    1    2    0    0  0.00000000000E+00  0.00000000000E+00 -0.10218648834E+04  0.38734818615E+04  0.37362620213E+04 0.  0.
        1    1    3    3  502    0  0.11308056639E+04  0.33014782435E+03  0.99221174832E+03  0.15401958281E+04  0.50400001928E-02 0. -1.
       -1    1    3    3    0  502 -0.11308056639E+04 -0.33014782435E+03 -0.20140766317E+04  0.23332860334E+04  0.50400001928E-02 0.  1.
</event>
<event>
 5   0  0.3032442E-07  0.3729569E+04  0.7818609E-02  0.8061440E-01
        2   -1    0    0  501    0  0.00000000000E+00  0.00000000000E+00  0.21492791818E+04  0.21492791818E+04  0.25500000920E-02 0. -1.
       -2   -1    0    0    0  501  0.00000000000E+00  0.00000000000E+00 -0.16179479721E+04  0.16179479721E+04  0.25500000920E-02 0.  1.
    10030    2    1    2    0    0  0.00000000000E+00  0.00000000000E+00  0.53133120971E+03  0.37672271539E+04  0.37295693551E+04 0.  0.
        3    1    3    3  502    0  0.27097991141E+03  0.94640644709E+03  0.18654204391E+04  0.21092436323E+04  0.10100000352E+00 0. -1.
       -3    1    3    3    0  502 -0.27097991141E+03 -0.94640644709E+03 -0.13340892294E+04  0.16579835216E+04  0.10100000352E+00 0.  1.
</event>
<event>
 5   0  0.9646615E-08  0.3695713E+04  0.7818609E-02  0.8068912E-01
        1   -1    0    0  501    0  0.00000000000E+00  0.00000000000E+00  0.18365098023E+04  0.18365098023E+04  0.50400001928E-02 0. -1.
       -1   -1    0    0    0  501  0.00000000000E+00  0.00000000000E+00 -0.18592736038E+04  0.18592736038E+04  0.50400001928E-02 0.  1.
    10030    2    1    2    0    0  0.00000000000E+00  0.00000000000E+00 -0.22763801516E+02  0.36957834061E+04  0.36957132998E+04 0.  0.
        2    1    3    3  502    0  0.47227420434E+03 -0.15196995576E+04  0.92780817243E+03  0.18421068574E+04  0.25500000920E-02 0.  1.
       -2    1    3    3    0  502 -0.47227420434E+03  0.15196995576E+04 -0.95057197395E+03  0.18536765487E+04  0.25500000920E-02 0. -1.
</event>
<event>
 5   0  0.3032442E-07  0.3695140E+04  0.7818609E-02  0.8069040E-01
       -2   -1    0    0    0  501  0.00000000000E+00  0.00000000000E+00  0.14043523084E+04  0.14043523084E+04  0.25500000920E-02 0.  1.
        2   -1    0    0  501    0  0.00000000000E+00  0.00000000000E+00 -0.24306690314E+04  0.24306690314E+04  0.25500000920E-02 0. -1.
    10030    2    1    2    0    0  0.00000000000E+00  0.00000000000E+00 -0.10263167230E+04  0.38350213398E+04  0.36951404115E+04 0.  0.
        3    1    3    3  502    0  0.10505292281E+04  0.23111204555E+03  0.10458687332E+04  0.15002885902E+04  0.10100000352E+00 0.  1.
       -3    1    3    3    0  502 -0.10505292281E+04 -0.23111204555E+03 -0.20721854562E+04  0.23347327495E+04  0.10100000352E+00 0. -1.
</event>
<event>
 5   0  0.9341000E-08  0.3699275E+04  0.7818609E-02  0.8068123E-01
       -3   -1    0    0    0  501  0.00000000000E+00  0.00000000000E+00  0.17951618048E+04  0.17951618076E+04  0.10100000352E+00 0.  1.
        3   -1    0    0  501    0  0.00000000000E+00  0.00000000000E+00 -0.19057661878E+04  0.19057661905E+04  0.10100000352E+00 0. -1.
    10030    2    1    2    0    0  0.00000000000E+00  0.00000000000E+00 -0.11060438304E+03  0.37009279981E+04  0.36992748908E+04 0.  0.
        1    1    3    3  502    0  0.62644036535E+03  0.48348569422E+03  0.16172620934E+04  0.18004784438E+04  0.50400001928E-02 0.  1.
       -1    1    3    3    0  502 -0.62644036535E+03 -0.48348569422E+03 -0.17278664765E+04  0.19004495543E+04  0.50400001928E-02 0. -1.
</event>
<event>
 5   0  0.3032442E-07  0.3647233E+04  0.7818609E-02  0.8079757E-01
       -2   -1    0    0    0  501  0.00000000000E+00  0.00000000000E+00  0.20852668335E+04  0.20852668335E+04  0.25500000920E-02 0.  1.
        2   -1    0    0  501    0  0.00000000000E+00  0.00000000000E+00 -0.15947968368E+04  0.15947968368E+04  0.25500000920E-02 0. -1.
    10030    2    1    2    0    0  0.00000000000E+00  0.00000000000E+00  0.49046999670E+03  0.36800636702E+04  0.36472328962E+04 0.  0.
        3    1    3    3  502    0 -0.12894238268E+04  0.85136883925E+03 -0.73205696736E+03  0.17097807226E+04  0.10100000352E+00 0. -1.
       -3    1    3    3    0  502  0.12894238268E+04 -0.85136883925E+03  0.12225269641E+04  0.19702829476E+04  0.10100000352E+00 0.  1.
</event>
<event>
 5   0  0.9341000E-08  0.3672906E+04  0.7818609E-02  0.8073993E-01
        1   -1    0    0  501    0  0.00000000000E+00  0.00000000000E+00  0.26230330341E+04  0.26230330341E+04  0.50400001928E-02 0. -1.
       -1   -1    0    0    0  501  0.00000000000E+00  0.00000000000E+00 -0.12857477141E+04  0.12857477141E+04  0.50400001928E-02 0.  1.
    10030    2    1    2    0    0  0.00000000000E+00  0.00000000000E+00  0.13372853200E+04  0.39087807482E+04  0.36729055135E+04 0.  0.
        3    1    3    3  502    0  0.14031805065E+04 -0.46172341136E+03 -0.49250643215E+03  0.15571341105E+04  0.10100000352E+00 0.  1.
       -3    1    3    3    0  502 -0.14031805065E+04  0.46172341136E+03  0.18297917521E+04  0.23516466377E+04  0.10100000352E+00 0. -1.
</event>
<event>
 5   0  0.9418945E-08  0.3405809E+04  0.7818609E-02  0.8136482E-01
       -1   -1    0    0    0  501  0.00000000000E+00  0.00000000000E+00  0.17739946755E+04  0.17739946755E+04  0.50400001928E-02 0. -1.
        1   -1    0    0  501    0  0.00000000000E+00  0.00000000000E+00 -0.16346627830E+04  0.16346627830E+04  0.50400001928E-02 0.  1.
    10030    2    1    2    0    0  0.00000000000E+00  0.00000000000E+00  0.13933189253E+03  0.34086574585E+04  0.34058086108E+04 0.  0.
        5    1    3    3  502    0  0.46510566890E+03 -0.11174899748E+04  0.12684799892E+04  0.17533313150E+04  0.46999998093E+01 0. -1.
       -5    1    3    3    0  502 -0.46510566890E+03  0.11174899748E+04 -0.11291480967E+04  0.16553261435E+04  0.46999998093E+01 0.  1.
</event>
<event>
 5   0  0.2913025E-07  0.3698449E+04  0.7818609E-02  0.8068306E-01
       -2   -1    0    0    0  501  0.00000000000E+00  0.00000000000E+00  0.11543302877E+04  0.11543302877E+04  0.25500000920E-02 0.  1.
        2   -1    0    0  501    0  0.00000000000E+00  0.00000000000E+00 -0.29624380462E+04  0.29624380462E+04  0.25500000920E-02 0. -1.
    10030    2    1    2    0    0  0.00000000000E+00  0.00000000000E+00 -0.18081077585E+04  0.41167683339E+04  0.36984493844E+04 0.  0.
        5    1    3    3  502    0  0.20677902551E+03 -0.11472097559E+03  0.11374246727E+04  0.11617553287E+04  0.46999998093E+01 0.  1.
       -5    1    3    3    0  502 -0.20677902551E+03  0.11472097559E+03 -0.29455324312E+04  0.29550130052E+04  0.46999998093E+01 0. -1.
</event>
<event>
 5   0  0.9341000E-08  0.3698623E+04  0.7818609E-02  0.8068267E-01
        1   -1    0    0  501    0  0.00000000000E+00  0.00000000000E+00  0.18012030139E+04  0.18012030139E+04  0.50400001928E-02 0.  1.
       -1   -1    0    0    0  501  0.00000000000E+00  0.00000000000E+00 -0.18987047189E+04  0.18987047189E+04  0.50400001928E-02 0. -1.
    10030    2    1    2    0    0  0.00000000000E+00  0.00000000000E+00 -0.97501704984E+02  0.36999077328E+04  0.36986228044E+04 0.  0.
        3    1    3    3  502    0 -0.49649947205E+02 -0.91256629311E+03 -0.16570128031E+04  0.18923355401E+04  0.10100000352E+00 0. -1.
       -3    1    3    3    0  502  0.49649947205E+02  0.91256629311E+03  0.15595110981E+04  0.18075721927E+04  0.10100000352E+00 0.  1.
</event>
<event>
 5   0  0.9646615E-08  0.3697416E+04  0.7818609E-02  0.8068535E-01
       -1   -1    0    0    0  501  0.00000000000E+00  0.00000000000E+00  0.13576175571E+04  0.13576175571E+04  0.50400001928E-02 0.  1.
        1   -1    0    0  501    0  0.00000000000E+00  0.00000000000E+00 -0.25174406209E+04  0.25174406209E+04  0.50400001928E-02 0. -1.
    10030    2    1    2    0    0  0.00000000000E+00  0.00000000000E+00 -0.11598230638E+04  0.38750581780E+04  0.36974161713E+04 0.  0.
        2    1    3    3  502    0 -0.15937757189E+04 -0.52464341329E+03  0.23348869243E+03  0.16940745918E+04  0.25500000920E-02 0.  1.
       -2    1    3    3    0  502  0.15937757189E+04  0.52464341329E+03 -0.13933117562E+04  0.21809835862E+04  0.25500000920E-02 0. -1.
</event>
<event>
 5   0  0.3008879E-07  0.3709330E+04  0.7818609E-02  0.8065897E-01
       -2   -1    0    0    0  501  0.00000000000E+00  0.00000000000E+00  0.14409967857E+04  0.14409967857E+04  0.25500000920E-02 0.  1.
        2   -1    0    0  501    0  0.00000000000E+00  0.00000000000E+00 -0.23870849876E+04  0.23870849876E+04  0.25500000920E-02 0. -1.
    10030    2    1    2    0    0  0.00000000000E+00  0.00000000000E+00 -0.94608820190E+03  0.38280817734E+04  0.37093297478E+04 0.  0.
        2    1    3    3  502    0  0.69806869877E+03 -0.25965859133E+02  0.13000418620E+04  0.14758329774E+04  0.25500000920E-02 0.  1.
       -2    1    3    3    0  502 -0.69806869877E+03  0.25965859133E+02 -0.22461300639E+04  0.23522487960E+04  0.25500000920E-02 0. -1.
</event>
<event>
 5   0  0.3008879E-07  0.3670761E+04  0.7818609E-02  0.8074473E-01
       -2   -1    0    0    0  501  0.00000000000E+00  0.00000000000E+00  0.12714416975E+04  0.12714416975E+04  0.25500000920E-02 0. -1.
        2   -1    0    0  501    0  0.00000000000E+00  0.00000000000E+00 -0.26494501727E+04  0.26494501727E+04  0.25500000920E-02 0.  1.
    10030    2    1    2    0    0  0.00000000000E+00  0.00000000000E+00 -0.13780084752E+04  0.39208918702E+04  0.36707609156E+04 0.  0.
        2    1    3    3  502    0 -0.17461570876E+04 -0.53815022113E+03 -0.50414727779E+03  0.18954774366E+04  0.25500000920E-02 0.  1.
       -2    1    3    3    0  502  0.17461570876E+04  0.53815022113E+03 -0.87386119742E+03  0.20254144335E+04  0.25500000920E-02 0. -1.
</event>
<event>
 5   0  0.2897133E-07  0.3695443E+04  0.7818609E-02  0.8068973E-01
       -2   -1    0    0    0  501  0.00000000000E+00  0.00000000000E+00  0.15863124121E+04  0.15863124121E+04  0.25500000920E-02 0.  1.
        2   -1    0    0  501    0  0.00000000000E+00  0.00000000000E+00 -0.21522079806E+04  0.21522079806E+04  0.25500000920E-02 0. -1.
    10030    2    1    2    0    0  0.00000000000E+00  0.00000000000E+00 -0.56589556849E+03  0.37385203926E+04  0.36954427247E+04 0.  0.
        4    1    3    3  502    0  0.82024585716E+03  0.10170034075E+04  0.10387941171E+04  0.16691896320E+04  0.12699999809E+01 0. -1.
       -4    1    3    3    0  502 -0.82024585716E+03 -0.10170034075E+04 -0.16046896856E+04  0.20693307606E+04  0.12699999809E+01 0.  1.
</event>
<event>
 5   0  0.2996969E-07  0.3687588E+04  0.7818609E-02  0.8070718E-01
        2   -1    0    0  501    0  0.00000000000E+00  0.00000000000E+00  0.23066878680E+04  0.23066878680E+04  0.25500000920E-02 0. -1.
       -2   -1    0    0    0  501  0.00000000000E+00  0.00000000000E+00 -0.14737915064E+04  0.14737915064E+04  0.25500000920E-02 0.  1.
    10030    2    1    2    0    0  0.00000000000E+00  0.00000000000E+00  0.83289636157E+03  0.37804793744E+04  0.36875883652E+04 0.  0.
        1    1    3    3  502    0  0.15907975631E+04  0.70056411002E+03 -0.21398128845E+03  0.17513466107E+04  0.50400001928E-02 0.  1.
       -1    1    3    3    0  502 -0.15907975631E+04 -0.70056411002E+03  0.10468776500E+04  0.20291327638E+04  0.50400001928E-02 0. -1.
</event>
<event>
 5   0  0.9646615E-08  0.3744188E+04  0.7818609E-02  0.8058239E-01
       -1   -1    0    0    0  501  0.00000000000E+00  0.00000000000E+00  0.13829827297E+04  0.13829827297E+04  0.50400001928E-02 0. -1.
        1   -1    0    0  501    0  0.00000000000E+00  0.00000000000E+00 -0.25341863955E+04  0.25341863955E+04  0.50400001928E-02 0.  1.
    10030    2    1    2    0    0  0.00000000000E+00  0.00000000000E+00 -0.11512036658E+04  0.39171691252E+04  0.37441880395E+04 0.  0.
        2    1    3    3  502    0 -0.13447245686E+04 -0.21807402537E+03  0.76781642746E+03  0.15637718863E+04  0.25500000920E-02 0. -1.
       -2    1    3    3    0  502  0.13447245686E+04  0.21807402537E+03 -0.19190200932E+04  0.23533972389E+04  0.25500000920E-02 0.  1.
</event>
<event>
 5   0  0.2897133E-07  0.3690831E+04  0.7818609E-02  0.8069997E-01
        2   -1    0    0  501    0  0.00000000000E+00  0.00000000000E+00  0.28231788165E+04  0.28231788165E+04  0.25500000920E-02 0. -1.
       -2   -1    0    0    0  501  0.00000000000E+00  0.00000000000E+00 -0.12062849578E+04  0.12062849578E+04  0.25500000920E-02 0.  1.
    10030    2    1    2    0    0  0.00000000000E+00  0.00000000000E+00  0.16168938586E+04  0.40294637743E+04  0.36908308764E+04 0.  0.
        4    1    3    3  502    0  0.64593966740E+03  0.15620318113E+03 -0.10711134379E+04  0.12605249294E+04  0.12699999809E+01 0.  1.
       -4    1    3    3    0  502 -0.64593966740E+03 -0.15620318113E+03  0.26880072966E+04  0.27689388450E+04  0.12699999809E+01 0. -1.
</event>
<event>
 5   0  0.3032442E-07  0.3686471E+04  0.7818609E-02  0.8070967E-01
       -2   -1    0    0    0  501  0.00000000000E+00  0.00000000000E+00  0.12835789440E+04  0.12835789440E+04  0.25500000920E-02 0. -1.
        2   -1    0    0  501    0  0.00000000000E+00  0.00000000000E+00 -0.26469096939E+04  0.26469096939E+04  0.25500000920E-02 0.  1.
    10030    2    1    2    0    0  0.00000000000E+00  0.00000000000E+00 -0.13633307500E+04  0.39304886379E+04  0.36864712394E+04 0.  0.
        3    1    3    3  502    0 -0.17871067172E+04  0.38071011744E+03 -0.94026255059E+03  0.20549414314E+04  0.10100000352E+00 0. -1.
       -3    1    3    3    0  502  0.17871067172E+04 -0.38071011744E+03 -0.42306819937E+03  0.18755472065E+04  0.10100000352E+00 0.  1.
</event>
<event>
 5   0  0.9341000E-08  0.3657589E+04  0.7818609E-02  0.8077426E-01
       -1   -1    0    0    0  501  0.00000000000E+00  0.00000000000E+00  0.18237411026E+04  0.18237411026E+04  0.50400001928E-02 0. -1.
        1   -1    0    0  501    0  0.00000000000E+00  0.00000000000E+00 -0.18338617507E+04  0.18338617507E+04  0.50400001928E-02 0.  1.
    10030    2    1    2    0    0  0.00000000000E+00  0.00000000000E+00 -0.10120648073E+02  0.36576028533E+04  0.36575888513E+04 0.  0.
        3    1    3    3  502    0  0.78847176580E+03  0.98313891343E+03  0.13201764997E+04  0.18251344743E+04  0.10100000352E+00 0. -1.
       -3    1    3    3    0  502 -0.78847176580E+03 -0.98313891343E+03 -0.13302971478E+04  0.18324683790E+04  0.10100000352E+00 0.  1.
</event>
<event>
 5   0  0.2913025E-07  0.3677293E+04  0.7818609E-02  0.8073013E-01
        2   -1    0    0  501    0  0.00000000000E+00  0.00000000000E+00  0.22202716648E+04  0.22202716648E+04  0.25500000920E-02 0. -1.
       -2   -1    0    0    0  501  0.00000000000E+00  0.00000000000E+00 -0.15226160984E+04  0.15226160984E+04  0.25500000920E-02 0.  1.
    10030    2    1    2    0    0  0.00000000000E+00  0.00000000000E+00  0.69765556644E+03  0.37428877632E+04  0.36772932326E+04 0.  0.
        5    1    3    3  502    0  0.12284156741E+04  0.13370991358E+04  0.64340366942E+03  0.19263513541E+04  0.46999998093E+01 0. -1.
       -5    1    3    3    0  502 -0.12284156741E+04 -0.13370991358E+04  0.54251897018E+02  0.18165364092E+04  0.46999998093E+01 0.  1.
</event>
<event>
 5   0  0.9341000E-08  0.3717912E+04  0.7818609E-02  0.8064004E-01
       -1   -1    0    0    0  501  0.00000000000E+00  0.00000000000E+00  0.13599070803E+04  0.13599070803E+04  0.50400001928E-02 0.  1.
        1   -1    0    0  501    0  0.00000000000E+00  0.00000000000E+00 -0.25411427491E+04  0.25411427492E+04  0.50400001928E-02 0. -1.
    10030    2    1    2    0    0  0.00000000000E+00  0.00000000000E+00 -0.11812356688E+04  0.39010498295E+04  0.37179123264E+04 0.  0.
        4    1    3    3  502    0 -0.40714180390E+03  0.71522452099E+03  0.11583434465E+04  0.14209404340E+04  0.12699999809E+01 0.  1.
       -4    1    3    3    0  502  0.40714180390E+03 -0.71522452099E+03 -0.23395791153E+04  0.24801093955E+04  0.12699999809E+01 0. -1.
</event>
<event>
 5   0  0.2996969E-07  0.3689009E+04  0.7818609E-02  0.8070402E-01
        2   -1    0    0  501    0  0.00000000000E+00  0.00000000000E+00  0.22310318910E+04  0.22310318910E+04  0.25500000920E-02 0. -1.
       -2   -1    0    0    0  501  0.00000000000E+00  0.00000000000E+00 -0.15249432510E+04  0.15249432510E+04  0.25500000920E-02 0.  1.
    10030    2    1    2    0    0  0.00000000000E+00  0.00000000000E+00  0.70608864002E+03  0.37559751420E+04  0.36890090945E+04 0.  0.
        1    1    3    3  502    0  0.13506734865E+04 -0.10485928191E+04  0.10572140695E+04  0.20103649808E+04  0.50400001928E-02 0. -1.
       -1    1    3    3    0  502 -0.13506734865E+04  0.10485928191E+04 -0.35112542949E+03  0.17456101611E+04  0.50400001928E-02 0.  1.
</event>
<event>
 5   0  0.3008879E-07  0.3749557E+04  0.7818609E-02  0.8057067E-01
        2   -1    0    0  501    0  0.00000000000E+00  0.00000000000E+00  0.15038534067E+04  0.15038534067E+04  0.25500000920E-02 0. -1.
       -2   -1    0    0    0  501  0.00000000000E+00  0.00000000000E+00 -0.23371917227E+04  0.23371917227E+04  0.25500000920E-02 0.  1.
    10030    2    1    2    0    0  0.00000000000E+00  0.00000000000E+00 -0.83333831596E+03  0.38410451294E+04  0.37495566321E+04 0.  0.
        2    1    3    3  502    0 -0.56703430543E+03  0.31899986574E+03 -0.22178381557E+04  0.23112972338E+04  0.25500000920E-02 0.  1.
       -2    1    3    3    0  502  0.56703430543E+03 -0.31899986574E+03  0.13844998398E+04  0.15297478956E+04  0.25500000920E-02 0. -1.
</event>
<event>
 5   0  0.9341000E-08  0.3705216E+04  0.7818609E-02  0.8066807E-01
        3   -1    0    0  501    0  0.00000000000E+00  0.00000000000E+00  0.16170442765E+04  0.16170442796E+04  0.10100000352E+00 0. -1.
       -3   -1    0    0    0  501  0.00000000000E+00  0.00000000000E+00 -0.21224873486E+04  0.21224873510E+04  0.10100000352E+00 0.  1.
    10030    2    1    2    0    0  0.00000000000E+00  0.00000000000E+00 -0.50544307214E+03  0.37395316307E+04  0.37052157991E+04 0.  0.
        2    1    3    3  502    0 -0.11428218353E+04  0.95854588046E+03  0.85622864831E+03  0.17198777429E+04  0.25500000920E-02 0. -1.
       -2    1    3    3    0  502  0.11428218353E+04 -0.95854588046E+03 -0.13616717204E+04  0.20196538878E+04  0.25500000920E-02 0.  1.
</event>
<event>
 5   0  0.2897133E-07  0.3657334E+04  0.7818609E-02  0.8077484E-01
        2   -1    0    0  501    0  0.00000000000E+00  0.00000000000E+00  0.31341820726E+04  0.31341820726E+04  0.25500000920E-02 0. -1.
       -2   -1    0    0    0  501  0.00000000000E+00  0.00000000000E+00 -0.10669521345E+04  0.10669521345E+04  0.25500000920E-02 0.  1.
    10030    2    1    2    0    0  0.00000000000E+00  0.00000000000E+00  0.20672299381E+04  0.42011342070E+04  0.36573335928E+04 0.  0.
        4    1    3    3  502    0 -0.14292166868E+04  0.12130513913E+03 -0.26934601198E+03  0.14594259699E+04  0.12699999809E+01 0.  1.
       -4    1    3    3    0  502  0.14292166868E+04 -0.12130513913E+03  0.23365759500E+04  0.27417082372E+04  0.12699999809E+01 0. -1.
</event>
<event>
 5   0  0.2913025E-07  0.3682523E+04  0.7818609E-02  0.8071846E-01
        2   -1    0    0  501    0  0.00000000000E+00  0.00000000000E+00  0.20842279229E+04  0.20842279229E+04  0.25500000920E-02 0. -1.
       -2   -1    0    0    0  501  0.00000000000E+00  0.00000000000E+00 -0.16266187699E+04  0.16266187699E+04  0.25500000920E-02 0.  1.
    10030    2    1    2    0    0  0.00000000000E+00  0.00000000000E+00  0.45760915300E+03  0.37108466928E+04  0.36825231894E+04 0.  0.
        5    1    3    3  502    0  0.10343189507E+04  0.19174173954E+02  0.17636871278E+04  0.20446999084E+04  0.46999998093E+01 0. -1.
       -5    1    3    3    0  502 -0.10343189507E+04 -0.19174173954E+02 -0.13060779748E+04  0.16661467843E+04  0.46999998093E+01 0.  1.
</event>
<event>
 5   0  0.9341000E-08  0.3698439E+04  0.7818609E-02  0.8068308E-01
       -1   -1    0    0    0  501  0.00000000000E+00  0.00000000000E+00  0.20610624196E+04  0.20610624196E+04  0.50400001928E-02 0. -1.
        1   -1    0    0  501    0  0.00000000000E+00  0.00000000000E+00 -0.16591507283E+04  0.16591507283E+04  0.50400001928E-02 0.  1.
    10030    2    1    2    0    0  0.00000000000E+00  0.00000000000E+00  0.40191169130E+03  0.37202131478E+04  0.36984392462E+04 0.  0.
        4    1    3    3  502    0  0.93242785801E+03 -0.15825446939E+04 -0.14177522699E+02  0.18368647293E+04  0.12699999809E+01 0.  1.
       -4    1    3    3    0  502 -0.93242785801E+03  0.15825446939E+04  0.41608921400E+03  0.18833484185E+04  0.12699999809E+01 0. -1.
</event>
<event>
 5   0  0.3032442E-07  0.3721008E+04  0.7818609E-02  0.8063322E-01
       -2   -1    0    0    0  501  0.00000000000E+00  0.00000000000E+00  0.18276827678E+04  0.18276827678E+04  0.25500000920E-02 0.  1.
        2   -1    0    0  501    0  0.00000000000E+00  0.00000000000E+00 -0.18939142130E+04  0.18939142130E+04  0.25500000920E-02 0. -1.
    10030    2    1    2    0    0  0.00000000000E+00  0.00000000000E+00 -0.66231445235E+02  0.37215969808E+04  0.37210075898E+04 0.  0.
        3    1    3    3  502    0 -0.13403353603E+04  0.12577751618E+04  0.25498740702E+03  0.18556712596E+04  0.10100000352E+00 0. -1.
       -3    1    3    3    0  502  0.13403353603E+04 -0.12577751618E+04 -0.32121885226E+03  0.18659257212E+04  0.10100000352E+00 0.  1.
</event>
<event>
 5   0  0.9341000E-08  0.3687129E+04  0.7818609E-02  0.8070820E-01
       -3   -1    0    0    0  501  0.00000000000E+00  0.00000000000E+00  0.11700823503E+04  0.11700823547E+04  0.10100000352E+00 0.  1.
        3   -1    0    0  501    0  0.00000000000E+00  0.00000000000E+00 -0.29046924069E+04  0.29046924087E+04  0.10100000352E+00 0. -1.
    10030    2    1    2    0    0  0.00000000000E+00  0.00000000000E+00 -0.17346100566E+04  0.40747747634E+04  0.36871286015E+04 0.  0.
        5    1    3    3  502    0  0.94528708873E+03 -0.93735405015E+03  0.54212423211E+03  0.14374008030E+04  0.46999998093E+01 0.  1.
       -5    1    3    3    0  502 -0.94528708873E+03  0.93735405015E+03 -0.22767342887E+04  0.26373739604E+04  0.46999998093E+01 0. -1.
</event>
<event>
 5   0  0.9341000E-08  0.3782351E+04  0.7818609E-02  0.8049953E-01
        1   -1    0    0  501    0  0.00000000000E+00  0.00000000000E+00  0.20208047513E+04  0.20208047513E+04  0.50400001928E-02 0.  1.
       -1   -1    0    0    0  501  0.00000000000E+00  0.00000000000E+00 -0.17698616514E+04  0.17698616514E+04  0.50400001928E-02 0. -1.
    10030    2    1    2    0    0  0.00000000000E+00  0.00000000000E+00  0.25094309990E+03  0.37906664027E+04  0.37823510331E+04 0.  0.
        3    1    3    3  502    0 -0.80749560049E+03 -0.16841918716E+04  0.42276054289E+03  0.19150138099E+04  0.10100000352E+00 0. -1.
       -3    1    3    3    0  502  0.80749560049E+03  0.16841918716E+04 -0.17181744299E+03  0.18756525929E+04  0.10100000352E+00 0.  1.
</event>
<event>
 5   0  0.9341000E-08  0.3693725E+04  0.7818609E-02  0.8069354E-01
        1   -1    0    0  501    0  0.00000000000E+00  0.00000000000E+00  0.20002330491E+04  0.20002330491E+04  0.50400001928E-02 0.  1.
       -1   -1    0    0    0  501  0.00000000000E+00  0.00000000000E+00 -0.17052516761E+04  0.17052516761E+04  0.50400001928E-02 0. -1.
    10030    2    1    2    0    0  0.00000000000E+00  0.00000000000E+00  0.29498137295E+03  0.37054847252E+04  0.36937248190E+04 0.  0.
        3    1    3    3  502    0  0.69594423128E+03  0.12034487757E+04 -0.10722229351E+04  0.17556449987E+04  0.10100000352E+00 0. -1.
       -3    1    3    3    0  502 -0.69594423128E+03 -0.12034487757E+04  0.13672043081E+04  0.19498397265E+04  0.10100000352E+00 0.  1.
</event>
<event>
 5   0  0.9341000E-08  0.3703262E+04  0.7818609E-02  0.8067239E-01
       -1   -1    0    0    0  501  0.00000000000E+00  0.00000000000E+00  0.15519589942E+04  0.15519589942E+04  0.50400001928E-02 0.  1.
        1   -1    0    0  501    0  0.00000000000E+00  0.00000000000E+00 -0.22091670893E+04  0.22091670893E+04  0.50400001928E-02 0. -1.
    10030    2    1    2    0    0  0.00000000000E+00  0.00000000000E+00 -0.65720809505E+03  0.37611260835E+04  0.37032616618E+04 0.  0.
        1    1    3    3  502    0  0.18210175097E+04 -0.33400262128E+03 -0.29857496951E+03  0.18753158491E+04  0.50400001928E-02 0.  1.
       -1    1    3    3    0  502 -0.18210175097E+04  0.33400262128E+03 -0.35863312554E+03  0.18858102344E+04  0.50400001928E-02 0. -1.
</event>
<event>
 5   0  0.3032442E-07  0.3685446E+04  0.7818609E-02  0.8071195E-01
        2   -1    0    0  501    0  0.00000000000E+00  0.00000000000E+00  0.18625353238E+04  0.18625353238E+04  0.25500000920E-02 0.  1.
       -2   -1    0    0    0  501  0.00000000000E+00  0.00000000000E+00 -0.18231217803E+04  0.18231217803E+04  0.25500000920E-02 0. -1.
    10030    2    1    2    0    0  0.00000000000E+00  0.00000000000E+00  0.39413543503E+02  0.36856571041E+04  0.36854463585E+04 0.  0.
        3    1    3    3  502    0 -0.14336175000E+04 -0.11832281136E+03 -0.11320401525E+04  0.18305120434E+04  0.10100000352E+00 0.  1.
       -3    1    3    3    0  502  0.14336175000E+04  0.11832281136E+03  0.11714536960E+04  0.18551450607E+04  0.10100000352E+00 0. -1.
</event>
<event>
 5   0  0.3032442E-07  0.3682959E+04  0.7818609E-02  0.8071749E-01
        2   -1    0    0  501    0  0.00000000000E+00  0.00000000000E+00  0.23501463099E+04  0.23501463099E+04  0.25500000920E-02 0.  1.
       -2   -1    0    0    0  501  0.00000000000E+00  0.00000000000E+00 -0.14429091317E+04  0.14429091317E+04  0.25500000920E-02 0. -1.
    10030    2    1    2    0    0  0.00000000000E+00  0.00000000000E+00  0.90723717825E+03  0.37930554416E+04  0.36829594466E+04 0.  0.
        3    1    3    3  502    0  0.71197779178E+03 -0.13794584897E+04 -0.56656314464E+03  0.16525168404E+04  0.10100000352E+00 0. -1.
       -3    1    3    3    0  502 -0.71197779178E+03  0.13794584897E+04  0.14738003229E+04  0.21405386011E+04  0.10100000352E+00 0.  1.
</event>
<event>
 5   0  0.2913025E-07  0.3627734E+04  0.7818609E-02  0.8084168E-01
       -2   -1    0    0    0  501  0.00000000000E+00  0.00000000000E+00  0.12682965130E+04  0.12682965130E+04  0.25500000920E-02 0.  1.
        2   -1    0    0  501    0  0.00000000000E+00  0.00000000000E+00 -0.25941200682E+04  0.25941200682E+04  0.25500000920E-02 0. -1.
    10030    2    1    2    0    0  0.00000000000E+00  0.00000000000E+00 -0.13258235551E+04  0.38624165812E+04  0.36277339687E+04 0.  0.
        5    1    3    3  502    0 -0.78384476080E+03 -0.27504395717E+03 -0.23796845780E+04  0.25205123622E+04  0.46999998093E+01 0. -1.
       -5    1    3    3    0  502  0.78384476080E+03  0.27504395717E+03  0.10538610229E+04  0.13419042190E+04  0.46999998093E+01 0.  1.
</event>
<event>
 5   0  0.9341000E-08  0.3729603E+04  0.7818609E-02  0.8061433E-01
       -1   -1    0    0    0  501  0.00000000000E+00  0.00000000000E+00  0.14298075499E+04  0.14298075499E+04  0.50400001928E-02 0.  1.
        1   -1    0    0  501    0  0.00000000000E+00  0.00000000000E+00 -0.24321342368E+04  0.24321342368E+04  0.50400001928E-02 0. -1.
    10030    2    1    2    0    0  0.00000000000E+00  0.00000000000E+00 -0.10023266868E+04  0.38619417867E+04  0.37296026031E+04 0.  0.
        4    1    3    3  502    0 -0.92850540303E+03  0.14713917010E+04 -0.11960695393E+04  0.21113265443E+04  0.12699999809E+01 0. -1.
       -4    1    3    3    0  502  0.92850540303E+03 -0.14713917010E+04  0.19374285244E+03  0.17506152424E+04  0.12699999809E+01 0.  1.
</event>
<event>
 5   0  0.9341000E-08  0.3681643E+04  0.7818609E-02  0.8072042E-01
       -1   -1    0    0    0  501  0.00000000000E+00  0.00000000000E+00  0.12871835476E+04  0.12871835476E+04  0.50400001928E-02 0.  1.
        1   -1    0    0  501    0  0.00000000000E+00  0.00000000000E+00 -0.26325881782E+04  0.26325881782E+04  0.50400001928E-02 0. -1.
    10030    2    1    2    0    0  0.00000000000E+00  0.00000000000E+00 -0.13454046306E+04  0.39197717258E+04  0.36816432150E+04 0.  0.
        1    1    3    3  502    0 -0.44076963378E+03 -0.11097096089E+01 -0.25755761424E+04  0.26130196261E+04  0.50400001928E-02 0. -1.
       -1    1    3    3    0  502  0.44076963378E+03  0.11097096089E+01  0.12301715118E+04  0.13067520997E+04  0.50400001928E-02 0.  1.
</event>
<event>
 5   0  0.3008879E-07  0.3756807E+04  0.7818609E-02  0.8055488E-01
        2   -1    0    0  501    0  0.00000000000E+00  0.00000000000E+00  0.17538003939E+04  0.17538003939E+04  0.25500000920E-02 0.  1.
       -2   -1    0    0    0  501  0.00000000000E+00  0.00000000000E+00 -0.20118595191E+04  0.20118595191E+04  0.25500000920E-02 0. -1.
    10030    2    1    2    0    0  0.00000000000E+00  0.00000000000E+00 -0.25805912519E+03  0.37656599130E+04  0.37568071641E+04 0.  0.
        2    1    3    3  502    0  0.11059634693E+04 -0.14255222125E+04  0.39482156441E+03  0.18469306542E+04  0.25500000920E-02 0. -1.
       -2    1    3    3    0  502 -0.11059634693E+04  0.14255222125E+04 -0.65288068960E+03  0.19187292588E+04  0.25500000920E-02 0.  1.
</event>
<event>
 5   0  0.3032442E-07  0.3698592E+04  0.7818609E-02  0.8068274E-01
       -2   -1    0    0    0  501  0.00000000000E+00  0.00000000000E+00  0.20541573152E+04  0.20541573152E+04  0.25500000920E-02 0.  1.
        2   -1    0    0  501    0  0.00000000000E+00  0.00000000000E+00 -0.16648654174E+04  0.16648654174E+04  0.25500000920E-02 0. -1.
    10030    2    1    2    0    0  0.00000000000E+00  0.00000000000E+00  0.38929189784E+03  0.37190227326E+04  0.36985918812E+04 0.  0.
        3    1    3    3  502    0  0.12747280443E+04  0.41019593800E+03 -0.10878221699E+04  0.17252679148E+04  0.10100000352E+00 0. -1.
       -3    1    3    3    0  502 -0.12747280443E+04 -0.41019593800E+03  0.14771140677E+04  0.19937548178E+04  0.10100000352E+00 0.  1.
</event>
<event>
 5   0  0.9341000E-08  0.3699445E+04  0.7818609E-02  0.8068085E-01
        1   -1    0    0  501    0  0.00000000000E+00  0.00000000000E+00  0.27437895736E+04  0.27437895736E+04  0.50400001928E-02 0.  1.
       -1   -1    0    0    0  501  0.00000000000E+00  0.00000000000E+00 -0.12469883000E+04  0.12469883000E+04  0.50400001928E-02 0. -1.
    10030    2    1    2    0    0  0.00000000000E+00  0.00000000000E+00  0.14968012736E+04  0.39907778736E+04  0.36994450913E+04 0.  0.
        1    1    3    3  502    0 -0.19524252240E+03  0.17242155081E+04  0.57297245917E+02  0.17361802140E+04  0.50400001928E-02 0. -1.
       -1    1    3    3    0  502  0.19524252240E+03 -0.17242155081E+04  0.14395040277E+04  0.22545976596E+04  0.50400001928E-02 0.  1.
</event>
<event>
 5   0  0.2913025E-07  0.3705939E+04  0.7818609E-02  0.8066647E-01
       -2   -1    0    0    0  501  0.00000000000E+00  0.00000000000E+00  0.20035824958E+04  0.20035824958E+04  0.25500000920E-02 0. -1.
        2   -1    0    0  501    0  0.00000000000E+00  0.00000000000E+00 -0.17136780197E+04  0.17136780197E+04  0.25500000920E-02 0.  1.
    10030    2    1    2    0    0  0.00000000000E+00  0.00000000000E+00  0.28990447617E+03  0.37172605155E+04  0.37059386307E+04 0.  0.
        5    1    3    3  502    0  0.91190666386E+00 -0.13093114883E+04 -0.11702269221E+04  0.17560610878E+04  0.46999998093E+01 0.  1.
       -5    1    3    3    0  502 -0.91190666386E+00  0.13093114883E+04  0.14601313982E+04  0.19611994277E+04  0.46999998093E+01 0. -1.
</event>
<event>
 5   0  0.9341000E-08  0.3645605E+04  0.7818609E-02  0.8080124E-01
        1   -1    0    0  501    0  0.00000000000E+00  0.00000000000E+00  0.14247428598E+04  0.14247428598E+04  0.50400001928E-02 0.  1.
       -1   -1    0    0    0  501  0.00000000000E+00  0.00000000000E+00 -0.23320764859E+04  0.23320764859E+04  0.50400001928E-02 0. -1.
    10030    2    1    2    0    0  0.00000000000E+00  0.00000000000E+00 -0.90733362608E+03  0.37568193456E+04  0.36456052017E+04 0.  0.
        1    1    3    3  502    0  0.16375495518E+04  0.44874229191E+03 -0.11369719055E+04  0.20434390847E+04  0.50400001928E-02 0. -1.
       -1    1    3    3    0  502 -0.16375495518E+04 -0.44874229191E+03  0.22963827945E+03  0.17133802609E+04  0.50400001928E-02 0.  1.
</event>
<event>
 5   0  0.9418945E-08  0.3705065E+04  0.7818609E-02  0.8066840E-01
        1   -1    0    0  501    0  0.00000000000E+00  0.00000000000E+00  0.12305180950E+04  0.12305180950E+04  0.50400001928E-02 0. -1.
       -1   -1    0    0    0  501  0.00000000000E+00  0.00000000000E+00 -0.27889693702E+04  0.27889693702E+04  0.50400001928E-02 0.  1.
    10030    2    1    2    0    0  0.00000000000E+00  0.00000000000E+00 -0.15584512752E+04  0.40194874652E+04  0.37050653309E+04 0.  0.
        5    1    3    3  502    0 -0.68374850302E+03 -0.10658424647E+04 -0.22461282133E+04  0.25784968907E+04  0.46999998093E+01 0.  1.
       -5    1    3    3    0  502  0.68374850302E+03  0.10658424647E+04  0.68767693804E+03  0.14409905746E+04  0.46999998093E+01 0. -1.
</event>
<event>
 5   0  0.3008879E-07  0.3707491E+04  0.7818609E-02  0.8066304E-01
       -2   -1    0    0    0  501  0.00000000000E+00  0.00000000000E+00  0.16680174108E+04  0.16680174108E+04  0.25500000920E-02 0.  1.
        2   -1    0    0  501    0  0.00000000000E+00  0.00000000000E+00 -0.20601540422E+04  0.20601540422E+04  0.25500000920E-02 0. -1.
    10030    2    1    2    0    0  0.00000000000E+00  0.00000000000E+00 -0.39213663140E+03  0.37281714530E+04  0.37074912333E+04 0.  0.
        2    1    3    3  502    0  0.10278257105E+04 -0.11961297716E+03  0.13505746054E+04  0.17014066886E+04  0.25500000920E-02 0.  1.
       -2    1    3    3    0  502 -0.10278257105E+04  0.11961297716E+03 -0.17427112368E+04  0.20267647644E+04  0.25500000920E-02 0. -1.
</event>
<event>
 5   0  0.9341000E-08  0.3727378E+04  0.7818609E-02  0.8061921E-01
        1   -1    0    0  501    0  0.00000000000E+00  0.00000000000E+00  0.28513486271E+04  0.28513486271E+04  0.50400001928E-02 0. -1.
       -1   -1    0    0    0  501  0.00000000000E+00  0.00000000000E+00 -0.12181381930E+04  0.12181381931E+04  0.50400001928E-02 0.  1.
    10030    2    1    2    0    0  0.00000000000E+00  0.00000000000E+00  0.16332104340E+04  0.40694868201E+04  0.37273779869E+04 0.  0.
        1    1    3    3  502    0 -0.50111255494E+03 -0.89156176035E+03 -0.88438400270E+03  0.13520840320E+04  0.50400001928E-02 0.  1.
       -1    1    3    3    0  502  0.50111255494E+03  0.89156176035E+03  0.25175944367E+04  0.27174027882E+04  0.50400001928E-02 0. -1.
</event>
<event>
 5   0  0.9646615E-08  0.3566823E+04  0.7818609E-02  0.8098134E-01
       -1   -1    0    0    0  501  0.00000000000E+00  0.00000000000E+00  0.14378929444E+04  0.14378929444E+04  0.50400001928E-02 0.  1.
        1   -1    0    0  501    0  0.00000000000E+00  0.00000000000E+00 -0.22119567714E+04  0.22119567714E+04  0.50400001928E-02 0. -1.
    10030    2    1    2    0    0  0.00000000000E+00  0.00000000000E+00 -0.77406382700E+03  0.36498497158E+04  0.35668232561E+04 0.  0.
        2    1    3    3  502    0  0.50183080674E+03  0.66326166648E+03 -0.20013495393E+04  0.21672909762E+04  0.25500000920E-02 0. -1.
       -2    1    3    3    0  502 -0.50183080674E+03 -0.66326166648E+03  0.12272857123E+04  0.14825587397E+04  0.25500000920E-02 0.  1.
</event>
<event>
 5   0  0.2913025E-07  0.3696398E+04  0.7818609E-02  0.8068761E-01
        2   -1    0    0  501    0  0.00000000000E+00  0.00000000000E+00  0.28402331657E+04  0.28402331657E+04  0.25500000920E-02 0.  1.
       -2   -1    0    0    0  501  0.00000000000E+00  0.00000000000E+00 -0.12026617308E+04  0.12026617308E+04  0.25500000920E-02 0. -1.
    10030    2    1    2    0    0  0.00000000000E+00  0.00000000000E+00  0.16375714349E+04  0.40428948965E+04  0.36963981035E+04 0.  0.
        5    1    3    3  502    0  0.13467831153E+04 -0.11917622246E+04  0.12850004779E+04  0.22102873745E+04  0.46999998093E+01 0.  1.
       -5    1    3    3    0  502 -0.13467831153E+04  0.11917622246E+04  0.35257095694E+03  0.18326075219E+04  0.46999998093E+01 0. -1.
</event>
<event>
 5   0  0.2897133E-07  0.3698156E+04  0.7818609E-02  0.8068371E-01
       -2   -1    0    0    0  501  0.00000000000E+00  0.00000000000E+00  0.14228994385E+04  0.14228994385E+04  0.25500000920E-02 0.  1.
        2   -1    0    0  501    0  0.00000000000E+00  0.00000000000E+00 -0.24029029718E+04  0.24029029718E+04  0.25500000920E-02 0. -1.
    10030    2    1    2    0    0  0.00000000000E+00  0.00000000000E+00 -0.98000353334E+03  0.38258024104E+04  0.36981559131E+04 0.  0.
        4    1    3    3  502    0  0.83335326817E+03  0.14324732915E+04 -0.13384503431E+04  0.21302366850E+04  0.12699999809E+01 0. -1.
       -4    1    3    3    0  502 -0.83335326817E+03 -0.14324732915E+04  0.35844680973E+03  0.16955657253E+04  0.12699999809E+01 0.  1.
</event>
<event>
 5   0  0.9646615E-08  0.3707770E+04  0.7818609E-02  0.8066242E-01
       -1   -1    0    0    0  501  0.00000000000E+00  0.00000000000E+00  0.13348474367E+04  0.13348474367E+04  0.50400001928E-02 0. -1.
        1   -1    0    0  501    0  0.00000000000E+00  0.00000000000E+00 -0.25747438446E+04  0.25747438446E+04  0.50400001928E-02 0.  1.
    10030    2    1    2    0    0  0.00000000000E+00  0.00000000000E+00 -0.12398964078E+04  0.39095912813E+04  0.37077703387E+04 0.  0.
        2    1    3    3  502    0  0.13350944475E+04  0.37149724425E+02  0.73573833851E+03  0.15248502184E+04  0.25500000920E-02 0. -1.
       -2    1    3    3    0  502 -0.13350944475E+04 -0.37149724425E+02 -0.19756347464E+04  0.23847410629E+04  0.25500000920E-02 0.  1.
</event>
<event>
 5   0  0.9418945E-08  0.3706901E+04  0.7818609E-02  0.8066434E-01
       -1   -1    0    0    0  501  0.00000000000E+00  0.00000000000E+00  0.19820572381E+04  0.19820572381E+04  0.50400001928E-02 0. -1.
        1   -1    0    0  501    0  0.00000000000E+00  0.00000000000E+00 -0.17331889133E+04  0.17331889133E+04  0.50400001928E-02 0.  1.
    10030    2    1    2    0    0  0.00000000000E+00  0.00000000000E+00  0.24886832479E+03  0.37152461515E+04  0.37069014720E+04 0.  0.
        5    1    3    3  502    0 -0.61296529199E+03 -0.90926124076E+03 -0.13731768989E+04  0.17573045663E+04  0.46999998093E+01 0.  1.
       -5    1    3    3    0  502  0.61296529199E+03  0.90926124076E+03  0.16220452237E+04  0.19579415851E+04  0.46999998093E+01 0. -1.
</event>
<event>
 5   0  0.9646615E-08  0.3622708E+04  0.7818609E-02  0.8085310E-01
        1   -1    0    0  501    0  0.00000000000E+00  0.00000000000E+00  0.24583989818E+04  0.24583989818E+04  0.50400001928E-02 0. -1.
       -1   -1    0    0    0  501  0.00000000000E+00  0.00000000000E+00 -0.13346094251E+04  0.13346094251E+04  0.50400001928E-02 0.  1.
    10030    2    1    2    0    0  0.00000000000E+00  0.00000000000E+00  0.11237895567E+04  0.37930084069E+04  0.36227075244E+04 0.  0.
        2    1    3    3  502    0 -0.12039622616E+04  0.12551361042E+04  0.32030818848E+02  0.17395165250E+04  0.25500000920E-02 0.  1.
       -2    1    3    3    0  502  0.12039622616E+04 -0.12551361042E+04  0.10917587379E+04  0.20534918819E+04  0.25500000920E-02 0. -1.
</event>
<event>
 5   0  0.3032442E-07  0.3691354E+04  0.7818609E-02  0.8069881E-01
        2   -1    0    0  501    0  0.00000000000E+00  0.00000000000E+00  0.23902916492E+04  0.23902916492E+04  0.25500000920E-02 0.  1.
       -2   -1    0    0    0  501  0.00000000000E+00  0.00000000000E+00 -0.14251499915E+04  0.14251499915E+04  0.25500000920E-02 0. -1.
    10030    2    1    2    0    0  0.00000000000E+00  0.00000000000E+00  0.96514165762E+03  0.38154416407E+04  0.36913542900E+04 0.  0.
        3    1    3    3  502    0  0.98510663639E+03 -0.12102684552E+03 -0.11258366304E+04  0.15008633219E+04  0.10100000352E+00 0. -1.
       -3    1    3    3    0  502 -0.98510663639E+03  0.12102684552E+03  0.20909782881E+04  0.23145783188E+04  0.10100000352E+00 0.  1.
</event>
<event>
 5   0  0.9341000E-08  0.3718285E+04  0.7818609E-02  0.8063922E-01
       -1   -1    0    0    0  501  0.00000000000E+00  0.00000000000E+00  0.14334483769E+04  0.14334483769E+04  0.50400001928E-02 0.  1.
        1   -1    0    0  501    0  0.00000000000E+00  0.00000000000E+00 -0.24112561089E+04  0.24112561089E+04  0.50400001928E-02 0. -1.
    10030    2    1    2    0    0  0.00000000000E+00  0.00000000000E+00 -0.97780773201E+03  0.38447044858E+04  0.37182851723E+04 0.  0.
        4    1    3    3  502    0  0.14989857640E+04 -0.74113235002E+03  0.35123194717E+03  0.17086839891E+04  0.12699999809E+01 0. -1.
       -4    1    3    3    0  502 -0.14989857640E+04  0.74113235002E+03 -0.13290396792E+04  0.21360204968E+04  0.12699999809E+01 0.  1.
</event>
<event>
 5   0  0.9341000E-08  0.3682049E+04  0.7818609E-02  0.8071952E-01
        1   -1    0    0  501    0  0.00000000000E+00  0.00000000000E+00  0.19749286397E+04  0.19749286397E+04  0.50400001928E-02 0.  1.
       -1   -1    0    0    0  501  0.00000000000E+00  0.00000000000E+00 -0.17161992414E+04  0.17161992414E+04  0.50400001928E-02 0. -1.
    10030    2    1    2    0    0  0.00000000000E+00  0.00000000000E+00  0.25872939827E+03  0.36911278811E+04  0.36820489042E+04 0.  0.
        3    1    3    3  502    0  0.15427638782E+04 -0.93077936056E+03 -0.24958912476E+03  0.18190011939E+04  0.10100000352E+00 0. -1.
       -3    1    3    3    0  502 -0.15427638782E+04  0.93077936056E+03  0.50831852303E+03  0.18721266872E+04  0.10100000352E+00 0.  1.
</event>
<event>
 5   0  0.2996969E-07  0.3710174E+04  0.7818609E-02  0.8065711E-01
       -2   -1    0    0    0  501  0.00000000000E+00  0.00000000000E+00  0.28979958810E+04  0.28979958810E+04  0.25500000920E-02 0.  1.
        2   -1    0    0  501    0  0.00000000000E+00  0.00000000000E+00 -0.11874923216E+04  0.11874923216E+04  0.25500000920E-02 0. -1.
    10030    2    1    2    0    0  0.00000000000E+00  0.00000000000E+00  0.17105035594E+04  0.40854882025E+04  0.37101740426E+04 0.  0.
        1    1    3    3  502    0 -0.24481103198E+03 -0.10907511959E+04  0.24854408508E+04  0.27252682136E+04  0.50400001928E-02 0.  1.
       -1    1    3    3    0  502  0.24481103198E+03  0.10907511959E+04 -0.77493729144E+03  0.13602199890E+04  0.50400001928E-02 0. -1.
</event>
<event>
 5   0  0.9341000E-08  0.3687081E+04  0.7818609E-02  0.8070831E-01
       -1   -1    0    0    0  501  0.00000000000E+00  0.00000000000E+00  0.13969481253E+04  0.13969481253E+04  0.50400001928E-02 0. -1.
        1   -1    0    0  501    0  0.00000000000E+00  0.00000000000E+00 -0.24329049937E+04  0.24329049937E+04  0.50400001928E-02 0.  1.
    10030    2    1    2    0    0  0.00000000000E+00  0.00000000000E+00 -0.10359568684E+04  0.38298531190E+04  0.36870812684E+04 0.  0.
        1    1    3    3  502    0 -0.74403690538E+03 -0.62849469444E+03 -0.21438509494E+04  0.23547172634E+04  0.50400001928E-02 0.  1.
       -1    1    3    3    0  502  0.74403690538E+03  0.62849469444E+03  0.11078940810E+04  0.14751358555E+04  0.50400001928E-02 0. -1.
</event>
<event>
 5   0  0.3032442E-07  0.3679426E+04  0.7818609E-02  0.8072537E-01
       -2   -1    0    0    0  501  0.00000000000E+00  0.00000000000E+00  0.13472106508E+04  0.13472106508E+04  0.25500000920E-02 0. -1.
        2   -1    0    0  501    0  0.00000000000E+00  0.00000000000E+00 -0.25122599009E+04  0.25122599009E+04  0.25500000920E-02 0.  1.
    10030    2    1    2    0    0  0.00000000000E+00  0.00000000000E+00 -0.11650492501E+04  0.38594705516E+04  0.36794256595E+04 0.  0.
        3    1    3    3  502    0  0.84928692949E+03 -0.70573621681E+03 -0.21259862799E+04  0.23956563962E+04  0.10100000352E+00 0.  1.
       -3    1    3    3    0  502 -0.84928692949E+03  0.70573621681E+03  0.96093702976E+03  0.14638141554E+04  0.10100000352E+00 0. -1.
</event>
<event>
 5   0  0.3032442E-07  0.3822589E+04  0.7818609E-02  0.8041325E-01
       -2   -1    0    0    0  501  0.00000000000E+00  0.00000000000E+00  0.20344225596E+04  0.20344225596E+04  0.25500000920E-02 0. -1.
        2   -1    0    0  501    0  0.00000000000E+00  0.00000000000E+00 -0.17956186861E+04  0.17956186861E+04  0.25500000920E-02 0.  1.
    10030    2    1    2    0    0  0.00000000000E+00  0.00000000000E+00  0.23880387349E+03  0.38300412457E+04  0.38225892604E+04 0.  0.
        3    1    3    3  502    0 -0.15937625866E+04 -0.97921243003E+03 -0.27393308546E+03  0.18904961019E+04  0.10100000352E+00 0. -1.
       -3    1    3    3    0  502  0.15937625866E+04  0.97921243003E+03  0.51273695895E+03  0.19395451438E+04  0.10100000352E+00 0.  1.
</event>
<event>
 5   0  0.2897133E-07  0.3707813E+04  0.7818609E-02  0.8066233E-01
        2   -1    0    0  501    0  0.00000000000E+00  0.00000000000E+00  0.13278805298E+04  0.13278805298E+04  0.25500000920E-02 0.  1.
       -2   -1    0    0    0  501  0.00000000000E+00  0.00000000000E+00 -0.25883120269E+04  0.25883120269E+04  0.25500000920E-02 0. -1.
    10030    2    1    2    0    0  0.00000000000E+00  0.00000000000E+00 -0.12604314971E+04  0.39161925568E+04  0.37078129110E+04 0.  0.
        4    1    3    3  502    0  0.15971971745E+04 -0.70389810416E+03 -0.12901981793E+04  0.21705124533E+04  0.12699999809E+01 0. -1.
       -4    1    3    3    0  502 -0.15971971745E+04  0.70389810416E+03  0.29766682182E+02  0.17456801035E+04  0.12699999809E+01 0.  1.
</event>
<event>
 5   0  0.9418945E-08  0.3708032E+04  0.7818609E-02  0.8066184E-01
        1   -1    0    0  501    0  0.00000000000E+00  0.00000000000E+00  0.26466443670E+04  0.26466443670E+04  0.50400001928E-02 0.  1.
       -1   -1    0    0    0  501  0.00000000000E+00  0.00000000000E+00 -0.12987671904E+04  0.12987671904E+04  0.50400001928E-02 0. -1.
    10030    2    1    2    0    0  0.00000000000E+00  0.00000000000E+00  0.13478771766E+04  0.39454115574E+04  0.37080317520E+04 0.  0.
        5    1    3    3  502    0  0.79180562036E+03  0.38271713734E+02  0.24572183231E+04  0.25819304487E+04  0.46999998093E+01 0.  1.
       -5    1    3    3    0  502 -0.79180562036E+03 -0.38271713734E+02 -0.11093411465E+04  0.13634811087E+04  0.46999998093E+01 0. -1.
</event>
<event>
 5   0  0.2897133E-07  0.3695207E+04  0.7818609E-02  0.8069025E-01
        2   -1    0    0  501    0  0.00000000000E+00  0.00000000000E+00  0.27557092326E+04  0.27557092326E+04  0.25500000920E-02 0. -1.
       -2   -1    0    0    0  501  0.00000000000E+00  0.00000000000E+00 -0.12387515075E+04  0.12387515075E+04  0.25500000920E-02 0.  1.
    10030    2    1    2    0    0  0.00000000000E+00  0.00000000000E+00  0.15169577252E+04  0.39944607401E+04  0.36952071477E+04 0.  0.
        4    1    3    3  502    0 -0.31622335726E+02  0.15846476221E+04  0.17848614828E+04  0.23870149107E+04  0.12699999809E+01 0. -1.
       -4    1    3    3    0  502  0.31622335726E+02 -0.15846476221E+04 -0.26790375762E+03  0.16074458294E+04  0.12699999809E+01 0.  1.
</event>
<event>
 5   0  0.9418945E-08  0.3697404E+04  0.7818609E-02  0.8068537E-01
       -1   -1    0    0    0  501  0.00000000000E+00  0.00000000000E+00  0.17130561189E+04  0.17130561189E+04  0.50400001928E-02 0. -1.
        1   -1    0    0  501    0  0.00000000000E+00  0.00000000000E+00 -0.19950883652E+04  0.19950883652E+04  0.50400001928E-02 0.  1.
    10030    2    1    2    0    0  0.00000000000E+00  0.00000000000E+00 -0.28203224623E+03  0.37081444841E+04  0.36974035927E+04 0.  0.
        5    1    3    3  502    0  0.37830240005E+03 -0.16500572880E+04 -0.88605673299E+03  0.19107381777E+04  0.46999998093E+01 0.  1.
       -5    1    3    3    0  502 -0.37830240005E+03  0.16500572880E+04  0.60402448677E+03  0.17974063064E+04  0.46999998093E+01 0. -1.
</event>
<event>
 5   0  0.2996969E-07  0.3577712E+04  0.7818609E-02  0.8095616E-01
       -2   -1    0    0    0  501  0.00000000000E+00  0.00000000000E+00  0.16064634923E+04  0.16064634923E+04  0.25500000920E-02 0. -1.
        2   -1    0    0  501    0  0.00000000000E+00  0.00000000000E+00 -0.19919567437E+04  0.19919567437E+04  0.25500000920E-02 0.  1.
    10030    2    1    2    0    0  0.00000000000E+00  0.00000000000E+00 -0.38549325139E+03  0.35984202360E+04  0.35777119990E+04 0.  0.
        1    1    3    3  502    0 -0.37294696821E+03  0.62523450074E+03  0.14507241442E+04  0.16231476103E+04  0.50400001928E-02 0. -1.
       -1    1    3    3    0  502  0.37294696821E+03 -0.62523450074E+03 -0.18362173956E+04  0.19752726257E+04  0.50400001928E-02 0.  1.
</event>
<event>
 5   0  0.9646615E-08  0.3694721E+04  0.7818609E-02  0.8069133E-01
       -1   -1    0    0    0  501  0.00000000000E+00  0.00000000000E+00  0.16030821759E+04  0.16030821759E+04  0.50400001928E-02 0.  1.
        1   -1    0    0  501    0  0.00000000000E+00  0.00000000000E+00 -0.21288625760E+04  0.21288625760E+04  0.50400001928E-02 0. -1.
    10030    2    1    2    0    0  0.00000000000E+00  0.00000000000E+00 -0.52578040015E+03  0.37319447519E+04  0.36947214512E+04 0.  0.
        2    1    3    3  502    0  0.11817386658E+04 -0.13682856822E+04  0.12044569115E+03  0.18119655480E+04  0.25500000920E-02 0.  1.
       -2    1    3    3    0  502 -0.11817386658E+04  0.13682856822E+04 -0.64622609129E+03  0.19199792039E+04  0.25500000920E-02 0. -1.
</event>
<event>
 5   0  0.2913025E-07  0.3232728E+04  0.7818609E-02  0.8180227E-01
       -2   -1    0    0    0  501  0.00000000000E+00  0.00000000000E+00  0.17358829134E+04  0.17358829134E+04  0.25500000920E-02 0.  1.
        2   -1    0    0  501    0  0.00000000000E+00  0.00000000000E+00 -0.15050738383E+04  0.15050738383E+04  0.25500000920E-02 0. -1.
    10030    2    1    2    0    0  0.00000000000E+00  0.00000000000E+00  0.23080907510E+03  0.32409567517E+04  0.32327276157E+04 0.  0.
        5    1    3    3  502    0  0.54452288388E+03  0.31657436346E+03  0.16077788587E+04  0.17267598116E+04  0.46999998093E+01 0.  1.
       -5    1    3    3    0  502 -0.54452288388E+03 -0.31657436346E+03 -0.13769697836E+04  0.15141969401E+04  0.46999998093E+01 0. -1.
</event>
<event>
 5   0  0.9341000E-08  0.3693659E+04  0.7818609E-02  0.8069369E-01
       -1   -1    0    0    0  501  0.00000000000E+00  0.00000000000E+00  0.16445162189E+04  0.16445162189E+04  0.50400001928E-02 0.  1.
        1   -1    0    0  501    0  0.00000000000E+00  0.00000000000E+00 -0.20740316549E+04  0.20740316549E+04  0.50400001928E-02 0. -1.
    10030    2    1    2    0    0  0.00000000000E+00  0.00000000000E+00 -0.42951543606E+03  0.37185478738E+04  0.36936587254E+04 0.  0.
        3    1    3    3  502    0  0.17537263401E+04 -0.47946575361E+03 -0.54149852138E+03  0.18970145344E+04  0.10100000352E+00 0.  1.
       -3    1    3    3    0  502 -0.17537263401E+04  0.47946575361E+03  0.11198308532E+03  0.18215333394E+04  0.10100000352E+00 0. -1.
</event>
<event>
 5   0  0.9341000E-08  0.3706705E+04  0.7818609E-02  0.8066478E-01
       -1   -1    0    0    0  501  0.00000000000E+00  0.00000000000E+00  0.18137729312E+04  0.18137729312E+04  0.50400001928E-02 0.  1.
        1   -1    0    0  501    0  0.00000000000E+00  0.00000000000E+00 -0.18937956389E+04  0.18937956389E+04  0.50400001928E-02 0. -1.
    10030    2    1    2    0    0  0.00000000000E+00  0.00000000000E+00 -0.80022707643E+02  0.37075685701E+04  0.37067048801E+04 0.  0.
        3    1    3    3  502    0 -0.88999194394E+03  0.15419113106E+04 -0.55524215002E+03  0.18649048247E+04  0.10100000352E+00 0. -1.
       -3    1    3    3    0  502  0.88999194394E+03 -0.15419113106E+04  0.47521944238E+03  0.18426637454E+04  0.10100000352E+00 0.  1.
</event>
<event>
 5   0  0.9341000E-08  0.3688414E+04  0.7818609E-02  0.8070534E-01
       -1   -1    0    0    0  501  0.00000000000E+00  0.00000000000E+00  0.27780405254E+04  0.27780405254E+04  0.50400001928E-02 0. -1.
        1   -1    0    0  501    0  0.00000000000E+00  0.00000000000E+00 -0.12242801908E+04  0.12242801908E+04  0.50400001928E-02 0.  1.
    10030    2    1    2    0    0  0.00000000000E+00  0.00000000000E+00  0.15537603346E+04  0.40023207162E+04  0.36884142850E+04 0.  0.
        3    1    3    3  502    0  0.43479671027E+03 -0.81365135653E+03  0.25096635037E+04  0.26738525803E+04  0.10100000352E+00 0. -1.
       -3    1    3    3    0  502 -0.43479671027E+03  0.81365135653E+03 -0.95590316908E+03  0.13284681359E+04  0.10100000352E+00 0.  1.
</event>
<event>
 5   0  0.9341000E-08  0.3673068E+04  0.7818609E-02  0.8073957E-01
        1   -1    0    0  501    0  0.00000000000E+00  0.00000000000E+00  0.20862951019E+04  0.20862951019E+04  0.50400001928E-02 0. -1.
       -1   -1    0    0    0  501  0.00000000000E+00  0.00000000000E+00 -0.16166731362E+04  0.16166731362E+04  0.50400001928E-02 0.  1.
    10030    2    1    2    0    0  0.00000000000E+00  0.00000000000E+00  0.46962196565E+03  0.37029682381E+04  0.36730680611E+04 0.  0.
        4    1    3    3  502    0  0.72548447367E+03  0.55454264748E+03  0.18412093273E+04  0.20552125606E+04  0.12699999809E+01 0. -1.
       -4    1    3    3    0  502 -0.72548447367E+03 -0.55454264748E+03 -0.13715873616E+04  0.16477556775E+04  0.12699999809E+01 0.  1.
</event>
<event>
 5   0  0.9418945E-08  0.3748012E+04  0.7818609E-02  0.8057404E-01
        1   -1    0    0  501    0  0.00000000000E+00  0.00000000000E+00  0.14711952054E+04  0.14711952054E+04  0.50400001928E-02 0. -1.
       -1   -1    0    0    0  501  0.00000000000E+00  0.00000000000E+00 -0.23871061847E+04  0.23871061847E+04  0.50400001928E-02 0.  1.
    10030    2    1    2    0    0  0.00000000000E+00  0.00000000000E+00 -0.91591097931E+03  0.38583013901E+04  0.37480123659E+04 0.  0.
        5    1    3    3  502    0  0.97663637749E+03  0.14685388150E+04  0.19429147334E+03  0.17743156798E+04  0.46999998093E+01 0. -1.
       -5    1    3    3    0  502 -0.97663637749E+03 -0.14685388150E+04 -0.11102024526E+04  0.20839857103E+04  0.46999998093E+01 0.  1.
</event>
<event>
 5   0  0.2913025E-07  0.3592569E+04  0.7818609E-02  0.8092196E-01
        2   -1    0    0  501    0  0.00000000000E+00  0.00000000000E+00  0.28872239604E+04  0.28872239604E+04  0.25500000920E-02 0. -1.
       -2   -1    0    0    0  501  0.00000000000E+00  0.00000000000E+00 -0.11175571038E+04  0.11175571038E+04  0.25500000920E-02 0.  1.
    10030    2    1    2    0    0  0.00000000000E+00  0.00000000000E+00  0.17696668567E+04  0.40047810642E+04  0.35925688008E+04 0.  0.
        5    1    3    3  502    0  0.61495093313E+03 -0.12935914418E+03  0.27606856326E+04  0.28313081235E+04  0.46999998093E+01 0. -1.
       -5    1    3    3    0  502 -0.61495093313E+03  0.12935914418E+03 -0.99101877590E+03  0.11734729407E+04  0.46999998093E+01 0.  1.
</event>
<event>
 5   0  0.9341000E-08  0.3700134E+04  0.7818609E-02  0.8067932E-01
       -3   -1    0    0    0  501  0.00000000000E+00  0.00000000000E+00  0.20863373251E+04  0.20863373275E+04  0.10100000352E+00 0.  1.
        3   -1    0    0  501    0  0.00000000000E+00  0.00000000000E+00 -0.16405531663E+04  0.16405531694E+04  0.10100000352E+00 0. -1.
    10030    2    1    2    0    0  0.00000000000E+00  0.00000000000E+00  0.44578415875E+03  0.37268904969E+04  0.37001336814E+04 0.  0.
        5    1    3    3  502    0  0.77090536969E+03  0.13382818291E+04 -0.80301732955E+03  0.17407332549E+04  0.46999998093E+01 0. -1.
       -5    1    3    3    0  502 -0.77090536969E+03 -0.13382818291E+04  0.12488014883E+04  0.19861572421E+04  0.46999998093E+01 0.  1.
</event>
<event>
 5   0  0.2996969E-07  0.3686439E+04  0.7818609E-02  0.8070974E-01
       -2   -1    0    0    0  501  0.00000000000E+00  0.00000000000E+00  0.15353139381E+04  0.15353139381E+04  0.25500000920E-02 0.  1.
        2   -1    0    0  501    0  0.00000000000E+00  0.00000000000E+00 -0.22128751602E+04  0.22128751602E+04  0.25500000920E-02 0. -1.
    10030    2    1    2    0    0  0.00000000000E+00  0.00000000000E+00 -0.67756122216E+03  0.37481890983E+04  0.36864389737E+04 0.  0.
        1    1    3    3  502    0  0.75215954359E+03  0.11895634295E+04 -0.15489500428E+04  0.20928572256E+04  0.50400001928E-02 0. -1.
       -1    1    3    3    0  502 -0.75215954359E+03 -0.11895634295E+04  0.87138882061E+03  0.16553318726E+04  0.50400001928E-02 0.  1.
</event>
<event>
 5   0  0.9341000E-08  0.3705651E+04  0.7818609E-02  0.8066711E-01
        1   -1    0    0  501    0  0.00000000000E+00  0.00000000000E+00  0.22556684112E+04  0.22556684112E+04  0.50400001928E-02 0. -1.
       -1   -1    0    0    0  501  0.00000000000E+00  0.00000000000E+00 -0.15219266233E+04  0.15219266233E+04  0.50400001928E-02 0.  1.
    10030    2    1    2    0    0  0.00000000000E+00  0.00000000000E+00  0.73374178792E+03  0.37775950345E+04  0.37056507166E+04 0.  0.
        1    1    3    3  502    0 -0.43718600976E+03  0.28689369359E+02  0.22021026264E+04  0.22452640523E+04  0.50400001928E-02 0. -1.
       -1    1    3    3    0  502  0.43718600976E+03 -0.28689369359E+02 -0.14683608385E+04  0.15323309822E+04  0.50400001928E-02 0.  1.
</event>
<event>
 5   0  0.2897133E-07  0.3699439E+04  0.7818609E-02  0.8068086E-01
       -2   -1    0    0    0  501  0.00000000000E+00  0.00000000000E+00  0.12432753679E+04  0.12432753679E+04  0.25500000920E-02 0. -1.
        2   -1    0    0  501    0  0.00000000000E+00  0.00000000000E+00 -0.27519745542E+04  0.27519745542E+04  0.25500000920E-02 0.  1.
    10030    2    1    2    0    0  0.00000000000E+00  0.00000000000E+00 -0.15086991863E+04  0.39952499221E+04  0.36994389717E+04 0.  0.
        4    1    3    3  502    0 -0.10307406878E+04  0.11822214747E+04  0.30455568419E+03  0.15977577283E+04  0.12699999809E+01 0. -1.
       -4    1    3    3    0  502  0.10307406878E+04 -0.11822214747E+04 -0.18132548705E+04  0.23974921937E+04  0.12699999809E+01 0.  1.
</event>
<event>
 5   0  0.3032442E-07  0.3691244E+04  0.7818609E-02  0.8069905E-01
       -2   -1    0    0    0  501  0.00000000000E+00  0.00000000000E+00  0.18877507110E+04  0.18877507110E+04  0.25500000920E-02 0.  1.
        2   -1    0    0  501    0  0.00000000000E+00  0.00000000000E+00 -0.18044339289E+04  0.18044339289E+04  0.25500000920E-02 0. -1.
    10030    2    1    2    0    0  0.00000000000E+00  0.00000000000E+00  0.83316782054E+02  0.36921846399E+04  0.36912444689E+04 0.  0.
        3    1    3    3  502    0  0.91364201599E+01  0.58344880383E+03  0.17930542315E+04  0.18856138173E+04  0.10100000352E+00 0.  1.
       -3    1    3    3    0  502 -0.91364201599E+01 -0.58344880383E+03 -0.17097374494E+04  0.18065708226E+04  0.10100000352E+00 0. -1.
</event>
<event>
 5   0  0.9341000E-08  0.3676411E+04  0.7818609E-02  0.8073210E-01
        1   -1    0    0  501    0  0.00000000000E+00  0.00000000000E+00  0.18019105110E+04  0.18019105110E+04  0.50400001928E-02 0. -1.
       -1   -1    0    0    0  501  0.00000000000E+00  0.00000000000E+00 -0.18752313963E+04  0.18752313963E+04  0.50400001928E-02 0.  1.
    10030    2    1    2    0    0  0.00000000000E+00  0.00000000000E+00 -0.73320885327E+02  0.36771419072E+04  0.36764108385E+04 0.  0.
        3    1    3    3  502    0  0.98165410913E+03 -0.13315979597E+04 -0.83819439140E+03  0.18545532519E+04  0.10100000352E+00 0.  1.
       -3    1    3    3    0  502 -0.98165410913E+03  0.13315979597E+04  0.76487350607E+03  0.18225886554E+04  0.10100000352E+00 0. -1.
</event>
<event>
 5   0  0.9418945E-08  0.3584628E+04  0.7818609E-02  0.8094022E-01
       -1   -1    0    0    0  501  0.00000000000E+00  0.00000000000E+00  0.31566354497E+04  0.31566354497E+04  0.50400001928E-02 0.  1.
        1   -1    0    0  501    0  0.00000000000E+00  0.00000000000E+00 -0.10176626269E+04  0.10176626269E+04  0.50400001928E-02 0. -1.
    10030    2    1    2    0    0  0.00000000000E+00  0.00000000000E+00  0.21389728229E+04  0.41742980766E+04  0.35846282507E+04 0.  0.
        5    1    3    3  502    0 -0.16120302338E+04  0.56707740481E+03  0.44006434430E+03  0.17646237488E+04  0.46999998093E+01 0. -1.
       -5    1    3    3    0  502  0.16120302338E+04 -0.56707740481E+03  0.16989084786E+04  0.24096743278E+04  0.46999998093E+01 0.  1.
</event>
<event>
 5   0  0.9341000E-08  0.3689955E+04  0.7818609E-02  0.8070192E-01
        1   -1    0    0  501    0  0.00000000000E+00  0.00000000000E+00  0.19782429679E+04  0.19782429679E+04  0.50400001928E-02 0. -1.
       -1   -1    0    0    0  501  0.00000000000E+00  0.00000000000E+00 -0.17206891910E+04  0.17206891910E+04  0.50400001928E-02 0.  1.
    10030    2    1    2    0    0  0.00000000000E+00  0.00000000000E+00  0.25755377682E+03  0.36989321589E+04  0.36899546296E+04 0.  0.
        4    1    3    3  502    0  0.62855265423E+02 -0.14834925634E+04  0.12265388019E+04  0.19259023899E+04  0.12699999809E+01 0. -1.
       -4    1    3    3    0  502 -0.62855265423E+02  0.14834925634E+04 -0.96898502508E+03  0.17730297690E+04  0.12699999809E+01 0.  1.
</event>
<event>
 5   0  0.2913025E-07  0.3687323E+04  0.7818609E-02  0.8070777E-01
        2   -1    0    0  501    0  0.00000000000E+00  0.00000000000E+00  0.18066944710E+04  0.18066944710E+04  0.25500000920E-02 0. -1.
       -2   -1    0    0    0  501  0.00000000000E+00  0.00000000000E+00 -0.18813853847E+04  0.18813853847E+04  0.25500000920E-02 0.  1.
    10030    2    1    2    0    0  0.00000000000E+00  0.00000000000E+00 -0.74690913658E+02  0.36880798557E+04  0.36873234587E+04 0.  0.
        5    1    3    3  502    0  0.12818244465E+04  0.93493827426E+03 -0.97662435048E+03  0.18630621837E+04  0.46999998093E+01 0. -1.
       -5    1    3    3    0  502 -0.12818244465E+04 -0.93493827426E+03  0.90193343682E+03  0.18250176719E+04  0.46999998093E+01 0.  1.
</event>
<event>
 5   0  0.3008879E-07  0.3576849E+04  0.7818609E-02  0.8095815E-01
        2   -1    0    0  501    0  0.00000000000E+00  0.00000000000E+00  0.96279624890E+03  0.96279624890E+03  0.25500000920E-02 0.  1.
       -2   -1    0    0    0  501  0.00000000000E+00  0.00000000000E+00 -0.33220556043E+04  0.33220556043E+04  0.25500000920E-02 0. -1.
    10030    2    1    2    0    0  0.00000000000E+00  0.00000000000E+00 -0.23592593554E+04  0.42848518532E+04  0.35768492697E+04 0.  0.
        2    1    3    3  502    0  0.91809652734E+03 -0.49360974472E+03 -0.29205262239E+04  0.31009716603E+04  0.25500000920E-02 0. -1.
       -2    1    3    3    0  502 -0.91809652734E+03  0.49360974472E+03  0.56126686844E+03  0.11838801929E+04  0.25500000920E-02 0.  1.
</event>
<event>
 5   0  0.3032442E-07  0.3688804E+04  0.7818609E-02  0.8070447E-01
        2   -1    0    0  501    0  0.00000000000E+00  0.00000000000E+00  0.26265394556E+04  0.26265394556E+04  0.25500000920E-02 0. -1.
       -2   -1    0    0    0  501  0.00000000000E+00  0.00000000000E+00 -0.12951717117E+04  0.12951717117E+04  0.25500000920E-02 0.  1.
    10030    2    1    2    0    0  0.00000000000E+00  0.00000000000E+00  0.13313677439E+04  0.39217111674E+04  0.36888044690E+04 0.  0.
        3    1    3    3  502    0 -0.55667276385E+03 -0.11926243528E+04  0.20393901081E+04  0.24272102168E+04  0.10100000352E+00 0. -1.
       -3    1    3    3    0  502  0.55667276385E+03  0.11926243528E+04 -0.70802236422E+03  0.14945009506E+04  0.10100000352E+00 0.  1.
</event>
<event>
 5   0  0.3008879E-07  0.3697647E+04  0.7818609E-02  0.8068483E-01
        2   -1    0    0  501    0  0.00000000000E+00  0.00000000000E+00  0.21002920967E+04  0.21002920967E+04  0.25500000920E-02 0. -1.
       -2   -1    0    0    0  501  0.00000000000E+00  0.00000000000E+00 -0.16274633151E+04  0.16274633151E+04  0.25500000920E-02 0.  1.
    10030    2    1    2    0    0  0.00000000000E+00  0.00000000000E+00  0.47282878161E+03  0.37277554118E+04  0.36976470023E+04 0.  0.
        2    1    3    3  502    0  0.98456001075E+03 -0.74258721318E+03  0.16250751456E+04  0.20400155423E+04  0.25500000920E-02 0. -1.
       -2    1    3    3    0  502 -0.98456001075E+03  0.74258721318E+03 -0.11522463640E+04  0.16877398695E+04  0.25500000920E-02 0.  1.
</event>
<event>
 5   0  0.3032442E-07  0.3698476E+04  0.7818609E-02  0.8068300E-01
        2   -1    0    0  501    0  0.00000000000E+00  0.00000000000E+00  0.24108023344E+04  0.24108023344E+04  0.25500000920E-02 0.  1.
       -2   -1    0    0    0  501  0.00000000000E+00  0.00000000000E+00 -0.14184825881E+04  0.14184825881E+04  0.25500000920E-02 0. -1.
    10030    2    1    2    0    0  0.00000000000E+00  0.00000000000E+00  0.99231974630E+03  0.38292849225E+04  0.36984759751E+04 0.  0.
        3    1    3    3  502    0  0.45984204036E+03  0.21561240756E+03 -0.13448571298E+04  0.14375618673E+04  0.10100000352E+00 0. -1.
       -3    1    3    3    0  502 -0.45984204036E+03 -0.21561240756E+03  0.23371768761E+04  0.23917230552E+04  0.10100000352E+00 0.  1.
</event>
<event>
 5   0  0.2913025E-07  0.3692295E+04  0.7818609E-02  0.8069672E-01
       -2   -1    0    0    0  501  0.00000000000E+00  0.00000000000E+00  0.13080621840E+04  0.13080621840E+04  0.25500000920E-02 0.  1.
        2   -1    0    0  501    0  0.00000000000E+00  0.00000000000E+00 -0.26055795188E+04  0.26055795188E+04  0.25500000920E-02 0. -1.
    10030    2    1    2    0    0  0.00000000000E+00  0.00000000000E+00 -0.12975173348E+04  0.39136417028E+04  0.36922946989E+04 0.  0.
        5    1    3    3  502    0 -0.13477498007E+04 -0.10394655609E+04  0.10917464966E+03  0.17055378541E+04  0.46999998093E+01 0.  1.
       -5    1    3    3    0  502  0.13477498007E+04  0.10394655609E+04 -0.14066919844E+04  0.22081038487E+04  0.46999998093E+01 0. -1.
</event>
<event>
 5   0  0.2897133E-07  0.3714504E+04  0.7818609E-02  0.8064755E-01
        2   -1    0    0  501    0  0.00000000000E+00  0.00000000000E+00  0.24622474861E+04  0.24622474861E+04  0.25500000920E-02 0. -1.
       -2   -1    0    0    0  501  0.00000000000E+00  0.00000000000E+00 -0.14009092300E+04  0.14009092300E+04  0.25500000920E-02 0.  1.
    10030    2    1    2    0    0  0.00000000000E+00  0.00000000000E+00  0.10613382561E+04  0.38631567161E+04  0.37145041283E+04 0.  0.
        4    1    3    3  502    0  0.56744563917E+03 -0.16658460457E+04  0.11480116095E+04  0.21011829692E+04  0.12699999809E+01 0.  1.
       -4    1    3    3    0  502 -0.56744563917E+03  0.16658460457E+04 -0.86673353446E+02  0.17619737469E+04  0.12699999809E+01 0. -1.
</event>
<event>
 5   0  0.2897133E-07  0.3698299E+04  0.7818609E-02  0.8068339E-01
       -2   -1    0    0    0  501  0.00000000000E+00  0.00000000000E+00  0.19002083051E+04  0.19002083051E+04  0.25500000920E-02 0. -1.
        2   -1    0    0  501    0  0.00000000000E+00  0.00000000000E+00 -0.17994623034E+04  0.17994623034E+04  0.25500000920E-02 0.  1.
    10030    2    1    2    0    0  0.00000000000E+00  0.00000000000E+00  0.10074600172E+03  0.36996706085E+04  0.36982986432E+04 0.  0.
        4    1    3    3  502    0 -0.13315992039E+04  0.11063608298E+04  0.70035311821E+03  0.18675349605E+04  0.12699999809E+01 0. -1.
       -4    1    3    3    0  502  0.13315992039E+04 -0.11063608298E+04 -0.59960711649E+03  0.18321356480E+04  0.12699999809E+01 0.  1.
</event>
<event>
 5   0  0.9341000E-08  0.3659494E+04  0.7818609E-02  0.8076998E-01
        1   -1    0    0  501    0  0.00000000000E+00  0.00000000000E+00  0.29031475600E+04  0.29031475600E+04  0.50400001928E-02 0. -1.
       -1   -1    0    0    0  501  0.00000000000E+00  0.00000000000E+00 -0.11532221216E+04  0.11532221216E+04  0.50400001928E-02 0.  1.
    10030    2    1    2    0    0  0.00000000000E+00  0.00000000000E+00  0.17499254384E+04  0.40563696816E+04  0.36594939478E+04 0.  0.
        1    1    3    3  502    0  0.42962109099E+03 -0.17021316367E+04  0.30311845370E+03  0.17814901592E+04  0.50400001928E-02 0.  1.
       -1    1    3    3    0  502 -0.42962109099E+03  0.17021316367E+04  0.14468069847E+04  0.22748795224E+04  0.50400001928E-02 0. -1.
</event>
<event>
 5   0  0.3008879E-07  0.3691506E+04  0.7818609E-02  0.8069847E-01
        2   -1    0    0  501    0  0.00000000000E+00  0.00000000000E+00  0.12966592034E+04  0.12966592034E+04  0.25500000920E-02 0. -1.
       -2   -1    0    0    0  501  0.00000000000E+00  0.00000000000E+00 -0.26273702715E+04  0.26273702715E+04  0.25500000920E-02 0.  1.
    10030    2    1    2    0    0  0.00000000000E+00  0.00000000000E+00 -0.13307110681E+04  0.39240294749E+04  0.36915058409E+04 0.  0.
        2    1    3    3  502    0  0.17915207078E+04 -0.36302993888E+03 -0.93733667666E+03  0.20542485800E+04  0.25500000920E-02 0.  1.
       -2    1    3    3    0  502 -0.17915207078E+04  0.36302993888E+03 -0.39337439142E+03  0.18697808949E+04  0.25500000920E-02 0. -1.
</event>
<event>
 5   0  0.9418945E-08  0.3695731E+04  0.7818609E-02  0.8068909E-01
        1   -1    0    0  501    0  0.00000000000E+00  0.00000000000E+00  0.15674071612E+04  0.15674071612E+04  0.50400001928E-02 0.  1.
       -1   -1    0    0    0  501  0.00000000000E+00  0.00000000000E+00 -0.21785061576E+04  0.21785061576E+04  0.50400001928E-02 0. -1.
    10030    2    1    2    0    0  0.00000000000E+00  0.00000000000E+00 -0.61109899646E+03  0.37459133188E+04  0.36957305920E+04 0.  0.
        5    1    3    3  502    0 -0.19734663196E+03 -0.31970715401E+03 -0.21393777654E+04  0.21721228489E+04  0.46999998093E+01 0. -1.
       -5    1    3    3    0  502  0.19734663196E+03  0.31970715401E+03  0.15282787690E+04  0.15737904699E+04  0.46999998093E+01 0.  1.
</event>
<event>
 5   0  0.9341000E-08  0.3954114E+04  0.7818609E-02  0.8013868E-01
       -1   -1    0    0    0  501  0.00000000000E+00  0.00000000000E+00  0.18632599002E+04  0.18632599002E+04  0.50400001928E-02 0.  1.
        1   -1    0    0  501    0  0.00000000000E+00  0.00000000000E+00 -0.20978045415E+04  0.20978045415E+04  0.50400001928E-02 0. -1.
    10030    2    1    2    0    0  0.00000000000E+00  0.00000000000E+00 -0.23454464131E+03  0.39610644417E+04  0.39541143538E+04 0.  0.
        1    1    3    3  502    0  0.12299614470E+04 -0.70945576777E+03  0.12608719203E+04  0.18989288157E+04  0.50400001928E-02 0.  1.
       -1    1    3    3    0  502 -0.12299614470E+04  0.70945576777E+03 -0.14954165616E+04  0.20621356261E+04  0.50400001928E-02 0. -1.
</event>
<event>
 5   0  0.9418945E-08  0.3681042E+04  0.7818609E-02  0.8072176E-01
        1   -1    0    0  501    0  0.00000000000E+00  0.00000000000E+00  0.15234615609E+04  0.15234615609E+04  0.50400001928E-02 0. -1.
       -1   -1    0    0    0  501  0.00000000000E+00  0.00000000000E+00 -0.22235656560E+04  0.22235656560E+04  0.50400001928E-02 0.  1.
    10030    2    1    2    0    0  0.00000000000E+00  0.00000000000E+00 -0.70010409517E+03  0.37470272169E+04  0.36810415945E+04 0.  0.
        5    1    3    3  502    0 -0.35578281243E+03  0.17464607447E+04 -0.81739881409E+03  0.19608338669E+04  0.46999998093E+01 0.  1.
       -5    1    3    3    0  502  0.35578281243E+03 -0.17464607447E+04  0.11729471892E+03  0.17861933500E+04  0.46999998093E+01 0. -1.
</event>
<event>
 5   0  0.2996969E-07  0.3704538E+04  0.7818609E-02  0.8066957E-01
       -2   -1    0    0    0  501  0.00000000000E+00  0.00000000000E+00  0.17334907093E+04  0.17334907093E+04  0.25500000920E-02 0.  1.
        2   -1    0    0  501    0  0.00000000000E+00  0.00000000000E+00 -0.19791857825E+04  0.19791857825E+04  0.25500000920E-02 0. -1.
    10030    2    1    2    0    0  0.00000000000E+00  0.00000000000E+00 -0.24569507318E+03  0.37126764918E+04  0.37045378475E+04 0.  0.
        1    1    3    3  502    0 -0.16497114891E+04  0.83544226675E+03 -0.22979837539E+03  0.18634159685E+04  0.50400001928E-02 0.  1.
       -1    1    3    3    0  502  0.16497114891E+04 -0.83544226675E+03 -0.15896697792E+02  0.18492605233E+04  0.50400001928E-02 0. -1.
</event>
<event>
 5   0  0.3032442E-07  0.3852631E+04  0.7818609E-02  0.8034954E-01
        2   -1    0    0  501    0  0.00000000000E+00  0.00000000000E+00  0.22226467616E+04  0.22226467616E+04  0.25500000920E-02 0.  1.
       -2   -1    0    0    0  501  0.00000000000E+00  0.00000000000E+00 -0.16694918838E+04  0.16694918838E+04  0.25500000920E-02 0. -1.
    10030    2    1    2    0    0  0.00000000000E+00  0.00000000000E+00  0.55315487779E+03  0.38921386455E+04  0.38526306489E+04 0.  0.
        3    1    3    3  502    0  0.11378360535E+04 -0.15517873156E+04  0.18635336207E+03  0.19332465811E+04  0.10100000352E+00 0. -1.
       -3    1    3    3    0  502 -0.11378360535E+04  0.15517873156E+04  0.36680151571E+03  0.19588920643E+04  0.10100000352E+00 0.  1.
</event>
<event>
 5   0  0.2913025E-07  0.3733680E+04  0.7818609E-02  0.8060539E-01
        2   -1    0    0  501    0  0.00000000000E+00  0.00000000000E+00  0.20190258195E+04  0.20190258195E+04  0.25500000920E-02 0. -1.
       -2   -1    0    0    0  501  0.00000000000E+00  0.00000000000E+00 -0.17261253535E+04  0.17261253535E+04  0.25500000920E-02 0.  1.
    10030    2    1    2    0    0  0.00000000000E+00  0.00000000000E+00  0.29290046601E+03  0.37451511730E+04  0.37336800379E+04 0.  0.
        5    1    3    3  502    0 -0.82451054072E+02  0.17217658976E+04 -0.57254596383E+03  0.18163443928E+04  0.46999998093E+01 0.  1.
       -5    1    3    3    0  502  0.82451054072E+02 -0.17217658976E+04  0.86544642984E+03  0.19288067802E+04  0.46999998093E+01 0. -1.
</event>
<event>
 5   0  0.9418945E-08  0.3693682E+04  0.7818609E-02  0.8069364E-01
       -1   -1    0    0    0  501  0.00000000000E+00  0.00000000000E+00  0.16500747124E+04  0.16500747124E+04  0.50400001928E-02 0. -1.
        1   -1    0    0  501    0  0.00000000000E+00  0.00000000000E+00 -0.20670705266E+04  0.20670705267E+04  0.50400001928E-02 0.  1.
    10030    2    1    2    0    0  0.00000000000E+00  0.00000000000E+00 -0.41699581427E+03  0.37171452390E+04  0.36936815265E+04 0.  0.
        5    1    3    3  502    0 -0.10521329465E+03  0.16252410942E+04  0.66784971703E+03  0.17602624197E+04  0.46999998093E+01 0. -1.
       -5    1    3    3    0  502  0.10521329465E+03 -0.16252410942E+04 -0.10848455313E+04  0.19568828193E+04  0.46999998093E+01 0.  1.
</event>
<event>
 5   0  0.3032442E-07  0.3708808E+04  0.7818609E-02  0.8066013E-01
       -2   -1    0    0    0  501  0.00000000000E+00  0.00000000000E+00  0.12071089753E+04  0.12071089753E+04  0.25500000920E-02 0.  1.
        2   -1    0    0  501    0  0.00000000000E+00  0.00000000000E+00 -0.28488015054E+04  0.28488015054E+04  0.25500000920E-02 0. -1.
    10030    2    1    2    0    0  0.00000000000E+00  0.00000000000E+00 -0.16416925301E+04  0.40559104807E+04  0.37088078225E+04 0.  0.
        3    1    3    3  502    0  0.75475118933E+03  0.13373703500E+04  0.31596279492E+03  0.15678141819E+04  0.10100000352E+00 0.  1.
       -3    1    3    3    0  502 -0.75475118933E+03 -0.13373703500E+04 -0.19576553250E+04  0.24880962989E+04  0.10100000352E+00 0. -1.
</event>
<event>
 5   0  0.2897133E-07  0.3730907E+04  0.7818609E-02  0.8061147E-01
        2   -1    0    0  501    0  0.00000000000E+00  0.00000000000E+00  0.18300684496E+04  0.18300684496E+04  0.25500000920E-02 0.  1.
       -2   -1    0    0    0  501  0.00000000000E+00  0.00000000000E+00 -0.19015222372E+04  0.19015222372E+04  0.25500000920E-02 0. -1.
    10030    2    1    2    0    0  0.00000000000E+00  0.00000000000E+00 -0.71453787619E+02  0.37315906868E+04  0.37309065131E+04 0.  0.
        4    1    3    3  502    0 -0.17416492853E+04  0.66157037875E+03 -0.13006619579E+03  0.18676017849E+04  0.12699999809E+01 0. -1.
       -4    1    3    3    0  502  0.17416492853E+04 -0.66157037875E+03  0.58612408169E+02  0.18639889018E+04  0.12699999809E+01 0.  1.
</event>
<event>
 5   0  0.2913025E-07  0.3717672E+04  0.7818609E-02  0.8064057E-01
        2   -1    0    0  501    0  0.00000000000E+00  0.00000000000E+00  0.18898327006E+04  0.18898327006E+04  0.25500000920E-02 0.  1.
       -2   -1    0    0    0  501  0.00000000000E+00  0.00000000000E+00 -0.18283474363E+04  0.18283474363E+04  0.25500000920E-02 0. -1.
    10030    2    1    2    0    0  0.00000000000E+00  0.00000000000E+00  0.61485264270E+02  0.37181801369E+04  0.37176717301E+04 0.  0.
        5    1    3    3  502    0  0.92905665721E+03 -0.81493681421E+03 -0.13579645920E+04  0.18361258689E+04  0.46999998093E+01 0. -1.
       -5    1    3    3    0  502 -0.92905665721E+03  0.81493681421E+03  0.14194498562E+04  0.18820542680E+04  0.46999998093E+01 0.  1.
</event>
<event>
 5   0  0.9418945E-08  0.3675327E+04  0.7818609E-02  0.8073452E-01
       -1   -1    0    0    0  501  0.00000000000E+00  0.00000000000E+00  0.19661183186E+04  0.19661183186E+04  0.50400001928E-02 0.  1.
        1   -1    0    0  501    0  0.00000000000E+00  0.00000000000E+00 -0.17176011519E+04  0.17176011519E+04  0.50400001928E-02 0. -1.
    10030    2    1    2    0    0  0.00000000000E+00  0.00000000000E+00  0.24851716669E+03  0.36837194705E+04  0.36753269725E+04 0.  0.
        5    1    3    3  502    0  0.28906115885E+03  0.12730495095E+04 -0.11720522473E+04  0.17544058731E+04  0.46999998093E+01 0. -1.
       -5    1    3    3    0  502 -0.28906115885E+03 -0.12730495095E+04  0.14205694140E+04  0.19293135974E+04  0.46999998093E+01 0.  1.
</event>
<event>
 5   0  0.3032442E-07  0.3750438E+04  0.7818609E-02  0.8056875E-01
       -2   -1    0    0    0  501  0.00000000000E+00  0.00000000000E+00  0.12678149832E+04  0.12678149832E+04  0.25500000920E-02 0.  1.
        2   -1    0    0  501    0  0.00000000000E+00  0.00000000000E+00 -0.27736275808E+04  0.27736275808E+04  0.25500000920E-02 0. -1.
    10030    2    1    2    0    0  0.00000000000E+00  0.00000000000E+00 -0.15058125976E+04  0.40414425640E+04  0.37504381636E+04 0.  0.
        3    1    3    3  502    0  0.29628907130E+03  0.16994491823E+04 -0.15451614095E+04  0.23159098705E+04  0.10100000352E+00 0. -1.
       -3    1    3    3    0  502 -0.29628907130E+03 -0.16994491823E+04  0.39348811900E+02  0.17255326934E+04  0.10100000352E+00 0.  1.
</event>
<event>
 5   0  0.2996969E-07  0.3507031E+04  0.7818609E-02  0.8112126E-01
        2   -1    0    0  501    0  0.00000000000E+00  0.00000000000E+00  0.23437103128E+04  0.23437103128E+04  0.25500000920E-02 0.  1.
       -2   -1    0    0    0  501  0.00000000000E+00  0.00000000000E+00 -0.13119440726E+04  0.13119440726E+04  0.25500000920E-02 0. -1.
    10030    2    1    2    0    0  0.00000000000E+00  0.00000000000E+00  0.10317662402E+04  0.36556543854E+04  0.35070311391E+04 0.  0.
        1    1    3    3  502    0 -0.97505159631E+02 -0.16855838154E+04  0.10093553432E+04  0.19671040298E+04  0.50400001928E-02 0.  1.
       -1    1    3    3    0  502  0.97505159631E+02  0.16855838154E+04  0.22410896923E+02  0.16885503556E+04  0.50400001928E-02 0. -1.
</event>
<event>
 5   0  0.2897133E-07  0.3712110E+04  0.7818609E-02  0.8065283E-01
        2   -1    0    0  501    0  0.00000000000E+00  0.00000000000E+00  0.23356284690E+04  0.23356284690E+04  0.25500000920E-02 0.  1.
       -2   -1    0    0    0  501  0.00000000000E+00  0.00000000000E+00 -0.14749518915E+04  0.14749518915E+04  0.25500000920E-02 0. -1.
    10030    2    1    2    0    0  0.00000000000E+00  0.00000000000E+00  0.86067657756E+03  0.38105803605E+04  0.37121097119E+04 0.  0.
        4    1    3    3  502    0 -0.14983330443E+04 -0.10643858278E+04  0.16459089603E+03  0.18452671563E+04  0.12699999809E+01 0.  1.
       -4    1    3    3    0  502  0.14983330443E+04  0.10643858278E+04  0.69608568153E+03  0.19653132043E+04  0.12699999809E+01 0. -1.
</event>
<event>
 5   0  0.2996969E-07  0.3696203E+04  0.7818609E-02  0.8068804E-01
       -2   -1    0    0    0  501  0.00000000000E+00  0.00000000000E+00  0.15803719785E+04  0.15803719785E+04  0.25500000920E-02 0. -1.
        2   -1    0    0  501    0  0.00000000000E+00  0.00000000000E+00 -0.21611863418E+04  0.21611863418E+04  0.25500000920E-02 0.  1.
    10030    2    1    2    0    0  0.00000000000E+00  0.00000000000E+00 -0.58081436326E+03  0.37415583203E+04  0.36962025566E+04 0.  0.
        1    1    3    3  502    0  0.18950081295E+03 -0.11120462599E+04 -0.17722421036E+04  0.21008092527E+04  0.50400001928E-02 0.  1.
       -1    1    3    3    0  502 -0.18950081295E+03  0.11120462599E+04  0.11914277404E+04  0.16407490676E+04  0.50400001928E-02 0. -1.
</event>
<event>
 5   0  0.3032442E-07  0.3672149E+04  0.7818609E-02  0.8074162E-01
       -2   -1    0    0    0  501  0.00000000000E+00  0.00000000000E+00  0.19861684414E+04  0.19861684414E+04  0.25500000920E-02 0.  1.
        2   -1    0    0  501    0  0.00000000000E+00  0.00000000000E+00 -0.16973230018E+04  0.16973230018E+04  0.25500000920E-02 0. -1.
    10030    2    1    2    0    0  0.00000000000E+00  0.00000000000E+00  0.28884543962E+03  0.36834914433E+04  0.36721488974E+04 0.  0.
        3    1    3    3  502    0  0.76819411739E+03  0.96846579189E+03  0.15062321196E+04  0.19485336539E+04  0.10100000352E+00 0.  1.
       -3    1    3    3    0  502 -0.76819411739E+03 -0.96846579189E+03 -0.12173866800E+04  0.17349577894E+04  0.10100000352E+00 0. -1.
</event>
<event>
 5   0  0.3008879E-07  0.3703623E+04  0.7818609E-02  0.8067159E-01
        2   -1    0    0  501    0  0.00000000000E+00  0.00000000000E+00  0.11867774946E+04  0.11867774946E+04  0.25500000920E-02 0. -1.
       -2   -1    0    0    0  501  0.00000000000E+00  0.00000000000E+00 -0.28895097173E+04  0.28895097173E+04  0.25500000920E-02 0.  1.
    10030    2    1    2    0    0  0.00000000000E+00  0.00000000000E+00 -0.17027322227E+04  0.40762872120E+04  0.37036226066E+04 0.  0.
        2    1    3    3  502    0  0.43777865161E+03  0.85225537596E+03  0.89276874541E+03  0.13095897856E+04  0.25500000920E-02 0. -1.
       -2    1    3    3    0  502 -0.43777865161E+03 -0.85225537596E+03 -0.25955009681E+04  0.27666974264E+04  0.25500000920E-02 0.  1.
</event>
<event>
 5   0  0.2996969E-07  0.3696770E+04  0.7818609E-02  0.8068678E-01
       -2   -1    0    0    0  501  0.00000000000E+00  0.00000000000E+00  0.13779351805E+04  0.13779351805E+04  0.25500000920E-02 0.  1.
        2   -1    0    0  501    0  0.00000000000E+00  0.00000000000E+00 -0.24794537348E+04  0.24794537348E+04  0.25500000920E-02 0. -1.
    10030    2    1    2    0    0  0.00000000000E+00  0.00000000000E+00 -0.11015185542E+04  0.38573889153E+04  0.36967696870E+04 0.  0.
        1    1    3    3  502    0  0.61894431083E+03 -0.33332969781E+03 -0.23345148732E+04  0.24380648967E+04  0.50400001928E-02 0. -1.
       -1    1    3    3    0  502 -0.61894431083E+03  0.33332969781E+03  0.12329963189E+04  0.14193240186E+04  0.50400001928E-02 0.  1.
</event>
<event>
 5   0  0.3008879E-07  0.3700135E+04  0.7818609E-02  0.8067932E-01
       -2   -1    0    0    0  501  0.00000000000E+00  0.00000000000E+00  0.23036487025E+04  0.23036487025E+04  0.25500000920E-02 0. -1.
        2   -1    0    0  501    0  0.00000000000E+00  0.00000000000E+00 -0.14857950322E+04  0.14857950322E+04  0.25500000920E-02 0.  1.
    10030    2    1    2    0    0  0.00000000000E+00  0.00000000000E+00  0.81785367023E+03  0.37894437347E+04  0.37001350236E+04 0.  0.
        2    1    3    3  502    0  0.49615014827E+03  0.17807757844E+04  0.48434136621E+03  0.19109981484E+04  0.25500000920E-02 0.  1.
       -2    1    3    3    0  502 -0.49615014827E+03 -0.17807757844E+04  0.33351230402E+03  0.18784455864E+04  0.25500000920E-02 0. -1.
</event>
<event>
 5   0  0.9341000E-08  0.3484895E+04  0.7818609E-02  0.8117379E-01
       -1   -1    0    0    0  501  0.00000000000E+00  0.00000000000E+00  0.16145524220E+04  0.16145524220E+04  0.50400001928E-02 0.  1.
        1   -1    0    0  501    0  0.00000000000E+00  0.00000000000E+00 -0.18804736001E+04  0.18804736001E+04  0.50400001928E-02 0. -1.
    10030    2    1    2    0    0  0.00000000000E+00  0.00000000000E+00 -0.26592117816E+03  0.34950260221E+04  0.34848949514E+04 0.  0.
        1    1    3    3  502    0  0.53771357797E+03  0.10076336532E+03  0.15261867512E+04  0.16212757777E+04  0.50400001928E-02 0.  1.
       -1    1    3    3    0  502 -0.53771357797E+03 -0.10076336532E+03 -0.17921079294E+04  0.18737502444E+04  0.50400001928E-02 0. -1.
</event>
<event>
 5   0  0.9646615E-08  0.3624715E+04  0.7818609E-02  0.8084854E-01
        1   -1    0    0  501    0  0.00000000000E+00  0.00000000000E+00  0.21470020227E+04  0.21470020227E+04  0.50400001928E-02 0.  1.
       -1   -1    0    0    0  501  0.00000000000E+00  0.00000000000E+00 -0.15298726132E+04  0.15298726132E+04  0.50400001928E-02 0. -1.
    10030    2    1    2    0    0  0.00000000000E+00  0.00000000000E+00  0.61712940954E+03  0.36768746359E+04  0.36247149378E+04 0.  0.
        2    1    3    3  502    0  0.51343481205E+03  0.16526859357E+04 -0.23737457893E+03  0.17468064572E+04  0.25500000920E-02 0. -1.
       -2    1    3    3    0  502 -0.51343481205E+03 -0.16526859357E+04  0.85450398847E+03  0.19300681787E+04  0.25500000920E-02 0.  1.
</event>
<event>
 5   0  0.9341000E-08  0.3678118E+04  0.7818609E-02  0.8072828E-01
        1   -1    0    0  501    0  0.00000000000E+00  0.00000000000E+00  0.20394148940E+04  0.20394148940E+04  0.50400001928E-02 0.  1.
       -1   -1    0    0    0  501  0.00000000000E+00  0.00000000000E+00 -0.16583865814E+04  0.16583865814E+04  0.50400001928E-02 0. -1.
    10030    2    1    2    0    0  0.00000000000E+00  0.00000000000E+00  0.38102831267E+03  0.36978014754E+04  0.36781181569E+04 0.  0.
        4    1    3    3  502    0 -0.67871460412E+02  0.31065713351E+03 -0.16305385068E+04  0.16612560985E+04  0.12699999809E+01 0. -1.
       -4    1    3    3    0  502  0.67871460412E+02 -0.31065713351E+03  0.20115668195E+04  0.20365453769E+04  0.12699999809E+01 0.  1.
</event>
<event>
 5   0  0.9341000E-08  0.3704417E+04  0.7818609E-02  0.8066984E-01
       -3   -1    0    0    0  501  0.00000000000E+00  0.00000000000E+00  0.21604859815E+04  0.21604859838E+04  0.10100000352E+00 0.  1.
        3   -1    0    0  501    0  0.00000000000E+00  0.00000000000E+00 -0.15879188554E+04  0.15879188586E+04  0.10100000352E+00 0. -1.
    10030    2    1    2    0    0  0.00000000000E+00  0.00000000000E+00  0.57256712606E+03  0.37484048424E+04  0.37044170592E+04 0.  0.
        3    1    3    3  502    0 -0.21753791610E+03  0.17380748349E+04 -0.32290311491E+03  0.17811494347E+04  0.10100000352E+00 0. -1.
       -3    1    3    3    0  502  0.21753791610E+03 -0.17380748349E+04  0.89547024096E+03  0.19672554078E+04  0.10100000352E+00 0.  1.
</event>
<event>
 5   0  0.3032442E-07  0.3708522E+04  0.7818609E-02  0.8066076E-01
       -2   -1    0    0    0  501  0.00000000000E+00  0.00000000000E+00  0.12557142524E+04  0.12557142524E+04  0.25500000920E-02 0. -1.
        2   -1    0    0  501    0  0.00000000000E+00  0.00000000000E+00 -0.27381098772E+04  0.27381098772E+04  0.25500000920E-02 0.  1.
    10030    2    1    2    0    0  0.00000000000E+00  0.00000000000E+00 -0.14823956248E+04  0.39938241297E+04  0.37085218606E+04 0.  0.
        3    1    3    3  502    0 -0.10788443531E+03  0.12569237664E+04 -0.22047105913E+04  0.25401270062E+04  0.10100000352E+00 0.  1.
       -3    1    3    3    0  502  0.10788443531E+03 -0.12569237664E+04  0.72231496652E+03  0.14536971235E+04  0.10100000352E+00 0. -1.
</event>
<event>
 5   0  0.3032442E-07  0.3690010E+04  0.7818609E-02  0.8070179E-01
       -2   -1    0    0    0  501  0.00000000000E+00  0.00000000000E+00  0.12348384169E+04  0.12348384169E+04  0.25500000920E-02 0.  1.
        2   -1    0    0  501    0  0.00000000000E+00  0.00000000000E+00 -0.27566717229E+04  0.27566717229E+04  0.25500000920E-02 0. -1.
    10030    2    1    2    0    0  0.00000000000E+00  0.00000000000E+00 -0.15218333060E+04  0.39915101398E+04  0.36900103773E+04 0.  0.
        3    1    3    3  502    0  0.10180483859E+04 -0.11747093453E+04  0.31410617244E+03  0.15858837472E+04  0.10100000352E+00 0.  1.
       -3    1    3    3    0  502 -0.10180483859E+04  0.11747093453E+04 -0.18359394784E+04  0.24056263926E+04  0.10100000352E+00 0. -1.
</event>
<event>
 5   0  0.9341000E-08  0.3742191E+04  0.7818609E-02  0.8058676E-01
       -1   -1    0    0    0  501  0.00000000000E+00  0.00000000000E+00  0.16571059000E+04  0.16571059000E+04  0.50400001928E-02 0.  1.
        1   -1    0    0  501    0  0.00000000000E+00  0.00000000000E+00 -0.21127182314E+04  0.21127182315E+04  0.50400001928E-02 0. -1.
    10030    2    1    2    0    0  0.00000000000E+00  0.00000000000E+00 -0.45561233141E+03  0.37698241315E+04  0.37421907201E+04 0.  0.
        3    1    3    3  502    0  0.22179116467E+03 -0.18264617142E+04 -0.57067828654E+03  0.19263508069E+04  0.10100000352E+00 0. -1.
       -3    1    3    3    0  502 -0.22179116467E+03  0.18264617142E+04  0.11506595513E+03  0.18434733246E+04  0.10100000352E+00 0.  1.
</event>
<event>
 5   0  0.9341000E-08  0.3701674E+04  0.7818609E-02  0.8067591E-01
        1   -1    0    0  501    0  0.00000000000E+00  0.00000000000E+00  0.15442559388E+04  0.15442559388E+04  0.50400001928E-02 0.  1.
       -1   -1    0    0    0  501  0.00000000000E+00  0.00000000000E+00 -0.22182830579E+04  0.22182830579E+04  0.50400001928E-02 0. -1.
    10030    2    1    2    0    0  0.00000000000E+00  0.00000000000E+00 -0.67402711909E+03  0.37625389967E+04  0.37016735599E+04 0.  0.
        4    1    3    3  502    0 -0.64063169731E+03 -0.17289537198E+04 -0.50061106331E+03  0.19105766110E+04  0.12699999809E+01 0. -1.
       -4    1    3    3    0  502  0.64063169731E+03  0.17289537198E+04 -0.17341605578E+03  0.18519623857E+04  0.12699999809E+01 0.  1.
</event>
<event>
 5   0  0.9341000E-08  0.3601501E+04  0.7818609E-02  0.8090148E-01
       -3   -1    0    0    0  501  0.00000000000E+00  0.00000000000E+00  0.17743585686E+04  0.17743585714E+04  0.10100000352E+00 0.  1.
        3   -1    0    0  501    0  0.00000000000E+00  0.00000000000E+00 -0.18275345931E+04  0.18275345959E+04  0.10100000352E+00 0. -1.
    10030    2    1    2    0    0  0.00000000000E+00  0.00000000000E+00 -0.53176024576E+02  0.36018931673E+04  0.36015006177E+04 0.  0.
        4    1    3    3  502    0  0.12005922039E+04  0.68413525095E+03 -0.11813728544E+04  0.18179950813E+04  0.12699999809E+01 0. -1.
       -4    1    3    3    0  502 -0.12005922039E+04 -0.68413525095E+03  0.11281968298E+04  0.17838980860E+04  0.12699999809E+01 0.  1.
</event>
<event>
 5   0  0.2897133E-07  0.3681433E+04  0.7818609E-02  0.8072089E-01
       -2   -1    0    0    0  501  0.00000000000E+00  0.00000000000E+00  0.20835700888E+04  0.20835700888E+04  0.25500000920E-02 0. -1.
        2   -1    0    0  501    0  0.00000000000E+00  0.00000000000E+00 -0.16261692809E+04  0.16261692809E+04  0.25500000920E-02 0.  1.
    10030    2    1    2    0    0  0.00000000000E+00  0.00000000000E+00  0.45740080791E+03  0.37097393698E+04  0.36814332389E+04 0.  0.
        4    1    3    3  502    0  0.26648827963E+03  0.12661686972E+04 -0.10905782995E+04  0.16922061970E+04  0.12699999809E+01 0.  1.
       -4    1    3    3    0  502 -0.26648827963E+03 -0.12661686972E+04  0.15479791075E+04  0.20175331727E+04  0.12699999809E+01 0. -1.
</event>
<event>
 5   0  0.2897133E-07  0.3679023E+04  0.7818609E-02  0.8072627E-01
        2   -1    0    0  501    0  0.00000000000E+00  0.00000000000E+00  0.10110964270E+04  0.10110964270E+04  0.25500000920E-02 0.  1.
       -2   -1    0    0    0  501  0.00000000000E+00  0.00000000000E+00 -0.33466666281E+04  0.33466666281E+04  0.25500000920E-02 0. -1.
    10030    2    1    2    0    0  0.00000000000E+00  0.00000000000E+00 -0.23355702011E+04  0.43577630551E+04  0.36790230606E+04 0.  0.
        4    1    3    3  502    0 -0.96657685430E+03  0.39701429525E+03 -0.29609898152E+04  0.31399607425E+04  0.12699999809E+01 0. -1.
       -4    1    3    3    0  502  0.96657685430E+03 -0.39701429525E+03  0.62541961414E+03  0.12178023126E+04  0.12699999809E+01 0.  1.
</event>
<event>
 5   0  0.3032442E-07  0.3699277E+04  0.7818609E-02  0.8068122E-01
        2   -1    0    0  501    0  0.00000000000E+00  0.00000000000E+00  0.24489224423E+04  0.24489224423E+04  0.25500000920E-02 0.  1.
       -2   -1    0    0    0  501  0.00000000000E+00  0.00000000000E+00 -0.13970071124E+04  0.13970071124E+04  0.25500000920E-02 0. -1.
    10030    2    1    2    0    0  0.00000000000E+00  0.00000000000E+00  0.10519153299E+04  0.38459295547E+04  0.36992767237E+04 0.  0.
        3    1    3    3  502    0  0.10022074378E+04  0.24426119749E+03  0.21220997699E+04  0.23595318868E+04  0.10100000352E+00 0.  1.
       -3    1    3    3    0  502 -0.10022074378E+04 -0.24426119749E+03 -0.10701844401E+04  0.14863976679E+04  0.10100000352E+00 0. -1.
</event>
<event>
 5   0  0.9341000E-08  0.3696599E+04  0.7818609E-02  0.8068716E-01
       -1   -1    0    0    0  501  0.00000000000E+00  0.00000000000E+00  0.24078753786E+04  0.24078753786E+04  0.50400001928E-02 0. -1.
        1   -1    0    0  501    0  0.00000000000E+00  0.00000000000E+00 -0.14187659258E+04  0.14187659258E+04  0.50400001928E-02 0.  1.
    10030    2    1    2    0    0  0.00000000000E+00  0.00000000000E+00  0.98910945280E+03  0.38266413044E+04  0.36965992700E+04 0.  0.
        1    1    3    3  502    0 -0.83455332409E+03 -0.16490257329E+04  0.51642671424E+03  0.19189741191E+04  0.50400001928E-02 0.  1.
       -1    1    3    3    0  502  0.83455332409E+03  0.16490257329E+04  0.47268273857E+03  0.19076671853E+04  0.50400001928E-02 0. -1.
</event>
<event>
 5   0  0.2897133E-07  0.3714303E+04  0.7818609E-02  0.8064799E-01
        2   -1    0    0  501    0  0.00000000000E+00  0.00000000000E+00  0.22623902992E+04  0.22623902992E+04  0.25500000920E-02 0.  1.
       -2   -1    0    0    0  501  0.00000000000E+00  0.00000000000E+00 -0.15244990360E+04  0.15244990360E+04  0.25500000920E-02 0. -1.
    10030    2    1    2    0    0  0.00000000000E+00  0.00000000000E+00  0.73789126322E+03  0.37868893352E+04  0.37143030733E+04 0.  0.
        4    1    3    3  502    0  0.16567095257E+04  0.68007440625E+03  0.87031025839E+03  0.19911376671E+04  0.12699999809E+01 0. -1.
       -4    1    3    3    0  502 -0.16567095257E+04 -0.68007440625E+03 -0.13241899517E+03  0.17957516681E+04  0.12699999809E+01 0.  1.
</event>
<event>
 5   0  0.9341000E-08  0.3694391E+04  0.7818609E-02  0.8069206E-01
        1   -1    0    0  501    0  0.00000000000E+00  0.00000000000E+00  0.25580435028E+04  0.25580435028E+04  0.50400001928E-02 0.  1.
       -1   -1    0    0    0  501  0.00000000000E+00  0.00000000000E+00 -0.13338832593E+04  0.13338832593E+04  0.50400001928E-02 0. -1.
    10030    2    1    2    0    0  0.00000000000E+00  0.00000000000E+00  0.12241602435E+04  0.38919267621E+04  0.36943911027E+04 0.  0.
        4    1    3    3  502    0 -0.17280478981E+03 -0.17056521614E+04  0.13366179797E+04  0.21738583274E+04  0.12699999809E+01 0.  1.
       -4    1    3    3    0  502  0.17280478981E+03  0.17056521614E+04 -0.11245773625E+03  0.17180684347E+04  0.12699999809E+01 0. -1.
</event>
<event>
 5   0  0.2996969E-07  0.3699077E+04  0.7818609E-02  0.8068166E-01
       -2   -1    0    0    0  501  0.00000000000E+00  0.00000000000E+00  0.15357558504E+04  0.15357558504E+04  0.25500000920E-02 0. -1.
        2   -1    0    0  501    0  0.00000000000E+00  0.00000000000E+00 -0.22274329774E+04  0.22274329774E+04  0.25500000920E-02 0.  1.
    10030    2    1    2    0    0  0.00000000000E+00  0.00000000000E+00 -0.69167712708E+03  0.37631888278E+04  0.36990773046E+04 0.  0.
        1    1    3    3  502    0  0.65703012733E+02  0.10778094459E+04 -0.18734641317E+04  0.21623732195E+04  0.50400001928E-02 0.  1.
       -1    1    3    3    0  502 -0.65703012733E+02 -0.10778094459E+04  0.11817870046E+04  0.16008156083E+04  0.50400001928E-02 0. -1.
</event>
<event>
 5   0  0.2913025E-07  0.3684121E+04  0.7818609E-02  0.8071490E-01
        2   -1    0    0  501    0  0.00000000000E+00  0.00000000000E+00  0.19787024411E+04  0.19787024411E+04  0.25500000920E-02 0.  1.
       -2   -1    0    0    0  501  0.00000000000E+00  0.00000000000E+00 -0.17148547126E+04  0.17148547126E+04  0.25500000920E-02 0. -1.
    10030    2    1    2    0    0  0.00000000000E+00  0.00000000000E+00  0.26384772845E+03  0.36935571537E+04  0.36841211739E+04 0.  0.
        5    1    3    3  502    0  0.17501412129E+04  0.57381366177E+03  0.16214626314E+03  0.18489375014E+04  0.46999998093E+01 0. -1.
       -5    1    3    3    0  502 -0.17501412129E+04 -0.57381366177E+03  0.10170146531E+03  0.18446196523E+04  0.46999998093E+01 0.  1.
</event>
<event>
 5   0  0.9341000E-08  0.3692662E+04  0.7818609E-02  0.8069590E-01
        1   -1    0    0  501    0  0.00000000000E+00  0.00000000000E+00  0.27489525321E+04  0.27489525321E+04  0.50400001928E-02 0. -1.
       -1   -1    0    0    0  501  0.00000000000E+00  0.00000000000E+00 -0.12400859544E+04  0.12400859544E+04  0.50400001928E-02 0.  1.
    10030    2    1    2    0    0  0.00000000000E+00  0.00000000000E+00  0.15088665777E+04  0.39890384865E+04  0.36926616008E+04 0.  0.
        1    1    3    3  502    0 -0.74025370041E+03 -0.11426913277E+03  0.25774532465E+04  0.26840823783E+04  0.50400001928E-02 0. -1.
       -1    1    3    3    0  502  0.74025370041E+03  0.11426913277E+03 -0.10685866688E+04  0.13049561082E+04  0.50400001928E-02 0.  1.
</event>
<event>
 5   0  0.9341000E-08  0.3702533E+04  0.7818609E-02  0.8067401E-01
       -1   -1    0    0    0  501  0.00000000000E+00  0.00000000000E+00  0.17756435488E+04  0.17756435488E+04  0.50400001928E-02 0.  1.
        1   -1    0    0  501    0  0.00000000000E+00  0.00000000000E+00 -0.19301102210E+04  0.19301102210E+04  0.50400001928E-02 0. -1.
    10030    2    1    2    0    0  0.00000000000E+00  0.00000000000E+00 -0.15446667222E+03  0.37057537698E+04  0.37025330585E+04 0.  0.
        1    1    3    3  502    0 -0.58213487299E+03 -0.11191573765E+04 -0.14333265114E+04  0.19094028208E+04  0.50400001928E-02 0. -1.
       -1    1    3    3    0  502  0.58213487299E+03  0.11191573765E+04  0.12788598391E+04  0.17963509490E+04  0.50400001928E-02 0.  1.
</event>
<event>
 5   0  0.9341000E-08  0.3713748E+04  0.7818609E-02  0.8064922E-01
       -1   -1    0    0    0  501  0.00000000000E+00  0.00000000000E+00  0.20545613889E+04  0.20545613889E+04  0.50400001928E-02 0. -1.
        1   -1    0    0  501    0  0.00000000000E+00  0.00000000000E+00 -0.16782074289E+04  0.16782074289E+04  0.50400001928E-02 0.  1.
    10030    2    1    2    0    0  0.00000000000E+00  0.00000000000E+00  0.37635396006E+03  0.37327688178E+04  0.37137475337E+04 0.  0.
        4    1    3    3  502    0  0.11981925908E+04  0.65091461385E+03 -0.10786846270E+04  0.17386539209E+04  0.12699999809E+01 0.  1.
       -4    1    3    3    0  502 -0.11981925908E+04 -0.65091461385E+03  0.14550385871E+04  0.19941148969E+04  0.12699999809E+01 0. -1.
</event>
<event>
 5   0  0.2897133E-07  0.3717346E+04  0.7818609E-02  0.8064129E-01
        2   -1    0    0  501    0  0.00000000000E+00  0.00000000000E+00  0.27891583108E+04  0.27891583108E+04  0.25500000920E-02 0.  1.
       -2   -1    0    0    0  501  0.00000000000E+00  0.00000000000E+00 -0.12386049843E+04  0.12386049843E+04  0.25500000920E-02 0. -1.
    10030    2    1    2    0    0  0.00000000000E+00  0.00000000000E+00  0.15505533265E+04  0.40277632952E+04  0.37173460350E+04 0.  0.
        4    1    3    3  502    0 -0.14362087060E+04  0.17543639246E+03  0.20394027348E+04  0.25005276448E+04  0.12699999809E+01 0.  1.
       -4    1    3    3    0  502  0.14362087060E+04 -0.17543639246E+03 -0.48884940825E+03  0.15272356504E+04  0.12699999809E+01 0. -1.
</event>
<event>
 5   0  0.9341000E-08  0.3806606E+04  0.7818609E-02  0.8044739E-01
       -1   -1    0    0    0  501  0.00000000000E+00  0.00000000000E+00  0.29742809053E+04  0.29742809053E+04  0.50400001928E-02 0.  1.
        1   -1    0    0  501    0  0.00000000000E+00  0.00000000000E+00 -0.12179623027E+04  0.12179623027E+04  0.50400001928E-02 0. -1.
    10030    2    1    2    0    0  0.00000000000E+00  0.00000000000E+00  0.17563186026E+04  0.41922432081E+04  0.38066058480E+04 0.  0.
        1    1    3    3  502    0  0.10468886078E+04  0.15322569437E+04  0.41250688838E+03  0.19010389348E+04  0.50400001928E-02 0. -1.
       -1    1    3    3    0  502 -0.10468886078E+04 -0.15322569437E+04  0.13438117142E+04  0.22912042733E+04  0.50400001928E-02 0.  1.
</event>
<event>
 5   0  0.2996969E-07  0.3709023E+04  0.7818609E-02  0.8065965E-01
       -2   -1    0    0    0  501  0.00000000000E+00  0.00000000000E+00  0.26662749580E+04  0.26662749580E+04  0.25500000920E-02 0.  1.
        2   -1    0    0  501    0  0.00000000000E+00  0.00000000000E+00 -0.12898945613E+04  0.12898945613E+04  0.25500000920E-02 0. -1.
    10030    2    1    2    0    0  0.00000000000E+00  0.00000000000E+00  0.13763803967E+04  0.39561695192E+04  0.37090233578E+04 0.  0.
        1    1    3    3  502    0 -0.51067321858E+03 -0.17362127850E+04  0.11201328803E+04  0.21283607872E+04  0.50400001928E-02 0.  1.
       -1    1    3    3    0  502  0.51067321858E+03  0.17362127850E+04  0.25624751641E+03  0.18278087320E+04  0.50400001928E-02 0. -1.
</event>
<event>
 5   0  0.9341000E-08  0.3705123E+04  0.7818609E-02  0.8066827E-01
        3   -1    0    0  501    0  0.00000000000E+00  0.00000000000E+00  0.12216322517E+04  0.12216322558E+04  0.10100000352E+00 0.  1.
       -3   -1    0    0    0  501  0.00000000000E+00  0.00000000000E+00 -0.28093433698E+04  0.28093433716E+04  0.10100000352E+00 0. -1.
    10030    2    1    2    0    0  0.00000000000E+00  0.00000000000E+00 -0.15877111181E+04  0.40309756274E+04  0.37051231983E+04 0.  0.
        3    1    3    3  502    0 -0.33365114700E+02 -0.10480938210E+03  0.12180766736E+04  0.12230327185E+04  0.10100000352E+00 0.  1.
       -3    1    3    3    0  502  0.33365114700E+02  0.10480938210E+03 -0.28057877917E+04  0.28079429090E+04  0.10100000352E+00 0. -1.
</event>
<event>
 5   0  0.3032442E-07  0.3740241E+04  0.7818609E-02  0.8059102E-01
        2   -1    0    0  501    0  0.00000000000E+00  0.00000000000E+00  0.21950209064E+04  0.21950209064E+04  0.25500000920E-02 0.  1.
       -2   -1    0    0    0  501  0.00000000000E+00  0.00000000000E+00 -0.15933111021E+04  0.15933111021E+04  0.25500000920E-02 0. -1.
    10030    2    1    2    0    0  0.00000000000E+00  0.00000000000E+00  0.60170980434E+03  0.37883320085E+04  0.37402412647E+04 0.  0.
        3    1    3    3  502    0  0.79583434190E+03 -0.16716447978E+04  0.33639824941E+02  0.18517235965E+04  0.10100000352E+00 0. -1.
       -3    1    3    3    0  502 -0.79583434190E+03  0.16716447978E+04  0.56806997940E+03  0.19366084120E+04  0.10100000352E+00 0.  1.
</event>
<event>
 5   0  0.9341000E-08  0.3718913E+04  0.7818609E-02  0.8063783E-01
       -1   -1    0    0    0  501  0.00000000000E+00  0.00000000000E+00  0.20720659566E+04  0.20720659566E+04  0.50400001928E-02 0.  1.
        1   -1    0    0  501    0  0.00000000000E+00  0.00000000000E+00 -0.16686620286E+04  0.16686620286E+04  0.50400001928E-02 0. -1.
    10030    2    1    2    0    0  0.00000000000E+00  0.00000000000E+00  0.40340392794E+03  0.37407279852E+04  0.37189126274E+04 0.  0.
        1    1    3    3  502    0  0.62561248339E+03 -0.13032715541E+04 -0.97463250641E+03  0.17435068814E+04  0.50400001928E-02 0. -1.
       -1    1    3    3    0  502 -0.62561248339E+03  0.13032715541E+04  0.13780364343E+04  0.19972211038E+04  0.50400001928E-02 0.  1.
</event>
<event>
 5   0  0.9341000E-08  0.3688790E+04  0.7818609E-02  0.8070451E-01
        3   -1    0    0  501    0  0.00000000000E+00  0.00000000000E+00  0.12921519168E+04  0.12921519207E+04  0.10100000352E+00 0.  1.
       -3   -1    0    0    0  501  0.00000000000E+00  0.00000000000E+00 -0.26326567857E+04  0.26326567877E+04  0.10100000352E+00 0. -1.
    10030    2    1    2    0    0  0.00000000000E+00  0.00000000000E+00 -0.13405048690E+04  0.39248087084E+04  0.36887897871E+04 0.  0.
        5    1    3    3  502    0 -0.10509710470E+04  0.10422830515E+04 -0.18410572041E+04  0.23622886825E+04  0.46999998093E+01 0. -1.
       -5    1    3    3    0  502  0.10509710470E+04 -0.10422830515E+04  0.50055233512E+03  0.15625200258E+04  0.46999998093E+01 0.  1.
</event>
<event>
 5   0  0.2913025E-07  0.3706932E+04  0.7818609E-02  0.8066427E-01
       -2   -1    0    0    0  501  0.00000000000E+00  0.00000000000E+00  0.18376509743E+04  0.18376509743E+04  0.25500000920E-02 0.  1.
        2   -1    0    0  501    0  0.00000000000E+00  0.00000000000E+00 -0.18694174750E+04  0.18694174750E+04  0.25500000920E-02 0. -1.
    10030    2    1    2    0    0  0.00000000000E+00  0.00000000000E+00 -0.31766500708E+02  0.37070684494E+04  0.37069323406E+04 0.  0.
        5    1    3    3  502    0 -0.16927383229E+04  0.52326510812E+03 -0.56009561595E+03  0.18581976731E+04  0.46999998093E+01 0. -1.
       -5    1    3    3    0  502  0.16927383229E+04 -0.52326510812E+03  0.52832911524E+03  0.18488707763E+04  0.46999998093E+01 0.  1.
</event>
<event>
 5   0  0.9341000E-08  0.3715412E+04  0.7818609E-02  0.8064555E-01
       -1   -1    0    0    0  501  0.00000000000E+00  0.00000000000E+00  0.28388357734E+04  0.28388357734E+04  0.50400001928E-02 0. -1.
        1   -1    0    0  501    0  0.00000000000E+00  0.00000000000E+00 -0.12156641782E+04  0.12156641782E+04  0.50400001928E-02 0.  1.
    10030    2    1    2    0    0  0.00000000000E+00  0.00000000000E+00  0.16231715952E+04  0.40544999515E+04  0.37154116635E+04 0.  0.
        1    1    3    3  502    0 -0.52955627732E+03  0.17141340969E+04  0.13376451949E+04  0.22378516976E+04  0.50400001928E-02 0.  1.
       -1    1    3    3    0  502  0.52955627732E+03 -0.17141340969E+04  0.28552640028E+03  0.18166482539E+04  0.50400001928E-02 0. -1.
</event>
<event>
 5   0  0.9341000E-08  0.3710372E+04  0.7818609E-02  0.8065667E-01
       -3   -1    0    0    0  501  0.00000000000E+00  0.00000000000E+00  0.12132971445E+04  0.12132971487E+04  0.10100000352E+00 0.  1.
        3   -1    0    0  501    0  0.00000000000E+00  0.00000000000E+00 -0.28366630309E+04  0.28366630327E+04  0.10100000352E+00 0. -1.
    10030    2    1    2    0    0  0.00000000000E+00  0.00000000000E+00 -0.16233658864E+04  0.40499601814E+04  0.37103720393E+04 0.  0.
        2    1    3    3  502    0  0.37758720411E+03 -0.58180673581E+03 -0.26898161390E+04  0.27778016553E+04  0.25500000920E-02 0. -1.
       -2    1    3    3    0  502 -0.37758720411E+03  0.58180673581E+03  0.10664502526E+04  0.12721585262E+04  0.25500000920E-02 0.  1.
</event>
<event>
 5   0  0.9341000E-08  0.3652965E+04  0.7818609E-02  0.8078466E-01
        1   -1    0    0  501    0  0.00000000000E+00  0.00000000000E+00  0.12434724783E+04  0.12434724783E+04  0.50400001928E-02 0.  1.
       -1   -1    0    0    0  501  0.00000000000E+00  0.00000000000E+00 -0.26828400232E+04  0.26828400232E+04  0.50400001928E-02 0. -1.
    10030    2    1    2    0    0  0.00000000000E+00  0.00000000000E+00 -0.14393675449E+04  0.39263125015E+04  0.36529646768E+04 0.  0.
        3    1    3    3  502    0  0.81363913699E+03  0.85926614087E+02 -0.24748653361E+04  0.26065974891E+04  0.10100000352E+00 0. -1.
       -3    1    3    3    0  502 -0.81363913699E+03 -0.85926614087E+02  0.10354977912E+04  0.13197150124E+04  0.10100000352E+00 0.  1.
</event>
<event>
 5   0  0.2897133E-07  0.3700618E+04  0.7818609E-02  0.8067825E-01
        2   -1    0    0  501    0  0.00000000000E+00  0.00000000000E+00  0.12834091679E+04  0.12834091679E+04  0.25500000920E-02 0. -1.
       -2   -1    0    0    0  501  0.00000000000E+00  0.00000000000E+00 -0.26676167980E+04  0.26676167980E+04  0.25500000920E-02 0.  1.
    10030    2    1    2    0    0  0.00000000000E+00  0.00000000000E+00 -0.13842076301E+04  0.39510259659E+04  0.37006182484E+04 0.  0.
        4    1    3    3  502    0 -0.63726909411E+03  0.17253589430E+04 -0.90740971356E+03  0.20509435344E+04  0.12699999809E+01 0.  1.
       -4    1    3    3    0  502  0.63726909411E+03 -0.17253589430E+04 -0.47679791650E+03  0.19000824315E+04  0.12699999809E+01 0. -1.
</event>
<event>
 5   0  0.9646615E-08  0.3736053E+04  0.7818609E-02  0.8060019E-01
       -1   -1    0    0    0  501  0.00000000000E+00  0.00000000000E+00  0.20011604980E+04  0.20011604980E+04  0.50400001928E-02 0. -1.
        1   -1    0    0  501    0  0.00000000000E+00  0.00000000000E+00 -0.17437492579E+04  0.17437492579E+04  0.50400001928E-02 0.  1.
    10030    2    1    2    0    0  0.00000000000E+00  0.00000000000E+00  0.25741124013E+03  0.37449097559E+04  0.37360525335E+04 0.  0.
        2    1    3    3  502    0  0.10298580927E+04 -0.10565335228E+04  0.12771317842E+04  0.19513934432E+04  0.25500000920E-02 0. -1.
       -2    1    3    3    0  502 -0.10298580927E+04  0.10565335228E+04 -0.10197205441E+04  0.17935163127E+04  0.25500000920E-02 0.  1.
</event>
<event>
 5   0  0.2996969E-07  0.3718872E+04  0.7818609E-02  0.8063792E-01
       -2   -1    0    0    0  501  0.00000000000E+00  0.00000000000E+00  0.15365064101E+04  0.15365064101E+04  0.25500000920E-02 0.  1.
        2   -1    0    0  501    0  0.00000000000E+00  0.00000000000E+00 -0.22502358190E+04  0.22502358190E+04  0.25500000920E-02 0. -1.
    10030    2    1    2    0    0  0.00000000000E+00  0.00000000000E+00 -0.71372940892E+03  0.37867422291E+04  0.37188717430E+04 0.  0.
        1    1    3    3  502    0 -0.43116748037E+03  0.14415929465E+04  0.75550378095E+03  0.16837106588E+04  0.50400001928E-02 0.  1.
       -1    1    3    3    0  502  0.43116748037E+03 -0.14415929465E+04 -0.14692331899E+04  0.21030315703E+04  0.50400001928E-02 0. -1.
</event>
<event>
 5   0  0.2897133E-07  0.3631028E+04  0.7818609E-02  0.8083421E-01
        2   -1    0    0  501    0  0.00000000000E+00  0.00000000000E+00  0.16678245228E+04  0.16678245228E+04  0.25500000920E-02 0. -1.
       -2   -1    0    0    0  501  0.00000000000E+00  0.00000000000E+00 -0.19762819447E+04  0.19762819447E+04  0.25500000920E-02 0.  1.
    10030    2    1    2    0    0  0.00000000000E+00  0.00000000000E+00 -0.30845742195E+03  0.36441064675E+04  0.36310282243E+04 0.  0.
        4    1    3    3  502    0  0.45789842535E+02  0.50896213775E+03 -0.19026144419E+04  0.19700463179E+04  0.12699999809E+01 0.  1.
       -4    1    3    3    0  502 -0.45789842535E+02 -0.50896213775E+03  0.15941570199E+04  0.16740601496E+04  0.12699999809E+01 0. -1.
</event>
<event>
 5   0  0.2897133E-07  0.3708446E+04  0.7818609E-02  0.8066093E-01
       -2   -1    0    0    0  501  0.00000000000E+00  0.00000000000E+00  0.14991099808E+04  0.14991099808E+04  0.25500000920E-02 0. -1.
        2   -1    0    0  501    0  0.00000000000E+00  0.00000000000E+00 -0.22934565243E+04  0.22934565243E+04  0.25500000920E-02 0.  1.
    10030    2    1    2    0    0  0.00000000000E+00  0.00000000000E+00 -0.79434654355E+03  0.37925665051E+04  0.37084463411E+04 0.  0.
        4    1    3    3  502    0  0.72487928658E+03  0.17049255243E+04 -0.31848026188E+03  0.18798011367E+04  0.12699999809E+01 0. -1.
       -4    1    3    3    0  502 -0.72487928658E+03 -0.17049255243E+04 -0.47586628167E+03  0.19127653684E+04  0.12699999809E+01 0.  1.
</event>
<event>
 5   0  0.3008879E-07  0.3688708E+04  0.7818609E-02  0.8070469E-01
        2   -1    0    0  501    0  0.00000000000E+00  0.00000000000E+00  0.16796483568E+04  0.16796483568E+04  0.25500000920E-02 0. -1.
       -2   -1    0    0    0  501  0.00000000000E+00  0.00000000000E+00 -0.20252108048E+04  0.20252108048E+04  0.25500000920E-02 0.  1.
    10030    2    1    2    0    0  0.00000000000E+00  0.00000000000E+00 -0.34556244801E+03  0.37048591616E+04  0.36887081752E+04 0.  0.
        2    1    3    3  502    0  0.97206296953E+03 -0.92298092412E+01  0.14014520335E+04  0.17055964963E+04  0.25500000920E-02 0. -1.
       -2    1    3    3    0  502 -0.97206296953E+03  0.92298092412E+01 -0.17470144815E+04  0.19992626652E+04  0.25500000920E-02 0.  1.
</event>
<event>
 5   0  0.3032442E-07  0.3706863E+04  0.7818609E-02  0.8066443E-01
       -2   -1    0    0    0  501  0.00000000000E+00  0.00000000000E+00  0.25979145631E+04  0.25979145631E+04  0.25500000920E-02 0.  1.
        2   -1    0    0  501    0  0.00000000000E+00  0.00000000000E+00 -0.13222945879E+04  0.13222945879E+04  0.25500000920E-02 0. -1.
    10030    2    1    2    0    0  0.00000000000E+00  0.00000000000E+00  0.12756199752E+04  0.39202091510E+04  0.37068630224E+04 0.  0.
        3    1    3    3  502    0 -0.15728384344E+04 -0.40727791141E+03  0.15810585558E+04  0.22670337899E+04  0.10100000352E+00 0.  1.
       -3    1    3    3    0  502  0.15728384344E+04  0.40727791141E+03 -0.30543858056E+03  0.16531753611E+04  0.10100000352E+00 0. -1.
</event>
<event>
 5   0  0.9341000E-08  0.3686915E+04  0.7818609E-02  0.8070868E-01
       -1   -1    0    0    0  501  0.00000000000E+00  0.00000000000E+00  0.15825763990E+04  0.15825763990E+04  0.50400001928E-02 0.  1.
        1   -1    0    0  501    0  0.00000000000E+00  0.00000000000E+00 -0.21473435337E+04  0.21473435337E+04  0.50400001928E-02 0. -1.
    10030    2    1    2    0    0  0.00000000000E+00  0.00000000000E+00 -0.56476713471E+03  0.37299199327E+04  0.36869148061E+04 0.  0.
        3    1    3    3  502    0  0.19116582536E+03  0.13329995971E+04  0.99123017121E+03  0.16721152955E+04  0.10100000352E+00 0.  1.
       -3    1    3    3    0  502 -0.19116582536E+03 -0.13329995971E+04 -0.15559973059E+04  0.20578046372E+04  0.10100000352E+00 0. -1.
</event>
<event>
 5   0  0.9341000E-08  0.3704770E+04  0.7818609E-02  0.8066906E-01
        1   -1    0    0  501    0  0.00000000000E+00  0.00000000000E+00  0.10328845824E+04  0.10328845825E+04  0.50400001928E-02 0.  1.
       -1   -1    0    0    0  501  0.00000000000E+00  0.00000000000E+00 -0.33220841557E+04  0.33220841557E+04  0.50400001928E-02 0. -1.
    10030    2    1    2    0    0  0.00000000000E+00  0.00000000000E+00 -0.22891995733E+04  0.43549687382E+04  0.37047696317E+04 0.  0.
        4    1    3    3  502    0  0.10710564635E+04 -0.28754415097E+03 -0.28887409448E+04  0.30942962764E+04  0.12699999809E+01 0. -1.
       -4    1    3    3    0  502 -0.10710564635E+04  0.28754415097E+03  0.59954137155E+03  0.12606724618E+04  0.12699999809E+01 0.  1.
</event>
<event>
 5   0  0.3032442E-07  0.3696605E+04  0.7818609E-02  0.8068715E-01
        2   -1    0    0  501    0  0.00000000000E+00  0.00000000000E+00  0.17254738994E+04  0.17254738994E+04  0.25500000920E-02 0.  1.
       -2   -1    0    0    0  501  0.00000000000E+00  0.00000000000E+00 -0.19798749677E+04  0.19798749677E+04  0.25500000920E-02 0. -1.
    10030    2    1    2    0    0  0.00000000000E+00  0.00000000000E+00 -0.25440106831E+03  0.37053488670E+04  0.36966052430E+04 0.  0.
        3    1    3    3  502    0  0.77008015468E+03  0.64466577860E+03  0.14281155441E+04  0.17458898672E+04  0.10100000352E+00 0.  1.
       -3    1    3    3    0  502 -0.77008015468E+03 -0.64466577860E+03 -0.16825166124E+04  0.19594589998E+04  0.10100000352E+00 0. -1.
</event>
<event>
 5   0  0.3008879E-07  0.3709793E+04  0.7818609E-02  0.8065795E-01
       -2   -1    0    0    0  501  0.00000000000E+00  0.00000000000E+00  0.15261989861E+04  0.15261989861E+04  0.25500000920E-02 0. -1.
        2   -1    0    0  501    0  0.00000000000E+00  0.00000000000E+00 -0.22543852660E+04  0.22543852660E+04  0.25500000920E-02 0.  1.
    10030    2    1    2    0    0  0.00000000000E+00  0.00000000000E+00 -0.72818627992E+03  0.37805842522E+04  0.37097927206E+04 0.  0.
        2    1    3    3  502    0  0.71480509826E+03  0.16109124299E+04  0.22543989260E+03  0.17767409294E+04  0.25500000920E-02 0. -1.
       -2    1    3    3    0  502 -0.71480509826E+03 -0.16109124299E+04 -0.95362617252E+03  0.20038433227E+04  0.25500000920E-02 0.  1.
</event>
<event>
 5   0  0.9341000E-08  0.3684409E+04  0.7818609E-02  0.8071426E-01
        1   -1    0    0  501    0  0.00000000000E+00  0.00000000000E+00  0.19304796254E+04  0.19304796254E+04  0.50400001928E-02 0.  1.
       -1   -1    0    0    0  501  0.00000000000E+00  0.00000000000E+00 -0.17579660357E+04  0.17579660357E+04  0.50400001928E-02 0. -1.
    10030    2    1    2    0    0  0.00000000000E+00  0.00000000000E+00  0.17251358967E+03  0.36884456611E+04  0.36844091055E+04 0.  0.
        1    1    3    3  502    0 -0.11311112553E+04  0.43890773053E+03 -0.13015032415E+04  0.17793154177E+04  0.50400001928E-02 0. -1.
       -1    1    3    3    0  502  0.11311112553E+04 -0.43890773053E+03  0.14740168312E+04  0.19091302434E+04  0.50400001928E-02 0.  1.
</event>
<event>
 5   0  0.2996969E-07  0.3635975E+04  0.7818609E-02  0.8082300E-01
        2   -1    0    0  501    0  0.00000000000E+00  0.00000000000E+00  0.17684991668E+04  0.17684991668E+04  0.25500000920E-02 0.  1.
       -2   -1    0    0    0  501  0.00000000000E+00  0.00000000000E+00 -0.18688609979E+04  0.18688609979E+04  0.25500000920E-02 0. -1.
    10030    2    1    2    0    0  0.00000000000E+00  0.00000000000E+00 -0.10036183109E+03  0.36373601647E+04  0.36359753121E+04 0.  0.
        1    1    3    3  502    0 -0.12308412322E+04  0.30358213585E+03 -0.13537301180E+04  0.18546475365E+04  0.50400001928E-02 0. -1.
       -1    1    3    3    0  502  0.12308412322E+04 -0.30358213585E+03  0.12533682869E+04  0.17827126282E+04  0.50400001928E-02 0.  1.
</event>
<event>
 5   0  0.9646615E-08  0.3696469E+04  0.7818609E-02  0.8068745E-01
        1   -1    0    0  501    0  0.00000000000E+00  0.00000000000E+00  0.11247725357E+04  0.11247725357E+04  0.50400001928E-02 0.  1.
       -1   -1    0    0    0  501  0.00000000000E+00  0.00000000000E+00 -0.30370324691E+04  0.30370324691E+04  0.50400001928E-02 0. -1.
    10030    2    1    2    0    0  0.00000000000E+00  0.00000000000E+00 -0.19122599335E+04  0.41618050048E+04  0.36964689698E+04 0.  0.
        2    1    3    3  502    0  0.52675595713E+03  0.48268830911E+03 -0.28752666883E+04  0.29627045703E+04  0.25500000920E-02 0. -1.
       -2    1    3    3    0  502 -0.52675595713E+03 -0.48268830911E+03  0.96300675482E+03  0.11991004345E+04  0.25500000920E-02 0.  1.
</event>
<event>
 5   0  0.2913025E-07  0.3702212E+04  0.7818609E-02  0.8067472E-01
       -2   -1    0    0    0  501  0.00000000000E+00  0.00000000000E+00  0.24578362094E+04  0.24578362094E+04  0.25500000920E-02 0. -1.
        2   -1    0    0  501    0  0.00000000000E+00  0.00000000000E+00 -0.13941503489E+04  0.13941503489E+04  0.25500000920E-02 0.  1.
    10030    2    1    2    0    0  0.00000000000E+00  0.00000000000E+00  0.10636858605E+04  0.38519865584E+04  0.37022118843E+04 0.  0.
        5    1    3    3  502    0 -0.34025709938E+03  0.10410365863E+04  0.20845424141E+04  0.23547550263E+04  0.46999998093E+01 0. -1.
       -5    1    3    3    0  502  0.34025709938E+03 -0.10410365863E+04 -0.10208565536E+04  0.14972315321E+04  0.46999998093E+01 0.  1.
</event>
<event>
 5   0  0.9646615E-08  0.3738399E+04  0.7818609E-02  0.8059505E-01
        1   -1    0    0  501    0  0.00000000000E+00  0.00000000000E+00  0.22003416535E+04  0.22003416535E+04  0.50400001928E-02 0.  1.
       -1   -1    0    0    0  501  0.00000000000E+00  0.00000000000E+00 -0.15878929202E+04  0.15878929202E+04  0.50400001928E-02 0. -1.
    10030    2    1    2    0    0  0.00000000000E+00  0.00000000000E+00  0.61244873332E+03  0.37882345737E+04  0.37383990871E+04 0.  0.
        2    1    3    3  502    0  0.26320370662E+03  0.69206208345E+03  0.20454024125E+04  0.21752924281E+04  0.25500000920E-02 0.  1.
       -2    1    3    3    0  502 -0.26320370662E+03 -0.69206208345E+03 -0.14329536792E+04  0.16129421457E+04  0.25500000920E-02 0. -1.
</event>
<event>
 5   0  0.9341000E-08  0.3692018E+04  0.7818609E-02  0.8069733E-01
       -1   -1    0    0    0  501  0.00000000000E+00  0.00000000000E+00  0.16202313625E+04  0.16202313625E+04  0.50400001928E-02 0. -1.
        1   -1    0    0  501    0  0.00000000000E+00  0.00000000000E+00 -0.21032488688E+04  0.21032488688E+04  0.50400001928E-02 0.  1.
    10030    2    1    2    0    0  0.00000000000E+00  0.00000000000E+00 -0.48301750635E+03  0.37234802313E+04  0.36920182992E+04 0.  0.
        3    1    3    3  502    0 -0.13631655555E+04  0.12432502937E+04 -0.30415203753E+03  0.18698663312E+04  0.10100000352E+00 0. -1.
       -3    1    3    3    0  502  0.13631655555E+04 -0.12432502937E+04 -0.17886546882E+03  0.18536139001E+04  0.10100000352E+00 0.  1.
</event>
<event>
 5   0  0.9341000E-08  0.3704357E+04  0.7818609E-02  0.8066997E-01
        3   -1    0    0  501    0  0.00000000000E+00  0.00000000000E+00  0.17579633036E+04  0.17579633065E+04  0.10100000352E+00 0. -1.
       -3   -1    0    0    0  501  0.00000000000E+00  0.00000000000E+00 -0.19514425384E+04  0.19514425410E+04  0.10100000352E+00 0.  1.
    10030    2    1    2    0    0  0.00000000000E+00  0.00000000000E+00 -0.19347923477E+03  0.37094058476E+04  0.37043565605E+04 0.  0.
        4    1    3    3  502    0 -0.16037275719E+04 -0.91038934405E+03 -0.26963615615E+03  0.18637210500E+04  0.12699999809E+01 0.  1.
       -4    1    3    3    0  502  0.16037275719E+04  0.91038934405E+03  0.76156921377E+02  0.18456847976E+04  0.12699999809E+01 0. -1.
</event>
<event>
 5   0  0.2996969E-07  0.3677836E+04  0.7818609E-02  0.8072891E-01
       -2   -1    0    0    0  501  0.00000000000E+00  0.00000000000E+00  0.17746506877E+04  0.17746506877E+04  0.25500000920E-02 0.  1.
        2   -1    0    0  501    0  0.00000000000E+00  0.00000000000E+00 -0.19055129203E+04  0.19055129203E+04  0.25500000920E-02 0. -1.
    10030    2    1    2    0    0  0.00000000000E+00  0.00000000000E+00 -0.13086223252E+03  0.36801636080E+04  0.36778362196E+04 0.  0.
        1    1    3    3  502    0 -0.97975685318E+03 -0.15394972664E+04 -0.29282916645E+03  0.18481678077E+04  0.50400001928E-02 0. -1.
       -1    1    3    3    0  502  0.97975685318E+03  0.15394972664E+04  0.16196693392E+03  0.18319958003E+04  0.50400001928E-02 0.  1.
</event>
<event>
 5   0  0.9341000E-08  0.3679218E+04  0.7818609E-02  0.8072583E-01
       -1   -1    0    0    0  501  0.00000000000E+00  0.00000000000E+00  0.20388163276E+04  0.20388163276E+04  0.50400001928E-02 0. -1.
        1   -1    0    0  501    0  0.00000000000E+00  0.00000000000E+00 -0.16598658458E+04  0.16598658458E+04  0.50400001928E-02 0.  1.
    10030    2    1    2    0    0  0.00000000000E+00  0.00000000000E+00  0.37895048186E+03  0.36986821734E+04  0.36792181713E+04 0.  0.
        3    1    3    3  502    0 -0.13113552829E+04  0.67100916373E+03  0.12972374124E+04  0.19628374589E+04  0.10100000352E+00 0. -1.
       -3    1    3    3    0  502  0.13113552829E+04 -0.67100916373E+03 -0.91828693054E+03  0.17358447145E+04  0.10100000352E+00 0.  1.
</event>
<event>
 5   0  0.3008879E-07  0.3702698E+04  0.7818609E-02  0.8067364E-01
        2   -1    0    0  501    0  0.00000000000E+00  0.00000000000E+00  0.22244731101E+04  0.22244731101E+04  0.25500000920E-02 0. -1.
       -2   -1    0    0    0  501  0.00000000000E+00  0.00000000000E+00 -0.15408112590E+04  0.15408112590E+04  0.25500000920E-02 0.  1.
    10030    2    1    2    0    0  0.00000000000E+00  0.00000000000E+00  0.68366185116E+03  0.37652843691E+04  0.37026980505E+04 0.  0.
        2    1    3    3  502    0  0.72917357838E+03  0.55441973706E+03  0.19778813240E+04  0.21796994940E+04  0.25500000920E-02 0. -1.
       -2    1    3    3    0  502 -0.72917357838E+03 -0.55441973706E+03 -0.12942194728E+04  0.15855848751E+04  0.25500000920E-02 0.  1.
</event>
<event>
 5   0  0.9341000E-08  0.3773984E+04  0.7818609E-02  0.8051761E-01
        1   -1    0    0  501    0  0.00000000000E+00  0.00000000000E+00  0.23216368950E+04  0.23216368950E+04  0.50400001928E-02 0. -1.
       -1   -1    0    0    0  501  0.00000000000E+00  0.00000000000E+00 -0.15337186916E+04  0.15337186916E+04  0.50400001928E-02 0.  1.
    10030    2    1    2    0    0  0.00000000000E+00  0.00000000000E+00  0.78791820334E+03  0.38553555866E+04  0.37739835193E+04 0.  0.
        4    1    3    3  502    0  0.15451596610E+03  0.19989455080E+03  0.23042796645E+04  0.23180896015E+04  0.12699999809E+01 0. -1.
       -4    1    3    3    0  502 -0.15451596610E+03 -0.19989455080E+03 -0.15163614612E+04  0.15372659851E+04  0.12699999809E+01 0.  1.
</event>
<event>
 5   0  0.9418945E-08  0.3658899E+04  0.7818609E-02  0.8077132E-01
       -1   -1    0    0    0  501  0.00000000000E+00  0.00000000000E+00  0.13649737332E+04  0.13649737332E+04  0.50400001928E-02 0. -1.
        1   -1    0    0  501    0  0.00000000000E+00  0.00000000000E+00 -0.24519778453E+04  0.24519778453E+04  0.50400001928E-02 0.  1.
    10030    2    1    2    0    0  0.00000000000E+00  0.00000000000E+00 -0.10870041121E+04  0.38169515785E+04  0.36588989345E+04 0.  0.
        5    1    3    3  502    0  0.71454187492E+03  0.11527797374E+04 -0.18242962407E+04  0.22732245991E+04  0.46999998093E+01 0.  1.
       -5    1    3    3    0  502 -0.71454187492E+03 -0.11527797374E+04  0.73729212858E+03  0.15437269794E+04  0.46999998093E+01 0. -1.
</event>
<event>
 5   0  0.2913025E-07  0.3708811E+04  0.7818609E-02  0.8066012E-01
        2   -1    0    0  501    0  0.00000000000E+00  0.00000000000E+00  0.24060888649E+04  0.24060888649E+04  0.25500000920E-02 0.  1.
       -2   -1    0    0    0  501  0.00000000000E+00  0.00000000000E+00 -0.14292157524E+04  0.14292157524E+04  0.25500000920E-02 0. -1.
    10030    2    1    2    0    0  0.00000000000E+00  0.00000000000E+00  0.97687311249E+03  0.38353046173E+04  0.37088111881E+04 0.  0.
        5    1    3    3  502    0  0.17789502491E+03  0.62856714447E+03  0.22831559994E+04  0.23747771901E+04  0.46999998093E+01 0.  1.
       -5    1    3    3    0  502 -0.17789502491E+03 -0.62856714447E+03 -0.13062828869E+04  0.14605274272E+04  0.46999998093E+01 0. -1.
</event>
<event>
 5   0  0.9341000E-08  0.3705416E+04  0.7818609E-02  0.8066763E-01
        3   -1    0    0  501    0  0.00000000000E+00  0.00000000000E+00  0.14600940695E+04  0.14600940730E+04  0.10100000352E+00 0. -1.
       -3   -1    0    0    0  501  0.00000000000E+00  0.00000000000E+00 -0.23508938788E+04  0.23508938810E+04  0.10100000352E+00 0.  1.
    10030    2    1    2    0    0  0.00000000000E+00  0.00000000000E+00 -0.89079980930E+03  0.38109879540E+04  0.37054156157E+04 0.  0.
        2    1    3    3  502    0  0.14426530379E+04  0.19769728456E+03  0.73274771019E+03  0.16301077298E+04  0.25500000920E-02 0. -1.
       -2    1    3    3    0  502 -0.14426530379E+04 -0.19769728456E+03 -0.16235475195E+04  0.21808802242E+04  0.25500000920E-02 0.  1.
</event>
<event>
 5   0  0.9646615E-08  0.3747973E+04  0.7818609E-02  0.8057413E-01
       -1   -1    0    0    0  501  0.00000000000E+00  0.00000000000E+00  0.26170044880E+04  0.26170044880E+04  0.50400001928E-02 0.  1.
        1   -1    0    0  501    0  0.00000000000E+00  0.00000000000E+00 -0.13419253795E+04  0.13419253795E+04  0.50400001928E-02 0. -1.
    10030    2    1    2    0    0  0.00000000000E+00  0.00000000000E+00  0.12750791085E+04  0.39589298676E+04  0.37479726471E+04 0.  0.
        2    1    3    3  502    0  0.93026550111E+03  0.76042698585E+03 -0.88152326672E+03  0.14902101775E+04  0.25500000920E-02 0.  1.
       -2    1    3    3    0  502 -0.93026550111E+03 -0.76042698585E+03  0.21566023752E+04  0.24687196900E+04  0.25500000920E-02 0. -1.
</event>
<event>
 5   0  0.2996969E-07  0.3709753E+04  0.7818609E-02  0.8065804E-01
       -2   -1    0    0    0  501  0.00000000000E+00  0.00000000000E+00  0.13439930272E+04  0.13439930272E+04  0.25500000920E-02 0.  1.
        2   -1    0    0  501    0  0.00000000000E+00  0.00000000000E+00 -0.25599581830E+04  0.25599581830E+04  0.25500000920E-02 0. -1.
    10030    2    1    2    0    0  0.00000000000E+00  0.00000000000E+00 -0.12159651558E+04  0.39039512102E+04  0.37097525243E+04 0.  0.
        1    1    3    3  502    0  0.44652280374E+03 -0.90044228564E+03 -0.22485616276E+04  0.24629673804E+04  0.50400001928E-02 0. -1.
       -1    1    3    3    0  502 -0.44652280374E+03  0.90044228564E+03  0.10325964718E+04  0.14409838298E+04  0.50400001928E-02 0.  1.
</event>
<event>
 5   0  0.9341000E-08  0.3709741E+04  0.7818609E-02  0.8065807E-01
        1   -1    0    0  501    0  0.00000000000E+00  0.00000000000E+00  0.24453412915E+04  0.24453412915E+04  0.50400001928E-02 0.  1.
       -1   -1    0    0    0  501  0.00000000000E+00  0.00000000000E+00 -0.14069790257E+04  0.14069790257E+04  0.50400001928E-02 0. -1.
    10030    2    1    2    0    0  0.00000000000E+00  0.00000000000E+00  0.10383622658E+04  0.38523203172E+04  0.37097406420E+04 0.  0.
        1    1    3    3  502    0  0.34741283093E+03  0.97022844964E+03  0.21206956380E+04  0.23578356407E+04  0.50400001928E-02 0.  1.
       -1    1    3    3    0  502 -0.34741283093E+03 -0.97022844964E+03 -0.10823333722E+04  0.14944846765E+04  0.50400001928E-02 0. -1.
</event>
<event>
 5   0  0.2996969E-07  0.3509207E+04  0.7818609E-02  0.8111612E-01
        2   -1    0    0  501    0  0.00000000000E+00  0.00000000000E+00  0.24298509759E+04  0.24298509759E+04  0.25500000920E-02 0. -1.
       -2   -1    0    0    0  501  0.00000000000E+00  0.00000000000E+00 -0.12670047497E+04  0.12670047497E+04  0.25500000920E-02 0.  1.
    10030    2    1    2    0    0  0.00000000000E+00  0.00000000000E+00  0.11628462262E+04  0.36968557256E+04  0.35092065927E+04 0.  0.
        1    1    3    3  502    0 -0.12749522361E+04  0.10116189025E+04  0.12720363582E+04  0.20656603072E+04  0.50400001928E-02 0. -1.
       -1    1    3    3    0  502  0.12749522361E+04 -0.10116189025E+04 -0.10919013208E+03  0.16311954184E+04  0.50400001928E-02 0.  1.
</event>
<event>
 5   0  0.2996969E-07  0.3712716E+04  0.7818609E-02  0.8065150E-01
       -2   -1    0    0    0  501  0.00000000000E+00  0.00000000000E+00  0.14466663234E+04  0.14466663234E+04  0.25500000920E-02 0. -1.
        2   -1    0    0  501    0  0.00000000000E+00  0.00000000000E+00 -0.23820732293E+04  0.23820732293E+04  0.25500000920E-02 0.  1.
    10030    2    1    2    0    0  0.00000000000E+00  0.00000000000E+00 -0.93540690597E+03  0.38287395527E+04  0.37127160520E+04 0.  0.
        1    1    3    3  502    0  0.14094655854E+04 -0.12053870791E+04 -0.55093419364E+03  0.19347040426E+04  0.50400001928E-02 0.  1.
       -1    1    3    3    0  502 -0.14094655854E+04  0.12053870791E+04 -0.38447271233E+03  0.18940355101E+04  0.50400001928E-02 0. -1.
</event>
<event>
 5   0  0.9341000E-08  0.3702669E+04  0.7818609E-02  0.8067371E-01
       -1   -1    0    0    0  501  0.00000000000E+00  0.00000000000E+00  0.16306251750E+04  0.16306251750E+04  0.50400001928E-02 0. -1.
        1   -1    0    0  501    0  0.00000000000E+00  0.00000000000E+00 -0.21019178043E+04  0.21019178043E+04  0.50400001928E-02 0.  1.
    10030    2    1    2    0    0  0.00000000000E+00  0.00000000000E+00 -0.47129262936E+03  0.37325429793E+04  0.37026693547E+04 0.  0.
        4    1    3    3  502    0  0.12426873994E+04  0.12431869572E+04 -0.82141343888E+03  0.19402338605E+04  0.12699999809E+01 0. -1.
       -4    1    3    3    0  502 -0.12426873994E+04 -0.12431869572E+04  0.35012080952E+03  0.17923091188E+04  0.12699999809E+01 0.  1.
</event>
<event>
 5   0  0.9418945E-08  0.3742194E+04  0.7818609E-02  0.8058675E-01
        1   -1    0    0  501    0  0.00000000000E+00  0.00000000000E+00  0.15900844681E+04  0.15900844681E+04  0.50400001928E-02 0.  1.
       -1   -1    0    0    0  501  0.00000000000E+00  0.00000000000E+00 -0.22017718289E+04  0.22017718289E+04  0.50400001928E-02 0. -1.
    10030    2    1    2    0    0  0.00000000000E+00  0.00000000000E+00 -0.61168736081E+03  0.37918562970E+04  0.37421935745E+04 0.  0.
        5    1    3    3  502    0 -0.46748115278E+03 -0.11486855460E+04  0.11138079557E+04  0.16669155239E+04  0.46999998093E+01 0.  1.
       -5    1    3    3    0  502  0.46748115278E+03  0.11486855460E+04 -0.17254953165E+04  0.21249407730E+04  0.46999998093E+01 0. -1.
</event>
<event>
 5   0  0.2897133E-07  0.3672231E+04  0.7818609E-02  0.8074144E-01
       -2   -1    0    0    0  501  0.00000000000E+00  0.00000000000E+00  0.12791656504E+04  0.12791656504E+04  0.25500000920E-02 0.  1.
        2   -1    0    0  501    0  0.00000000000E+00  0.00000000000E+00 -0.26355617296E+04  0.26355617296E+04  0.25500000920E-02 0. -1.
    10030    2    1    2    0    0  0.00000000000E+00  0.00000000000E+00 -0.13563960792E+04  0.39147273800E+04  0.36722309481E+04 0.  0.
        4    1    3    3  502    0  0.11134821720E+04 -0.14159802656E+04 -0.29907935594E+03  0.18260045822E+04  0.12699999809E+01 0.  1.
       -4    1    3    3    0  502 -0.11134821720E+04  0.14159802656E+04 -0.10573167232E+04  0.20887227979E+04  0.12699999809E+01 0. -1.
</event>
<event>
 5   0  0.9341000E-08  0.3470721E+04  0.7818609E-02  0.8120764E-01
       -1   -1    0    0    0  501  0.00000000000E+00  0.00000000000E+00  0.12411749052E+04  0.12411749052E+04  0.50400001928E-02 0.  1.
        1   -1    0    0  501    0  0.00000000000E+00  0.00000000000E+00 -0.24263104025E+04  0.24263104025E+04  0.50400001928E-02 0. -1.
    10030    2    1    2    0    0  0.00000000000E+00  0.00000000000E+00 -0.11851354973E+04  0.36674853076E+04  0.34707207227E+04 0.  0.
        4    1    3    3  502    0 -0.74687676847E+02 -0.12731667914E+03 -0.24196643768E+04  0.24241627617E+04  0.12699999809E+01 0. -1.
       -4    1    3    3    0  502  0.74687676847E+02  0.12731667914E+03  0.12345288795E+04  0.12433225459E+04  0.12699999809E+01 0.  1.
</event>
<event>
 5   0  0.9341000E-08  0.3693113E+04  0.7818609E-02  0.8069490E-01
        1   -1    0    0  501    0  0.00000000000E+00  0.00000000000E+00  0.13897209453E+04  0.13897209453E+04  0.50400001928E-02 0.  1.
       -1   -1    0    0    0  501  0.00000000000E+00  0.00000000000E+00 -0.24535653525E+04  0.24535653525E+04  0.50400001928E-02 0. -1.
    10030    2    1    2    0    0  0.00000000000E+00  0.00000000000E+00 -0.10638444072E+04  0.38432862978E+04  0.36931131372E+04 0.  0.
        1    1    3    3  502    0  0.11005412762E+04  0.52854680014E+03 -0.19736136369E+04  0.23207118753E+04  0.50400001928E-02 0. -1.
       -1    1    3    3    0  502 -0.11005412762E+04 -0.52854680014E+03  0.90976922972E+03  0.15225744225E+04  0.50400001928E-02 0.  1.
</event>
<event>
 5   0  0.9418945E-08  0.3650126E+04  0.7818609E-02  0.8079105E-01
       -1   -1    0    0    0  501  0.00000000000E+00  0.00000000000E+00  0.11652102878E+04  0.11652102879E+04  0.50400001928E-02 0. -1.
        1   -1    0    0  501    0  0.00000000000E+00  0.00000000000E+00 -0.28585874823E+04  0.28585874823E+04  0.50400001928E-02 0.  1.
    10030    2    1    2    0    0  0.00000000000E+00  0.00000000000E+00 -0.16933771944E+04  0.40237977701E+04  0.36501263228E+04 0.  0.
        5    1    3    3  502    0  0.11387485028E+04 -0.17316456162E+03  0.71389800063E+03  0.13551407909E+04  0.46999998093E+01 0. -1.
       -5    1    3    3    0  502 -0.11387485028E+04  0.17316456162E+03 -0.24072751950E+04  0.26686569792E+04  0.46999998093E+01 0.  1.
</event>
<event>
 5   0  0.2897133E-07  0.3658938E+04  0.7818609E-02  0.8077123E-01
        2   -1    0    0  501    0  0.00000000000E+00  0.00000000000E+00  0.24826166120E+04  0.24826166120E+04  0.25500000920E-02 0. -1.
       -2   -1    0    0    0  501  0.00000000000E+00  0.00000000000E+00 -0.13481567537E+04  0.13481567537E+04  0.25500000920E-02 0.  1.
    10030    2    1    2    0    0  0.00000000000E+00  0.00000000000E+00  0.11344598583E+04  0.38307733657E+04  0.36589377433E+04 0.  0.
        4    1    3    3  502    0  0.42257746567E+03  0.66674728881E+03 -0.11606816881E+04  0.14036763358E+04  0.12699999809E+01 0.  1.
       -4    1    3    3    0  502 -0.42257746567E+03 -0.66674728881E+03  0.22951415464E+04  0.24270970299E+04  0.12699999809E+01 0. -1.
</event>
<event>
 5   0  0.3008879E-07  0.3707798E+04  0.7818609E-02  0.8066236E-01
       -2   -1    0    0    0  501  0.00000000000E+00  0.00000000000E+00  0.14456780103E+04  0.14456780103E+04  0.25500000920E-02 0. -1.
        2   -1    0    0  501    0  0.00000000000E+00  0.00000000000E+00 -0.23773901446E+04  0.23773901446E+04  0.25500000920E-02 0.  1.
    10030    2    1    2    0    0  0.00000000000E+00  0.00000000000E+00 -0.93171213434E+03  0.38230681549E+04  0.37077975424E+04 0.  0.
        2    1    3    3  502    0  0.10842811324E+04 -0.36215358585E+03  0.10390106908E+04  0.15447860724E+04  0.25500000920E-02 0. -1.
       -2    1    3    3    0  502 -0.10842811324E+04  0.36215358585E+03 -0.19707228251E+04  0.22782820825E+04  0.25500000920E-02 0.  1.
</event>
<event>
 5   0  0.9418945E-08  0.3698454E+04  0.7818609E-02  0.8068304E-01
       -1   -1    0    0    0  501  0.00000000000E+00  0.00000000000E+00  0.15547101484E+04  0.15547101484E+04  0.50400001928E-02 0.  1.
        1   -1    0    0  501    0  0.00000000000E+00  0.00000000000E+00 -0.21995359821E+04  0.21995359821E+04  0.50400001928E-02 0. -1.
    10030    2    1    2    0    0  0.00000000000E+00  0.00000000000E+00 -0.64482583368E+03  0.37542461305E+04  0.36984542248E+04 0.  0.
        5    1    3    3  502    0 -0.95084514673E+03 -0.97265592023E+03 -0.15940893480E+04  0.20955450297E+04  0.46999998093E+01 0. -1.
       -5    1    3    3    0  502  0.95084514673E+03  0.97265592023E+03  0.94926351432E+03  0.16587011008E+04  0.46999998093E+01 0.  1.
</event>
<event>
 5   0  0.9341000E-08  0.3702934E+04  0.7818609E-02  0.8067312E-01
        1   -1    0    0  501    0  0.00000000000E+00  0.00000000000E+00  0.19087301806E+04  0.19087301806E+04  0.50400001928E-02 0. -1.
       -1   -1    0    0    0  501  0.00000000000E+00  0.00000000000E+00 -0.17959220916E+04  0.17959220917E+04  0.50400001928E-02 0.  1.
    10030    2    1    2    0    0  0.00000000000E+00  0.00000000000E+00  0.11280808897E+03  0.37046522723E+04  0.37029343491E+04 0.  0.
        1    1    3    3  502    0  0.12751992683E+04 -0.73059049800E+02  0.13973466868E+04  0.18931583562E+04  0.50400001928E-02 0. -1.
       -1    1    3    3    0  502 -0.12751992683E+04  0.73059049800E+02 -0.12845385978E+04  0.18114939161E+04  0.50400001928E-02 0.  1.
</event>
<event>
 5   0  0.3032442E-07  0.3721004E+04  0.7818609E-02  0.8063323E-01
       -2   -1    0    0    0  501  0.00000000000E+00  0.00000000000E+00  0.14911443487E+04  0.14911443487E+04  0.25500000920E-02 0. -1.
        2   -1    0    0  501    0  0.00000000000E+00  0.00000000000E+00 -0.23213504495E+04  0.23213504495E+04  0.25500000920E-02 0.  1.
    10030    2    1    2    0    0  0.00000000000E+00  0.00000000000E+00 -0.83020610083E+03  0.38124947981E+04  0.37210044902E+04 0.  0.
        3    1    3    3  502    0  0.80959535920E+03 -0.92994054044E+03  0.10124362413E+04  0.15953874788E+04  0.10100000352E+00 0. -1.
       -3    1    3    3    0  502 -0.80959535920E+03  0.92994054044E+03 -0.18426423422E+04  0.22171073194E+04  0.10100000352E+00 0.  1.
</event>
<event>
 5   0  0.2897133E-07  0.3676901E+04  0.7818609E-02  0.8073100E-01
        2   -1    0    0  501    0  0.00000000000E+00  0.00000000000E+00  0.21440302085E+04  0.21440302085E+04  0.25500000920E-02 0. -1.
       -2   -1    0    0    0  501  0.00000000000E+00  0.00000000000E+00 -0.15764241898E+04  0.15764241898E+04  0.25500000920E-02 0.  1.
    10030    2    1    2    0    0  0.00000000000E+00  0.00000000000E+00  0.56760601864E+03  0.37204543983E+04  0.36769014587E+04 0.  0.
        4    1    3    3  502    0 -0.18226417964E+04  0.22626638871E+03  0.20110441005E+03  0.18476104008E+04  0.12699999809E+01 0. -1.
       -4    1    3    3    0  502  0.18226417964E+04 -0.22626638871E+03  0.36650160859E+03  0.18728439974E+04  0.12699999809E+01 0.  1.
</event>
<event>
 5   0  0.2897133E-07  0.3695645E+04  0.7818609E-02  0.8068928E-01
       -2   -1    0    0    0  501  0.00000000000E+00  0.00000000000E+00  0.22457004858E+04  0.22457004858E+04  0.25500000920E-02 0.  1.
        2   -1    0    0  501    0  0.00000000000E+00  0.00000000000E+00 -0.15204377181E+04  0.15204377181E+04  0.25500000920E-02 0. -1.
    10030    2    1    2    0    0  0.00000000000E+00  0.00000000000E+00  0.72526276768E+03  0.37661382039E+04  0.36956448542E+04 0.  0.
        4    1    3    3  502    0 -0.32535343293E+02 -0.15187915575E+03 -0.15137727775E+04  0.15217212167E+04  0.12699999809E+01 0. -1.
       -4    1    3    3    0  502  0.32535343293E+02  0.15187915575E+03  0.22390355452E+04  0.22444169871E+04  0.12699999809E+01 0.  1.
</event>
<event>
 5   0  0.9341000E-08  0.3689018E+04  0.7818609E-02  0.8070400E-01
        1   -1    0    0  501    0  0.00000000000E+00  0.00000000000E+00  0.20986308708E+04  0.20986308708E+04  0.50400001928E-02 0.  1.
       -1   -1    0    0    0  501  0.00000000000E+00  0.00000000000E+00 -0.16211587277E+04  0.16211587277E+04  0.50400001928E-02 0. -1.
    10030    2    1    2    0    0  0.00000000000E+00  0.00000000000E+00  0.47747214303E+03  0.37197895985E+04  0.36890181634E+04 0.  0.
        3    1    3    3  502    0  0.17996681594E+03  0.18135111635E+04  0.52572027506E+03  0.18967320878E+04  0.10100000352E+00 0.  1.
       -3    1    3    3    0  502 -0.17996681594E+03 -0.18135111635E+04 -0.48248132034E+02  0.18230575107E+04  0.10100000352E+00 0. -1.
</event>
<event>
 5   0  0.9418945E-08  0.3706010E+04  0.7818609E-02  0.8066631E-01
        1   -1    0    0  501    0  0.00000000000E+00  0.00000000000E+00  0.22009403703E+04  0.22009403703E+04  0.50400001928E-02 0.  1.
       -1   -1    0    0    0  501  0.00000000000E+00  0.00000000000E+00 -0.15600731004E+04  0.15600731004E+04  0.50400001928E-02 0. -1.
    10030    2    1    2    0    0  0.00000000000E+00  0.00000000000E+00  0.64086726992E+03  0.37610134707E+04  0.37060101820E+04 0.  0.
        5    1    3    3  502    0 -0.41290395249E+03 -0.11000911220E+04 -0.11336313989E+04  0.16327376976E+04  0.46999998093E+01 0. -1.
       -5    1    3    3    0  502  0.41290395249E+03  0.11000911220E+04  0.17744986688E+04  0.21282757731E+04  0.46999998093E+01 0.  1.
</event>
<event>
 5   0  0.9341000E-08  0.3712556E+04  0.7818609E-02  0.8065185E-01
        1   -1    0    0  501    0  0.00000000000E+00  0.00000000000E+00  0.20503551126E+04  0.20503551126E+04  0.50400001928E-02 0.  1.
       -1   -1    0    0    0  501  0.00000000000E+00  0.00000000000E+00 -0.16805712883E+04  0.16805712883E+04  0.50400001928E-02 0. -1.
    10030    2    1    2    0    0  0.00000000000E+00  0.00000000000E+00  0.36978382430E+03  0.37309264009E+04  0.37125559567E+04 0.  0.
        3    1    3    3  502    0 -0.14613979565E+04 -0.10943461330E+04  0.52194751617E+03  0.18988698391E+04  0.10100000352E+00 0.  1.
       -3    1    3    3    0  502  0.14613979565E+04  0.10943461330E+04 -0.15216369187E+03  0.18320565617E+04  0.10100000352E+00 0. -1.
</event>
<event>
 5   0  0.9646615E-08  0.3700597E+04  0.7818609E-02  0.8067829E-01
        1   -1    0    0  501    0  0.00000000000E+00  0.00000000000E+00  0.23332563874E+04  0.23332563874E+04  0.50400001928E-02 0. -1.
       -1   -1    0    0    0  501  0.00000000000E+00  0.00000000000E+00 -0.14673077242E+04  0.14673077243E+04  0.50400001928E-02 0.  1.
    10030    2    1    2    0    0  0.00000000000E+00  0.00000000000E+00  0.86594866314E+03  0.38005641117E+04  0.37005973139E+04 0.  0.
        2    1    3    3  502    0  0.13340686291E+04  0.12278319052E+04  0.81212857175E+03  0.19866713648E+04  0.25500000920E-02 0. -1.
       -2    1    3    3    0  502 -0.13340686291E+04 -0.12278319052E+04  0.53820091392E+02  0.18138927468E+04  0.25500000920E-02 0.  1.
</event>
<event>
 5   0  0.3032442E-07  0.3648984E+04  0.7818609E-02  0.8079362E-01
       -2   -1    0    0    0  501  0.00000000000E+00  0.00000000000E+00  0.25433964148E+04  0.25433964148E+04  0.25500000920E-02 0.  1.
        2   -1    0    0  501    0  0.00000000000E+00  0.00000000000E+00 -0.13087899601E+04  0.13087899601E+04  0.25500000920E-02 0. -1.
    10030    2    1    2    0    0  0.00000000000E+00  0.00000000000E+00  0.12346064547E+04  0.38521863749E+04  0.36489843476E+04 0.  0.
        3    1    3    3  502    0  0.13250667013E+03 -0.12421450892E+04 -0.78651844467E+03  0.14761753671E+04  0.10100000352E+00 0. -1.
       -3    1    3    3    0  502 -0.13250667013E+03  0.12421450892E+04  0.20211248994E+04  0.23760110079E+04  0.10100000352E+00 0.  1.
</event>
<event>
 5   0  0.3032442E-07  0.3698612E+04  0.7818609E-02  0.8068269E-01
       -2   -1    0    0    0  501  0.00000000000E+00  0.00000000000E+00  0.98420130748E+03  0.98420130749E+03  0.25500000920E-02 0. -1.
        2   -1    0    0  501    0  0.00000000000E+00  0.00000000000E+00 -0.34748313326E+04  0.34748313326E+04  0.25500000920E-02 0.  1.
    10030    2    1    2    0    0  0.00000000000E+00  0.00000000000E+00 -0.24906300252E+04  0.44590326401E+04  0.36986124646E+04 0.  0.
        3    1    3    3  502    0  0.15859339552E+04 -0.30172270268E+03 -0.23328337895E+04  0.28369590408E+04  0.10100000352E+00 0.  1.
       -3    1    3    3    0  502 -0.15859339552E+04  0.30172270268E+03 -0.15779623562E+03  0.16220735993E+04  0.10100000352E+00 0. -1.
</event>
<event>
 5   0  0.9418945E-08  0.3701246E+04  0.7818609E-02  0.8067686E-01
        1   -1    0    0  501    0  0.00000000000E+00  0.00000000000E+00  0.22179053843E+04  0.22179053843E+04  0.50400001928E-02 0.  1.
       -1   -1    0    0    0  501  0.00000000000E+00  0.00000000000E+00 -0.15441617077E+04  0.15441617078E+04  0.50400001928E-02 0. -1.
    10030    2    1    2    0    0  0.00000000000E+00  0.00000000000E+00  0.67374367651E+03  0.37620670920E+04  0.37012455016E+04 0.  0.
        5    1    3    3  502    0 -0.12557453237E+04 -0.12883192859E+03 -0.10386168620E+04  0.16346990732E+04  0.46999998093E+01 0. -1.
       -5    1    3    3    0  502  0.12557453237E+04  0.12883192859E+03  0.17123605385E+04  0.21273680189E+04  0.46999998093E+01 0.  1.
</event>
<event>
 5   0  0.3008879E-07  0.3699493E+04  0.7818609E-02  0.8068074E-01
       -2   -1    0    0    0  501  0.00000000000E+00  0.00000000000E+00  0.15390598647E+04  0.15390598647E+04  0.25500000920E-02 0. -1.
        2   -1    0    0  501    0  0.00000000000E+00  0.00000000000E+00 -0.22231504813E+04  0.22231504813E+04  0.25500000920E-02 0.  1.
    10030    2    1    2    0    0  0.00000000000E+00  0.00000000000E+00 -0.68409061666E+03  0.37622103460E+04  0.36994927647E+04 0.  0.
        2    1    3    3  502    0  0.16228796646E+04  0.88759360247E+03 -0.34299382463E+03  0.18812776437E+04  0.25500000920E-02 0. -1.
       -2    1    3    3    0  502 -0.16228796646E+04 -0.88759360247E+03 -0.34109679203E+03  0.18809327023E+04  0.25500000920E-02 0.  1.
</event>
<event>
 5   0  0.2996969E-07  0.3671197E+04  0.7818609E-02  0.8074375E-01
       -2   -1    0    0    0  501  0.00000000000E+00  0.00000000000E+00  0.14204438526E+04  0.14204438526E+04  0.25500000920E-02 0.  1.
        2   -1    0    0  501    0  0.00000000000E+00  0.00000000000E+00 -0.23720901976E+04  0.23720901976E+04  0.25500000920E-02 0. -1.
    10030    2    1    2    0    0  0.00000000000E+00  0.00000000000E+00 -0.95164634498E+03  0.37925340502E+04  0.36711965020E+04 0.  0.
        1    1    3    3  502    0  0.14822770992E+03  0.12881340208E+04  0.86641223211E+03  0.15594649292E+04  0.50400001928E-02 0.  1.
       -1    1    3    3    0  502 -0.14822770992E+03 -0.12881340208E+04 -0.18180585771E+04  0.22330691210E+04  0.50400001928E-02 0. -1.
</event>
<event>
 5   0  0.2897133E-07  0.3680168E+04  0.7818609E-02  0.8072371E-01
        2   -1    0    0  501    0  0.00000000000E+00  0.00000000000E+00  0.28787245208E+04  0.28787245208E+04  0.25500000920E-02 0. -1.
       -2   -1    0    0    0  501  0.00000000000E+00  0.00000000000E+00 -0.11761840483E+04  0.11761840483E+04  0.25500000920E-02 0.  1.
    10030    2    1    2    0    0  0.00000000000E+00  0.00000000000E+00  0.17025404725E+04  0.40549085690E+04  0.36801683987E+04 0.  0.
        4    1    3    3  502    0 -0.15415192891E+04  0.72040598380E+03  0.16230539745E+04  0.23515042669E+04  0.12699999809E+01 0.  1.
       -4    1    3    3    0  502  0.15415192891E+04 -0.72040598380E+03  0.79486497992E+02  0.17034043021E+04  0.12699999809E+01 0. -1.
</event>
<event>
 5   0  0.9418945E-08  0.3851556E+04  0.7818609E-02  0.8035181E-01
       -1   -1    0    0    0  501  0.00000000000E+00  0.00000000000E+00  0.18662009520E+04  0.18662009520E+04  0.50400001928E-02 0.  1.
        1   -1    0    0  501    0  0.00000000000E+00  0.00000000000E+00 -0.19872569295E+04  0.19872569295E+04  0.50400001928E-02 0. -1.
    10030    2    1    2    0    0  0.00000000000E+00  0.00000000000E+00 -0.12105597748E+03  0.38534578815E+04  0.38515559317E+04 0.  0.
        5    1    3    3  502    0 -0.40480859094E+03 -0.13264344849E+04  0.12762831017E+04  0.18847331598E+04  0.46999998093E+01 0.  1.
       -5    1    3    3    0  502  0.40480859094E+03  0.13264344849E+04 -0.13973390792E+04  0.19687247218E+04  0.46999998093E+01 0. -1.
</event>
<event>
 5   0  0.2996969E-07  0.3501498E+04  0.7818609E-02  0.8113435E-01
        2   -1    0    0  501    0  0.00000000000E+00  0.00000000000E+00  0.17376894825E+04  0.17376894825E+04  0.25500000920E-02 0. -1.
       -2   -1    0    0    0  501  0.00000000000E+00  0.00000000000E+00 -0.17639063569E+04  0.17639063569E+04  0.25500000920E-02 0.  1.
    10030    2    1    2    0    0  0.00000000000E+00  0.00000000000E+00 -0.26216874401E+02  0.35015958393E+04  0.35014976935E+04 0.  0.
        1    1    3    3  502    0  0.39905745062E+03 -0.56830995039E+03 -0.16202933281E+04  0.17628311086E+04  0.50400001928E-02 0.  1.
       -1    1    3    3    0  502 -0.39905745062E+03  0.56830995039E+03  0.15940764537E+04  0.17387647307E+04  0.50400001928E-02 0. -1.
</event>
<event>
 5   0  0.3032442E-07  0.3701938E+04  0.7818609E-02  0.8067532E-01
       -2   -1    0    0    0  501  0.00000000000E+00  0.00000000000E+00  0.19618654458E+04  0.19618654458E+04  0.25500000920E-02 0.  1.
        2   -1    0    0  501    0  0.00000000000E+00  0.00000000000E+00 -0.17463412210E+04  0.17463412210E+04  0.25500000920E-02 0. -1.
    10030    2    1    2    0    0  0.00000000000E+00  0.00000000000E+00  0.21552422479E+03  0.37082066668E+04  0.37019381400E+04 0.  0.
        3    1    3    3  502    0  0.39139655552E+03 -0.12645178500E+04 -0.11882176165E+04  0.17787798546E+04  0.10100000352E+00 0. -1.
       -3    1    3    3    0  502 -0.39139655552E+03  0.12645178500E+04  0.14037418413E+04  0.19294268122E+04  0.10100000352E+00 0.  1.
</event>
<event>
 5   0  0.9341000E-08  0.3710597E+04  0.7818609E-02  0.8065617E-01
       -1   -1    0    0    0  501  0.00000000000E+00  0.00000000000E+00  0.25177486922E+04  0.25177486922E+04  0.50400001928E-02 0. -1.
        1   -1    0    0  501    0  0.00000000000E+00  0.00000000000E+00 -0.13671469931E+04  0.13671469931E+04  0.50400001928E-02 0.  1.
    10030    2    1    2    0    0  0.00000000000E+00  0.00000000000E+00  0.11506016991E+04  0.38848956853E+04  0.37105970161E+04 0.  0.
        4    1    3    3  502    0  0.29263203135E+03 -0.12132537622E+04  0.20125600924E+04  0.23681254054E+04  0.12699999809E+01 0. -1.
       -4    1    3    3    0  502 -0.29263203135E+03  0.12132537622E+04 -0.86195839333E+03  0.15167702799E+04  0.12699999809E+01 0.  1.
</event>
<event>
 5   0  0.2913025E-07  0.3680939E+04  0.7818609E-02  0.8072199E-01
        2   -1    0    0  501    0  0.00000000000E+00  0.00000000000E+00  0.29046578117E+04  0.29046578117E+04  0.25500000920E-02 0. -1.
       -2   -1    0    0    0  501  0.00000000000E+00  0.00000000000E+00 -0.11661709286E+04  0.11661709286E+04  0.25500000920E-02 0.  1.
    10030    2    1    2    0    0  0.00000000000E+00  0.00000000000E+00  0.17384868831E+04  0.40708287404E+04  0.36809387377E+04 0.  0.
        5    1    3    3  502    0  0.15371700429E+04  0.14627560169E+02  0.19884662833E+04  0.25133893364E+04  0.46999998093E+01 0. -1.
       -5    1    3    3    0  502 -0.15371700429E+04 -0.14627560169E+02 -0.24997940027E+03  0.15574394040E+04  0.46999998093E+01 0.  1.
</event>
<event>
 5   0  0.3008879E-07  0.3690958E+04  0.7818609E-02  0.8069969E-01
       -2   -1    0    0    0  501  0.00000000000E+00  0.00000000000E+00  0.13465620578E+04  0.13465620578E+04  0.25500000920E-02 0. -1.
        2   -1    0    0  501    0  0.00000000000E+00  0.00000000000E+00 -0.25292500408E+04  0.25292500408E+04  0.25500000920E-02 0.  1.
    10030    2    1    2    0    0  0.00000000000E+00  0.00000000000E+00 -0.11826879831E+04  0.38758120986E+04  0.36909576750E+04 0.  0.
        2    1    3    3  502    0 -0.68333097872E+03  0.16295256031E+04 -0.11504550121E+04  0.21085164578E+04  0.25500000920E-02 0.  1.
       -2    1    3    3    0  502  0.68333097872E+03 -0.16295256031E+04 -0.32232970953E+02  0.17672956409E+04  0.25500000920E-02 0. -1.
</event>
<event>
 5   0  0.3008879E-07  0.3602156E+04  0.7818609E-02  0.8089998E-01
       -2   -1    0    0    0  501  0.00000000000E+00  0.00000000000E+00  0.11760262202E+04  0.11760262202E+04  0.25500000920E-02 0. -1.
        2   -1    0    0  501    0  0.00000000000E+00  0.00000000000E+00 -0.27583419974E+04  0.27583419974E+04  0.25500000920E-02 0.  1.
    10030    2    1    2    0    0  0.00000000000E+00  0.00000000000E+00 -0.15823157773E+04  0.39343682176E+04  0.36021563060E+04 0.  0.
        2    1    3    3  502    0  0.16063613484E+04 -0.31081258249E+03 -0.16135113093E+04  0.22979164450E+04  0.25500000920E-02 0.  1.
       -2    1    3    3    0  502 -0.16063613484E+04  0.31081258249E+03  0.31195532023E+02  0.16364517726E+04  0.25500000920E-02 0. -1.
</event>
<event>
 5   0  0.9341000E-08  0.3417342E+04  0.7818609E-02  0.8133663E-01
       -1   -1    0    0    0  501  0.00000000000E+00  0.00000000000E+00  0.18917748883E+04  0.18917748883E+04  0.50400001928E-02 0. -1.
        1   -1    0    0  501    0  0.00000000000E+00  0.00000000000E+00 -0.15432897487E+04  0.15432897487E+04  0.50400001928E-02 0.  1.
    10030    2    1    2    0    0  0.00000000000E+00  0.00000000000E+00  0.34848513958E+03  0.34350646369E+04  0.34173421203E+04 0.  0.
        3    1    3    3  502    0 -0.27360986082E+03 -0.13595096029E+04 -0.82914664755E+03  0.16157391156E+04  0.10100000352E+00 0. -1.
       -3    1    3    3    0  502  0.27360986082E+03  0.13595096029E+04  0.11776317871E+04  0.18193255213E+04  0.10100000352E+00 0.  1.
</event>
<event>
 5   0  0.9646615E-08  0.3778993E+04  0.7818609E-02  0.8050678E-01
        1   -1    0    0  501    0  0.00000000000E+00  0.00000000000E+00  0.20263307279E+04  0.20263307279E+04  0.50400001928E-02 0. -1.
       -1   -1    0    0    0  501  0.00000000000E+00  0.00000000000E+00 -0.17619022152E+04  0.17619022152E+04  0.50400001928E-02 0.  1.
    10030    2    1    2    0    0  0.00000000000E+00  0.00000000000E+00  0.26442851265E+03  0.37882329431E+04  0.37789927749E+04 0.  0.
        2    1    3    3  502    0 -0.11994677878E+04 -0.38152803044E+03  0.15448831904E+04  0.19927244375E+04  0.25500000920E-02 0. -1.
       -2    1    3    3    0  502  0.11994677878E+04  0.38152803044E+03 -0.12804546777E+04  0.17955085056E+04  0.25500000920E-02 0.  1.
</event>
<event>
 5   0  0.2996969E-07  0.3702660E+04  0.7818609E-02  0.8067373E-01
        2   -1    0    0  501    0  0.00000000000E+00  0.00000000000E+00  0.24786025273E+04  0.24786025273E+04  0.25500000920E-02 0.  1.
       -2   -1    0    0    0  501  0.00000000000E+00  0.00000000000E+00 -0.13828041557E+04  0.13828041557E+04  0.25500000920E-02 0. -1.
    10030    2    1    2    0    0  0.00000000000E+00  0.00000000000E+00  0.10957983715E+04  0.38614066830E+04  0.37026595172E+04 0.  0.
        1    1    3    3  502    0  0.75777610387E+03 -0.26963221940E+03 -0.11910739838E+04  0.14372137601E+04  0.50400001928E-02 0. -1.
       -1    1    3    3    0  502 -0.75777610387E+03  0.26963221940E+03  0.22868723554E+04  0.24241929228E+04  0.50400001928E-02 0.  1.
</event>
<event>
 5   0  0.9646615E-08  0.3694388E+04  0.7818609E-02  0.8069207E-01
        1   -1    0    0  501    0  0.00000000000E+00  0.00000000000E+00  0.17545699129E+04  0.17545699129E+04  0.50400001928E-02 0.  1.
       -1   -1    0    0    0  501  0.00000000000E+00  0.00000000000E+00 -0.19447078781E+04  0.19447078781E+04  0.50400001928E-02 0. -1.
    10030    2    1    2    0    0  0.00000000000E+00  0.00000000000E+00 -0.19013796521E+03  0.36992777909E+04  0.36943881400E+04 0.  0.
        2    1    3    3  502    0 -0.15097764885E+04  0.10625201452E+04 -0.15640221829E+03  0.18527913423E+04  0.25500000920E-02 0.  1.
       -2    1    3    3    0  502  0.15097764885E+04 -0.10625201452E+04 -0.33735746917E+02  0.18464864486E+04  0.25500000920E-02 0. -1.
</event>
<event>
 5   0  0.9418945E-08  0.3687791E+04  0.7818609E-02  0.8070673E-01
        1   -1    0    0  501    0  0.00000000000E+00  0.00000000000E+00  0.16384403683E+04  0.16384403683E+04  0.50400001928E-02 0.  1.
       -1   -1    0    0    0  501  0.00000000000E+00  0.00000000000E+00 -0.20751144568E+04  0.20751144568E+04  0.50400001928E-02 0. -1.
    10030    2    1    2    0    0  0.00000000000E+00  0.00000000000E+00 -0.43667408853E+03  0.37135548251E+04  0.36877913687E+04 0.  0.
        5    1    3    3  502    0 -0.93584934424E+03 -0.15885126806E+04 -0.24577946161E+03  0.18600043455E+04  0.46999998093E+01 0.  1.
       -5    1    3    3    0  502  0.93584934424E+03  0.15885126806E+04 -0.19089462692E+03  0.18535504795E+04  0.46999998093E+01 0. -1.
</event>
<event>
 5   0  0.2913025E-07  0.3700464E+04  0.7818609E-02  0.8067859E-01
       -2   -1    0    0    0  501  0.00000000000E+00  0.00000000000E+00  0.13158869367E+04  0.13158869367E+04  0.25500000920E-02 0. -1.
        2   -1    0    0  501    0  0.00000000000E+00  0.00000000000E+00 -0.26015590446E+04  0.26015590446E+04  0.25500000920E-02 0.  1.
    10030    2    1    2    0    0  0.00000000000E+00  0.00000000000E+00 -0.12856721078E+04  0.39174459813E+04  0.37004635179E+04 0.  0.
        5    1    3    3  502    0  0.14304953626E+04 -0.63527060702E+03  0.40165243376E+03  0.16159308444E+04  0.46999998093E+01 0. -1.
       -5    1    3    3    0  502 -0.14304953626E+04  0.63527060702E+03 -0.16873245416E+04  0.23015151369E+04  0.46999998093E+01 0.  1.
</event>
<event>
 5   0  0.9646615E-08  0.3508129E+04  0.7818609E-02  0.8111866E-01
        1   -1    0    0  501    0  0.00000000000E+00  0.00000000000E+00  0.16926429453E+04  0.16926429453E+04  0.50400001928E-02 0. -1.
       -1   -1    0    0    0  501  0.00000000000E+00  0.00000000000E+00 -0.18177143657E+04  0.18177143657E+04  0.50400001928E-02 0.  1.
    10030    2    1    2    0    0  0.00000000000E+00  0.00000000000E+00 -0.12507142042E+03  0.35103573109E+04  0.35081285025E+04 0.  0.
        2    1    3    3  502    0  0.15824032671E+04  0.42574300765E+02  0.69354259929E+03  0.17282401476E+04  0.25500000920E-02 0. -1.
       -2    1    3    3    0  502 -0.15824032671E+04 -0.42574300765E+02 -0.81861401971E+03  0.17821171634E+04  0.25500000920E-02 0.  1.
</event>
<event>
 5   0  0.9341000E-08  0.3683712E+04  0.7818609E-02  0.8071581E-01
       -1   -1    0    0    0  501  0.00000000000E+00  0.00000000000E+00  0.13983569773E+04  0.13983569773E+04  0.50400001928E-02 0.  1.
        1   -1    0    0  501    0  0.00000000000E+00  0.00000000000E+00 -0.24260137885E+04  0.24260137885E+04  0.50400001928E-02 0. -1.
    10030    2    1    2    0    0  0.00000000000E+00  0.00000000000E+00 -0.10276568112E+04  0.38243707659E+04  0.36837118825E+04 0.  0.
        3    1    3    3  502    0 -0.17809659722E+04 -0.22451677215E+03 -0.94211639642E+03  0.20272717848E+04  0.10100000352E+00 0. -1.
       -3    1    3    3    0  502  0.17809659722E+04  0.22451677215E+03 -0.85540414799E+02  0.17970989811E+04  0.10100000352E+00 0.  1.
</event>
<event>
 5   0  0.9418945E-08  0.3700481E+04  0.7818609E-02  0.8067855E-01
       -1   -1    0    0    0  501  0.00000000000E+00  0.00000000000E+00  0.17421138835E+04  0.17421138835E+04  0.50400001928E-02 0. -1.
        1   -1    0    0  501    0  0.00000000000E+00  0.00000000000E+00 -0.19650777283E+04  0.19650777283E+04  0.50400001928E-02 0.  1.
    10030    2    1    2    0    0  0.00000000000E+00  0.00000000000E+00 -0.22296384479E+03  0.37071916119E+04  0.37004806135E+04 0.  0.
        5    1    3    3  502    0  0.13955833291E+04  0.46585652697E+03 -0.12354309899E+04  0.19211941477E+04  0.46999998093E+01 0.  1.
       -5    1    3    3    0  502 -0.13955833291E+04 -0.46585652697E+03  0.10124671451E+04  0.17859974642E+04  0.46999998093E+01 0. -1.
</event>
<event>
 5   0  0.3008879E-07  0.3723464E+04  0.7818609E-02  0.8062782E-01
       -2   -1    0    0    0  501  0.00000000000E+00  0.00000000000E+00  0.20170129412E+04  0.20170129412E+04  0.25500000920E-02 0.  1.
        2   -1    0    0  501    0  0.00000000000E+00  0.00000000000E+00 -0.17184058502E+04  0.17184058502E+04  0.25500000920E-02 0. -1.
    10030    2    1    2    0    0  0.00000000000E+00  0.00000000000E+00  0.29860709101E+03  0.37354187915E+04  0.37234644288E+04 0.  0.
        2    1    3    3  502    0  0.37997611747E+03  0.43219655058E+03 -0.16269376413E+04  0.17257177628E+04  0.25500000920E-02 0. -1.
       -2    1    3    3    0  502 -0.37997611747E+03 -0.43219655058E+03  0.19255447323E+04  0.20097010286E+04  0.25500000920E-02 0.  1.
</event>
<event>
 5   0  0.2996969E-07  0.3710280E+04  0.7818609E-02  0.8065688E-01
        2   -1    0    0  501    0  0.00000000000E+00  0.00000000000E+00  0.23471553310E+04  0.23471553310E+04  0.25500000920E-02 0. -1.
       -2   -1    0    0    0  501  0.00000000000E+00  0.00000000000E+00 -0.14662616161E+04  0.14662616161E+04  0.25500000920E-02 0.  1.
    10030    2    1    2    0    0  0.00000000000E+00  0.00000000000E+00  0.88089371484E+03  0.38134169471E+04  0.37102796493E+04 0.  0.
        1    1    3    3  502    0 -0.24062348689E+03 -0.16876749128E+04 -0.31160158400E+03  0.17329863880E+04  0.50400001928E-02 0. -1.
       -1    1    3    3    0  502  0.24062348689E+03  0.16876749128E+04  0.11924952988E+04  0.20804305592E+04  0.50400001928E-02 0.  1.
</event>
<event>
 5   0  0.9341000E-08  0.3695348E+04  0.7818609E-02  0.8068994E-01
       -1   -1    0    0    0  501  0.00000000000E+00  0.00000000000E+00  0.12412163137E+04  0.12412163138E+04  0.50400001928E-02 0.  1.
        1   -1    0    0  501    0  0.00000000000E+00  0.00000000000E+00 -0.27504467066E+04  0.27504467066E+04  0.50400001928E-02 0. -1.
    10030    2    1    2    0    0  0.00000000000E+00  0.00000000000E+00 -0.15092303929E+04  0.39916630204E+04  0.36953480607E+04 0.  0.
        3    1    3    3  502    0  0.39556841251E+03  0.17459675968E+04 -0.12484646954E+04  0.21825538536E+04  0.10100000352E+00 0. -1.
       -3    1    3    3    0  502 -0.39556841251E+03 -0.17459675968E+04 -0.26076569742E+03  0.18091091667E+04  0.10100000352E+00 0.  1.
</event>
<event>
 5   0  0.2996969E-07  0.3696300E+04  0.7818609E-02  0.8068782E-01
        2   -1    0    0  501    0  0.00000000000E+00  0.00000000000E+00  0.21402105265E+04  0.21402105265E+04  0.25500000920E-02 0. -1.
       -2   -1    0    0    0  501  0.00000000000E+00  0.00000000000E+00 -0.15959450430E+04  0.15959450430E+04  0.25500000920E-02 0.  1.
    10030    2    1    2    0    0  0.00000000000E+00  0.00000000000E+00  0.54426548347E+03  0.37361555695E+04  0.36962999774E+04 0.  0.
        1    1    3    3  502    0  0.18228276592E+04  0.25875950461E+03  0.10914511288E+03  0.18443345174E+04  0.50400001928E-02 0. -1.
       -1    1    3    3    0  502 -0.18228276592E+04 -0.25875950461E+03  0.43512037059E+03  0.18918210521E+04  0.50400001928E-02 0.  1.
</event>
<event>
 5   0  0.2996969E-07  0.3688491E+04  0.7818609E-02  0.8070517E-01
       -2   -1    0    0    0  501  0.00000000000E+00  0.00000000000E+00  0.12540387881E+04  0.12540387881E+04  0.25500000920E-02 0.  1.
        2   -1    0    0  501    0  0.00000000000E+00  0.00000000000E+00 -0.27122300333E+04  0.27122300333E+04  0.25500000920E-02 0. -1.
    10030    2    1    2    0    0  0.00000000000E+00  0.00000000000E+00 -0.14581912452E+04  0.39662688215E+04  0.36884911084E+04 0.  0.
        1    1    3    3  502    0  0.43495482190E+03 -0.75110320840E+03  0.10206873652E+04  0.13398299983E+04  0.50400001928E-02 0.  1.
       -1    1    3    3    0  502 -0.43495482190E+03  0.75110320840E+03 -0.24788786104E+04  0.26264388232E+04  0.50400001928E-02 0. -1.
</event>
<event>
 5   0  0.2913025E-07  0.3637030E+04  0.7818609E-02  0.8082062E-01
       -2   -1    0    0    0  501  0.00000000000E+00  0.00000000000E+00  0.22519288638E+04  0.22519288638E+04  0.25500000920E-02 0. -1.
        2   -1    0    0  501    0  0.00000000000E+00  0.00000000000E+00 -0.14685176324E+04  0.14685176324E+04  0.25500000920E-02 0.  1.
    10030    2    1    2    0    0  0.00000000000E+00  0.00000000000E+00  0.78341123137E+03  0.37204464962E+04  0.36370302410E+04 0.  0.
        5    1    3    3  502    0  0.10320883996E+04  0.96927223089E+03  0.15590536110E+04  0.21060307154E+04  0.46999998093E+01 0. -1.
       -5    1    3    3    0  502 -0.10320883996E+04 -0.96927223089E+03 -0.77564237964E+03  0.16144157808E+04  0.46999998093E+01 0.  1.
</event>
<event>
 5   0  0.3032442E-07  0.3694494E+04  0.7818609E-02  0.8069183E-01
       -2   -1    0    0    0  501  0.00000000000E+00  0.00000000000E+00  0.14708331248E+04  0.14708331248E+04  0.25500000920E-02 0.  1.
        2   -1    0    0  501    0  0.00000000000E+00  0.00000000000E+00 -0.23199922557E+04  0.23199922557E+04  0.25500000920E-02 0. -1.
    10030    2    1    2    0    0  0.00000000000E+00  0.00000000000E+00 -0.84915913091E+03  0.37908253805E+04  0.36944939891E+04 0.  0.
        3    1    3    3  502    0 -0.31581391057E+02  0.70502599873E+03 -0.21762126614E+04  0.22877850863E+04  0.10100000352E+00 0. -1.
       -3    1    3    3    0  502  0.31581391057E+02 -0.70502599873E+03  0.13270535305E+04  0.15030402942E+04  0.10100000352E+00 0.  1.
</event>
<event>
 5   0  0.9341000E-08  0.3649064E+04  0.7818609E-02  0.8079345E-01
        1   -1    0    0  501    0  0.00000000000E+00  0.00000000000E+00  0.24301254234E+04  0.24301254234E+04  0.50400001928E-02 0. -1.
       -1   -1    0    0    0  501  0.00000000000E+00  0.00000000000E+00 -0.13698541298E+04  0.13698541298E+04  0.50400001928E-02 0.  1.
    10030    2    1    2    0    0  0.00000000000E+00  0.00000000000E+00  0.10602712936E+04  0.37999795532E+04  0.36490641799E+04 0.  0.
        1    1    3    3  502    0 -0.13796978792E+04 -0.43868795379E+03  0.16864193022E+04  0.22226163460E+04  0.50400001928E-02 0. -1.
       -1    1    3    3    0  502  0.13796978792E+04  0.43868795379E+03 -0.62614800863E+03  0.15773632072E+04  0.50400001928E-02 0.  1.
</event>
<event>
 5   0  0.9341000E-08  0.3717421E+04  0.7818609E-02  0.8064112E-01
        1   -1    0    0  501    0  0.00000000000E+00  0.00000000000E+00  0.23862470081E+04  0.23862470081E+04  0.50400001928E-02 0. -1.
       -1   -1    0    0    0  501  0.00000000000E+00  0.00000000000E+00 -0.14477983798E+04  0.14477983798E+04  0.50400001928E-02 0.  1.
    10030    2    1    2    0    0  0.00000000000E+00  0.00000000000E+00  0.93844862834E+03  0.38340453879E+04  0.37174209082E+04 0.  0.
        1    1    3    3  502    0  0.13571574543E+04 -0.10202608382E+04 -0.31080696004E+03  0.17260966080E+04  0.50400001928E-02 0.  1.
       -1    1    3    3    0  502 -0.13571574543E+04  0.10202608382E+04  0.12492555884E+04  0.21079487799E+04  0.50400001928E-02 0. -1.
</event>
<event>
 5   0  0.9341000E-08  0.3695883E+04  0.7818609E-02  0.8068875E-01
        1   -1    0    0  501    0  0.00000000000E+00  0.00000000000E+00  0.20368039487E+04  0.20368039487E+04  0.50400001928E-02 0. -1.
       -1   -1    0    0    0  501  0.00000000000E+00  0.00000000000E+00 -0.16765915781E+04  0.16765915781E+04  0.50400001928E-02 0.  1.
    10030    2    1    2    0    0  0.00000000000E+00  0.00000000000E+00  0.36021237064E+03  0.37133955268E+04  0.36958833026E+04 0.  0.
        3    1    3    3  502    0 -0.16510198960E+04  0.16406849694E+03 -0.63744658190E+03  0.17773922819E+04  0.10100000352E+00 0.  1.
       -3    1    3    3    0  502  0.16510198960E+04 -0.16406849694E+03  0.99765895254E+03  0.19360032449E+04  0.10100000352E+00 0. -1.
</event>
<event>
 5   0  0.2913025E-07  0.3737095E+04  0.7818609E-02  0.8059790E-01
       -2   -1    0    0    0  501  0.00000000000E+00  0.00000000000E+00  0.16531340906E+04  0.16531340906E+04  0.25500000920E-02 0.  1.
        2   -1    0    0  501    0  0.00000000000E+00  0.00000000000E+00 -0.21120306001E+04  0.21120306001E+04  0.25500000920E-02 0. -1.
    10030    2    1    2    0    0  0.00000000000E+00  0.00000000000E+00 -0.45889650946E+03  0.37651646907E+04  0.37370950137E+04 0.  0.
        5    1    3    3  502    0 -0.10719295181E+04 -0.77957848034E+03 -0.15564104386E+04  0.20443118750E+04  0.46999998093E+01 0. -1.
       -5    1    3    3    0  502  0.10719295181E+04  0.77957848034E+03  0.10975139291E+04  0.17208528157E+04  0.46999998093E+01 0.  1.
</event>
<event>
 5   0  0.2996969E-07  0.3717864E+04  0.7818609E-02  0.8064014E-01
        2   -1    0    0  501    0  0.00000000000E+00  0.00000000000E+00  0.19459957529E+04  0.19459957530E+04  0.25500000920E-02 0. -1.
       -2   -1    0    0    0  501  0.00000000000E+00  0.00000000000E+00 -0.17757632415E+04  0.17757632415E+04  0.25500000920E-02 0.  1.
    10030    2    1    2    0    0  0.00000000000E+00  0.00000000000E+00  0.17023251146E+03  0.37217589944E+04  0.37178637555E+04 0.  0.
        1    1    3    3  502    0  0.13030948867E+04  0.93715771081E+03 -0.85357983349E+03  0.18179437260E+04  0.50400001928E-02 0.  1.
       -1    1    3    3    0  502 -0.13030948867E+04 -0.93715771081E+03  0.10238123450E+04  0.19038152685E+04  0.50400001928E-02 0. -1.
</event>
<event>
 5   0  0.9418945E-08  0.3721436E+04  0.7818609E-02  0.8063228E-01
       -1   -1    0    0    0  501  0.00000000000E+00  0.00000000000E+00  0.29792919473E+04  0.29792919473E+04  0.50400001928E-02 0.  1.
        1   -1    0    0  501    0  0.00000000000E+00  0.00000000000E+00 -0.11621120298E+04  0.11621120299E+04  0.50400001928E-02 0. -1.
    10030    2    1    2    0    0  0.00000000000E+00  0.00000000000E+00  0.18171799174E+04  0.41414039771E+04  0.37214357511E+04 0.  0.
        5    1    3    3  502    0 -0.11489039348E+04 -0.79954874928E+03  0.22729066234E+04  0.26693416909E+04  0.46999998093E+01 0.  1.
       -5    1    3    3    0  502  0.11489039348E+04  0.79954874928E+03 -0.45572670599E+03  0.14720622862E+04  0.46999998093E+01 0. -1.
</event>
<event>
 5   0  0.9418945E-08  0.3696321E+04  0.7818609E-02  0.8068778E-01
       -1   -1    0    0    0  501  0.00000000000E+00  0.00000000000E+00  0.13761246906E+04  0.13761246906E+04  0.50400001928E-02 0.  1.
        1   -1    0    0  501    0  0.00000000000E+00  0.00000000000E+00 -0.24821137017E+04  0.24821137017E+04  0.50400001928E-02 0. -1.
    10030    2    1    2    0    0  0.00000000000E+00  0.00000000000E+00 -0.11059890111E+04  0.38582383923E+04  0.36963213875E+04 0.  0.
        5    1    3    3  502    0  0.18357744991E+04  0.19432513117E+03 -0.64544988545E+03  0.19556221293E+04  0.46999998093E+01 0. -1.
       -5    1    3    3    0  502 -0.18357744991E+04 -0.19432513117E+03 -0.46053912562E+03  0.19026162630E+04  0.46999998093E+01 0.  1.
</event>
<event>
 5   0  0.2996969E-07  0.3658404E+04  0.7818609E-02  0.8077243E-01
        2   -1    0    0  501    0  0.00000000000E+00  0.00000000000E+00  0.24654023577E+04  0.24654023577E+04  0.25500000920E-02 0. -1.
       -2   -1    0    0    0  501  0.00000000000E+00  0.00000000000E+00 -0.13571741356E+04  0.13571741356E+04  0.25500000920E-02 0.  1.
    10030    2    1    2    0    0  0.00000000000E+00  0.00000000000E+00  0.11082282220E+04  0.38225764933E+04  0.36584041951E+04 0.  0.
        1    1    3    3  502    0 -0.12461593220E+03  0.15430553374E+04  0.15722278447E+04  0.22064562766E+04  0.50400001928E-02 0. -1.
       -1    1    3    3    0  502  0.12461593220E+03 -0.15430553374E+04 -0.46399962264E+03  0.16161202167E+04  0.50400001928E-02 0.  1.
</event>
<event>
 5   0  0.9341000E-08  0.3692762E+04  0.7818609E-02  0.8069568E-01
       -1   -1    0    0    0  501  0.00000000000E+00  0.00000000000E+00  0.18614605423E+04  0.18614605423E+04  0.50400001928E-02 0. -1.
        1   -1    0    0  501    0  0.00000000000E+00  0.00000000000E+00 -0.18314239482E+04  0.18314239482E+04  0.50400001928E-02 0.  1.
    10030    2    1    2    0    0  0.00000000000E+00  0.00000000000E+00  0.30036594096E+02  0.36928844905E+04  0.36927623350E+04 0.  0.
        3    1    3    3  502    0 -0.15659290634E+04 -0.35743630533E+03  0.92566846235E+03  0.18538491461E+04  0.10100000352E+00 0. -1.
       -3    1    3    3    0  502  0.15659290634E+04  0.35743630533E+03 -0.89563186826E+03  0.18390353443E+04  0.10100000352E+00 0.  1.
</event>
<event>
 5   0  0.9646615E-08  0.3700641E+04  0.7818609E-02  0.8067820E-01
        1   -1    0    0  501    0  0.00000000000E+00  0.00000000000E+00  0.15574285479E+04  0.15574285479E+04  0.50400001928E-02 0.  1.
       -1   -1    0    0    0  501  0.00000000000E+00  0.00000000000E+00 -0.21982938978E+04  0.21982938978E+04  0.50400001928E-02 0. -1.
    10030    2    1    2    0    0  0.00000000000E+00  0.00000000000E+00 -0.64086534994E+03  0.37557224457E+04  0.37006408489E+04 0.  0.
        2    1    3    3  502    0 -0.17132542716E+04 -0.38278060535E+03 -0.91387928074E+03  0.19791251933E+04  0.25500000920E-02 0.  1.
       -2    1    3    3    0  502  0.17132542716E+04  0.38278060535E+03  0.27301393080E+03  0.17765972524E+04  0.25500000920E-02 0. -1.
</event>
<event>
 5   0  0.9341000E-08  0.3703445E+04  0.7818609E-02  0.8067199E-01
       -1   -1    0    0    0  501  0.00000000000E+00  0.00000000000E+00  0.10606178135E+04  0.10606178135E+04  0.50400001928E-02 0.  1.
        1   -1    0    0  501    0  0.00000000000E+00  0.00000000000E+00 -0.32329050439E+04  0.32329050439E+04  0.50400001928E-02 0. -1.
    10030    2    1    2    0    0  0.00000000000E+00  0.00000000000E+00 -0.21722872304E+04  0.42935228574E+04  0.37034452495E+04 0.  0.
        4    1    3    3  502    0 -0.24584529825E+03 -0.51498835797E+03  0.95613167944E+03  0.11134820703E+04  0.12699999809E+01 0.  1.
       -4    1    3    3    0  502  0.24584529825E+03  0.51498835797E+03 -0.31284189098E+04  0.31800407871E+04  0.12699999809E+01 0. -1.
</event>
<event>
 5   0  0.9341000E-08  0.3703384E+04  0.7818609E-02  0.8067212E-01
       -1   -1    0    0    0  501  0.00000000000E+00  0.00000000000E+00  0.20185414580E+04  0.20185414580E+04  0.50400001928E-02 0.  1.
        1   -1    0    0  501    0  0.00000000000E+00  0.00000000000E+00 -0.16986338604E+04  0.16986338604E+04  0.50400001928E-02 0. -1.
    10030    2    1    2    0    0  0.00000000000E+00  0.00000000000E+00  0.31990759755E+03  0.37171753184E+04  0.37033837874E+04 0.  0.
        4    1    3    3  502    0  0.28961100467E+03 -0.13132597720E+04 -0.11176711819E+04  0.17486326791E+04  0.12699999809E+01 0. -1.
       -4    1    3    3    0  502 -0.28961100467E+03  0.13132597720E+04  0.14375787794E+04  0.19685426393E+04  0.12699999809E+01 0.  1.
</event>
<event>
 5   0  0.9341000E-08  0.3718902E+04  0.7818609E-02  0.8063786E-01
        1   -1    0    0  501    0  0.00000000000E+00  0.00000000000E+00  0.11911685196E+04  0.11911685196E+04  0.50400001928E-02 0.  1.
       -1   -1    0    0    0  501  0.00000000000E+00  0.00000000000E+00 -0.29026603225E+04  0.29026603225E+04  0.50400001928E-02 0. -1.
    10030    2    1    2    0    0  0.00000000000E+00  0.00000000000E+00 -0.17114918029E+04  0.40938288421E+04  0.37189017729E+04 0.  0.
        1    1    3    3  502    0  0.19971955707E+03 -0.97377705720E+03 -0.25856146494E+04  0.27701142167E+04  0.50400001928E-02 0. -1.
       -1    1    3    3    0  502 -0.19971955707E+03  0.97377705720E+03  0.87412284647E+03  0.13237146253E+04  0.50400001928E-02 0.  1.
</event>
<event>
 5   0  0.9341000E-08  0.3755411E+04  0.7818609E-02  0.8055792E-01
       -1   -1    0    0    0  501  0.00000000000E+00  0.00000000000E+00  0.18197250114E+04  0.18197250114E+04  0.50400001928E-02 0.  1.
        1   -1    0    0  501    0  0.00000000000E+00  0.00000000000E+00 -0.19375333479E+04  0.19375333479E+04  0.50400001928E-02 0. -1.
    10030    2    1    2    0    0  0.00000000000E+00  0.00000000000E+00 -0.11780833649E+03  0.37572583593E+04  0.37554109728E+04 0.  0.
        3    1    3    3  502    0 -0.38731751104E+03  0.17946807470E+04  0.33484253482E+03  0.18662833041E+04  0.10100000352E+00 0.  1.
       -3    1    3    3    0  502  0.38731751104E+03 -0.17946807470E+04 -0.45265087130E+03  0.18909750552E+04  0.10100000352E+00 0. -1.
</event>
<event>
 5   0  0.9341000E-08  0.3712518E+04  0.7818609E-02  0.8065193E-01
        1   -1    0    0  501    0  0.00000000000E+00  0.00000000000E+00  0.16092603625E+04  0.16092603625E+04  0.50400001928E-02 0. -1.
       -1   -1    0    0    0  501  0.00000000000E+00  0.00000000000E+00 -0.21411688884E+04  0.21411688884E+04  0.50400001928E-02 0.  1.
    10030    2    1    2    0    0  0.00000000000E+00  0.00000000000E+00 -0.53190852590E+03  0.37504292509E+04  0.37125184021E+04 0.  0.
        4    1    3    3  502    0 -0.14231473836E+04 -0.10420300238E+04  0.31833031122E+03  0.17923478585E+04  0.12699999809E+01 0. -1.
       -4    1    3    3    0  502  0.14231473836E+04  0.10420300238E+04 -0.85023883712E+03  0.19580813924E+04  0.12699999809E+01 0.  1.
</event>
<event>
 5   0  0.2913025E-07  0.3706608E+04  0.7818609E-02  0.8066499E-01
       -2   -1    0    0    0  501  0.00000000000E+00  0.00000000000E+00  0.14661072086E+04  0.14661072086E+04  0.25500000920E-02 0. -1.
        2   -1    0    0  501    0  0.00000000000E+00  0.00000000000E+00 -0.23427588085E+04  0.23427588085E+04  0.25500000920E-02 0.  1.
    10030    2    1    2    0    0  0.00000000000E+00  0.00000000000E+00 -0.87665159991E+03  0.38088660172E+04  0.37066079249E+04 0.  0.
        5    1    3    3  502    0  0.19642750246E+03  0.18352767028E+04 -0.26671814040E+03  0.18649356546E+04  0.46999998093E+01 0. -1.
       -5    1    3    3    0  502 -0.19642750246E+03 -0.18352767028E+04 -0.60993345951E+03  0.19439303626E+04  0.46999998093E+01 0.  1.
</event>
<event>
 5   0  0.9646615E-08  0.3663617E+04  0.7818609E-02  0.8076073E-01
        1   -1    0    0  501    0  0.00000000000E+00  0.00000000000E+00  0.12657045890E+04  0.12657045890E+04  0.50400001928E-02 0. -1.
       -1   -1    0    0    0  501  0.00000000000E+00  0.00000000000E+00 -0.26511096468E+04  0.26511096468E+04  0.50400001928E-02 0.  1.
    10030    2    1    2    0    0  0.00000000000E+00  0.00000000000E+00 -0.13854050578E+04  0.39168142359E+04  0.36636165989E+04 0.  0.
        2    1    3    3  502    0 -0.38941042311E+03  0.77544952166E+03  0.10320360024E+04  0.13483548303E+04  0.25500000920E-02 0. -1.
       -2    1    3    3    0  502  0.38941042311E+03 -0.77544952166E+03 -0.24174410602E+04  0.25684594055E+04  0.25500000920E-02 0.  1.
</event>
<event>
 5   0  0.9341000E-08  0.3721017E+04  0.7818609E-02  0.8063320E-01
        1   -1    0    0  501    0  0.00000000000E+00  0.00000000000E+00  0.18304323715E+04  0.18304323715E+04  0.50400001928E-02 0. -1.
       -1   -1    0    0    0  501  0.00000000000E+00  0.00000000000E+00 -0.18910791027E+04  0.18910791027E+04  0.50400001928E-02 0.  1.
    10030    2    1    2    0    0  0.00000000000E+00  0.00000000000E+00 -0.60646731152E+02  0.37215114742E+04  0.37210172838E+04 0.  0.
        3    1    3    3  502    0  0.68767836974E+03  0.14012484695E+04  0.98228015385E+03  0.18442540834E+04  0.10100000352E+00 0. -1.
       -3    1    3    3    0  502 -0.68767836974E+03 -0.14012484695E+04 -0.10429268850E+04  0.18772573907E+04  0.10100000352E+00 0.  1.
</event>
<event>
 5   0  0.9646615E-08  0.3732214E+04  0.7818609E-02  0.8060860E-01
        1   -1    0    0  501    0  0.00000000000E+00  0.00000000000E+00  0.13495478053E+04  0.13495478054E+04  0.50400001928E-02 0.  1.
       -1   -1    0    0    0  501  0.00000000000E+00  0.00000000000E+00 -0.25803868788E+04  0.25803868788E+04  0.50400001928E-02 0. -1.
    10030    2    1    2    0    0  0.00000000000E+00  0.00000000000E+00 -0.12308390735E+04  0.39299346842E+04  0.37322140610E+04 0.  0.
        2    1    3    3  502    0  0.39427940836E+03  0.17231080404E+04  0.14431238600E+02  0.17677007188E+04  0.25500000920E-02 0.  1.
       -2    1    3    3    0  502 -0.39427940836E+03 -0.17231080404E+04 -0.12452703121E+04  0.21622339653E+04  0.25500000920E-02 0. -1.
</event>
<event>
 5   0  0.2996969E-07  0.3590447E+04  0.7818609E-02  0.8092683E-01
       -2   -1    0    0    0  501  0.00000000000E+00  0.00000000000E+00  0.11658357356E+04  0.11658357356E+04  0.25500000920E-02 0. -1.
        2   -1    0    0  501    0  0.00000000000E+00  0.00000000000E+00 -0.27643919080E+04  0.27643919080E+04  0.25500000920E-02 0.  1.
    10030    2    1    2    0    0  0.00000000000E+00  0.00000000000E+00 -0.15985561724E+04  0.39302276436E+04  0.35904466985E+04 0.  0.
        1    1    3    3  502    0 -0.82182062502E+03  0.12507335147E+03 -0.25410185395E+04  0.26735384233E+04  0.50400001928E-02 0.  1.
       -1    1    3    3    0  502  0.82182062502E+03 -0.12507335147E+03  0.94246236712E+03  0.12566892203E+04  0.50400001928E-02 0. -1.
</event>
<event>
 5   0  0.9341000E-08  0.3706701E+04  0.7818609E-02  0.8066478E-01
        1   -1    0    0  501    0  0.00000000000E+00  0.00000000000E+00  0.15093863309E+04  0.15093863310E+04  0.50400001928E-02 0. -1.
       -1   -1    0    0    0  501  0.00000000000E+00  0.00000000000E+00 -0.22756980413E+04  0.22756980413E+04  0.50400001928E-02 0.  1.
    10030    2    1    2    0    0  0.00000000000E+00  0.00000000000E+00 -0.76631171034E+03  0.37850843722E+04  0.37067006984E+04 0.  0.
        1    1    3    3  502    0 -0.11663160062E+04  0.10280107050E+04  0.64704303458E+03  0.16839726021E+04  0.50400001928E-02 0. -1.
       -1    1    3    3    0  502  0.11663160062E+04 -0.10280107050E+04 -0.14133547449E+04  0.21011117702E+04  0.50400001928E-02 0.  1.
</event>
<event>
 5   0  0.3008879E-07  0.3680627E+04  0.7818609E-02  0.8072269E-01
       -2   -1    0    0    0  501  0.00000000000E+00  0.00000000000E+00  0.16679076099E+04  0.16679076099E+04  0.25500000920E-02 0.  1.
        2   -1    0    0  501    0  0.00000000000E+00  0.00000000000E+00 -0.20305406239E+04  0.20305406239E+04  0.25500000920E-02 0. -1.
    10030    2    1    2    0    0  0.00000000000E+00  0.00000000000E+00 -0.36263301404E+03  0.36984482337E+04  0.36806272067E+04 0.  0.
        2    1    3    3  502    0 -0.58369471959E+03 -0.26328900186E+03 -0.19149915300E+04  0.20192110301E+04  0.25500000920E-02 0. -1.
       -2    1    3    3    0  502  0.58369471959E+03  0.26328900186E+03  0.15523585159E+04  0.16792372037E+04  0.25500000920E-02 0.  1.
</event>
<event>
 5   0  0.9341000E-08  0.3704235E+04  0.7818609E-02  0.8067024E-01
        1   -1    0    0  501    0  0.00000000000E+00  0.00000000000E+00  0.21419139359E+04  0.21419139359E+04  0.50400001928E-02 0.  1.
       -1   -1    0    0    0  501  0.00000000000E+00  0.00000000000E+00 -0.16015303330E+04  0.16015303330E+04  0.50400001928E-02 0. -1.
    10030    2    1    2    0    0  0.00000000000E+00  0.00000000000E+00  0.54038360288E+03  0.37434442689E+04  0.37042354888E+04 0.  0.
        1    1    3    3  502    0  0.81712640459E+03 -0.16410950523E+04  0.38655758305E+01  0.18332767043E+04  0.50400001928E-02 0.  1.
       -1    1    3    3    0  502 -0.81712640459E+03  0.16410950523E+04  0.53651802705E+03  0.19101675647E+04  0.50400001928E-02 0. -1.
</event>
<event>
 5   0  0.9341000E-08  0.3719049E+04  0.7818609E-02  0.8063753E-01
        1   -1    0    0  501    0  0.00000000000E+00  0.00000000000E+00  0.19065098930E+04  0.19065098930E+04  0.50400001928E-02 0.  1.
       -1   -1    0    0    0  501  0.00000000000E+00  0.00000000000E+00 -0.18136967219E+04  0.18136967219E+04  0.50400001928E-02 0. -1.
    10030    2    1    2    0    0  0.00000000000E+00  0.00000000000E+00  0.92813171099E+02  0.37202066149E+04  0.37190486650E+04 0.  0.
        3    1    3    3  502    0  0.14161677076E+04 -0.11919506224E+04  0.22409485859E+03  0.18645363440E+04  0.10100000352E+00 0.  1.
       -3    1    3    3    0  502 -0.14161677076E+04  0.11919506224E+04 -0.13128168749E+03  0.18556702708E+04  0.10100000352E+00 0. -1.
</event>
<event>
 5   0  0.3032442E-07  0.3750132E+04  0.7818609E-02  0.8056942E-01
       -2   -1    0    0    0  501  0.00000000000E+00  0.00000000000E+00  0.13304412968E+04  0.13304412968E+04  0.25500000920E-02 0. -1.
        2   -1    0    0  501    0  0.00000000000E+00  0.00000000000E+00 -0.26426359291E+04  0.26426359291E+04  0.25500000920E-02 0.  1.
    10030    2    1    2    0    0  0.00000000000E+00  0.00000000000E+00 -0.13121946323E+04  0.39730772259E+04  0.37501317163E+04 0.  0.
        3    1    3    3  502    0  0.53522293471E+03 -0.84625279201E+03  0.10234784145E+04  0.14318224237E+04  0.10100000352E+00 0. -1.
       -3    1    3    3    0  502 -0.53522293471E+03  0.84625279201E+03 -0.23356730468E+04  0.25412548022E+04  0.10100000352E+00 0.  1.
</event>
<event>
 5   0  0.2897133E-07  0.3688563E+04  0.7818609E-02  0.8070501E-01
        2   -1    0    0  501    0  0.00000000000E+00  0.00000000000E+00  0.12412847525E+04  0.12412847525E+04  0.25500000920E-02 0. -1.
       -2   -1    0    0    0  501  0.00000000000E+00  0.00000000000E+00 -0.27402042280E+04  0.27402042280E+04  0.25500000920E-02 0.  1.
    10030    2    1    2    0    0  0.00000000000E+00  0.00000000000E+00 -0.14989194755E+04  0.39814889805E+04  0.36885627157E+04 0.  0.
        4    1    3    3  502    0 -0.37207396967E+03 -0.85379087724E+03 -0.24677219588E+04  0.26376222588E+04  0.12699999809E+01 0.  1.
       -4    1    3    3    0  502  0.37207396967E+03  0.85379087724E+03  0.96880248338E+03  0.13438667217E+04  0.12699999809E+01 0. -1.
</event>
<event>
 5   0  0.9341000E-08  0.3728257E+04  0.7818609E-02  0.8061728E-01
        1   -1    0    0  501    0  0.00000000000E+00  0.00000000000E+00  0.25542508521E+04  0.25542508521E+04  0.50400001928E-02 0.  1.
       -1   -1    0    0    0  501  0.00000000000E+00  0.00000000000E+00 -0.13604677275E+04  0.13604677275E+04  0.50400001928E-02 0. -1.
    10030    2    1    2    0    0  0.00000000000E+00  0.00000000000E+00  0.11937831246E+04  0.39147185795E+04  0.37282574225E+04 0.  0.
        1    1    3    3  502    0  0.13331356131E+04  0.13691639077E+03  0.19574503530E+04  0.23722581111E+04  0.50400001928E-02 0.  1.
       -1    1    3    3    0  502 -0.13331356131E+04 -0.13691639077E+03 -0.76366722844E+03  0.15424604685E+04  0.50400001928E-02 0. -1.
</event>
<event>
 5   0  0.9418945E-08  0.3705292E+04  0.7818609E-02  0.8066790E-01
       -1   -1    0    0    0  501  0.00000000000E+00  0.00000000000E+00  0.28316341419E+04  0.28316341419E+04  0.50400001928E-02 0.  1.
        1   -1    0    0  501    0  0.00000000000E+00  0.00000000000E+00 -0.12121258765E+04  0.12121258766E+04  0.50400001928E-02 0. -1.
    10030    2    1    2    0    0  0.00000000000E+00  0.00000000000E+00  0.16195082653E+04  0.40437600184E+04  0.37052919001E+04 0.  0.
        5    1    3    3  502    0  0.26011442913E+03  0.17906832990E+04  0.12436504185E+04  0.21956535808E+04  0.46999998093E+01 0. -1.
       -5    1    3    3    0  502 -0.26011442913E+03 -0.17906832990E+04  0.37585784685E+03  0.18481064376E+04  0.46999998093E+01 0.  1.
</event>
<event>
 5   0  0.3032442E-07  0.3676115E+04  0.7818609E-02  0.8073276E-01
        2   -1    0    0  501    0  0.00000000000E+00  0.00000000000E+00  0.20896704894E+04  0.20896704894E+04  0.25500000920E-02 0.  1.
       -2   -1    0    0    0  501  0.00000000000E+00  0.00000000000E+00 -0.16167407835E+04  0.16167407835E+04  0.25500000920E-02 0. -1.
    10030    2    1    2    0    0  0.00000000000E+00  0.00000000000E+00  0.47292970590E+03  0.37064112729E+04  0.36761150713E+04 0.  0.
        3    1    3    3  502    0  0.16440187792E+04  0.82197721958E+03  0.23309089214E+03  0.18527751267E+04  0.10100000352E+00 0. -1.
       -3    1    3    3    0  502 -0.16440187792E+04 -0.82197721958E+03  0.23983881376E+03  0.18536361462E+04  0.10100000352E+00 0.  1.
</event>
<event>
 5   0  0.9341000E-08  0.3631068E+04  0.7818609E-02  0.8083412E-01
       -1   -1    0    0    0  501  0.00000000000E+00  0.00000000000E+00  0.97657317653E+03  0.97657317654E+03  0.50400001928E-02 0.  1.
        1   -1    0    0  501    0  0.00000000000E+00  0.00000000000E+00 -0.33752344350E+04  0.33752344350E+04  0.50400001928E-02 0. -1.
    10030    2    1    2    0    0  0.00000000000E+00  0.00000000000E+00 -0.23986612585E+04  0.43518076115E+04  0.36310678395E+04 0.  0.
        4    1    3    3  502    0 -0.91617994928E+03  0.92023584230E+02 -0.30746201604E+04  0.32095396528E+04  0.12699999809E+01 0. -1.
       -4    1    3    3    0  502  0.91617994928E+03 -0.92023584230E+02  0.67595890192E+03  0.11422679587E+04  0.12699999809E+01 0.  1.
</event>
<event>
 5   0  0.3032442E-07  0.3709860E+04  0.7818609E-02  0.8065780E-01
       -2   -1    0    0    0  501  0.00000000000E+00  0.00000000000E+00  0.20231989070E+04  0.20231989070E+04  0.25500000920E-02 0.  1.
        2   -1    0    0  501    0  0.00000000000E+00  0.00000000000E+00 -0.17006559901E+04  0.17006559901E+04  0.25500000920E-02 0. -1.
    10030    2    1    2    0    0  0.00000000000E+00  0.00000000000E+00  0.32254291692E+03  0.37238548970E+04  0.37098600191E+04 0.  0.
        3    1    3    3  502    0 -0.14435302590E+03 -0.10065212439E+04 -0.13959811411E+04  0.17270455023E+04  0.10100000352E+00 0. -1.
       -3    1    3    3    0  502  0.14435302590E+03  0.10065212439E+04  0.17185240580E+04  0.19968093947E+04  0.10100000352E+00 0.  1.
</event>
<event>
 5   0  0.9341000E-08  0.3770496E+04  0.7818609E-02  0.8052516E-01
        3   -1    0    0  501    0  0.00000000000E+00  0.00000000000E+00  0.15829622834E+04  0.15829622867E+04  0.10100000352E+00 0.  1.
       -3   -1    0    0    0  501  0.00000000000E+00  0.00000000000E+00 -0.22452582418E+04  0.22452582441E+04  0.10100000352E+00 0. -1.
    10030    2    1    2    0    0  0.00000000000E+00  0.00000000000E+00 -0.66229595841E+03  0.38282205308E+04  0.37704955239E+04 0.  0.
        5    1    3    3  502    0  0.81136932038E+02 -0.16382360237E+04  0.61245471131E+03  0.17508635968E+04  0.46999998093E+01 0.  1.
       -5    1    3    3    0  502 -0.81136932038E+02  0.16382360237E+04 -0.12747506697E+04  0.20773569340E+04  0.46999998093E+01 0. -1.
</event>
<event>
 5   0  0.9646615E-08  0.3664111E+04  0.7818609E-02  0.8075962E-01
       -1   -1    0    0    0  501  0.00000000000E+00  0.00000000000E+00  0.21373398504E+04  0.21373398504E+04  0.50400001928E-02 0.  1.
        1   -1    0    0  501    0  0.00000000000E+00  0.00000000000E+00 -0.15703763251E+04  0.15703763251E+04  0.50400001928E-02 0. -1.
    10030    2    1    2    0    0  0.00000000000E+00  0.00000000000E+00  0.56696352525E+03  0.37077161755E+04  0.36641112973E+04 0.  0.
        2    1    3    3  502    0  0.88808381079E+03  0.69593341406E+03 -0.11770983301E+04  0.16305142289E+04  0.25500000920E-02 0. -1.
       -2    1    3    3    0  502 -0.88808381079E+03 -0.69593341406E+03  0.17440618554E+04  0.20772019466E+04  0.25500000920E-02 0.  1.
</event>
<event>
 5   0  0.2913025E-07  0.3722496E+04  0.7818609E-02  0.8062995E-01
       -2   -1    0    0    0  501  0.00000000000E+00  0.00000000000E+00  0.23863605672E+04  0.23863605672E+04  0.25500000920E-02 0. -1.
        2   -1    0    0  501    0  0.00000000000E+00  0.00000000000E+00 -0.14516853073E+04  0.14516853073E+04  0.25500000920E-02 0.  1.
    10030    2    1    2    0    0  0.00000000000E+00  0.00000000000E+00  0.93467525991E+03  0.38380458744E+04  0.37224962448E+04 0.  0.
        5    1    3    3  502    0  0.17731347895E+04 -0.94407273623E+02 -0.10792661845E+03  0.17789294421E+04  0.46999998093E+01 0.  1.
       -5    1    3    3    0  502 -0.17731347895E+04  0.94407273623E+02  0.10426018784E+04  0.20591164323E+04  0.46999998093E+01 0. -1.
</event>
<event>
 5   0  0.9341000E-08  0.3582767E+04  0.7818609E-02  0.8094451E-01
       -1   -1    0    0    0  501  0.00000000000E+00  0.00000000000E+00  0.13439603559E+04  0.13439603559E+04  0.50400001928E-02 0. -1.
        1   -1    0    0  501    0  0.00000000000E+00  0.00000000000E+00 -0.23877602341E+04  0.23877602341E+04  0.50400001928E-02 0.  1.
    10030    2    1    2    0    0  0.00000000000E+00  0.00000000000E+00 -0.10437998782E+04  0.37317205899E+04  0.35827671395E+04 0.  0.
        1    1    3    3  502    0  0.88928259001E+03  0.12485279464E+04 -0.14874851839E+04  0.21359442245E+04  0.50400001928E-02 0. -1.
       -1    1    3    3    0  502 -0.88928259001E+03 -0.12485279464E+04  0.44368530576E+03  0.15957763654E+04  0.50400001928E-02 0.  1.
</event>
<event>
 5   0  0.9341000E-08  0.3691523E+04  0.7818609E-02  0.8069843E-01
       -1   -1    0    0    0  501  0.00000000000E+00  0.00000000000E+00  0.21086449588E+04  0.21086449588E+04  0.50400001928E-02 0.  1.
        1   -1    0    0  501    0  0.00000000000E+00  0.00000000000E+00 -0.16156512784E+04  0.16156512784E+04  0.50400001928E-02 0. -1.
    10030    2    1    2    0    0  0.00000000000E+00  0.00000000000E+00  0.49299368035E+03  0.37242962372E+04  0.36915226796E+04 0.  0.
        1    1    3    3  502    0 -0.48974153782E+03  0.18938475138E+03 -0.15387104102E+04  0.16258361186E+04  0.50400001928E-02 0. -1.
       -1    1    3    3    0  502  0.48974153782E+03 -0.18938475138E+03  0.20317040906E+04  0.20984601187E+04  0.50400001928E-02 0.  1.
</event>
<event>
 5   0  0.3032442E-07  0.3699741E+04  0.7818609E-02  0.8068019E-01
       -2   -1    0    0    0  501  0.00000000000E+00  0.00000000000E+00  0.12488923122E+04  0.12488923122E+04  0.25500000920E-02 0. -1.
        2   -1    0    0  501    0  0.00000000000E+00  0.00000000000E+00 -0.27400452183E+04  0.27400452183E+04  0.25500000920E-02 0.  1.
    10030    2    1    2    0    0  0.00000000000E+00  0.00000000000E+00 -0.14911529061E+04  0.39889375305E+04  0.36997412927E+04 0.  0.
        3    1    3    3  502    0 -0.81373577639E+03 -0.11358209932E+04 -0.20526800194E+04  0.24830929331E+04  0.10100000352E+00 0.  1.
       -3    1    3    3    0  502  0.81373577639E+03  0.11358209932E+04  0.56152711328E+03  0.15058445974E+04  0.10100000352E+00 0. -1.
</event>
<event>
 5   0  0.9341000E-08  0.3699751E+04  0.7818609E-02  0.8068017E-01
       -1   -1    0    0    0  501  0.00000000000E+00  0.00000000000E+00  0.10450299512E+04  0.10450299512E+04  0.50400001928E-02 0. -1.
        1   -1    0    0  501    0  0.00000000000E+00  0.00000000000E+00 -0.32745855193E+04  0.32745855193E+04  0.50400001928E-02 0.  1.
    10030    2    1    2    0    0  0.00000000000E+00  0.00000000000E+00 -0.22295555681E+04  0.43196154705E+04  0.36997513135E+04 0.  0.
        4    1    3    3  502    0 -0.21041882431E+03 -0.12382072422E+04 -0.27004895718E+04  0.29782677509E+04  0.12699999809E+01 0.  1.
       -4    1    3    3    0  502  0.21041882431E+03  0.12382072422E+04  0.47093400364E+03  0.13413477196E+04  0.12699999809E+01 0. -1.
</event>
<event>
 5   0  0.9341000E-08  0.3588513E+04  0.7818609E-02  0.8093128E-01
        1   -1    0    0  501    0  0.00000000000E+00  0.00000000000E+00  0.19912126947E+04  0.19912126947E+04  0.50400001928E-02 0.  1.
       -1   -1    0    0    0  501  0.00000000000E+00  0.00000000000E+00 -0.16167815560E+04  0.16167815560E+04  0.50400001928E-02 0. -1.
    10030    2    1    2    0    0  0.00000000000E+00  0.00000000000E+00  0.37443113868E+03  0.36079942507E+04  0.35885127610E+04 0.  0.
        1    1    3    3  502    0 -0.36034874577E+03  0.16256562184E+04 -0.48480407700E+03  0.17342561380E+04  0.50400001928E-02 0. -1.
       -1    1    3    3    0  502  0.36034874577E+03 -0.16256562184E+04  0.85923521569E+03  0.18737381127E+04  0.50400001928E-02 0.  1.
</event>
<event>
 5   0  0.2913025E-07  0.3692724E+04  0.7818609E-02  0.8069576E-01
        2   -1    0    0  501    0  0.00000000000E+00  0.00000000000E+00  0.15248478231E+04  0.15248478231E+04  0.25500000920E-02 0.  1.
       -2   -1    0    0    0  501  0.00000000000E+00  0.00000000000E+00 -0.22356674718E+04  0.22356674718E+04  0.25500000920E-02 0. -1.
    10030    2    1    2    0    0  0.00000000000E+00  0.00000000000E+00 -0.71081964871E+03  0.37605152949E+04  0.36927240230E+04 0.  0.
        5    1    3    3  502    0  0.15029169894E+04 -0.56961915885E+03  0.57001105625E+03  0.17053328583E+04  0.46999998093E+01 0.  1.
       -5    1    3    3    0  502 -0.15029169894E+04  0.56961915885E+03 -0.12808307050E+04  0.20551824367E+04  0.46999998093E+01 0. -1.
</event>
<event>
 5   0  0.9418945E-08  0.3723158E+04  0.7818609E-02  0.8062849E-01
       -1   -1    0    0    0  501  0.00000000000E+00  0.00000000000E+00  0.18055196349E+04  0.18055196349E+04  0.50400001928E-02 0.  1.
        1   -1    0    0  501    0  0.00000000000E+00  0.00000000000E+00 -0.19193789881E+04  0.19193789881E+04  0.50400001928E-02 0. -1.
    10030    2    1    2    0    0  0.00000000000E+00  0.00000000000E+00 -0.11385935317E+03  0.37248986230E+04  0.37231580412E+04 0.  0.
        5    1    3    3  502    0 -0.15671400993E+04 -0.93950645324E+03  0.29940237321E+03  0.18515572737E+04  0.46999998093E+01 0.  1.
       -5    1    3    3    0  502  0.15671400993E+04  0.93950645324E+03 -0.41326172638E+03  0.18733413493E+04  0.46999998093E+01 0. -1.
</event>
<event>
 5   0  0.3032442E-07  0.3682111E+04  0.7818609E-02  0.8071938E-01
       -2   -1    0    0    0  501  0.00000000000E+00  0.00000000000E+00  0.11075952027E+04  0.11075952027E+04  0.25500000920E-02 0. -1.
        2   -1    0    0  501    0  0.00000000000E+00  0.00000000000E+00 -0.30602202896E+04  0.30602202896E+04  0.25500000920E-02 0.  1.
    10030    2    1    2    0    0  0.00000000000E+00  0.00000000000E+00 -0.19526250869E+04  0.41678154923E+04  0.36821109771E+04 0.  0.
        3    1    3    3  502    0 -0.33667036206E+03  0.55108767892E+03  0.97518591847E+03  0.11696290644E+04  0.10100000352E+00 0. -1.
       -3    1    3    3    0  502  0.33667036206E+03 -0.55108767892E+03 -0.29278110054E+04  0.29981864279E+04  0.10100000352E+00 0.  1.
</event>
<event>
 5   0  0.9646615E-08  0.3704371E+04  0.7818609E-02  0.8066994E-01
       -1   -1    0    0    0  501  0.00000000000E+00  0.00000000000E+00  0.18362060673E+04  0.18362060673E+04  0.50400001928E-02 0.  1.
        1   -1    0    0  501    0  0.00000000000E+00  0.00000000000E+00 -0.18683044965E+04  0.18683044965E+04  0.50400001928E-02 0. -1.
    10030    2    1    2    0    0  0.00000000000E+00  0.00000000000E+00 -0.32098429279E+02  0.37045105638E+04  0.37043714997E+04 0.  0.
        2    1    3    3  502    0  0.99835657558E+03  0.85359302985E+03 -0.13219524171E+04  0.18635705261E+04  0.25500000920E-02 0. -1.
       -2    1    3    3    0  502 -0.99835657558E+03 -0.85359302985E+03  0.12898539878E+04  0.18409400377E+04  0.25500000920E-02 0.  1.
</event>
<event>
 5   0  0.9341000E-08  0.3687293E+04  0.7818609E-02  0.8070784E-01
        1   -1    0    0  501    0  0.00000000000E+00  0.00000000000E+00  0.16564519434E+04  0.16564519434E+04  0.50400001928E-02 0.  1.
       -1   -1    0    0    0  501  0.00000000000E+00  0.00000000000E+00 -0.20519959040E+04  0.20519959040E+04  0.50400001928E-02 0. -1.
    10030    2    1    2    0    0  0.00000000000E+00  0.00000000000E+00 -0.39554396057E+03  0.37084478475E+04  0.36872931010E+04 0.  0.
        4    1    3    3  502    0  0.50564688584E+03  0.15164984065E+04 -0.11215101469E+04  0.19527500640E+04  0.12699999809E+01 0. -1.
       -4    1    3    3    0  502 -0.50564688584E+03 -0.15164984065E+04  0.72596618634E+03  0.17556977834E+04  0.12699999809E+01 0.  1.
</event>
<event>
 5   0  0.9341000E-08  0.3691457E+04  0.7818609E-02  0.8069858E-01
        1   -1    0    0  501    0  0.00000000000E+00  0.00000000000E+00  0.18496641092E+04  0.18496641092E+04  0.50400001928E-02 0. -1.
       -1   -1    0    0    0  501  0.00000000000E+00  0.00000000000E+00 -0.18418010872E+04  0.18418010872E+04  0.50400001928E-02 0.  1.
    10030    2    1    2    0    0  0.00000000000E+00  0.00000000000E+00  0.78630220148E+01  0.36914651965E+04  0.36914568221E+04 0.  0.
        1    1    3    3  502    0 -0.15986699889E+03 -0.18180736190E+04 -0.27132213530E+03  0.18451462930E+04  0.50400001928E-02 0.  1.
       -1    1    3    3    0  502  0.15986699889E+03  0.18180736190E+04  0.27918515731E+03  0.18463189035E+04  0.50400001928E-02 0. -1.
</event>
<event>
 5   0  0.9341000E-08  0.3693169E+04  0.7818609E-02  0.8069477E-01
        1   -1    0    0  501    0  0.00000000000E+00  0.00000000000E+00  0.19516387237E+04  0.19516387237E+04  0.50400001928E-02 0. -1.
       -1   -1    0    0    0  501  0.00000000000E+00  0.00000000000E+00 -0.17471854987E+04  0.17471854987E+04  0.50400001928E-02 0.  1.
    10030    2    1    2    0    0  0.00000000000E+00  0.00000000000E+00  0.20445322504E+03  0.36988242224E+04  0.36931693039E+04 0.  0.
        4    1    3    3  502    0  0.17110404812E+04 -0.61937506651E+03 -0.21224183933E+03  0.18320298067E+04  0.12699999809E+01 0. -1.
       -4    1    3    3    0  502 -0.17110404812E+04  0.61937506651E+03  0.41669506437E+03  0.18667944158E+04  0.12699999809E+01 0.  1.
</event>
<event>
 5   0  0.3008879E-07  0.3676094E+04  0.7818609E-02  0.8073280E-01
       -2   -1    0    0    0  501  0.00000000000E+00  0.00000000000E+00  0.16886907249E+04  0.16886907249E+04  0.25500000920E-02 0.  1.
        2   -1    0    0  501    0  0.00000000000E+00  0.00000000000E+00 -0.20006128131E+04  0.20006128131E+04  0.25500000920E-02 0. -1.
    10030    2    1    2    0    0  0.00000000000E+00  0.00000000000E+00 -0.31192208823E+03  0.36893035380E+04  0.36760937429E+04 0.  0.
        2    1    3    3  502    0 -0.24273084577E+03  0.69286317088E+03  0.15351575184E+04  0.17016716027E+04  0.25500000920E-02 0.  1.
       -2    1    3    3    0  502  0.24273084577E+03 -0.69286317088E+03 -0.18470796066E+04  0.19876319353E+04  0.25500000920E-02 0. -1.
</event>
<event>
 5   0  0.2996969E-07  0.3694552E+04  0.7818609E-02  0.8069170E-01
       -2   -1    0    0    0  501  0.00000000000E+00  0.00000000000E+00  0.18197476349E+04  0.18197476349E+04  0.25500000920E-02 0. -1.
        2   -1    0    0  501    0  0.00000000000E+00  0.00000000000E+00 -0.18752205538E+04  0.18752205538E+04  0.25500000920E-02 0.  1.
    10030    2    1    2    0    0  0.00000000000E+00  0.00000000000E+00 -0.55472918856E+02  0.36949681887E+04  0.36945517551E+04 0.  0.
        1    1    3    3  502    0 -0.67132156241E+03 -0.56100150726E+03 -0.16548902917E+04  0.18719127140E+04  0.50400001928E-02 0.  1.
       -1    1    3    3    0  502  0.67132156241E+03  0.56100150726E+03  0.15994173728E+04  0.18230554747E+04  0.50400001928E-02 0. -1.
</event>
<event>
 5   0  0.3032442E-07  0.3684073E+04  0.7818609E-02  0.8071501E-01
        2   -1    0    0  501    0  0.00000000000E+00  0.00000000000E+00  0.17570312440E+04  0.17570312440E+04  0.25500000920E-02 0. -1.
       -2   -1    0    0    0  501  0.00000000000E+00  0.00000000000E+00 -0.19311539538E+04  0.19311539538E+04  0.25500000920E-02 0.  1.
    10030    2    1    2    0    0  0.00000000000E+00  0.00000000000E+00 -0.17412270974E+03  0.36881851978E+04  0.36840726561E+04 0.  0.
        3    1    3    3  502    0 -0.11618975244E+04 -0.82480828827E+03  0.10816248778E+04  0.17889178171E+04  0.10100000352E+00 0. -1.
       -3    1    3    3    0  502  0.11618975244E+04  0.82480828827E+03 -0.12557475876E+04  0.18992673807E+04  0.10100000352E+00 0.  1.
</event>
<event>
 5   0  0.2996969E-07  0.3687664E+04  0.7818609E-02  0.8070701E-01
       -2   -1    0    0    0  501  0.00000000000E+00  0.00000000000E+00  0.16624215703E+04  0.16624215703E+04  0.25500000920E-02 0. -1.
        2   -1    0    0  501    0  0.00000000000E+00  0.00000000000E+00 -0.20450385195E+04  0.20450385195E+04  0.25500000920E-02 0.  1.
    10030    2    1    2    0    0  0.00000000000E+00  0.00000000000E+00 -0.38261694922E+03  0.37074600899E+04  0.36876638388E+04 0.  0.
        1    1    3    3  502    0  0.11671492768E+03  0.83058293815E+03  0.14595250753E+04  0.16833608754E+04  0.50400001928E-02 0. -1.
       -1    1    3    3    0  502 -0.11671492768E+03 -0.83058293815E+03 -0.18421420245E+04  0.20240992145E+04  0.50400001928E-02 0.  1.
</event>
<event>
 5   0  0.2897133E-07  0.3881269E+04  0.7818609E-02  0.8028936E-01
        2   -1    0    0  501    0  0.00000000000E+00  0.00000000000E+00  0.18447721068E+04  0.18447721068E+04  0.25500000920E-02 0. -1.
       -2   -1    0    0    0  501  0.00000000000E+00  0.00000000000E+00 -0.20414784428E+04  0.20414784428E+04  0.25500000920E-02 0.  1.
    10030    2    1    2    0    0  0.00000000000E+00  0.00000000000E+00 -0.19670633599E+03  0.38862505496E+04  0.38812691161E+04 0.  0.
        4    1    3    3  502    0  0.11341351099E+04  0.38349293602E+03 -0.16276416788E+04  0.20205316941E+04  0.12699999809E+01 0.  1.
       -4    1    3    3    0  502 -0.11341351099E+04 -0.38349293602E+03  0.14309353428E+04  0.18657188555E+04  0.12699999809E+01 0. -1.
</event>
<event>
 5   0  0.9341000E-08  0.3541596E+04  0.7818609E-02  0.8104002E-01
       -1   -1    0    0    0  501  0.00000000000E+00  0.00000000000E+00  0.11830848444E+04  0.11830848444E+04  0.50400001928E-02 0. -1.
        1   -1    0    0  501    0  0.00000000000E+00  0.00000000000E+00 -0.26504654285E+04  0.26504654285E+04  0.50400001928E-02 0.  1.
    10030    2    1    2    0    0  0.00000000000E+00  0.00000000000E+00 -0.14673805842E+04  0.38335502729E+04  0.35415959561E+04 0.  0.
        3    1    3    3  502    0 -0.32786557482E+03 -0.17378562099E+04 -0.83102184261E+03  0.19540310526E+04  0.10100000352E+00 0. -1.
       -3    1    3    3    0  502  0.32786557482E+03  0.17378562099E+04 -0.63635874157E+03  0.18795192203E+04  0.10100000352E+00 0.  1.
</event>
<event>
 5   0  0.9341000E-08  0.3676174E+04  0.7818609E-02  0.8073263E-01
        1   -1    0    0  501    0  0.00000000000E+00  0.00000000000E+00  0.18248744334E+04  0.18248744334E+04  0.50400001928E-02 0. -1.
       -1   -1    0    0    0  501  0.00000000000E+00  0.00000000000E+00 -0.18513950629E+04  0.18513950629E+04  0.50400001928E-02 0.  1.
    10030    2    1    2    0    0  0.00000000000E+00  0.00000000000E+00 -0.26520629537E+02  0.36762694963E+04  0.36761738351E+04 0.  0.
        1    1    3    3  502    0 -0.64572632897E+03  0.30025123048E+03  0.16813191807E+04  0.18259100418E+04  0.50400001928E-02 0. -1.
       -1    1    3    3    0  502  0.64572632897E+03 -0.30025123048E+03 -0.17078398102E+04  0.18503594545E+04  0.50400001928E-02 0.  1.
</event>
<event>
 5   0  0.9341000E-08  0.3699572E+04  0.7818609E-02  0.8068057E-01
       -1   -1    0    0    0  501  0.00000000000E+00  0.00000000000E+00  0.30949668719E+04  0.30949668719E+04  0.50400001928E-02 0.  1.
        1   -1    0    0  501    0  0.00000000000E+00  0.00000000000E+00 -0.11055719228E+04  0.11055719228E+04  0.50400001928E-02 0. -1.
    10030    2    1    2    0    0  0.00000000000E+00  0.00000000000E+00  0.19893949491E+04  0.42005387947E+04  0.36995721242E+04 0.  0.
        1    1    3    3  502    0  0.42272619596E+03 -0.17057964962E+04  0.16501650158E+04  0.24107019108E+04  0.50400001928E-02 0.  1.
       -1    1    3    3    0  502 -0.42272619596E+03  0.17057964962E+04  0.33922993335E+03  0.17898368839E+04  0.50400001928E-02 0. -1.
</event>
<event>
 5   0  0.9341000E-08  0.3702527E+04  0.7818609E-02  0.8067402E-01
       -1   -1    0    0    0  501  0.00000000000E+00  0.00000000000E+00  0.18425194125E+04  0.18425194125E+04  0.50400001928E-02 0.  1.
        1   -1    0    0  501    0  0.00000000000E+00  0.00000000000E+00 -0.18600492131E+04  0.18600492131E+04  0.50400001928E-02 0. -1.
    10030    2    1    2    0    0  0.00000000000E+00  0.00000000000E+00 -0.17529800627E+02  0.37025686257E+04  0.37025271280E+04 0.  0.
        4    1    3    3  502    0 -0.10451627389E+04  0.26942987478E+03 -0.15128487651E+04  0.18584053936E+04  0.12699999809E+01 0. -1.
       -4    1    3    3    0  502  0.10451627389E+04 -0.26942987478E+03  0.14953189644E+04  0.18441632321E+04  0.12699999809E+01 0.  1.
</event>
<event>
 5   0  0.9341000E-08  0.3713320E+04  0.7818609E-02  0.8065016E-01
        1   -1    0    0  501    0  0.00000000000E+00  0.00000000000E+00  0.19408275360E+04  0.19408275360E+04  0.50400001928E-02 0. -1.
       -1   -1    0    0    0  501  0.00000000000E+00  0.00000000000E+00 -0.17761421107E+04  0.17761421107E+04  0.50400001928E-02 0.  1.
    10030    2    1    2    0    0  0.00000000000E+00  0.00000000000E+00  0.16468542528E+03  0.37169696468E+04  0.37133195480E+04 0.  0.
        3    1    3    3  502    0  0.86040944544E+03  0.12127611591E+04 -0.10305466578E+04  0.18091767373E+04  0.10100000352E+00 0.  1.
       -3    1    3    3    0  502 -0.86040944544E+03 -0.12127611591E+04  0.11952320830E+04  0.19077929095E+04  0.10100000352E+00 0. -1.
</event>
<event>
 5   0  0.2897133E-07  0.3705711E+04  0.7818609E-02  0.8066697E-01
        2   -1    0    0  501    0  0.00000000000E+00  0.00000000000E+00  0.26641808497E+04  0.26641808497E+04  0.25500000920E-02 0. -1.
       -2   -1    0    0    0  501  0.00000000000E+00  0.00000000000E+00 -0.12886038062E+04  0.12886038062E+04  0.25500000920E-02 0.  1.
    10030    2    1    2    0    0  0.00000000000E+00  0.00000000000E+00  0.13755770435E+04  0.39527846559E+04  0.37057110429E+04 0.  0.
        4    1    3    3  502    0  0.99523791360E+03 -0.13201879962E+04  0.15800259546E+04  0.22868927566E+04  0.12699999809E+01 0. -1.
       -4    1    3    3    0  502 -0.99523791360E+03  0.13201879962E+04 -0.20444891113E+03  0.16658918993E+04  0.12699999809E+01 0.  1.
</event>
<event>
 5   0  0.9646615E-08  0.3708633E+04  0.7818609E-02  0.8066051E-01
       -1   -1    0    0    0  501  0.00000000000E+00  0.00000000000E+00  0.12044121498E+04  0.12044121498E+04  0.50400001928E-02 0. -1.
        1   -1    0    0  501    0  0.00000000000E+00  0.00000000000E+00 -0.28549112121E+04  0.28549112121E+04  0.50400001928E-02 0.  1.
    10030    2    1    2    0    0  0.00000000000E+00  0.00000000000E+00 -0.16504990623E+04  0.40593233619E+04  0.37086330369E+04 0.  0.
        2    1    3    3  502    0  0.36018495811E+03 -0.17441719919E+04 -0.26006971510E+03  0.17998626053E+04  0.25500000920E-02 0. -1.
       -2    1    3    3    0  502 -0.36018495811E+03  0.17441719919E+04 -0.13904293472E+04  0.22594607566E+04  0.25500000920E-02 0.  1.
</event>
<event>
 5   0  0.9341000E-08  0.3645068E+04  0.7818609E-02  0.8080246E-01
       -1   -1    0    0    0  501  0.00000000000E+00  0.00000000000E+00  0.16007344654E+04  0.16007344654E+04  0.50400001928E-02 0.  1.
        1   -1    0    0  501    0  0.00000000000E+00  0.00000000000E+00 -0.20750662915E+04  0.20750662915E+04  0.50400001928E-02 0. -1.
    10030    2    1    2    0    0  0.00000000000E+00  0.00000000000E+00 -0.47433182608E+03  0.36758007569E+04  0.36450679723E+04 0.  0.
        3    1    3    3  502    0 -0.34768977825E+03  0.64897949796E+03  0.14440943480E+04  0.16209475830E+04  0.10100000352E+00 0.  1.
       -3    1    3    3    0  502  0.34768977825E+03 -0.64897949796E+03 -0.19184261741E+04  0.20548531739E+04  0.10100000352E+00 0. -1.
</event>
<event>
 5   0  0.2913025E-07  0.3724050E+04  0.7818609E-02  0.8062653E-01
        2   -1    0    0  501    0  0.00000000000E+00  0.00000000000E+00  0.17235582600E+04  0.17235582600E+04  0.25500000920E-02 0.  1.
       -2   -1    0    0    0  501  0.00000000000E+00  0.00000000000E+00 -0.20116157381E+04  0.20116157381E+04  0.25500000920E-02 0. -1.
    10030    2    1    2    0    0  0.00000000000E+00  0.00000000000E+00 -0.28805747806E+03  0.37351739981E+04  0.37240499037E+04 0.  0.
        5    1    3    3  502    0 -0.12679074984E+04  0.89713544126E+03  0.88601186153E+03  0.17881500309E+04  0.46999998093E+01 0.  1.
       -5    1    3    3    0  502  0.12679074984E+04 -0.89713544126E+03 -0.11740693396E+04  0.19470239671E+04  0.46999998093E+01 0. -1.
</event>
<event>
 5   0  0.9646615E-08  0.3699078E+04  0.7818609E-02  0.8068166E-01
        1   -1    0    0  501    0  0.00000000000E+00  0.00000000000E+00  0.21808972288E+04  0.21808972288E+04  0.50400001928E-02 0.  1.
       -1   -1    0    0    0  501  0.00000000000E+00  0.00000000000E+00 -0.15685263573E+04  0.15685263573E+04  0.50400001928E-02 0. -1.
    10030    2    1    2    0    0  0.00000000000E+00  0.00000000000E+00  0.61237087154E+03  0.37494235861E+04  0.36990781478E+04 0.  0.
        2    1    3    3  502    0 -0.19292808257E+03  0.15207038122E+04 -0.74280739298E+03  0.17033860844E+04  0.25500000920E-02 0. -1.
       -2    1    3    3    0  502  0.19292808257E+03 -0.15207038122E+04  0.13551782645E+04  0.20460375017E+04  0.25500000920E-02 0.  1.
</event>
<event>
 5   0  0.9418945E-08  0.3681112E+04  0.7818609E-02  0.8072161E-01
        1   -1    0    0  501    0  0.00000000000E+00  0.00000000000E+00  0.11079714917E+04  0.11079714917E+04  0.50400001928E-02 0.  1.
       -1   -1    0    0    0  501  0.00000000000E+00  0.00000000000E+00 -0.30575211032E+04  0.30575211032E+04  0.50400001928E-02 0. -1.
    10030    2    1    2    0    0  0.00000000000E+00  0.00000000000E+00 -0.19495496115E+04  0.41654925949E+04  0.36811119068E+04 0.  0.
        5    1    3    3  502    0  0.11693839303E+04 -0.12061871906E+04 -0.18255568511E+04  0.24809325307E+04  0.46999998093E+01 0. -1.
       -5    1    3    3    0  502 -0.11693839303E+04  0.12061871906E+04 -0.12399276041E+03  0.16845600642E+04  0.46999998093E+01 0.  1.
</event>
<event>
 5   0  0.9418945E-08  0.3700236E+04  0.7818609E-02  0.8067910E-01
        1   -1    0    0  501    0  0.00000000000E+00  0.00000000000E+00  0.12174984694E+04  0.12174984694E+04  0.50400001928E-02 0. -1.
       -1   -1    0    0    0  501  0.00000000000E+00  0.00000000000E+00 -0.28114501407E+04  0.28114501407E+04  0.50400001928E-02 0.  1.
    10030    2    1    2    0    0  0.00000000000E+00  0.00000000000E+00 -0.15939516713E+04  0.40289486102E+04  0.37002357996E+04 0.  0.
        5    1    3    3  502    0  0.66667770354E+03  0.62746301162E+03 -0.25475124255E+04  0.27070298557E+04  0.46999998093E+01 0.  1.
       -5    1    3    3    0  502 -0.66667770354E+03 -0.62746301162E+03  0.95356075426E+03  0.13219187545E+04  0.46999998093E+01 0. -1.
</event>
<event>
 5   0  0.3008879E-07  0.3685537E+04  0.7818609E-02  0.8071175E-01
        2   -1    0    0  501    0  0.00000000000E+00  0.00000000000E+00  0.21460056175E+04  0.21460056175E+04  0.25500000920E-02 0. -1.
       -2   -1    0    0    0  501  0.00000000000E+00  0.00000000000E+00 -0.15823796329E+04  0.15823796329E+04  0.25500000920E-02 0.  1.
    10030    2    1    2    0    0  0.00000000000E+00  0.00000000000E+00  0.56362598460E+03  0.37283852505E+04  0.36855369114E+04 0.  0.
        2    1    3    3  502    0 -0.46245156409E+03 -0.15729822392E+04  0.11328190456E+04  0.19928405767E+04  0.25500000920E-02 0. -1.
       -2    1    3    3    0  502  0.46245156409E+03  0.15729822392E+04 -0.56919306100E+03  0.17355446738E+04  0.25500000920E-02 0.  1.
</event>
<event>
 5   0  0.3008879E-07  0.3684636E+04  0.7818609E-02  0.8071375E-01
       -2   -1    0    0    0  501  0.00000000000E+00  0.00000000000E+00  0.11876352118E+04  0.11876352118E+04  0.25500000920E-02 0.  1.
        2   -1    0    0  501    0  0.00000000000E+00  0.00000000000E+00 -0.28578937899E+04  0.28578937899E+04  0.25500000920E-02 0. -1.
    10030    2    1    2    0    0  0.00000000000E+00  0.00000000000E+00 -0.16702585782E+04  0.40455290017E+04  0.36846358281E+04 0.  0.
        2    1    3    3  502    0 -0.16645553903E+04  0.78118015881E+03 -0.96102589992E+03  0.20747428439E+04  0.25500000920E-02 0. -1.
       -2    1    3    3    0  502  0.16645553903E+04 -0.78118015881E+03 -0.70923267825E+03  0.19707861578E+04  0.25500000920E-02 0.  1.
</event>
<event>
 5   0  0.2913025E-07  0.3630906E+04  0.7818609E-02  0.8083449E-01
       -2   -1    0    0    0  501  0.00000000000E+00  0.00000000000E+00  0.33427794492E+04  0.33427794492E+04  0.25500000920E-02 0.  1.
        2   -1    0    0  501    0  0.00000000000E+00  0.00000000000E+00 -0.98596688453E+03  0.98596688453E+03  0.25500000920E-02 0. -1.
    10030    2    1    2    0    0  0.00000000000E+00  0.00000000000E+00  0.23568125647E+04  0.43287463337E+04  0.36309061344E+04 0.  0.
        5    1    3    3  502    0 -0.68170714117E+03  0.15687630079E+04  0.19036935106E+04  0.25592602591E+04  0.46999998093E+01 0. -1.
       -5    1    3    3    0  502  0.68170714117E+03 -0.15687630079E+04  0.45311905408E+03  0.17694860747E+04  0.46999998093E+01 0.  1.
</event>
<event>
 5   0  0.2897133E-07  0.3715040E+04  0.7818609E-02  0.8064637E-01
       -2   -1    0    0    0  501  0.00000000000E+00  0.00000000000E+00  0.11049268069E+04  0.11049268069E+04  0.25500000920E-02 0. -1.
        2   -1    0    0  501    0  0.00000000000E+00  0.00000000000E+00 -0.31227226624E+04  0.31227226624E+04  0.25500000920E-02 0.  1.
    10030    2    1    2    0    0  0.00000000000E+00  0.00000000000E+00 -0.20177958554E+04  0.42276494693E+04  0.37150396931E+04 0.  0.
        4    1    3    3  502    0 -0.15057349371E+03  0.13272011016E+04 -0.24778401405E+04  0.28149295756E+04  0.12699999809E+01 0.  1.
       -4    1    3    3    0  502  0.15057349371E+03 -0.13272011016E+04  0.46004428503E+03  0.14127198937E+04  0.12699999809E+01 0. -1.
</event>
<event>
 5   0  0.9341000E-08  0.3730862E+04  0.7818609E-02  0.8061157E-01
        1   -1    0    0  501    0  0.00000000000E+00  0.00000000000E+00  0.21962152454E+04  0.21962152454E+04  0.50400001928E-02 0.  1.
       -1   -1    0    0    0  501  0.00000000000E+00  0.00000000000E+00 -0.15844677461E+04  0.15844677462E+04  0.50400001928E-02 0. -1.
    10030    2    1    2    0    0  0.00000000000E+00  0.00000000000E+00  0.61174749921E+03  0.37806829915E+04  0.37308616806E+04 0.  0.
        1    1    3    3  502    0  0.15445739667E+04  0.70031504244E+03 -0.48147174157E+03  0.17629421247E+04  0.50400001928E-02 0. -1.
       -1    1    3    3    0  502 -0.15445739667E+04 -0.70031504244E+03  0.10932192408E+04  0.20177408668E+04  0.50400001928E-02 0.  1.
</event>
<event>
 5   0  0.2897133E-07  0.3632327E+04  0.7818609E-02  0.8083127E-01
        2   -1    0    0  501    0  0.00000000000E+00  0.00000000000E+00  0.20183611059E+04  0.20183611059E+04  0.25500000920E-02 0.  1.
       -2   -1    0    0    0  501  0.00000000000E+00  0.00000000000E+00 -0.16342214857E+04  0.16342214857E+04  0.25500000920E-02 0. -1.
    10030    2    1    2    0    0  0.00000000000E+00  0.00000000000E+00  0.38413962024E+03  0.36525825916E+04  0.36323265740E+04 0.  0.
        4    1    3    3  502    0 -0.14977648821E+04  0.74858414867E+03  0.89939098840E+03  0.19006797817E+04  0.12699999809E+01 0.  1.
       -4    1    3    3    0  502  0.14977648821E+04 -0.74858414867E+03 -0.51525136816E+03  0.17519028098E+04  0.12699999809E+01 0. -1.
</event>
<event>
 5   0  0.9341000E-08  0.3680326E+04  0.7818609E-02  0.8072336E-01
        1   -1    0    0  501    0  0.00000000000E+00  0.00000000000E+00  0.22548467363E+04  0.22548467363E+04  0.50400001928E-02 0. -1.
       -1   -1    0    0    0  501  0.00000000000E+00  0.00000000000E+00 -0.15017425213E+04  0.15017425214E+04  0.50400001928E-02 0.  1.
    10030    2    1    2    0    0  0.00000000000E+00  0.00000000000E+00  0.75310421495E+03  0.37565892577E+04  0.36803256503E+04 0.  0.
        4    1    3    3  502    0 -0.18184135782E+04 -0.14940501620E+03  0.13232891619E+03  0.18293338556E+04  0.12699999809E+01 0.  1.
       -4    1    3    3    0  502  0.18184135782E+04  0.14940501620E+03  0.62077529877E+03  0.19272554021E+04  0.12699999809E+01 0. -1.
</event>
<event>
 5   0  0.2996969E-07  0.3676267E+04  0.7818609E-02  0.8073242E-01
        2   -1    0    0  501    0  0.00000000000E+00  0.00000000000E+00  0.10838617229E+04  0.10838617229E+04  0.25500000920E-02 0.  1.
       -2   -1    0    0    0  501  0.00000000000E+00  0.00000000000E+00 -0.31173121934E+04  0.31173121934E+04  0.25500000920E-02 0. -1.
    10030    2    1    2    0    0  0.00000000000E+00  0.00000000000E+00 -0.20334504704E+04  0.42011739163E+04  0.36762673270E+04 0.  0.
        1    1    3    3  502    0 -0.60892589976E+03  0.13610434733E+04 -0.22451527705E+04  0.26951699483E+04  0.50400001928E-02 0. -1.
       -1    1    3    3    0  502  0.60892589976E+03 -0.13610434733E+04  0.21170230004E+03  0.15060039680E+04  0.50400001928E-02 0.  1.
</event>
<event>
 5   0  0.9341000E-08  0.3703304E+04  0.7818609E-02  0.8067230E-01
       -1   -1    0    0    0  501  0.00000000000E+00  0.00000000000E+00  0.16628755956E+04  0.16628755957E+04  0.50400001928E-02 0.  1.
        1   -1    0    0  501    0  0.00000000000E+00  0.00000000000E+00 -0.20618595222E+04  0.20618595222E+04  0.50400001928E-02 0. -1.
    10030    2    1    2    0    0  0.00000000000E+00  0.00000000000E+00 -0.39898392655E+03  0.37247351178E+04  0.37033044061E+04 0.  0.
        3    1    3    3  502    0 -0.10240052131E+04 -0.79400277816E+03 -0.15298666550E+04  0.20048738316E+04  0.10100000352E+00 0. -1.
       -3    1    3    3    0  502  0.10240052131E+04  0.79400277816E+03  0.11308827285E+04  0.17198612863E+04  0.10100000352E+00 0.  1.
</event>
<event>
 5   0  0.3032442E-07  0.3695327E+04  0.7818609E-02  0.8068998E-01
       -2   -1    0    0    0  501  0.00000000000E+00  0.00000000000E+00  0.17741136784E+04  0.17741136784E+04  0.25500000920E-02 0. -1.
        2   -1    0    0  501    0  0.00000000000E+00  0.00000000000E+00 -0.19242623920E+04  0.19242623920E+04  0.25500000920E-02 0.  1.
    10030    2    1    2    0    0  0.00000000000E+00  0.00000000000E+00 -0.15014871362E+03  0.36983760704E+04  0.36953269033E+04 0.  0.
        3    1    3    3  502    0  0.30479007347E+03 -0.10680026824E+04  0.14027392827E+04  0.17891909411E+04  0.10100000352E+00 0. -1.
       -3    1    3    3    0  502 -0.30479007347E+03  0.10680026824E+04 -0.15528879963E+04  0.19091851293E+04  0.10100000352E+00 0.  1.
</event>
<event>
 5   0  0.9418945E-08  0.3677140E+04  0.7818609E-02  0.8073047E-01
        1   -1    0    0  501    0  0.00000000000E+00  0.00000000000E+00  0.22286410502E+04  0.22286410502E+04  0.50400001928E-02 0. -1.
       -1   -1    0    0    0  501  0.00000000000E+00  0.00000000000E+00 -0.15167717801E+04  0.15167717801E+04  0.50400001928E-02 0.  1.
    10030    2    1    2    0    0  0.00000000000E+00  0.00000000000E+00  0.71186927015E+03  0.37454128303E+04  0.36771401132E+04 0.  0.
        5    1    3    3  502    0  0.69161967444E+03 -0.73711351188E+03  0.19202369285E+04  0.21700244365E+04  0.46999998093E+01 0. -1.
       -5    1    3    3    0  502 -0.69161967444E+03  0.73711351188E+03 -0.12083676584E+04  0.15753883938E+04  0.46999998093E+01 0.  1.
</event>
<event>
 5   0  0.2996969E-07  0.3692188E+04  0.7818609E-02  0.8069695E-01
       -2   -1    0    0    0  501  0.00000000000E+00  0.00000000000E+00  0.21327497280E+04  0.21327497280E+04  0.25500000920E-02 0. -1.
        2   -1    0    0  501    0  0.00000000000E+00  0.00000000000E+00 -0.15979664884E+04  0.15979664884E+04  0.25500000920E-02 0.  1.
    10030    2    1    2    0    0  0.00000000000E+00  0.00000000000E+00  0.53478323956E+03  0.37307162164E+04  0.36921877490E+04 0.  0.
        1    1    3    3  502    0 -0.94695894004E+03  0.12472764912E+03 -0.13288958274E+04  0.16365366909E+04  0.50400001928E-02 0.  1.
       -1    1    3    3    0  502  0.94695894004E+03 -0.12472764912E+03  0.18636790669E+04  0.20941795255E+04  0.50400001928E-02 0. -1.
</event>
<event>
 5   0  0.3032442E-07  0.3681345E+04  0.7818609E-02  0.8072109E-01
       -2   -1    0    0    0  501  0.00000000000E+00  0.00000000000E+00  0.27064232416E+04  0.27064232416E+04  0.25500000920E-02 0. -1.
        2   -1    0    0  501    0  0.00000000000E+00  0.00000000000E+00 -0.12518648011E+04  0.12518648011E+04  0.25500000920E-02 0.  1.
    10030    2    1    2    0    0  0.00000000000E+00  0.00000000000E+00  0.14545584405E+04  0.39582880427E+04  0.36813454024E+04 0.  0.
        3    1    3    3  502    0 -0.50664212533E+03 -0.51052922717E+02 -0.11746246951E+04  0.12802483464E+04  0.10100000352E+00 0.  1.
       -3    1    3    3    0  502  0.50664212533E+03  0.51052922717E+02  0.26291831356E+04  0.26780396962E+04  0.10100000352E+00 0. -1.
</event>
<event>
 5   0  0.9341000E-08  0.3686264E+04  0.7818609E-02  0.8071013E-01
       -1   -1    0    0    0  501  0.00000000000E+00  0.00000000000E+00  0.16621751327E+04  0.16621751327E+04  0.50400001928E-02 0.  1.
        1   -1    0    0  501    0  0.00000000000E+00  0.00000000000E+00 -0.20437890467E+04  0.20437890467E+04  0.50400001928E-02 0. -1.
    10030    2    1    2    0    0  0.00000000000E+00  0.00000000000E+00 -0.38161391403E+03  0.37059641794E+04  0.36862638700E+04 0.  0.
        4    1    3    3  502    0  0.13928866208E+04  0.98888496960E+03 -0.88668174005E+03  0.19246383407E+04  0.12699999809E+01 0. -1.
       -4    1    3    3    0  502 -0.13928866208E+04 -0.98888496960E+03  0.50506782602E+03  0.17813258386E+04  0.12699999809E+01 0.  1.
</event>
<event>
 5   0  0.9646615E-08  0.3695367E+04  0.7818609E-02  0.8068989E-01
        1   -1    0    0  501    0  0.00000000000E+00  0.00000000000E+00  0.28005255164E+04  0.28005255164E+04  0.50400001928E-02 0.  1.
       -1   -1    0    0    0  501  0.00000000000E+00  0.00000000000E+00 -0.12190337551E+04  0.12190337551E+04  0.50400001928E-02 0. -1.
    10030    2    1    2    0    0  0.00000000000E+00  0.00000000000E+00  0.15814917613E+04  0.40195592715E+04  0.36953674440E+04 0.  0.
        2    1    3    3  502    0 -0.14276214730E+03 -0.11076205482E+04 -0.81037193448E+03  0.13798213586E+04  0.25500000920E-02 0. -1.
       -2    1    3    3    0  502  0.14276214730E+03  0.11076205482E+04  0.23918636958E+04  0.26397379129E+04  0.25500000920E-02 0.  1.
</event>
<event>
 5   0  0.2897133E-07  0.3723403E+04  0.7818609E-02  0.8062795E-01
       -2   -1    0    0    0  501  0.00000000000E+00  0.00000000000E+00  0.17189923932E+04  0.17189923932E+04  0.25500000920E-02 0.  1.
        2   -1    0    0  501    0  0.00000000000E+00  0.00000000000E+00 -0.20162584285E+04  0.20162584285E+04  0.25500000920E-02 0. -1.
    10030    2    1    2    0    0  0.00000000000E+00  0.00000000000E+00 -0.29726603531E+03  0.37352508217E+04  0.37234032290E+04 0.  0.
        4    1    3    3  502    0  0.58809006218E+03 -0.89643843837E+03 -0.16754744235E+04  0.19891374894E+04  0.12699999809E+01 0. -1.
       -4    1    3    3    0  502 -0.58809006218E+03  0.89643843837E+03  0.13782083882E+04  0.17461133323E+04  0.12699999809E+01 0.  1.
</event>
<event>
 5   0  0.2996969E-07  0.3760195E+04  0.7818609E-02  0.8054751E-01
       -2   -1    0    0    0  501  0.00000000000E+00  0.00000000000E+00  0.18885916409E+04  0.18885916409E+04  0.25500000920E-02 0. -1.
        2   -1    0    0  501    0  0.00000000000E+00  0.00000000000E+00 -0.18716411595E+04  0.18716411595E+04  0.25500000920E-02 0.  1.
    10030    2    1    2    0    0  0.00000000000E+00  0.00000000000E+00  0.16950481381E+02  0.37602328004E+04  0.37601945952E+04 0.  0.
        1    1    3    3  502    0  0.11474371854E+04  0.65070961928E+03  0.13481644643E+04  0.18861554883E+04  0.50400001928E-02 0. -1.
       -1    1    3    3    0  502 -0.11474371854E+04 -0.65070961928E+03 -0.13312139829E+04  0.18740773121E+04  0.50400001928E-02 0.  1.
</event>
<event>
 5   0  0.9341000E-08  0.3640573E+04  0.7818609E-02  0.8081261E-01
        1   -1    0    0  501    0  0.00000000000E+00  0.00000000000E+00  0.14147235449E+04  0.14147235449E+04  0.50400001928E-02 0.  1.
       -1   -1    0    0    0  501  0.00000000000E+00  0.00000000000E+00 -0.23421137961E+04  0.23421137961E+04  0.50400001928E-02 0. -1.
    10030    2    1    2    0    0  0.00000000000E+00  0.00000000000E+00 -0.92739025117E+03  0.37568373411E+04  0.36405733242E+04 0.  0.
        1    1    3    3  502    0 -0.10136208845E+04  0.14521204983E+04 -0.29101595061E+02  0.17711375277E+04  0.50400001928E-02 0.  1.
       -1    1    3    3    0  502  0.10136208845E+04 -0.14521204983E+04 -0.89828865611E+03  0.19856998134E+04  0.50400001928E-02 0. -1.
</event>
<event>
 5   0  0.2913025E-07  0.3565545E+04  0.7818609E-02  0.8098430E-01
       -2   -1    0    0    0  501  0.00000000000E+00  0.00000000000E+00  0.13842973337E+04  0.13842973337E+04  0.25500000920E-02 0.  1.
        2   -1    0    0  501    0  0.00000000000E+00  0.00000000000E+00 -0.22959508237E+04  0.22959508237E+04  0.25500000920E-02 0. -1.
    10030    2    1    2    0    0  0.00000000000E+00  0.00000000000E+00 -0.91165349001E+03  0.36802481575E+04  0.35655454582E+04 0.  0.
        5    1    3    3  502    0  0.10286829044E+04  0.13464813895E+04  0.11612557212E+03  0.16984427834E+04  0.46999998093E+01 0. -1.
       -5    1    3    3    0  502 -0.10286829044E+04 -0.13464813895E+04 -0.10277790621E+04  0.19818053740E+04  0.46999998093E+01 0.  1.
</event>
<event>
 5   0  0.9341000E-08  0.3708384E+04  0.7818609E-02  0.8066106E-01
        1   -1    0    0  501    0  0.00000000000E+00  0.00000000000E+00  0.14887205714E+04  0.14887205715E+04  0.50400001928E-02 0.  1.
       -1   -1    0    0    0  501  0.00000000000E+00  0.00000000000E+00 -0.23093841852E+04  0.23093841852E+04  0.50400001928E-02 0. -1.
    10030    2    1    2    0    0  0.00000000000E+00  0.00000000000E+00 -0.82066361378E+03  0.37981047567E+04  0.37083838765E+04 0.  0.
        4    1    3    3  502    0  0.18506196061E+04  0.10536357065E+03 -0.45761944296E+03  0.19092699065E+04  0.12699999809E+01 0.  1.
       -4    1    3    3    0  502 -0.18506196061E+04 -0.10536357065E+03 -0.36304417083E+03  0.18888348502E+04  0.12699999809E+01 0. -1.
</event>
<event>
 5   0  0.9418945E-08  0.3364663E+04  0.7818609E-02  0.8146634E-01
       -1   -1    0    0    0  501  0.00000000000E+00  0.00000000000E+00  0.17534135813E+04  0.17534135813E+04  0.50400001928E-02 0. -1.
        1   -1    0    0  501    0  0.00000000000E+00  0.00000000000E+00 -0.16141310477E+04  0.16141310477E+04  0.50400001928E-02 0.  1.
    10030    2    1    2    0    0  0.00000000000E+00  0.00000000000E+00  0.13928253361E+03  0.33675446290E+04  0.33646630150E+04 0.  0.
        5    1    3    3  502    0  0.13649669736E+03 -0.11614337754E+04 -0.11407982658E+04  0.16337082164E+04  0.46999998093E+01 0.  1.
       -5    1    3    3    0  502 -0.13649669736E+03  0.11614337754E+04  0.12800807994E+04  0.17338364127E+04  0.46999998093E+01 0. -1.
</event>
<event>
 5   0  0.9646615E-08  0.3548117E+04  0.7818609E-02  0.8102481E-01
       -1   -1    0    0    0  501  0.00000000000E+00  0.00000000000E+00  0.14020557752E+04  0.14020557752E+04  0.50400001928E-02 0. -1.
        1   -1    0    0  501    0  0.00000000000E+00  0.00000000000E+00 -0.22447629048E+04  0.22447629048E+04  0.50400001928E-02 0.  1.
    10030    2    1    2    0    0  0.00000000000E+00  0.00000000000E+00 -0.84270712962E+03  0.36468186800E+04  0.35481165678E+04 0.  0.
        2    1    3    3  502    0 -0.15908886306E+04  0.12382278519E+03  0.37547010521E+03  0.16392792675E+04  0.25500000920E-02 0. -1.
       -2    1    3    3    0  502  0.15908886306E+04 -0.12382278519E+03 -0.12181772348E+04  0.20075394124E+04  0.25500000920E-02 0.  1.
</event>
<event>
 5   0  0.2897133E-07  0.3664762E+04  0.7818609E-02  0.8075816E-01
        2   -1    0    0  501    0  0.00000000000E+00  0.00000000000E+00  0.34862603343E+04  0.34862603343E+04  0.25500000920E-02 0. -1.
       -2   -1    0    0    0  501  0.00000000000E+00  0.00000000000E+00 -0.96310103768E+03  0.96310103768E+03  0.25500000920E-02 0.  1.
    10030    2    1    2    0    0  0.00000000000E+00  0.00000000000E+00  0.25231592966E+04  0.44493613719E+04  0.36647624455E+04 0.  0.
        4    1    3    3  502    0 -0.15647378638E+04 -0.73492358427E+03  0.52397253667E+03  0.18063958839E+04  0.12699999809E+01 0.  1.
       -4    1    3    3    0  502  0.15647378638E+04  0.73492358427E+03  0.19991867599E+04  0.26429654881E+04  0.12699999809E+01 0. -1.
</event>
<event>
 5   0  0.9341000E-08  0.3720538E+04  0.7818609E-02  0.8063426E-01
        1   -1    0    0  501    0  0.00000000000E+00  0.00000000000E+00  0.16110407494E+04  0.16110407495E+04  0.50400001928E-02 0. -1.
       -1   -1    0    0    0  501  0.00000000000E+00  0.00000000000E+00 -0.21480528619E+04  0.21480528619E+04  0.50400001928E-02 0.  1.
    10030    2    1    2    0    0  0.00000000000E+00  0.00000000000E+00 -0.53701211243E+03  0.37590936113E+04  0.37205379678E+04 0.  0.
        1    1    3    3  502    0  0.60266254213E+03 -0.11662983379E+04 -0.16001731030E+04  0.20697845086E+04  0.50400001928E-02 0.  1.
       -1    1    3    3    0  502 -0.60266254213E+03  0.11662983379E+04  0.10631609906E+04  0.16893091027E+04  0.50400001928E-02 0. -1.
</event>
<event>
 5   0  0.9341000E-08  0.3703379E+04  0.7818609E-02  0.8067213E-01
        1   -1    0    0  501    0  0.00000000000E+00  0.00000000000E+00  0.18630983240E+04  0.18630983241E+04  0.50400001928E-02 0.  1.
       -1   -1    0    0    0  501  0.00000000000E+00  0.00000000000E+00 -0.18403508829E+04  0.18403508829E+04  0.50400001928E-02 0. -1.
    10030    2    1    2    0    0  0.00000000000E+00  0.00000000000E+00  0.22747441168E+02  0.37034492069E+04  0.37033793463E+04 0.  0.
        3    1    3    3  502    0  0.18362654493E+04  0.19432459736E+03  0.14965787496E+03  0.18525739767E+04  0.10100000352E+00 0. -1.
       -3    1    3    3    0  502 -0.18362654493E+04 -0.19432459736E+03 -0.12691043379E+03  0.18508752302E+04  0.10100000352E+00 0.  1.
</event>
<event>
 5   0  0.3008879E-07  0.3747285E+04  0.7818609E-02  0.8057563E-01
        2   -1    0    0  501    0  0.00000000000E+00  0.00000000000E+00  0.22131240165E+04  0.22131240165E+04  0.25500000920E-02 0.  1.
       -2   -1    0    0    0  501  0.00000000000E+00  0.00000000000E+00 -0.15862355841E+04  0.15862355841E+04  0.25500000920E-02 0. -1.
    10030    2    1    2    0    0  0.00000000000E+00  0.00000000000E+00  0.62688843237E+03  0.37993596005E+04  0.37472849195E+04 0.  0.
        2    1    3    3  502    0 -0.10679581363E+04  0.15322536183E+04  0.46451255405E+03  0.19246058414E+04  0.25500000920E-02 0. -1.
       -2    1    3    3    0  502  0.10679581363E+04 -0.15322536183E+04  0.16237587832E+03  0.18747537592E+04  0.25500000920E-02 0.  1.
</event>
<event>
 5   0  0.2897133E-07  0.3683383E+04  0.7818609E-02  0.8071654E-01
       -2   -1    0    0    0  501  0.00000000000E+00  0.00000000000E+00  0.16889226516E+04  0.16889226516E+04  0.25500000920E-02 0.  1.
        2   -1    0    0  501    0  0.00000000000E+00  0.00000000000E+00 -0.20082789166E+04  0.20082789166E+04  0.25500000920E-02 0. -1.
    10030    2    1    2    0    0  0.00000000000E+00  0.00000000000E+00 -0.31935626502E+03  0.36972015681E+04  0.36833830932E+04 0.  0.
        4    1    3    3  502    0 -0.90151337036E+03 -0.10609383559E+04  0.10504606758E+04  0.17440716144E+04  0.12699999809E+01 0.  1.
       -4    1    3    3    0  502  0.90151337036E+03  0.10609383559E+04 -0.13698169408E+04  0.19531299537E+04  0.12699999809E+01 0. -1.
</event>
<event>
 5   0  0.9418945E-08  0.3690382E+04  0.7818609E-02  0.8070097E-01
        1   -1    0    0  501    0  0.00000000000E+00  0.00000000000E+00  0.28779600712E+04  0.28779600712E+04  0.50400001928E-02 0.  1.
       -1   -1    0    0    0  501  0.00000000000E+00  0.00000000000E+00 -0.11830360732E+04  0.11830360732E+04  0.50400001928E-02 0. -1.
    10030    2    1    2    0    0  0.00000000000E+00  0.00000000000E+00  0.16949239980E+04  0.40609961443E+04  0.36903824091E+04 0.  0.
        5    1    3    3  502    0 -0.13640927776E+04  0.57638443827E+03 -0.36387781918E+03  0.15249253372E+04  0.46999998093E+01 0. -1.
       -5    1    3    3    0  502  0.13640927776E+04 -0.57638443827E+03  0.20588018172E+04  0.25360708072E+04  0.46999998093E+01 0.  1.
</event>
<event>
 5   0  0.2897133E-07  0.3673323E+04  0.7818609E-02  0.8073900E-01
       -2   -1    0    0    0  501  0.00000000000E+00  0.00000000000E+00  0.15525797947E+04  0.15525797947E+04  0.25500000920E-02 0. -1.
        2   -1    0    0  501    0  0.00000000000E+00  0.00000000000E+00 -0.21727227066E+04  0.21727227066E+04  0.25500000920E-02 0.  1.
    10030    2    1    2    0    0  0.00000000000E+00  0.00000000000E+00 -0.62014291197E+03  0.37253025013E+04  0.36733229500E+04 0.  0.
        4    1    3    3  502    0  0.10484412614E+04 -0.12617899745E+04 -0.11475785368E+04  0.20020692119E+04  0.12699999809E+01 0.  1.
       -4    1    3    3    0  502 -0.10484412614E+04  0.12617899745E+04  0.52743562481E+03  0.17232332894E+04  0.12699999809E+01 0. -1.
</event>
<event>
 5   0  0.9646615E-08  0.3565203E+04  0.7818609E-02  0.8098509E-01
        1   -1    0    0  501    0  0.00000000000E+00  0.00000000000E+00  0.24849202253E+04  0.24849202253E+04  0.50400001928E-02 0.  1.
       -1   -1    0    0    0  501  0.00000000000E+00  0.00000000000E+00 -0.12787809981E+04  0.12787809981E+04  0.50400001928E-02 0. -1.
    10030    2    1    2    0    0  0.00000000000E+00  0.00000000000E+00  0.12061392272E+04  0.37637012235E+04  0.35652033692E+04 0.  0.
        2    1    3    3  502    0  0.66981356657E+03  0.50335119045E+03  0.22640939382E+04  0.24141528526E+04  0.25500000920E-02 0.  1.
       -2    1    3    3    0  502 -0.66981356657E+03 -0.50335119045E+03 -0.10579547109E+04  0.13495483709E+04  0.25500000920E-02 0. -1.
</event>
<event>
 5   0  0.2913025E-07  0.3686062E+04  0.7818609E-02  0.8071058E-01
        2   -1    0    0  501    0  0.00000000000E+00  0.00000000000E+00  0.11700664262E+04  0.11700664262E+04  0.25500000920E-02 0. -1.
       -2   -1    0    0    0  501  0.00000000000E+00  0.00000000000E+00 -0.29030514085E+04  0.29030514085E+04  0.25500000920E-02 0.  1.
    10030    2    1    2    0    0  0.00000000000E+00  0.00000000000E+00 -0.17329849823E+04  0.40731178346E+04  0.36860618478E+04 0.  0.
        5    1    3    3  502    0  0.13687027985E+04  0.54785081490E+03  0.35565186520E+03  0.15165744971E+04  0.46999998093E+01 0. -1.
       -5    1    3    3    0  502 -0.13687027985E+04 -0.54785081490E+03 -0.20886368475E+04  0.25565433376E+04  0.46999998093E+01 0.  1.
</event>
<event>
 5   0  0.9341000E-08  0.3699932E+04  0.7818609E-02  0.8067977E-01
       -1   -1    0    0    0  501  0.00000000000E+00  0.00000000000E+00  0.33706716584E+04  0.33706716584E+04  0.50400001928E-02 0. -1.
        1   -1    0    0  501    0  0.00000000000E+00  0.00000000000E+00 -0.10153390141E+04  0.10153390141E+04  0.50400001928E-02 0.  1.
    10030    2    1    2    0    0  0.00000000000E+00  0.00000000000E+00  0.23553326443E+04  0.43860106725E+04  0.36999321283E+04 0.  0.
        4    1    3    3  502    0 -0.68098095671E+03 -0.76524986424E+03  0.30037790282E+04  0.31736465589E+04  0.12699999809E+01 0. -1.
       -4    1    3    3    0  502  0.68098095671E+03  0.76524986424E+03 -0.64844638387E+03  0.12123641135E+04  0.12699999809E+01 0.  1.
</event>
<event>
 5   0  0.3032442E-07  0.3696897E+04  0.7818609E-02  0.8068650E-01
       -2   -1    0    0    0  501  0.00000000000E+00  0.00000000000E+00  0.12602692077E+04  0.12602692077E+04  0.25500000920E-02 0. -1.
        2   -1    0    0  501    0  0.00000000000E+00  0.00000000000E+00 -0.27111371112E+04  0.27111371112E+04  0.25500000920E-02 0.  1.
    10030    2    1    2    0    0  0.00000000000E+00  0.00000000000E+00 -0.14508679035E+04  0.39714063189E+04  0.36968974122E+04 0.  0.
        3    1    3    3  502    0  0.39273652838E+03 -0.10947989329E+04 -0.22687505551E+04  0.25495206953E+04  0.10100000352E+00 0.  1.
       -3    1    3    3    0  502 -0.39273652838E+03  0.10947989329E+04  0.81788265166E+03  0.14218856235E+04  0.10100000352E+00 0. -1.
</event>
<event>
 5   0  0.9646615E-08  0.3706630E+04  0.7818609E-02  0.8066494E-01
        1   -1    0    0  501    0  0.00000000000E+00  0.00000000000E+00  0.14466184462E+04  0.14466184462E+04  0.50400001928E-02 0. -1.
       -1   -1    0    0    0  501  0.00000000000E+00  0.00000000000E+00 -0.23743484175E+04  0.23743484175E+04  0.50400001928E-02 0.  1.
    10030    2    1    2    0    0  0.00000000000E+00  0.00000000000E+00 -0.92772997130E+03  0.38209668636E+04  0.37066298538E+04 0.  0.
        2    1    3    3  502    0  0.41823279887E+03  0.61445790685E+02  0.13962582429E+04  0.14588458932E+04  0.25500000920E-02 0. -1.
       -2    1    3    3    0  502 -0.41823279887E+03 -0.61445790685E+02 -0.23239882142E+04  0.23621209704E+04  0.25500000920E-02 0.  1.
</event>
<event>
 5   0  0.3008879E-07  0.3692882E+04  0.7818609E-02  0.8069541E-01
        2   -1    0    0  501    0  0.00000000000E+00  0.00000000000E+00  0.21431469135E+04  0.21431469135E+04  0.25500000920E-02 0. -1.
       -2   -1    0    0    0  501  0.00000000000E+00  0.00000000000E+00 -0.15908119052E+04  0.15908119052E+04  0.25500000920E-02 0.  1.
    10030    2    1    2    0    0  0.00000000000E+00  0.00000000000E+00  0.55233500831E+03  0.37339588187E+04  0.36928815982E+04 0.  0.
        2    1    3    3  502    0 -0.41100137389E+03  0.17392765583E+04  0.74537509745E+03  0.19363855792E+04  0.25500000920E-02 0. -1.
       -2    1    3    3    0  502  0.41100137389E+03 -0.17392765583E+04 -0.19304008914E+03  0.17975732395E+04  0.25500000920E-02 0.  1.
</event>
<event>
 5   0  0.2897133E-07  0.3776602E+04  0.7818609E-02  0.8051195E-01
       -2   -1    0    0    0  501  0.00000000000E+00  0.00000000000E+00  0.20765290659E+04  0.20765290659E+04  0.25500000920E-02 0.  1.
        2   -1    0    0  501    0  0.00000000000E+00  0.00000000000E+00 -0.17171351468E+04  0.17171351468E+04  0.25500000920E-02 0. -1.
    10030    2    1    2    0    0  0.00000000000E+00  0.00000000000E+00  0.35939391909E+03  0.37936642127E+04  0.37766021990E+04 0.  0.
        4    1    3    3  502    0 -0.49897610930E+02  0.13955368544E+04 -0.10971343167E+04  0.17758711117E+04  0.12699999809E+01 0. -1.
       -4    1    3    3    0  502  0.49897610930E+02 -0.13955368544E+04  0.14565282358E+04  0.20177931009E+04  0.12699999809E+01 0.  1.
</event>
<event>
 5   0  0.2913025E-07  0.3709810E+04  0.7818609E-02  0.8065791E-01
       -2   -1    0    0    0  501  0.00000000000E+00  0.00000000000E+00  0.18223414368E+04  0.18223414368E+04  0.25500000920E-02 0. -1.
        2   -1    0    0  501    0  0.00000000000E+00  0.00000000000E+00 -0.18880504661E+04  0.18880504661E+04  0.25500000920E-02 0.  1.
    10030    2    1    2    0    0  0.00000000000E+00  0.00000000000E+00 -0.65709029310E+02  0.37103919029E+04  0.37098100216E+04 0.  0.
        5    1    3    3  502    0  0.95262923376E+03  0.13066739334E+04  0.87599659604E+03  0.18391006909E+04  0.46999998093E+01 0. -1.
       -5    1    3    3    0  502 -0.95262923376E+03 -0.13066739334E+04 -0.94170562535E+03  0.18712912120E+04  0.46999998093E+01 0.  1.
</event>
<event>
 5   0  0.9341000E-08  0.3706044E+04  0.7818609E-02  0.8066624E-01
       -1   -1    0    0    0  501  0.00000000000E+00  0.00000000000E+00  0.14291449981E+04  0.14291449981E+04  0.50400001928E-02 0. -1.
        1   -1    0    0  501    0  0.00000000000E+00  0.00000000000E+00 -0.24026181346E+04  0.24026181346E+04  0.50400001928E-02 0.  1.
    10030    2    1    2    0    0  0.00000000000E+00  0.00000000000E+00 -0.97347313644E+03  0.38317631327E+04  0.37060435451E+04 0.  0.
        1    1    3    3  502    0  0.13463093991E+04 -0.16056477925E+03 -0.17926591677E+04  0.22476558762E+04  0.50400001928E-02 0. -1.
       -1    1    3    3    0  502 -0.13463093991E+04  0.16056477925E+03  0.81918603121E+03  0.15841072565E+04  0.50400001928E-02 0.  1.
</event>
<event>
 5   0  0.9646615E-08  0.3639015E+04  0.7818609E-02  0.8081613E-01
        1   -1    0    0  501    0  0.00000000000E+00  0.00000000000E+00  0.23125567464E+04  0.23125567464E+04  0.50400001928E-02 0. -1.
       -1   -1    0    0    0  501  0.00000000000E+00  0.00000000000E+00 -0.14315785555E+04  0.14315785555E+04  0.50400001928E-02 0.  1.
    10030    2    1    2    0    0  0.00000000000E+00  0.00000000000E+00  0.88097819097E+03  0.37441353019E+04  0.36390145075E+04 0.  0.
        2    1    3    3  502    0  0.72228456617E+03  0.15885483777E+04 -0.89588240737E+02  0.17473428387E+04  0.25500000920E-02 0. -1.
       -2    1    3    3    0  502 -0.72228456617E+03 -0.15885483777E+04  0.97056643171E+03  0.19967924633E+04  0.25500000920E-02 0.  1.
</event>
<event>
 5   0  0.2913025E-07  0.3701680E+04  0.7818609E-02  0.8067590E-01
       -2   -1    0    0    0  501  0.00000000000E+00  0.00000000000E+00  0.20155416701E+04  0.20155416701E+04  0.25500000920E-02 0. -1.
        2   -1    0    0  501    0  0.00000000000E+00  0.00000000000E+00 -0.16995966072E+04  0.16995966072E+04  0.25500000920E-02 0.  1.
    10030    2    1    2    0    0  0.00000000000E+00  0.00000000000E+00  0.31594506286E+03  0.37151382773E+04  0.37016795021E+04 0.  0.
        5    1    3    3  502    0  0.17037392994E+03  0.14850043333E+04  0.12534172986E+04  0.19507286229E+04  0.46999998093E+01 0. -1.
       -5    1    3    3    0  502 -0.17037392994E+03 -0.14850043333E+04 -0.93747223571E+03  0.17644096544E+04  0.46999998093E+01 0.  1.
</event>
<event>
 5   0  0.9341000E-08  0.3722065E+04  0.7818609E-02  0.8063089E-01
        1   -1    0    0  501    0  0.00000000000E+00  0.00000000000E+00  0.23326338991E+04  0.23326338991E+04  0.50400001928E-02 0.  1.
       -1   -1    0    0    0  501  0.00000000000E+00  0.00000000000E+00 -0.14847776453E+04  0.14847776453E+04  0.50400001928E-02 0. -1.
    10030    2    1    2    0    0  0.00000000000E+00  0.00000000000E+00  0.84785625385E+03  0.38174115444E+04  0.37220653772E+04 0.  0.
        3    1    3    3  502    0 -0.12341636560E+04  0.70759010112E+03 -0.80664024892E+03  0.16353935864E+04  0.10100000352E+00 0. -1.
       -3    1    3    3    0  502  0.12341636560E+04 -0.70759010112E+03  0.16544965028E+04  0.21820179580E+04  0.10100000352E+00 0.  1.
</event>
<event>
 5   0  0.2996969E-07  0.3651933E+04  0.7818609E-02  0.8078698E-01
        2   -1    0    0  501    0  0.00000000000E+00  0.00000000000E+00  0.14700704260E+04  0.14700704260E+04  0.25500000920E-02 0. -1.
       -2   -1    0    0    0  501  0.00000000000E+00  0.00000000000E+00 -0.22680231400E+04  0.22680231400E+04  0.25500000920E-02 0.  1.
    10030    2    1    2    0    0  0.00000000000E+00  0.00000000000E+00 -0.79795271399E+03  0.37380935660E+04  0.36519330463E+04 0.  0.
        1    1    3    3  502    0 -0.10190132459E+04  0.15651123541E+03 -0.19416062456E+04  0.21983445078E+04  0.50400001928E-02 0.  1.
       -1    1    3    3    0  502  0.10190132459E+04 -0.15651123541E+03  0.11436535316E+04  0.15397490583E+04  0.50400001928E-02 0. -1.
</event>
<event>
 5   0  0.9341000E-08  0.3752970E+04  0.7818609E-02  0.8056323E-01
       -1   -1    0    0    0  501  0.00000000000E+00  0.00000000000E+00  0.27486410459E+04  0.27486410459E+04  0.50400001928E-02 0.  1.
        1   -1    0    0  501    0  0.00000000000E+00  0.00000000000E+00 -0.12810676751E+04  0.12810676751E+04  0.50400001928E-02 0. -1.
    10030    2    1    2    0    0  0.00000000000E+00  0.00000000000E+00  0.14675733709E+04  0.40297087210E+04  0.37529695945E+04 0.  0.
        1    1    3    3  502    0  0.78127014979E+03  0.15891297667E+04  0.14004381232E+04  0.22576411139E+04  0.50400001928E-02 0.  1.
       -1    1    3    3    0  502 -0.78127014979E+03 -0.15891297667E+04  0.67135247677E+02  0.17720676071E+04  0.50400001928E-02 0. -1.
</event>
<event>
 5   0  0.2996969E-07  0.3695207E+04  0.7818609E-02  0.8069025E-01
        2   -1    0    0  501    0  0.00000000000E+00  0.00000000000E+00  0.25299701725E+04  0.25299701725E+04  0.25500000920E-02 0.  1.
       -2   -1    0    0    0  501  0.00000000000E+00  0.00000000000E+00 -0.13492800277E+04  0.13492800277E+04  0.25500000920E-02 0. -1.
    10030    2    1    2    0    0  0.00000000000E+00  0.00000000000E+00  0.11806901448E+04  0.38792502001E+04  0.36952067462E+04 0.  0.
        1    1    3    3  502    0  0.14150400880E+04  0.51356477960E+03 -0.53424707120E+03  0.15973437848E+04  0.50400001928E-02 0.  1.
       -1    1    3    3    0  502 -0.14150400880E+04 -0.51356477960E+03  0.17149372160E+04  0.22819064154E+04  0.50400001928E-02 0. -1.
</event>
<event>
 5   0  0.2996969E-07  0.3706547E+04  0.7818609E-02  0.8066513E-01
        2   -1    0    0  501    0  0.00000000000E+00  0.00000000000E+00  0.19763438655E+04  0.19763438655E+04  0.25500000920E-02 0.  1.
       -2   -1    0    0    0  501  0.00000000000E+00  0.00000000000E+00 -0.17378664919E+04  0.17378664919E+04  0.25500000920E-02 0. -1.
    10030    2    1    2    0    0  0.00000000000E+00  0.00000000000E+00  0.23847737359E+03  0.37142103574E+04  0.37065465222E+04 0.  0.
        1    1    3    3  502    0  0.12231104975E+04  0.17521568478E+03 -0.12648927865E+04  0.17682345961E+04  0.50400001928E-02 0. -1.
       -1    1    3    3    0  502 -0.12231104975E+04 -0.17521568478E+03  0.15033701601E+04  0.19459757613E+04  0.50400001928E-02 0.  1.
</event>
<event>
 5   0  0.2913025E-07  0.3681494E+04  0.7818609E-02  0.8072075E-01
        2   -1    0    0  501    0  0.00000000000E+00  0.00000000000E+00  0.17072246243E+04  0.17072246243E+04  0.25500000920E-02 0.  1.
       -2   -1    0    0    0  501  0.00000000000E+00  0.00000000000E+00 -0.19847126939E+04  0.19847126939E+04  0.25500000920E-02 0. -1.
    10030    2    1    2    0    0  0.00000000000E+00  0.00000000000E+00 -0.27748806967E+03  0.36919373182E+04  0.36814944700E+04 0.  0.
        5    1    3    3  502    0 -0.12336887184E+04  0.12758085262E+04 -0.62865104674E+03  0.18827903436E+04  0.46999998093E+01 0. -1.
       -5    1    3    3    0  502  0.12336887184E+04 -0.12758085262E+04  0.35116297708E+03  0.18091469746E+04  0.46999998093E+01 0.  1.
</event>
<event>
 5   0  0.3032442E-07  0.3694761E+04  0.7818609E-02  0.8069124E-01
       -2   -1    0    0    0  501  0.00000000000E+00  0.00000000000E+00  0.13099697195E+04  0.13099697195E+04  0.25500000920E-02 0. -1.
        2   -1    0    0  501    0  0.00000000000E+00  0.00000000000E+00 -0.26052618634E+04  0.26052618634E+04  0.25500000920E-02 0.  1.
    10030    2    1    2    0    0  0.00000000000E+00  0.00000000000E+00 -0.12952921439E+04  0.39152315829E+04  0.36947606972E+04 0.  0.
        3    1    3    3  502    0  0.76414126668E+03 -0.15871679807E+04 -0.12374557498E+04  0.21527449494E+04  0.10100000352E+00 0.  1.
       -3    1    3    3    0  502 -0.76414126668E+03  0.15871679807E+04 -0.57836394180E+02  0.17624866335E+04  0.10100000352E+00 0. -1.
</event>
<event>
 5   0  0.9341000E-08  0.3526425E+04  0.7818609E-02  0.8107556E-01
       -1   -1    0    0    0  501  0.00000000000E+00  0.00000000000E+00  0.17366729275E+04  0.17366729275E+04  0.50400001928E-02 0.  1.
        1   -1    0    0  501    0  0.00000000000E+00  0.00000000000E+00 -0.17901572835E+04  0.17901572835E+04  0.50400001928E-02 0. -1.
    10030    2    1    2    0    0  0.00000000000E+00  0.00000000000E+00 -0.53484355977E+02  0.35268302110E+04  0.35264246427E+04 0.  0.
        4    1    3    3  502    0  0.55644368729E+03  0.56978516478E+03 -0.16000192056E+04  0.17872738408E+04  0.12699999809E+01 0. -1.
       -4    1    3    3    0  502 -0.55644368729E+03 -0.56978516478E+03  0.15465348496E+04  0.17395563702E+04  0.12699999809E+01 0.  1.
</event>
<event>
 5   0  0.9341000E-08  0.3715922E+04  0.7818609E-02  0.8064442E-01
       -1   -1    0    0    0  501  0.00000000000E+00  0.00000000000E+00  0.19397314985E+04  0.19397314985E+04  0.50400001928E-02 0. -1.
        1   -1    0    0  501    0  0.00000000000E+00  0.00000000000E+00 -0.17796375098E+04  0.17796375098E+04  0.50400001928E-02 0.  1.
    10030    2    1    2    0    0  0.00000000000E+00  0.00000000000E+00  0.16009398874E+03  0.37193690083E+04  0.37159219226E+04 0.  0.
        3    1    3    3  502    0 -0.14460430106E+04  0.26010193148E+03 -0.10582526794E+04  0.18106883075E+04  0.10100000352E+00 0. -1.
       -3    1    3    3    0  502  0.14460430106E+04 -0.26010193148E+03  0.12183466682E+04  0.19086807007E+04  0.10100000352E+00 0.  1.
</event>
<event>
 5   0  0.9646615E-08  0.3622129E+04  0.7818609E-02  0.8085442E-01
        1   -1    0    0  501    0  0.00000000000E+00  0.00000000000E+00  0.21075179343E+04  0.21075179343E+04  0.50400001928E-02 0.  1.
       -1   -1    0    0    0  501  0.00000000000E+00  0.00000000000E+00 -0.15563112359E+04  0.15563112360E+04  0.50400001928E-02 0. -1.
    10030    2    1    2    0    0  0.00000000000E+00  0.00000000000E+00  0.55120669831E+03  0.36638291702E+04  0.36221285682E+04 0.  0.
        2    1    3    3  502    0 -0.25435388003E+03  0.39316638309E+03  0.20452240308E+04  0.20981460953E+04  0.25500000920E-02 0.  1.
       -2    1    3    3    0  502  0.25435388003E+03 -0.39316638309E+03 -0.14940173325E+04  0.15656830749E+04  0.25500000920E-02 0. -1.
</event>
<event>
 5   0  0.9341000E-08  0.3712255E+04  0.7818609E-02  0.8065251E-01
       -1   -1    0    0    0  501  0.00000000000E+00  0.00000000000E+00  0.16310486042E+04  0.16310486042E+04  0.50400001928E-02 0.  1.
        1   -1    0    0  501    0  0.00000000000E+00  0.00000000000E+00 -0.21122670392E+04  0.21122670392E+04  0.50400001928E-02 0. -1.
    10030    2    1    2    0    0  0.00000000000E+00  0.00000000000E+00 -0.48121843494E+03  0.37433156434E+04  0.37122554902E+04 0.  0.
        1    1    3    3  502    0 -0.39859147858E+03  0.98117236267E+03  0.12964925560E+04  0.16740571435E+04  0.50400001928E-02 0.  1.
       -1    1    3    3    0  502  0.39859147858E+03 -0.98117236267E+03 -0.17777109909E+04  0.20692584999E+04  0.50400001928E-02 0. -1.
</event>
<event>
 5   0  0.2996969E-07  0.3559249E+04  0.7818609E-02  0.8099891E-01
       -2   -1    0    0    0  501  0.00000000000E+00  0.00000000000E+00  0.14083079640E+04  0.14083079640E+04  0.25500000920E-02 0. -1.
        2   -1    0    0  501    0  0.00000000000E+00  0.00000000000E+00 -0.22488426564E+04  0.22488426564E+04  0.25500000920E-02 0.  1.
    10030    2    1    2    0    0  0.00000000000E+00  0.00000000000E+00 -0.84053469242E+03  0.36571506204E+04  0.35592488100E+04 0.  0.
        1    1    3    3  502    0  0.49269729842E+03 -0.15961953959E+04  0.21018347669E+03  0.16836767694E+04  0.50400001928E-02 0. -1.
       -1    1    3    3    0  502 -0.49269729842E+03  0.15961953959E+04 -0.10507181691E+04  0.19734738511E+04  0.50400001928E-02 0.  1.
</event>
<event>
 5   0  0.9341000E-08  0.3439688E+04  0.7818609E-02  0.8128234E-01
       -1   -1    0    0    0  501  0.00000000000E+00  0.00000000000E+00  0.13203918338E+04  0.13203918338E+04  0.50400001928E-02 0. -1.
        1   -1    0    0  501    0  0.00000000000E+00  0.00000000000E+00 -0.22401405196E+04  0.22401405196E+04  0.50400001928E-02 0.  1.
    10030    2    1    2    0    0  0.00000000000E+00  0.00000000000E+00 -0.91974868580E+03  0.35605323535E+04  0.34396879212E+04 0.  0.
        3    1    3    3  502    0  0.24546144437E+03 -0.16001986106E+04  0.14101650549E+03  0.16250454083E+04  0.10100000352E+00 0. -1.
       -3    1    3    3    0  502 -0.24546144437E+03  0.16001986106E+04 -0.10607651913E+04  0.19354869452E+04  0.10100000352E+00 0.  1.
</event>
<event>
 5   0  0.3008879E-07  0.3783000E+04  0.7818609E-02  0.8049813E-01
        2   -1    0    0  501    0  0.00000000000E+00  0.00000000000E+00  0.18168316772E+04  0.18168316772E+04  0.25500000920E-02 0.  1.
       -2   -1    0    0    0  501  0.00000000000E+00  0.00000000000E+00 -0.19692375207E+04  0.19692375207E+04  0.25500000920E-02 0. -1.
    10030    2    1    2    0    0  0.00000000000E+00  0.00000000000E+00 -0.15240584350E+03  0.37860691978E+04  0.37830004533E+04 0.  0.
        2    1    3    3  502    0 -0.15741140701E+04  0.56346817878E+03  0.80907192295E+03  0.18573984147E+04  0.25500000920E-02 0.  1.
       -2    1    3    3    0  502  0.15741140701E+04 -0.56346817878E+03 -0.96147776645E+03  0.19286707831E+04  0.25500000920E-02 0. -1.
</event>
<event>
 5   0  0.9418945E-08  0.3699630E+04  0.7818609E-02  0.8068044E-01
       -1   -1    0    0    0  501  0.00000000000E+00  0.00000000000E+00  0.28665120654E+04  0.28665120654E+04  0.50400001928E-02 0. -1.
        1   -1    0    0  501    0  0.00000000000E+00  0.00000000000E+00 -0.11937206566E+04  0.11937206566E+04  0.50400001928E-02 0.  1.
    10030    2    1    2    0    0  0.00000000000E+00  0.00000000000E+00  0.16727914088E+04  0.40602327220E+04  0.36996295301E+04 0.  0.
        5    1    3    3  502    0 -0.90600935015E+03  0.15618354122E+04  0.12775865637E+04  0.22118843358E+04  0.46999998093E+01 0.  1.
       -5    1    3    3    0  502  0.90600935015E+03 -0.15618354122E+04  0.39520484507E+03  0.18483483862E+04  0.46999998093E+01 0. -1.
</event>
<event>
 5   0  0.2897133E-07  0.3697337E+04  0.7818609E-02  0.8068552E-01
       -2   -1    0    0    0  501  0.00000000000E+00  0.00000000000E+00  0.21777722450E+04  0.21777722450E+04  0.25500000920E-02 0. -1.
        2   -1    0    0  501    0  0.00000000000E+00  0.00000000000E+00 -0.15692983701E+04  0.15692983701E+04  0.25500000920E-02 0.  1.
    10030    2    1    2    0    0  0.00000000000E+00  0.00000000000E+00  0.60847387488E+03  0.37470706150E+04  0.36973365735E+04 0.  0.
        4    1    3    3  502    0  0.11502936102E+04  0.12913222059E+04  0.96638944669E+03  0.19810599700E+04  0.12699999809E+01 0.  1.
       -4    1    3    3    0  502 -0.11502936102E+04 -0.12913222059E+04 -0.35791557181E+03  0.17660106451E+04  0.12699999809E+01 0. -1.
</event>
<event>
 5   0  0.2996969E-07  0.3692775E+04  0.7818609E-02  0.8069565E-01
        2   -1    0    0  501    0  0.00000000000E+00  0.00000000000E+00  0.22350620766E+04  0.22350620766E+04  0.25500000920E-02 0.  1.
       -2   -1    0    0    0  501  0.00000000000E+00  0.00000000000E+00 -0.15253030100E+04  0.15253030100E+04  0.25500000920E-02 0. -1.
    10030    2    1    2    0    0  0.00000000000E+00  0.00000000000E+00  0.70975906662E+03  0.37603650866E+04  0.36927750610E+04 0.  0.
        1    1    3    3  502    0  0.18349585831E+04 -0.12500279523E+03  0.18927381899E+03  0.18489248982E+04  0.50400001928E-02 0.  1.
       -1    1    3    3    0  502 -0.18349585831E+04  0.12500279523E+03  0.52048524763E+03  0.19114401883E+04  0.50400001928E-02 0. -1.
</event>
<event>
 5   0  0.2996969E-07  0.3737408E+04  0.7818609E-02  0.8059722E-01
       -2   -1    0    0    0  501  0.00000000000E+00  0.00000000000E+00  0.17093544878E+04  0.17093544878E+04  0.25500000920E-02 0. -1.
        2   -1    0    0  501    0  0.00000000000E+00  0.00000000000E+00 -0.20429086909E+04  0.20429086909E+04  0.25500000920E-02 0.  1.
    10030    2    1    2    0    0  0.00000000000E+00  0.00000000000E+00 -0.33355420305E+03  0.37522631787E+04  0.37374082672E+04 0.  0.
        1    1    3    3  502    0  0.43793723261E+03  0.17933175022E+04 -0.45823849280E+03  0.19020407986E+04  0.50400001928E-02 0.  1.
       -1    1    3    3    0  502 -0.43793723261E+03 -0.17933175022E+04  0.12468428975E+03  0.18502223800E+04  0.50400001928E-02 0. -1.
</event>
<event>
 5   0  0.9341000E-08  0.3704926E+04  0.7818609E-02  0.8066871E-01
       -1   -1    0    0    0  501  0.00000000000E+00  0.00000000000E+00  0.16448550074E+04  0.16448550074E+04  0.50400001928E-02 0. -1.
        1   -1    0    0  501    0  0.00000000000E+00  0.00000000000E+00 -0.20862747457E+04  0.20862747457E+04  0.50400001928E-02 0.  1.
    10030    2    1    2    0    0  0.00000000000E+00  0.00000000000E+00 -0.44141973830E+03  0.37311297532E+04  0.37049261598E+04 0.  0.
        4    1    3    3  502    0 -0.15527809959E+04  0.50582822542E+03  0.65990408558E+03  0.17613818524E+04  0.12699999809E+01 0. -1.
       -4    1    3    3    0  502  0.15527809959E+04 -0.50582822542E+03 -0.11013238239E+04  0.19697479008E+04  0.12699999809E+01 0.  1.
</event>
<event>
 5   0  0.2897133E-07  0.3729679E+04  0.7818609E-02  0.8061416E-01
       -2   -1    0    0    0  501  0.00000000000E+00  0.00000000000E+00  0.15019162777E+04  0.15019162777E+04  0.25500000920E-02 0.  1.
        2   -1    0    0  501    0  0.00000000000E+00  0.00000000000E+00 -0.23154596364E+04  0.23154596364E+04  0.25500000920E-02 0. -1.
    10030    2    1    2    0    0  0.00000000000E+00  0.00000000000E+00 -0.81354335870E+03  0.38173759141E+04  0.37296790845E+04 0.  0.
        4    1    3    3  502    0  0.15233823240E+04  0.61450103094E+03  0.49677644059E+03  0.17161275206E+04  0.12699999809E+01 0.  1.
       -4    1    3    3    0  502 -0.15233823240E+04 -0.61450103094E+03 -0.13103197993E+04  0.21012483935E+04  0.12699999809E+01 0. -1.
</event>
<event>
 5   0  0.2897133E-07  0.3703533E+04  0.7818609E-02  0.8067179E-01
        2   -1    0    0  501    0  0.00000000000E+00  0.00000000000E+00  0.17212514378E+04  0.17212514378E+04  0.25500000920E-02 0.  1.
       -2   -1    0    0    0  501  0.00000000000E+00  0.00000000000E+00 -0.19921782546E+04  0.19921782546E+04  0.25500000920E-02 0. -1.
    10030    2    1    2    0    0  0.00000000000E+00  0.00000000000E+00 -0.27092681686E+03  0.37134296924E+04  0.37035332779E+04 0.  0.
        4    1    3    3  502    0 -0.15950363059E+04 -0.36988085460E+03  0.73176709736E+03  0.17934428793E+04  0.12699999809E+01 0.  1.
       -4    1    3    3    0  502  0.15950363059E+04  0.36988085460E+03 -0.10026939142E+04  0.19199868130E+04  0.12699999809E+01 0. -1.
</event>
<event>
 5   0  0.9646615E-08  0.3705752E+04  0.7818609E-02  0.8066688E-01
        1   -1    0    0  501    0  0.00000000000E+00  0.00000000000E+00  0.22597944115E+04  0.22597944115E+04  0.50400001928E-02 0.  1.
       -1   -1    0    0    0  501  0.00000000000E+00  0.00000000000E+00 -0.15192306650E+04  0.15192306650E+04  0.50400001928E-02 0. -1.
    10030    2    1    2    0    0  0.00000000000E+00  0.00000000000E+00  0.74056374653E+03  0.37790250765E+04  0.37057517275E+04 0.  0.
        2    1    3    3  502    0  0.11749094224E+04  0.82632246741E+02 -0.10883529630E+04  0.16036684231E+04  0.25500000920E-02 0. -1.
       -2    1    3    3    0  502 -0.11749094224E+04 -0.82632246741E+02  0.18289167096E+04  0.21753566534E+04  0.25500000920E-02 0.  1.
</event>
<event>
 5   0  0.2996969E-07  0.3668531E+04  0.7818609E-02  0.8074972E-01
       -2   -1    0    0    0  501  0.00000000000E+00  0.00000000000E+00  0.14731069802E+04  0.14731069802E+04  0.25500000920E-02 0.  1.
        2   -1    0    0  501    0  0.00000000000E+00  0.00000000000E+00 -0.22839685647E+04  0.22839685647E+04  0.25500000920E-02 0. -1.
    10030    2    1    2    0    0  0.00000000000E+00  0.00000000000E+00 -0.81086158450E+03  0.37570755450E+04  0.36685310604E+04 0.  0.
        1    1    3    3  502    0 -0.92061473543E+03  0.15045493717E+04  0.11003613913E+03  0.17672883904E+04  0.50400001928E-02 0.  1.
       -1    1    3    3    0  502  0.92061473543E+03 -0.15045493717E+04 -0.92089772363E+03  0.19897871545E+04  0.50400001928E-02 0. -1.
</event>
<event>
 5   0  0.9418945E-08  0.3697942E+04  0.7818609E-02  0.8068418E-01
       -1   -1    0    0    0  501  0.00000000000E+00  0.00000000000E+00  0.27474786140E+04  0.27474786140E+04  0.50400001928E-02 0. -1.
        1   -1    0    0  501    0  0.00000000000E+00  0.00000000000E+00 -0.12443020018E+04  0.12443020018E+04  0.50400001928E-02 0.  1.
    10030    2    1    2    0    0  0.00000000000E+00  0.00000000000E+00  0.15031766122E+04  0.39917806157E+04  0.36979416649E+04 0.  0.
        5    1    3    3  502    0 -0.17463552942E+04  0.60722587251E+03  0.76650578539E+03  0.20015077523E+04  0.46999998093E+01 0. -1.
       -5    1    3    3    0  502  0.17463552942E+04 -0.60722587251E+03  0.73667082683E+03  0.19902728634E+04  0.46999998093E+01 0.  1.
</event>
<event>
 5   0  0.9418945E-08  0.3642531E+04  0.7818609E-02  0.8080818E-01
        1   -1    0    0  501    0  0.00000000000E+00  0.00000000000E+00  0.14656107197E+04  0.14656107197E+04  0.50400001928E-02 0.  1.
       -1   -1    0    0    0  501  0.00000000000E+00  0.00000000000E+00 -0.22632254627E+04  0.22632254627E+04  0.50400001928E-02 0. -1.
    10030    2    1    2    0    0  0.00000000000E+00  0.00000000000E+00 -0.79761474299E+03  0.37288361825E+04  0.36425307133E+04 0.  0.
        5    1    3    3  502    0 -0.14269218517E+03  0.41677529882E+03 -0.22078579070E+04  0.22513820948E+04  0.46999998093E+01 0. -1.
       -5    1    3    3    0  502  0.14269218517E+03 -0.41677529882E+03  0.14102431640E+04  0.14774540876E+04  0.46999998093E+01 0.  1.
</event>
<event>
 5   0  0.9418945E-08  0.3729625E+04  0.7818609E-02  0.8061428E-01
       -1   -1    0    0    0  501  0.00000000000E+00  0.00000000000E+00  0.16361269924E+04  0.16361269924E+04  0.50400001928E-02 0. -1.
        1   -1    0    0  501    0  0.00000000000E+00  0.00000000000E+00 -0.21254616793E+04  0.21254616793E+04  0.50400001928E-02 0.  1.
    10030    2    1    2    0    0  0.00000000000E+00  0.00000000000E+00 -0.48933468684E+03  0.37615886717E+04  0.37296247666E+04 0.  0.
        5    1    3    3  502    0 -0.95296943049E+03 -0.14775182742E+04 -0.87151802796E+03  0.19623396110E+04  0.46999998093E+01 0.  1.
       -5    1    3    3    0  502  0.95296943049E+03  0.14775182742E+04  0.38218334113E+03  0.17992490607E+04  0.46999998093E+01 0. -1.
</event>
<event>
 5   0  0.9646615E-08  0.3739180E+04  0.7818609E-02  0.8059334E-01
       -1   -1    0    0    0  501  0.00000000000E+00  0.00000000000E+00  0.19852693151E+04  0.19852693151E+04  0.50400001928E-02 0. -1.
        1   -1    0    0  501    0  0.00000000000E+00  0.00000000000E+00 -0.17606512510E+04  0.17606512511E+04  0.50400001928E-02 0.  1.
    10030    2    1    2    0    0  0.00000000000E+00  0.00000000000E+00  0.22461806408E+03  0.37459205662E+04  0.37391800723E+04 0.  0.
        2    1    3    3  502    0  0.31182605737E+03  0.14056540257E+04  0.13070477251E+04  0.19446008552E+04  0.25500000920E-02 0. -1.
       -2    1    3    3    0  502 -0.31182605737E+03 -0.14056540257E+04 -0.10824296611E+04  0.18013197110E+04  0.25500000920E-02 0.  1.
</event>
<event>
 5   0  0.3032442E-07  0.3697628E+04  0.7818609E-02  0.8068488E-01
        2   -1    0    0  501    0  0.00000000000E+00  0.00000000000E+00  0.14412569906E+04  0.14412569906E+04  0.25500000920E-02 0. -1.
       -2   -1    0    0    0  501  0.00000000000E+00  0.00000000000E+00 -0.23716194020E+04  0.23716194020E+04  0.25500000920E-02 0.  1.
    10030    2    1    2    0    0  0.00000000000E+00  0.00000000000E+00 -0.93036241137E+03  0.38128763925E+04  0.36976279110E+04 0.  0.
        3    1    3    3  502    0  0.17959169035E+04 -0.29795886763E+03 -0.13261383458E+03  0.18252899634E+04  0.10100000352E+00 0. -1.
       -3    1    3    3    0  502 -0.17959169035E+04  0.29795886763E+03 -0.79774857679E+03  0.19875864291E+04  0.10100000352E+00 0.  1.
</event>
<event>
 5   0  0.2913025E-07  0.3691746E+04  0.7818609E-02  0.8069793E-01
        2   -1    0    0  501    0  0.00000000000E+00  0.00000000000E+00  0.18359461228E+04  0.18359461228E+04  0.25500000920E-02 0.  1.
       -2   -1    0    0    0  501  0.00000000000E+00  0.00000000000E+00 -0.18558535737E+04  0.18558535737E+04  0.25500000920E-02 0. -1.
    10030    2    1    2    0    0  0.00000000000E+00  0.00000000000E+00 -0.19907450912E+02  0.36917996966E+04  0.36917460223E+04 0.  0.
        5    1    3    3  502    0 -0.10590483994E+04  0.15077515643E+03  0.14943647995E+04  0.18377880466E+04  0.46999998093E+01 0.  1.
       -5    1    3    3    0  502  0.10590483994E+04 -0.15077515643E+03 -0.15142722504E+04  0.18540116500E+04  0.46999998093E+01 0. -1.
</event>
<event>
 5   0  0.3008879E-07  0.3704130E+04  0.7818609E-02  0.8067047E-01
       -2   -1    0    0    0  501  0.00000000000E+00  0.00000000000E+00  0.16390835358E+04  0.16390835358E+04  0.25500000920E-02 0.  1.
        2   -1    0    0  501    0  0.00000000000E+00  0.00000000000E+00 -0.20927210691E+04  0.20927210691E+04  0.25500000920E-02 0. -1.
    10030    2    1    2    0    0  0.00000000000E+00  0.00000000000E+00 -0.45363753325E+03  0.37318046049E+04  0.37041299380E+04 0.  0.
        2    1    3    3  502    0 -0.13678853396E+04  0.43042931784E+03  0.95401536828E+03  0.17223603058E+04  0.25500000920E-02 0.  1.
       -2    1    3    3    0  502  0.13678853396E+04 -0.43042931784E+03 -0.14076529015E+04  0.20094442991E+04  0.25500000920E-02 0. -1.
</event>
<event>
 5   0  0.9341000E-08  0.3786498E+04  0.7818609E-02  0.8049059E-01
       -1   -1    0    0    0  501  0.00000000000E+00  0.00000000000E+00  0.12602941159E+04  0.12602941159E+04  0.50400001928E-02 0. -1.
        1   -1    0    0  501    0  0.00000000000E+00  0.00000000000E+00 -0.28440909083E+04  0.28440909083E+04  0.50400001928E-02 0.  1.
    10030    2    1    2    0    0  0.00000000000E+00  0.00000000000E+00 -0.15837967925E+04  0.41043850242E+04  0.37864976095E+04 0.  0.
        4    1    3    3  502    0 -0.28238370671E+03  0.67287887542E+02  0.12360268843E+04  0.12696583357E+04  0.12699999809E+01 0. -1.
       -4    1    3    3    0  502  0.28238370671E+03 -0.67287887542E+02 -0.28198236768E+04  0.28347266886E+04  0.12699999809E+01 0.  1.
</event>
<event>
 5   0  0.2996969E-07  0.3721474E+04  0.7818609E-02  0.8063220E-01
       -2   -1    0    0    0  501  0.00000000000E+00  0.00000000000E+00  0.11796945939E+04  0.11796945939E+04  0.25500000920E-02 0.  1.
        2   -1    0    0  501    0  0.00000000000E+00  0.00000000000E+00 -0.29349472024E+04  0.29349472024E+04  0.25500000920E-02 0. -1.
    10030    2    1    2    0    0  0.00000000000E+00  0.00000000000E+00 -0.17552526085E+04  0.41146417963E+04  0.37214735512E+04 0.  0.
        1    1    3    3  502    0  0.20822889090E+03 -0.94913647884E+03 -0.26321348265E+04  0.28057713861E+04  0.50400001928E-02 0. -1.
       -1    1    3    3    0  502 -0.20822889090E+03  0.94913647884E+03  0.87688221797E+03  0.13088704102E+04  0.50400001928E-02 0.  1.
</event>
<event>
 5   0  0.9646615E-08  0.3721256E+04  0.7818609E-02  0.8063268E-01
       -1   -1    0    0    0  501  0.00000000000E+00  0.00000000000E+00  0.16218202345E+04  0.16218202345E+04  0.50400001928E-02 0.  1.
        1   -1    0    0  501    0  0.00000000000E+00  0.00000000000E+00 -0.21345991891E+04  0.21345991891E+04  0.50400001928E-02 0. -1.
    10030    2    1    2    0    0  0.00000000000E+00  0.00000000000E+00 -0.51277895455E+03  0.37564194236E+04  0.37212557866E+04 0.  0.
        2    1    3    3  502    0 -0.81132408303E+02 -0.13411562526E+03  0.16151435108E+04  0.16227316565E+04  0.25500000920E-02 0.  1.
       -2    1    3    3    0  502  0.81132408303E+02  0.13411562526E+03 -0.21279224654E+04  0.21336877670E+04  0.25500000920E-02 0. -1.
</event>
<event>
 5   0  0.9341000E-08  0.3696972E+04  0.7818609E-02  0.8068633E-01
       -1   -1    0    0    0  501  0.00000000000E+00  0.00000000000E+00  0.11810051939E+04  0.11810051939E+04  0.50400001928E-02 0. -1.
        1   -1    0    0  501    0  0.00000000000E+00  0.00000000000E+00 -0.28932137582E+04  0.28932137582E+04  0.50400001928E-02 0.  1.
    10030    2    1    2    0    0  0.00000000000E+00  0.00000000000E+00 -0.17122085642E+04  0.40742189521E+04  0.36969719910E+04 0.  0.
        1    1    3    3  502    0  0.17487989329E+04  0.50716902649E+03 -0.12070010548E+04  0.21845753993E+04  0.50400001928E-02 0. -1.
       -1    1    3    3    0  502 -0.17487989329E+04 -0.50716902649E+03 -0.50520750944E+03  0.18896435528E+04  0.50400001928E-02 0.  1.
</event>
<event>
 5   0  0.9341000E-08  0.3696324E+04  0.7818609E-02  0.8068777E-01
       -1   -1    0    0    0  501  0.00000000000E+00  0.00000000000E+00  0.19471870260E+04  0.19471870260E+04  0.50400001928E-02 0.  1.
        1   -1    0    0  501    0  0.00000000000E+00  0.00000000000E+00 -0.17541725668E+04  0.17541725668E+04  0.50400001928E-02 0. -1.
    10030    2    1    2    0    0  0.00000000000E+00  0.00000000000E+00  0.19301445921E+03  0.37013595928E+04  0.36963236133E+04 0.  0.
        3    1    3    3  502    0 -0.13322235765E+04  0.86733901784E+03 -0.84743577569E+03  0.18014560871E+04  0.10100000352E+00 0. -1.
       -3    1    3    3    0  502  0.13322235765E+04 -0.86733901784E+03  0.10404502349E+04  0.18999035057E+04  0.10100000352E+00 0.  1.
</event>
<event>
 5   0  0.9646615E-08  0.3708693E+04  0.7818609E-02  0.8066038E-01
        1   -1    0    0  501    0  0.00000000000E+00  0.00000000000E+00  0.17102311019E+04  0.17102311019E+04  0.50400001928E-02 0. -1.
       -1   -1    0    0    0  501  0.00000000000E+00  0.00000000000E+00 -0.20106058061E+04  0.20106058062E+04  0.50400001928E-02 0.  1.
    10030    2    1    2    0    0  0.00000000000E+00  0.00000000000E+00 -0.30037470421E+03  0.37208369081E+04  0.37086928066E+04 0.  0.
        2    1    3    3  502    0  0.70391557492E+03 -0.17056268755E+04  0.34645133576E+02  0.18454973477E+04  0.25500000920E-02 0. -1.
       -2    1    3    3    0  502 -0.70391557492E+03  0.17056268755E+04 -0.33501983779E+03  0.18753395604E+04  0.25500000920E-02 0.  1.
</event>
<event>
 5   0  0.9341000E-08  0.3691776E+04  0.7818609E-02  0.8069787E-01
        1   -1    0    0  501    0  0.00000000000E+00  0.00000000000E+00  0.22745756219E+04  0.22745756219E+04  0.50400001928E-02 0. -1.
       -1   -1    0    0    0  501  0.00000000000E+00  0.00000000000E+00 -0.14979946449E+04  0.14979946449E+04  0.50400001928E-02 0.  1.
    10030    2    1    2    0    0  0.00000000000E+00  0.00000000000E+00  0.77658097701E+03  0.37725702669E+04  0.36917757793E+04 0.  0.
        3    1    3    3  502    0 -0.53704817393E+03 -0.68934511724E+02  0.21916003079E+04  0.22574952110E+04  0.10100000352E+00 0. -1.
       -3    1    3    3    0  502  0.53704817393E+03  0.68934511724E+02 -0.14150193309E+04  0.15150750559E+04  0.10100000352E+00 0.  1.
</event>
<event>
 5   0  0.9341000E-08  0.3708541E+04  0.7818609E-02  0.8066072E-01
        1   -1    0    0  501    0  0.00000000000E+00  0.00000000000E+00  0.11272715767E+04  0.11272715767E+04  0.50400001928E-02 0.  1.
       -1   -1    0    0    0  501  0.00000000000E+00  0.00000000000E+00 -0.30501249733E+04  0.30501249733E+04  0.50400001928E-02 0. -1.
    10030    2    1    2    0    0  0.00000000000E+00  0.00000000000E+00 -0.19228533966E+04  0.41773965501E+04  0.37085410543E+04 0.  0.
        1    1    3    3  502    0 -0.11098721022E+04 -0.14685756952E+04 -0.71008342133E+03  0.19730050991E+04  0.50400001928E-02 0.  1.
       -1    1    3    3    0  502  0.11098721022E+04  0.14685756952E+04 -0.12127699753E+04  0.22043914509E+04  0.50400001928E-02 0. -1.
</event>
<event>
 5   0  0.9646615E-08  0.3712815E+04  0.7818609E-02  0.8065128E-01
       -1   -1    0    0    0  501  0.00000000000E+00  0.00000000000E+00  0.19691251793E+04  0.19691251793E+04  0.50400001928E-02 0.  1.
        1   -1    0    0  501    0  0.00000000000E+00  0.00000000000E+00 -0.17501423374E+04  0.17501423374E+04  0.50400001928E-02 0. -1.
    10030    2    1    2    0    0  0.00000000000E+00  0.00000000000E+00  0.21898284183E+03  0.37192675167E+04  0.37128152897E+04 0.  0.
        2    1    3    3  502    0 -0.63820806893E+03  0.16925867491E+04 -0.30847449042E+03  0.18350247829E+04  0.25500000920E-02 0.  1.
       -2    1    3    3    0  502  0.63820806893E+03 -0.16925867491E+04  0.52745733225E+03  0.18842427338E+04  0.25500000920E-02 0. -1.
</event>
<event>
 5   0  0.3008879E-07  0.3683611E+04  0.7818609E-02  0.8071604E-01
        2   -1    0    0  501    0  0.00000000000E+00  0.00000000000E+00  0.11658688730E+04  0.11658688730E+04  0.25500000920E-02 0.  1.
       -2   -1    0    0    0  501  0.00000000000E+00  0.00000000000E+00 -0.29096299378E+04  0.29096299378E+04  0.25500000920E-02 0. -1.
    10030    2    1    2    0    0  0.00000000000E+00  0.00000000000E+00 -0.17437610648E+04  0.40754988108E+04  0.36836107158E+04 0.  0.
        2    1    3    3  502    0 -0.52012227784E+03 -0.14785871917E+04 -0.19419916387E+04  0.24956119073E+04  0.25500000920E-02 0. -1.
       -2    1    3    3    0  502  0.52012227784E+03  0.14785871917E+04  0.19823057393E+03  0.15798869035E+04  0.25500000920E-02 0.  1.
</event>
<event>
 5   0  0.9646615E-08  0.3770629E+04  0.7818609E-02  0.8052487E-01
       -1   -1    0    0    0  501  0.00000000000E+00  0.00000000000E+00  0.26612363807E+04  0.26612363807E+04  0.50400001928E-02 0.  1.
        1   -1    0    0  501    0  0.00000000000E+00  0.00000000000E+00 -0.13356239911E+04  0.13356239911E+04  0.50400001928E-02 0. -1.
    10030    2    1    2    0    0  0.00000000000E+00  0.00000000000E+00  0.13256123897E+04  0.39968603718E+04  0.37706292080E+04 0.  0.
        2    1    3    3  502    0  0.15011858766E+04 -0.35316298253E+03 -0.48675593702E+03  0.16171624750E+04  0.25500000920E-02 0. -1.
       -2    1    3    3    0  502 -0.15011858766E+04  0.35316298253E+03  0.18123683267E+04  0.23796978968E+04  0.25500000920E-02 0.  1.
</event>
<event>
 5   0  0.9418945E-08  0.3671592E+04  0.7818609E-02  0.8074287E-01
       -1   -1    0    0    0  501  0.00000000000E+00  0.00000000000E+00  0.18935682630E+04  0.18935682631E+04  0.50400001928E-02 0.  1.
        1   -1    0    0  501    0  0.00000000000E+00  0.00000000000E+00 -0.17797866524E+04  0.17797866524E+04  0.50400001928E-02 0. -1.
    10030    2    1    2    0    0  0.00000000000E+00  0.00000000000E+00  0.11378161068E+03  0.36733549154E+04  0.36715923085E+04 0.  0.
        5    1    3    3  502    0  0.71562970271E+02  0.92563039247E+03  0.16413848386E+04  0.18857569198E+04  0.46999998093E+01 0.  1.
       -5    1    3    3    0  502 -0.71562970271E+02 -0.92563039247E+03 -0.15276032279E+04  0.17875979956E+04  0.46999998093E+01 0. -1.
</event>
<event>
 5   0  0.3032442E-07  0.3701367E+04  0.7818609E-02  0.8067659E-01
       -2   -1    0    0    0  501  0.00000000000E+00  0.00000000000E+00  0.16984899745E+04  0.16984899745E+04  0.25500000920E-02 0.  1.
        2   -1    0    0  501    0  0.00000000000E+00  0.00000000000E+00 -0.20165148961E+04  0.20165148961E+04  0.25500000920E-02 0. -1.
    10030    2    1    2    0    0  0.00000000000E+00  0.00000000000E+00 -0.31802492161E+03  0.37150048705E+04  0.37013674956E+04 0.  0.
        3    1    3    3  502    0 -0.12451481758E+04  0.13585123429E+04  0.12146071803E+02  0.18428503202E+04  0.10100000352E+00 0.  1.
       -3    1    3    3    0  502  0.12451481758E+04 -0.13585123429E+04 -0.33017099341E+03  0.18721545503E+04  0.10100000352E+00 0. -1.
</event>
<event>
 5   0  0.3032442E-07  0.3710979E+04  0.7818609E-02  0.8065533E-01
        2   -1    0    0  501    0  0.00000000000E+00  0.00000000000E+00  0.16544812596E+04  0.16544812596E+04  0.25500000920E-02 0. -1.
       -2   -1    0    0    0  501  0.00000000000E+00  0.00000000000E+00 -0.20809190876E+04  0.20809190876E+04  0.25500000920E-02 0.  1.
    10030    2    1    2    0    0  0.00000000000E+00  0.00000000000E+00 -0.42643782803E+03  0.37354003472E+04  0.37109791878E+04 0.  0.
        3    1    3    3  502    0 -0.49356424273E+03  0.77948791708E+03 -0.18336684713E+04  0.20526926578E+04  0.10100000352E+00 0.  1.
       -3    1    3    3    0  502  0.49356424273E+03 -0.77948791708E+03  0.14072306432E+04  0.16827076894E+04  0.10100000352E+00 0. -1.
</event>
<event>
 5   0  0.2897133E-07  0.3715290E+04  0.7818609E-02  0.8064582E-01
        2   -1    0    0  501    0  0.00000000000E+00  0.00000000000E+00  0.29036528056E+04  0.29036528056E+04  0.25500000920E-02 0.  1.
       -2   -1    0    0    0  501  0.00000000000E+00  0.00000000000E+00 -0.11884498627E+04  0.11884498627E+04  0.25500000920E-02 0. -1.
    10030    2    1    2    0    0  0.00000000000E+00  0.00000000000E+00  0.17152029428E+04  0.40921026683E+04  0.37152904480E+04 0.  0.
        4    1    3    3  502    0 -0.17658277112E+04  0.25771822067E+03  0.28924425859E+03  0.18078246710E+04  0.12699999809E+01 0. -1.
       -4    1    3    3    0  502  0.17658277112E+04 -0.25771822067E+03  0.14259586842E+04  0.22842779973E+04  0.12699999809E+01 0.  1.
</event>
<event>
 5   0  0.3032442E-07  0.3694380E+04  0.7818609E-02  0.8069208E-01
        2   -1    0    0  501    0  0.00000000000E+00  0.00000000000E+00  0.22498247504E+04  0.22498247504E+04  0.25500000920E-02 0. -1.
       -2   -1    0    0    0  501  0.00000000000E+00  0.00000000000E+00 -0.15166119617E+04  0.15166119617E+04  0.25500000920E-02 0.  1.
    10030    2    1    2    0    0  0.00000000000E+00  0.00000000000E+00  0.73321278870E+03  0.37664367120E+04  0.36943801256E+04 0.  0.
        3    1    3    3  502    0 -0.41270490649E+03  0.11428964042E+04  0.17849907701E+04  0.21593354511E+04  0.10100000352E+00 0. -1.
       -3    1    3    3    0  502  0.41270490649E+03 -0.11428964042E+04 -0.10517779814E+04  0.16071012610E+04  0.10100000352E+00 0.  1.
</event>
<event>
 5   0  0.2996969E-07  0.3794775E+04  0.7818609E-02  0.8047277E-01
        2   -1    0    0  501    0  0.00000000000E+00  0.00000000000E+00  0.30574472037E+04  0.30574472037E+04  0.25500000920E-02 0.  1.
       -2   -1    0    0    0  501  0.00000000000E+00  0.00000000000E+00 -0.11774785380E+04  0.11774785380E+04  0.25500000920E-02 0. -1.
    10030    2    1    2    0    0  0.00000000000E+00  0.00000000000E+00  0.18799686657E+04  0.42349257417E+04  0.37947745458E+04 0.  0.
        1    1    3    3  502    0 -0.91105311410E+03  0.62811492721E+03  0.26600312489E+04  0.28810262727E+04  0.50400001928E-02 0.  1.
       -1    1    3    3    0  502  0.91105311410E+03 -0.62811492721E+03 -0.78006258323E+03  0.13538994690E+04  0.50400001928E-02 0. -1.
</event>
<event>
 5   0  0.2913025E-07  0.3662489E+04  0.7818609E-02  0.8076326E-01
       -2   -1    0    0    0  501  0.00000000000E+00  0.00000000000E+00  0.16289774401E+04  0.16289774401E+04  0.25500000920E-02 0.  1.
        2   -1    0    0  501    0  0.00000000000E+00  0.00000000000E+00 -0.20586261425E+04  0.20586261425E+04  0.25500000920E-02 0. -1.
    10030    2    1    2    0    0  0.00000000000E+00  0.00000000000E+00 -0.42964870246E+03  0.36876035826E+04  0.36624885222E+04 0.  0.
        5    1    3    3  502    0 -0.17116418605E+04 -0.61409228920E+03  0.25408723217E+01  0.18184762149E+04  0.46999998093E+01 0.  1.
       -5    1    3    3    0  502  0.17116418605E+04  0.61409228920E+03 -0.43218957478E+03  0.18691273677E+04  0.46999998093E+01 0. -1.
</event>
<event>
 5   0  0.2913025E-07  0.3740583E+04  0.7818609E-02  0.8059027E-01
       -2   -1    0    0    0  501  0.00000000000E+00  0.00000000000E+00  0.18684605142E+04  0.18684605142E+04  0.25500000920E-02 0. -1.
        2   -1    0    0  501    0  0.00000000000E+00  0.00000000000E+00 -0.18721244992E+04  0.18721244992E+04  0.25500000920E-02 0.  1.
    10030    2    1    2    0    0  0.00000000000E+00  0.00000000000E+00 -0.36639849194E+01  0.37405850134E+04  0.37405832189E+04 0.  0.
        5    1    3    3  502    0  0.31413797574E+03 -0.61280966716E+03 -0.17407262272E+04  0.18719957917E+04  0.46999998093E+01 0.  1.
       -5    1    3    3    0  502 -0.31413797574E+03  0.61280966716E+03  0.17370622423E+04  0.18685892217E+04  0.46999998093E+01 0. -1.
</event>
<event>
 5   0  0.9418945E-08  0.3716405E+04  0.7818609E-02  0.8064336E-01
       -1   -1    0    0    0  501  0.00000000000E+00  0.00000000000E+00  0.14707261780E+04  0.14707261780E+04  0.50400001928E-02 0.  1.
        1   -1    0    0  501    0  0.00000000000E+00  0.00000000000E+00 -0.23477625278E+04  0.23477625278E+04  0.50400001928E-02 0. -1.
    10030    2    1    2    0    0  0.00000000000E+00  0.00000000000E+00 -0.87703634983E+03  0.38184887058E+04  0.37164046116E+04 0.  0.
        5    1    3    3  502    0  0.45985096805E+02 -0.79214799871E+03 -0.21649345434E+04  0.23057703156E+04  0.46999998093E+01 0. -1.
       -5    1    3    3    0  502 -0.45985096805E+02  0.79214799871E+03  0.12878981936E+04  0.15127183902E+04  0.46999998093E+01 0.  1.
</event>
<event>
 5   0  0.9341000E-08  0.3761399E+04  0.7818609E-02  0.8054490E-01
       -1   -1    0    0    0  501  0.00000000000E+00  0.00000000000E+00  0.19913456384E+04  0.19913456384E+04  0.50400001928E-02 0.  1.
        1   -1    0    0  501    0  0.00000000000E+00  0.00000000000E+00 -0.17762012289E+04  0.17762012289E+04  0.50400001928E-02 0. -1.
    10030    2    1    2    0    0  0.00000000000E+00  0.00000000000E+00  0.21514440950E+03  0.37675468673E+04  0.37613989792E+04 0.  0.
        1    1    3    3  502    0  0.11434684556E+04  0.34925289215E+03  0.15616794570E+04  0.19668097056E+04  0.50400001928E-02 0.  1.
       -1    1    3    3    0  502 -0.11434684556E+04 -0.34925289215E+03 -0.13465350475E+04  0.18007371617E+04  0.50400001928E-02 0. -1.
</event>
<event>
 5   0  0.9341000E-08  0.3700044E+04  0.7818609E-02  0.8067952E-01
       -1   -1    0    0    0  501  0.00000000000E+00  0.00000000000E+00  0.15519603284E+04  0.15519603285E+04  0.50400001928E-02 0. -1.
        1   -1    0    0  501    0  0.00000000000E+00  0.00000000000E+00 -0.22053282563E+04  0.22053282563E+04  0.50400001928E-02 0.  1.
    10030    2    1    2    0    0  0.00000000000E+00  0.00000000000E+00 -0.65336792786E+03  0.37572885848E+04  0.37000443051E+04 0.  0.
        3    1    3    3  502    0  0.29591647036E+03 -0.21023098848E+03  0.15154430969E+04  0.15583104364E+04  0.10100000352E+00 0. -1.
       -3    1    3    3    0  502 -0.29591647036E+03  0.21023098848E+03 -0.21688110247E+04  0.21989781484E+04  0.10100000352E+00 0.  1.
</event>
<event>
 5   0  0.9341000E-08  0.3715367E+04  0.7818609E-02  0.8064565E-01
       -1   -1    0    0    0  501  0.00000000000E+00  0.00000000000E+00  0.15711487454E+04  0.15711487454E+04  0.50400001928E-02 0.  1.
        1   -1    0    0  501    0  0.00000000000E+00  0.00000000000E+00 -0.21964748042E+04  0.21964748042E+04  0.50400001928E-02 0. -1.
    10030    2    1    2    0    0  0.00000000000E+00  0.00000000000E+00 -0.62532605881E+03  0.37676235496E+04  0.37153673481E+04 0.  0.
        1    1    3    3  502    0  0.29000082125E+03  0.55743059237E+03  0.14601124499E+04  0.15895778395E+04  0.50400001928E-02 0.  1.
       -1    1    3    3    0  502 -0.29000082125E+03 -0.55743059237E+03 -0.20854385087E+04  0.21780457100E+04  0.50400001928E-02 0. -1.
</event>
<event>
 5   0  0.9341000E-08  0.3692695E+04  0.7818609E-02  0.8069583E-01
        1   -1    0    0  501    0  0.00000000000E+00  0.00000000000E+00  0.30218574951E+04  0.30218574951E+04  0.50400001928E-02 0.  1.
       -1   -1    0    0    0  501  0.00000000000E+00  0.00000000000E+00 -0.11281140514E+04  0.11281140515E+04  0.50400001928E-02 0. -1.
    10030    2    1    2    0    0  0.00000000000E+00  0.00000000000E+00  0.18937434437E+04  0.41499715466E+04  0.36926954392E+04 0.  0.
        4    1    3    3  502    0  0.41481382895E+03  0.76490383316E+03  0.27769771050E+04  0.29101119980E+04  0.12699999809E+01 0.  1.
       -4    1    3    3    0  502 -0.41481382895E+03 -0.76490383316E+03 -0.88323366131E+03  0.12398595485E+04  0.12699999809E+01 0. -1.
</event>
<event>
 5   0  0.2897133E-07  0.3723925E+04  0.7818609E-02  0.8062680E-01
       -2   -1    0    0    0  501  0.00000000000E+00  0.00000000000E+00  0.13730376845E+04  0.13730376845E+04  0.25500000920E-02 0.  1.
        2   -1    0    0  501    0  0.00000000000E+00  0.00000000000E+00 -0.25249880863E+04  0.25249880863E+04  0.25500000920E-02 0. -1.
    10030    2    1    2    0    0  0.00000000000E+00  0.00000000000E+00 -0.11519504017E+04  0.38980257708E+04  0.37239247014E+04 0.  0.
        4    1    3    3  502    0 -0.14081702811E+04 -0.88278437150E+03  0.30270464483E+03  0.16893441041E+04  0.12699999809E+01 0.  1.
       -4    1    3    3    0  502  0.14081702811E+04  0.88278437150E+03 -0.14546550466E+04  0.22086816667E+04  0.12699999809E+01 0. -1.
</event>
<event>
 5   0  0.2913025E-07  0.3618241E+04  0.7818609E-02  0.8086326E-01
       -2   -1    0    0    0  501  0.00000000000E+00  0.00000000000E+00  0.24702819301E+04  0.24702819301E+04  0.25500000920E-02 0. -1.
        2   -1    0    0  501    0  0.00000000000E+00  0.00000000000E+00 -0.13249162839E+04  0.13249162839E+04  0.25500000920E-02 0.  1.
    10030    2    1    2    0    0  0.00000000000E+00  0.00000000000E+00  0.11453656461E+04  0.37951982140E+04  0.36182408737E+04 0.  0.
        5    1    3    3  502    0 -0.28342303479E+03  0.13013296812E+04  0.18569438977E+04  0.22851805804E+04  0.46999998093E+01 0. -1.
       -5    1    3    3    0  502  0.28342303479E+03 -0.13013296812E+04 -0.71157825154E+03  0.15100176336E+04  0.46999998093E+01 0.  1.
</event>
<event>
 5   0  0.9341000E-08  0.3682206E+04  0.7818609E-02  0.8071917E-01
        1   -1    0    0  501    0  0.00000000000E+00  0.00000000000E+00  0.11786325764E+04  0.11786325765E+04  0.50400001928E-02 0. -1.
       -1   -1    0    0    0  501  0.00000000000E+00  0.00000000000E+00 -0.28759268008E+04  0.28759268008E+04  0.50400001928E-02 0.  1.
    10030    2    1    2    0    0  0.00000000000E+00  0.00000000000E+00 -0.16972942244E+04  0.40545593773E+04  0.36822064119E+04 0.  0.
        1    1    3    3  502    0 -0.10635632677E+04  0.60576572038E+03  0.66576313236E+03  0.13933267674E+04  0.50400001928E-02 0. -1.
       -1    1    3    3    0  502  0.10635632677E+04 -0.60576572038E+03 -0.23630573567E+04  0.26612326099E+04  0.50400001928E-02 0.  1.
</event>
<event>
 5   0  0.3032442E-07  0.3644152E+04  0.7818609E-02  0.8080452E-01
       -2   -1    0    0    0  501  0.00000000000E+00  0.00000000000E+00  0.14596096091E+04  0.14596096091E+04  0.25500000920E-02 0. -1.
        2   -1    0    0  501    0  0.00000000000E+00  0.00000000000E+00 -0.22745543595E+04  0.22745543595E+04  0.25500000920E-02 0.  1.
    10030    2    1    2    0    0  0.00000000000E+00  0.00000000000E+00 -0.81494475040E+03  0.37341639687E+04  0.36441522469E+04 0.  0.
        3    1    3    3  502    0  0.14190819272E+04 -0.92649051215E+03  0.27822229097E+03  0.17174358324E+04  0.10100000352E+00 0.  1.
       -3    1    3    3    0  502 -0.14190819272E+04  0.92649051215E+03 -0.10931670414E+04  0.20167281363E+04  0.10100000352E+00 0. -1.
</event>
<event>
 5   0  0.2996969E-07  0.3642953E+04  0.7818609E-02  0.8080723E-01
       -2   -1    0    0    0  501  0.00000000000E+00  0.00000000000E+00  0.14901033633E+04  0.14901033633E+04  0.25500000920E-02 0. -1.
        2   -1    0    0  501    0  0.00000000000E+00  0.00000000000E+00 -0.22265406943E+04  0.22265406943E+04  0.25500000920E-02 0.  1.
    10030    2    1    2    0    0  0.00000000000E+00  0.00000000000E+00 -0.73643733095E+03  0.37166440576E+04  0.36429525262E+04 0.  0.
        1    1    3    3  502    0 -0.70116973647E+03 -0.83463049348E+02 -0.20812217516E+04  0.21977463592E+04  0.50400001928E-02 0.  1.
       -1    1    3    3    0  502  0.70116973647E+03  0.83463049348E+02  0.13447844207E+04  0.15188976984E+04  0.50400001928E-02 0. -1.
</event>
<event>
 5   0  0.3008879E-07  0.3720753E+04  0.7818609E-02  0.8063378E-01
       -2   -1    0    0    0  501  0.00000000000E+00  0.00000000000E+00  0.24670352249E+04  0.24670352249E+04  0.25500000920E-02 0.  1.
        2   -1    0    0  501    0  0.00000000000E+00  0.00000000000E+00 -0.14028985221E+04  0.14028985221E+04  0.25500000920E-02 0. -1.
    10030    2    1    2    0    0  0.00000000000E+00  0.00000000000E+00  0.10641367029E+04  0.38699337470E+04  0.37207526502E+04 0.  0.
        2    1    3    3  502    0 -0.93631445659E+03  0.34398994332E+03 -0.11012395147E+04  0.14858473379E+04  0.25500000920E-02 0. -1.
       -2    1    3    3    0  502  0.93631445659E+03 -0.34398994332E+03  0.21653762175E+04  0.23840864091E+04  0.25500000920E-02 0.  1.
</event>
<event>
 5   0  0.9646615E-08  0.3682489E+04  0.7818609E-02  0.8071854E-01
       -1   -1    0    0    0  501  0.00000000000E+00  0.00000000000E+00  0.25592249680E+04  0.25592249680E+04  0.50400001928E-02 0.  1.
        1   -1    0    0  501    0  0.00000000000E+00  0.00000000000E+00 -0.13246906406E+04  0.13246906406E+04  0.50400001928E-02 0. -1.
    10030    2    1    2    0    0  0.00000000000E+00  0.00000000000E+00  0.12345343274E+04  0.38839156086E+04  0.36824890291E+04 0.  0.
        2    1    3    3  502    0 -0.52287380747E+02 -0.92254024465E+03 -0.10624430410E+04  0.14080481840E+04  0.25500000920E-02 0. -1.
       -2    1    3    3    0  502  0.52287380747E+02  0.92254024465E+03  0.22969773684E+04  0.24758674246E+04  0.25500000920E-02 0.  1.
</event>
<event>
 5   0  0.9341000E-08  0.3729136E+04  0.7818609E-02  0.8061535E-01
        1   -1    0    0  501    0  0.00000000000E+00  0.00000000000E+00  0.27213622854E+04  0.27213622854E+04  0.50400001928E-02 0. -1.
       -1   -1    0    0    0  501  0.00000000000E+00  0.00000000000E+00 -0.12775268490E+04  0.12775268491E+04  0.50400001928E-02 0.  1.
    10030    2    1    2    0    0  0.00000000000E+00  0.00000000000E+00  0.14438354364E+04  0.39988891345E+04  0.37291357635E+04 0.  0.
        4    1    3    3  502    0 -0.67649066517E+03 -0.72723425163E+03 -0.97023587721E+03  0.13884770603E+04  0.12699999809E+01 0.  1.
       -4    1    3    3    0  502  0.67649066517E+03  0.72723425163E+03  0.24140713136E+04  0.26104120741E+04  0.12699999809E+01 0. -1.
</event>
<event>
 5   0  0.2913025E-07  0.3706597E+04  0.7818609E-02  0.8066501E-01
        2   -1    0    0  501    0  0.00000000000E+00  0.00000000000E+00  0.20922074628E+04  0.20922074628E+04  0.25500000920E-02 0. -1.
       -2   -1    0    0    0  501  0.00000000000E+00  0.00000000000E+00 -0.16416705337E+04  0.16416705337E+04  0.25500000920E-02 0.  1.
    10030    2    1    2    0    0  0.00000000000E+00  0.00000000000E+00  0.45053692905E+03  0.37338779965E+04  0.37065970064E+04 0.  0.
        5    1    3    3  502    0  0.60304388462E+03  0.47335237579E+03  0.19249834786E+04  0.20720298939E+04  0.46999998093E+01 0. -1.
       -5    1    3    3    0  502 -0.60304388462E+03 -0.47335237579E+03 -0.14744465496E+04  0.16618481025E+04  0.46999998093E+01 0.  1.
</event>
<event>
 5   0  0.9646615E-08  0.3709807E+04  0.7818609E-02  0.8065792E-01
       -1   -1    0    0    0  501  0.00000000000E+00  0.00000000000E+00  0.15972968003E+04  0.15972968003E+04  0.50400001928E-02 0.  1.
        1   -1    0    0  501    0  0.00000000000E+00  0.00000000000E+00 -0.21540563248E+04  0.21540563249E+04  0.50400001928E-02 0. -1.
    10030    2    1    2    0    0  0.00000000000E+00  0.00000000000E+00 -0.55675952453E+03  0.37513531252E+04  0.37098071515E+04 0.  0.
        2    1    3    3  502    0  0.76778010794E+03  0.86460184657E+03 -0.17450173163E+04  0.20933485332E+04  0.25500000920E-02 0. -1.
       -2    1    3    3    0  502 -0.76778010794E+03 -0.86460184657E+03  0.11882577918E+04  0.16580045920E+04  0.25500000920E-02 0.  1.
</event>
<event>
 5   0  0.9418945E-08  0.3705464E+04  0.7818609E-02  0.8066752E-01
       -1   -1    0    0    0  501  0.00000000000E+00  0.00000000000E+00  0.19124275904E+04  0.19124275904E+04  0.50400001928E-02 0.  1.
        1   -1    0    0  501    0  0.00000000000E+00  0.00000000000E+00 -0.17948995375E+04  0.17948995375E+04  0.50400001928E-02 0. -1.
    10030    2    1    2    0    0  0.00000000000E+00  0.00000000000E+00  0.11752805292E+03  0.37073271280E+04  0.37054637484E+04 0.  0.
        5    1    3    3  502    0  0.14621023938E+04  0.47413627298E+03  0.10937138597E+04  0.18864730881E+04  0.46999998093E+01 0.  1.
       -5    1    3    3    0  502 -0.14621023938E+04 -0.47413627298E+03 -0.97618580675E+03  0.18208540399E+04  0.46999998093E+01 0. -1.
</event>
<event>
 5   0  0.9341000E-08  0.3694088E+04  0.7818609E-02  0.8069273E-01
       -1   -1    0    0    0  501  0.00000000000E+00  0.00000000000E+00  0.21787423846E+04  0.21787423846E+04  0.50400001928E-02 0. -1.
        1   -1    0    0  501    0  0.00000000000E+00  0.00000000000E+00 -0.15658441134E+04  0.15658441134E+04  0.50400001928E-02 0.  1.
    10030    2    1    2    0    0  0.00000000000E+00  0.00000000000E+00  0.61289827117E+03  0.37445864980E+04  0.36940876749E+04 0.  0.
        4    1    3    3  502    0 -0.83535292893E+03 -0.48166173516E+03 -0.12904455551E+04  0.16109201987E+04  0.12699999809E+01 0.  1.
       -4    1    3    3    0  502  0.83535292893E+03  0.48166173516E+03  0.19033438262E+04  0.21336662993E+04  0.12699999809E+01 0. -1.
</event>
<event>
 5   0  0.9341000E-08  0.3694142E+04  0.7818609E-02  0.8069261E-01
       -1   -1    0    0    0  501  0.00000000000E+00  0.00000000000E+00  0.12649439357E+04  0.12649439357E+04  0.50400001928E-02 0.  1.
        1   -1    0    0  501    0  0.00000000000E+00  0.00000000000E+00 -0.26970930615E+04  0.26970930615E+04  0.50400001928E-02 0. -1.
    10030    2    1    2    0    0  0.00000000000E+00  0.00000000000E+00 -0.14321491258E+04  0.39620369973E+04  0.36941421263E+04 0.  0.
        3    1    3    3  502    0 -0.94761000349E+03  0.32657134830E+02 -0.24161574137E+04  0.25955438477E+04  0.10100000352E+00 0. -1.
       -3    1    3    3    0  502  0.94761000349E+03 -0.32657134830E+02  0.98400828787E+03  0.13664931496E+04  0.10100000352E+00 0.  1.
</event>
<event>
 5   0  0.9418945E-08  0.3676104E+04  0.7818609E-02  0.8073278E-01
       -1   -1    0    0    0  501  0.00000000000E+00  0.00000000000E+00  0.29750781652E+04  0.29750781652E+04  0.50400001928E-02 0.  1.
        1   -1    0    0  501    0  0.00000000000E+00  0.00000000000E+00 -0.11355789064E+04  0.11355789064E+04  0.50400001928E-02 0. -1.
    10030    2    1    2    0    0  0.00000000000E+00  0.00000000000E+00  0.18394992588E+04  0.41106570716E+04  0.36761044650E+04 0.  0.
        5    1    3    3  502    0 -0.58028481989E+02 -0.12991223594E+04  0.23722729794E+04  0.27053257453E+04  0.46999998093E+01 0.  1.
       -5    1    3    3    0  502  0.58028481989E+02  0.12991223594E+04 -0.53277372061E+03  0.14053313263E+04  0.46999998093E+01 0. -1.
</event>
<event>
 5   0  0.9341000E-08  0.3697779E+04  0.7818609E-02  0.8068454E-01
        1   -1    0    0  501    0  0.00000000000E+00  0.00000000000E+00  0.15669094265E+04  0.15669094265E+04  0.50400001928E-02 0. -1.
       -1   -1    0    0    0  501  0.00000000000E+00  0.00000000000E+00 -0.21816142838E+04  0.21816142838E+04  0.50400001928E-02 0.  1.
    10030    2    1    2    0    0  0.00000000000E+00  0.00000000000E+00 -0.61470485734E+03  0.37485237103E+04  0.36977787853E+04 0.  0.
        1    1    3    3  502    0  0.14308521429E+04  0.92196762490E+03  0.42437718191E+03  0.17542685509E+04  0.50400001928E-02 0.  1.
       -1    1    3    3    0  502 -0.14308521429E+04 -0.92196762490E+03 -0.10390820393E+04  0.19942551593E+04  0.50400001928E-02 0. -1.
</event>
<event>
 5   0  0.2996969E-07  0.3485789E+04  0.7818609E-02  0.8117166E-01
        2   -1    0    0  501    0  0.00000000000E+00  0.00000000000E+00  0.21305765117E+04  0.21305765117E+04  0.25500000920E-02 0. -1.
       -2   -1    0    0    0  501  0.00000000000E+00  0.00000000000E+00 -0.14257558990E+04  0.14257558990E+04  0.25500000920E-02 0.  1.
    10030    2    1    2    0    0  0.00000000000E+00  0.00000000000E+00  0.70482061275E+03  0.35563324107E+04  0.34857894542E+04 0.  0.
        1    1    3    3  502    0  0.11731915500E+04 -0.13268669536E+03  0.16604236987E+04  0.20373981033E+04  0.50400001928E-02 0. -1.
       -1    1    3    3    0  502 -0.11731915500E+04  0.13268669536E+03 -0.95560308594E+03  0.15189343074E+04  0.50400001928E-02 0.  1.
</event>
<event>
 5   0  0.9341000E-08  0.3750227E+04  0.7818609E-02  0.8056921E-01
       -1   -1    0    0    0  501  0.00000000000E+00  0.00000000000E+00  0.19505095447E+04  0.19505095447E+04  0.50400001928E-02 0.  1.
        1   -1    0    0  501    0  0.00000000000E+00  0.00000000000E+00 -0.18026323192E+04  0.18026323192E+04  0.50400001928E-02 0. -1.
    10030    2    1    2    0    0  0.00000000000E+00  0.00000000000E+00  0.14787722554E+03  0.37531418639E+04  0.37502274833E+04 0.  0.
        1    1    3    3  502    0  0.13929288035E+04  0.10725858273E+04 -0.57876492306E+03  0.18508538151E+04  0.50400001928E-02 0.  1.
       -1    1    3    3    0  502 -0.13929288035E+04 -0.10725858273E+04  0.72664214860E+03  0.19022880488E+04  0.50400001928E-02 0. -1.
</event>
<event>
 5   0  0.2897133E-07  0.3708725E+04  0.7818609E-02  0.8066031E-01
        2   -1    0    0  501    0  0.00000000000E+00  0.00000000000E+00  0.25510183104E+04  0.25510183104E+04  0.25500000920E-02 0. -1.
       -2   -1    0    0    0  501  0.00000000000E+00  0.00000000000E+00 -0.13479558390E+04  0.13479558390E+04  0.25500000920E-02 0.  1.
    10030    2    1    2    0    0  0.00000000000E+00  0.00000000000E+00  0.12030624714E+04  0.38989741494E+04  0.37087248627E+04 0.  0.
        4    1    3    3  502    0  0.17720538892E+04 -0.61350171239E+02  0.30801844873E+02  0.17733835446E+04  0.12699999809E+01 0.  1.
       -4    1    3    3    0  502 -0.17720538892E+04  0.61350171239E+02  0.11722606265E+04  0.21255906048E+04  0.12699999809E+01 0. -1.
</event>
<event>
 5   0  0.2913025E-07  0.3831218E+04  0.7818609E-02  0.8039489E-01
       -2   -1    0    0    0  501  0.00000000000E+00  0.00000000000E+00  0.20791831197E+04  0.20791831197E+04  0.25500000920E-02 0. -1.
        2   -1    0    0  501    0  0.00000000000E+00  0.00000000000E+00 -0.17649034147E+04  0.17649034147E+04  0.25500000920E-02 0.  1.
    10030    2    1    2    0    0  0.00000000000E+00  0.00000000000E+00  0.31427970495E+03  0.38440865344E+04  0.38312177635E+04 0.  0.
        5    1    3    3  502    0 -0.17584489082E+04 -0.69711326997E+03 -0.14624281085E+03  0.18972397117E+04  0.46999998093E+01 0.  1.
       -5    1    3    3    0  502  0.17584489082E+04  0.69711326997E+03  0.46052251580E+03  0.19468468228E+04  0.46999998093E+01 0. -1.
</event>
<event>
 5   0  0.9646615E-08  0.3250774E+04  0.7818609E-02  0.8175535E-01
       -1   -1    0    0    0  501  0.00000000000E+00  0.00000000000E+00  0.13004359665E+04  0.13004359665E+04  0.50400001928E-02 0.  1.
        1   -1    0    0  501    0  0.00000000000E+00  0.00000000000E+00 -0.20315360570E+04  0.20315360570E+04  0.50400001928E-02 0. -1.
    10030    2    1    2    0    0  0.00000000000E+00  0.00000000000E+00 -0.73110009050E+03  0.33319720235E+04  0.32507737883E+04 0.  0.
        2    1    3    3  502    0 -0.14912570988E+04 -0.14658263141E+03 -0.10110001450E+04  0.18076104381E+04  0.25500000920E-02 0. -1.
       -2    1    3    3    0  502  0.14912570988E+04  0.14658263141E+03  0.27990005453E+03  0.15243615854E+04  0.25500000920E-02 0.  1.
</event>
<event>
 5   0  0.9341000E-08  0.3703788E+04  0.7818609E-02  0.8067123E-01
        1   -1    0    0  501    0  0.00000000000E+00  0.00000000000E+00  0.23623989597E+04  0.23623989597E+04  0.50400001928E-02 0. -1.
       -1   -1    0    0    0  501  0.00000000000E+00  0.00000000000E+00 -0.14517067861E+04  0.14517067861E+04  0.50400001928E-02 0.  1.
    10030    2    1    2    0    0  0.00000000000E+00  0.00000000000E+00  0.91069217359E+03  0.38141057458E+04  0.37037875756E+04 0.  0.
        1    1    3    3  502    0  0.67369000358E+02  0.60884922214E+03  0.22550485145E+04  0.23367669461E+04  0.50400001928E-02 0. -1.
       -1    1    3    3    0  502 -0.67369000358E+02 -0.60884922214E+03 -0.13443563409E+04  0.14773387997E+04  0.50400001928E-02 0.  1.
</event>
<event>
 5   0  0.3008879E-07  0.3710229E+04  0.7818609E-02  0.8065699E-01
        2   -1    0    0  501    0  0.00000000000E+00  0.00000000000E+00  0.12871775917E+04  0.12871775918E+04  0.25500000920E-02 0. -1.
       -2   -1    0    0    0  501  0.00000000000E+00  0.00000000000E+00 -0.26736405040E+04  0.26736405040E+04  0.25500000920E-02 0.  1.
    10030    2    1    2    0    0  0.00000000000E+00  0.00000000000E+00 -0.13864629122E+04  0.39608180957E+04  0.37102291817E+04 0.  0.
        2    1    3    3  502    0  0.13366144641E+04  0.97553108266E+03 -0.15884711866E+04  0.22937828646E+04  0.25500000920E-02 0.  1.
       -2    1    3    3    0  502 -0.13366144641E+04 -0.97553108266E+03  0.20200827441E+03  0.16670352312E+04  0.25500000920E-02 0. -1.
</event>
<event>
 5   0  0.9341000E-08  0.3696331E+04  0.7818609E-02  0.8068775E-01
       -1   -1    0    0    0  501  0.00000000000E+00  0.00000000000E+00  0.15869602307E+04  0.15869602307E+04  0.50400001928E-02 0. -1.
        1   -1    0    0  501    0  0.00000000000E+00  0.00000000000E+00 -0.21523643000E+04  0.21523643000E+04  0.50400001928E-02 0.  1.
    10030    2    1    2    0    0  0.00000000000E+00  0.00000000000E+00 -0.56540406927E+03  0.37393245307E+04  0.36963314494E+04 0.  0.
        3    1    3    3  502    0  0.49006286707E+03 -0.14334298409E+03 -0.20795960560E+04  0.21413613873E+04  0.10100000352E+00 0.  1.
       -3    1    3    3    0  502 -0.49006286707E+03  0.14334298409E+03  0.15141919867E+04  0.15979631434E+04  0.10100000352E+00 0. -1.
</event>
<event>
 5   0  0.9341000E-08  0.3349888E+04  0.7818609E-02  0.8150316E-01
        1   -1    0    0  501    0  0.00000000000E+00  0.00000000000E+00  0.15566685580E+04  0.15566685580E+04  0.50400001928E-02 0. -1.
       -1   -1    0    0    0  501  0.00000000000E+00  0.00000000000E+00 -0.18022061829E+04  0.18022061829E+04  0.50400001928E-02 0.  1.
    10030    2    1    2    0    0  0.00000000000E+00  0.00000000000E+00 -0.24553762490E+03  0.33588747409E+04  0.33498881772E+04 0.  0.
        3    1    3    3  502    0 -0.33336712701E+03  0.46681691139E+03 -0.17006440846E+04  0.17947818762E+04  0.10100000352E+00 0.  1.
       -3    1    3    3    0  502  0.33336712701E+03 -0.46681691139E+03  0.14551064597E+04  0.15640928647E+04  0.10100000352E+00 0. -1.
</event>
<event>
 5   0  0.3008879E-07  0.3698878E+04  0.7818609E-02  0.8068211E-01
        2   -1    0    0  501    0  0.00000000000E+00  0.00000000000E+00  0.22527925005E+04  0.22527925005E+04  0.25500000920E-02 0. -1.
       -2   -1    0    0    0  501  0.00000000000E+00  0.00000000000E+00 -0.15183044045E+04  0.15183044045E+04  0.25500000920E-02 0.  1.
    10030    2    1    2    0    0  0.00000000000E+00  0.00000000000E+00  0.73448809596E+03  0.37710969050E+04  0.36988780872E+04 0.  0.
        2    1    3    3  502    0 -0.18483966543E+04  0.57458643481E+02  0.34326703400E+03  0.18808785032E+04  0.25500000920E-02 0.  1.
       -2    1    3    3    0  502  0.18483966543E+04 -0.57458643481E+02  0.39122106196E+03  0.18902184018E+04  0.25500000920E-02 0. -1.
</event>
<event>
 5   0  0.9418945E-08  0.3696183E+04  0.7818609E-02  0.8068808E-01
        1   -1    0    0  501    0  0.00000000000E+00  0.00000000000E+00  0.25362230735E+04  0.25362230735E+04  0.50400001928E-02 0. -1.
       -1   -1    0    0    0  501  0.00000000000E+00  0.00000000000E+00 -0.13466644796E+04  0.13466644796E+04  0.50400001928E-02 0.  1.
    10030    2    1    2    0    0  0.00000000000E+00  0.00000000000E+00  0.11895585939E+04  0.38828875532E+04  0.36961826392E+04 0.  0.
        5    1    3    3  502    0  0.11893956275E+04 -0.11923400440E+04  0.13941931777E+04  0.21863516290E+04  0.46999998093E+01 0. -1.
       -5    1    3    3    0  502 -0.11893956275E+04  0.11923400440E+04 -0.20463458375E+03  0.16965359242E+04  0.46999998093E+01 0.  1.
</event>
<event>
 5   0  0.3032442E-07  0.3407890E+04  0.7818609E-02  0.8135972E-01
       -2   -1    0    0    0  501  0.00000000000E+00  0.00000000000E+00  0.17427933471E+04  0.17427933471E+04  0.25500000920E-02 0. -1.
        2   -1    0    0  501    0  0.00000000000E+00  0.00000000000E+00 -0.16659629857E+04  0.16659629857E+04  0.25500000920E-02 0.  1.
    10030    2    1    2    0    0  0.00000000000E+00  0.00000000000E+00  0.76830361346E+02  0.34087563328E+04  0.34078903785E+04 0.  0.
        3    1    3    3  502    0  0.14849436451E+04  0.83557009874E+03  0.52353528330E+02  0.17046923244E+04  0.10100000352E+00 0. -1.
       -3    1    3    3    0  502 -0.14849436451E+04 -0.83557009874E+03  0.24476833017E+02  0.17040640083E+04  0.10100000352E+00 0.  1.
</event>
<event>
 5   0  0.3032442E-07  0.3499018E+04  0.7818609E-02  0.8114023E-01
        2   -1    0    0  501    0  0.00000000000E+00  0.00000000000E+00  0.23264348457E+04  0.23264348457E+04  0.25500000920E-02 0.  1.
       -2   -1    0    0    0  501  0.00000000000E+00  0.00000000000E+00 -0.13156535961E+04  0.13156535961E+04  0.25500000920E-02 0. -1.
    10030    2    1    2    0    0  0.00000000000E+00  0.00000000000E+00  0.10107812496E+04  0.36420884418E+04  0.34990183599E+04 0.  0.
        3    1    3    3  502    0 -0.97345815955E+03 -0.73334345031E+03 -0.80106724076E+03  0.14584656797E+04  0.10100000352E+00 0. -1.
       -3    1    3    3    0  502  0.97345815955E+03  0.73334345031E+03  0.18118484904E+04  0.21836227620E+04  0.10100000352E+00 0.  1.
</event>
<event>
 5   0  0.3008879E-07  0.3685613E+04  0.7818609E-02  0.8071158E-01
       -2   -1    0    0    0  501  0.00000000000E+00  0.00000000000E+00  0.16161545604E+04  0.16161545604E+04  0.25500000920E-02 0.  1.
        2   -1    0    0  501    0  0.00000000000E+00  0.00000000000E+00 -0.21012442880E+04  0.21012442880E+04  0.25500000920E-02 0. -1.
    10030    2    1    2    0    0  0.00000000000E+00  0.00000000000E+00 -0.48508972763E+03  0.37173988483E+04  0.36856128600E+04 0.  0.
        2    1    3    3  502    0 -0.12389167870E+04  0.40159385019E+03  0.10724410193E+04  0.16871046694E+04  0.25500000920E-02 0.  1.
       -2    1    3    3    0  502  0.12389167870E+04 -0.40159385019E+03 -0.15575307469E+04  0.20302941790E+04  0.25500000920E-02 0. -1.
</event>
<event>
 5   0  0.9341000E-08  0.3586664E+04  0.7818609E-02  0.8093553E-01
       -1   -1    0    0    0  501  0.00000000000E+00  0.00000000000E+00  0.25781254141E+04  0.25781254141E+04  0.50400001928E-02 0. -1.
        1   -1    0    0  501    0  0.00000000000E+00  0.00000000000E+00 -0.12474333223E+04  0.12474333223E+04  0.50400001928E-02 0.  1.
    10030    2    1    2    0    0  0.00000000000E+00  0.00000000000E+00  0.13306920918E+04  0.38255587363E+04  0.35866639377E+04 0.  0.
        4    1    3    3  502    0  0.16207425141E+03  0.10400120805E+04 -0.88330796440E+03  0.13740916139E+04  0.12699999809E+01 0.  1.
       -4    1    3    3    0  502 -0.16207425141E+03 -0.10400120805E+04  0.22140000562E+04  0.24514671224E+04  0.12699999809E+01 0. -1.
</event>
<event>
 5   0  0.2996969E-07  0.3657367E+04  0.7818609E-02  0.8077476E-01
        2   -1    0    0  501    0  0.00000000000E+00  0.00000000000E+00  0.18768889672E+04  0.18768889672E+04  0.25500000920E-02 0.  1.
       -2   -1    0    0    0  501  0.00000000000E+00  0.00000000000E+00 -0.17817162670E+04  0.17817162670E+04  0.25500000920E-02 0. -1.
    10030    2    1    2    0    0  0.00000000000E+00  0.00000000000E+00  0.95172700189E+02  0.36586052342E+04  0.36573671427E+04 0.  0.
        1    1    3    3  502    0 -0.64798123436E+03 -0.16119752971E+04  0.61851554151E+03  0.18441544170E+04  0.50400001928E-02 0.  1.
       -1    1    3    3    0  502  0.64798123436E+03  0.16119752971E+04 -0.52334284132E+03  0.18144508172E+04  0.50400001928E-02 0. -1.
</event>
<event>
 5   0  0.3008879E-07  0.3694663E+04  0.7818609E-02  0.8069145E-01
       -2   -1    0    0    0  501  0.00000000000E+00  0.00000000000E+00  0.18486745846E+04  0.18486745846E+04  0.25500000920E-02 0.  1.
        2   -1    0    0  501    0  0.00000000000E+00  0.00000000000E+00 -0.18459898419E+04  0.18459898419E+04  0.25500000920E-02 0. -1.
    10030    2    1    2    0    0  0.00000000000E+00  0.00000000000E+00  0.26847426585E+01  0.36946644265E+04  0.36946634510E+04 0.  0.
        2    1    3    3  502    0  0.16189257383E+04 -0.42680956243E+03  0.78207784333E+03  0.18478995378E+04  0.25500000920E-02 0.  1.
       -2    1    3    3    0  502 -0.16189257383E+04  0.42680956243E+03 -0.77939310067E+03  0.18467648887E+04  0.25500000920E-02 0. -1.
</event>
<event>
 5   0  0.2996969E-07  0.3704037E+04  0.7818609E-02  0.8067068E-01
        2   -1    0    0  501    0  0.00000000000E+00  0.00000000000E+00  0.25240140262E+04  0.25240140262E+04  0.25500000920E-02 0. -1.
       -2   -1    0    0    0  501  0.00000000000E+00  0.00000000000E+00 -0.13589353979E+04  0.13589353979E+04  0.25500000920E-02 0.  1.
    10030    2    1    2    0    0  0.00000000000E+00  0.00000000000E+00  0.11650786282E+04  0.38829494241E+04  0.37040367196E+04 0.  0.
        1    1    3    3  502    0  0.49817533794E+03 -0.93441202943E+03 -0.10102823165E+04  0.14635487239E+04  0.50400001928E-02 0.  1.
       -1    1    3    3    0  502 -0.49817533794E+03  0.93441202943E+03  0.21753609448E+04  0.24194007002E+04  0.50400001928E-02 0. -1.
</event>
<event>
 5   0  0.3032442E-07  0.3705639E+04  0.7818609E-02  0.8066713E-01
        2   -1    0    0  501    0  0.00000000000E+00  0.00000000000E+00  0.14897860421E+04  0.14897860421E+04  0.25500000920E-02 0.  1.
       -2   -1    0    0    0  501  0.00000000000E+00  0.00000000000E+00 -0.23043171174E+04  0.23043171174E+04  0.25500000920E-02 0. -1.
    10030    2    1    2    0    0  0.00000000000E+00  0.00000000000E+00 -0.81453107530E+03  0.37941031594E+04  0.37056386645E+04 0.  0.
        3    1    3    3  502    0 -0.77615889475E+03 -0.15104333631E+04  0.35144289175E+03  0.17341694527E+04  0.10100000352E+00 0.  1.
       -3    1    3    3    0  502  0.77615889475E+03  0.15104333631E+04 -0.11659739670E+04  0.20599337068E+04  0.10100000352E+00 0. -1.
</event>
<event>
 5   0  0.9646615E-08  0.3721601E+04  0.7818609E-02  0.8063192E-01
       -1   -1    0    0    0  501  0.00000000000E+00  0.00000000000E+00  0.18356723025E+04  0.18356723025E+04  0.50400001928E-02 0. -1.
        1   -1    0    0  501    0  0.00000000000E+00  0.00000000000E+00 -0.18862728154E+04  0.18862728154E+04  0.50400001928E-02 0.  1.
    10030    2    1    2    0    0  0.00000000000E+00  0.00000000000E+00 -0.50600512885E+02  0.37219451178E+04  0.37216011404E+04 0.  0.
        2    1    3    3  502    0  0.17237798249E+04  0.32155417082E+03  0.59746492882E+03  0.18525059543E+04  0.25500000920E-02 0.  1.
       -2    1    3    3    0  502 -0.17237798249E+04 -0.32155417082E+03 -0.64806544170E+03  0.18694391636E+04  0.25500000920E-02 0. -1.
</event>
<event>
 5   0  0.2996969E-07  0.3697509E+04  0.7818609E-02  0.8068514E-01
       -2   -1    0    0    0  501  0.00000000000E+00  0.00000000000E+00  0.14223159756E+04  0.14223159756E+04  0.25500000920E-02 0.  1.
        2   -1    0    0  501    0  0.00000000000E+00  0.00000000000E+00 -0.24030479699E+04  0.24030479699E+04  0.25500000920E-02 0. -1.
    10030    2    1    2    0    0  0.00000000000E+00  0.00000000000E+00 -0.98073199430E+03  0.38253639454E+04  0.36975091711E+04 0.  0.
        1    1    3    3  502    0  0.50680621328E+03  0.91041206978E+03  0.10895920066E+04  0.15076184582E+04  0.50400001928E-02 0.  1.
       -1    1    3    3    0  502 -0.50680621328E+03 -0.91041206978E+03 -0.20703240009E+04  0.23177454872E+04  0.50400001928E-02 0. -1.
</event>
<event>
 5   0  0.2897133E-07  0.3707441E+04  0.7818609E-02  0.8066315E-01
       -2   -1    0    0    0  501  0.00000000000E+00  0.00000000000E+00  0.13000032231E+04  0.13000032231E+04  0.25500000920E-02 0. -1.
        2   -1    0    0  501    0  0.00000000000E+00  0.00000000000E+00 -0.26432849950E+04  0.26432849950E+04  0.25500000920E-02 0.  1.
    10030    2    1    2    0    0  0.00000000000E+00  0.00000000000E+00 -0.13432817718E+04  0.39432882181E+04  0.37074406337E+04 0.  0.
        4    1    3    3  502    0 -0.14524439867E+04 -0.98121334351E+03 -0.13132608574E+04  0.21902120565E+04  0.12699999809E+01 0. -1.
       -4    1    3    3    0  502  0.14524439867E+04  0.98121334351E+03 -0.30020914378E+02  0.17530761616E+04  0.12699999809E+01 0.  1.
</event>
<event>
 5   0  0.9341000E-08  0.3683275E+04  0.7818609E-02  0.8071678E-01
       -1   -1    0    0    0  501  0.00000000000E+00  0.00000000000E+00  0.13836194770E+04  0.13836194770E+04  0.50400001928E-02 0. -1.
        1   -1    0    0  501    0  0.00000000000E+00  0.00000000000E+00 -0.24512731699E+04  0.24512731699E+04  0.50400001928E-02 0.  1.
    10030    2    1    2    0    0  0.00000000000E+00  0.00000000000E+00 -0.10676536929E+04  0.38348926469E+04  0.36832753366E+04 0.  0.
        1    1    3    3  502    0  0.31463050501E+02  0.11957313928E+04 -0.19917779652E+04  0.23233473589E+04  0.50400001928E-02 0.  1.
       -1    1    3    3    0  502 -0.31463050501E+02 -0.11957313928E+04  0.92412427227E+03  0.15115452880E+04  0.50400001928E-02 0. -1.
</event>
<event>
 5   0  0.9646615E-08  0.3713216E+04  0.7818609E-02  0.8065039E-01
       -1   -1    0    0    0  501  0.00000000000E+00  0.00000000000E+00  0.14041994123E+04  0.14041994124E+04  0.50400001928E-02 0. -1.
        1   -1    0    0  501    0  0.00000000000E+00  0.00000000000E+00 -0.24547745765E+04  0.24547745765E+04  0.50400001928E-02 0.  1.
    10030    2    1    2    0    0  0.00000000000E+00  0.00000000000E+00 -0.10505751642E+04  0.38589739889E+04  0.37132158665E+04 0.  0.
        2    1    3    3  502    0 -0.61177638282E+03  0.73852119813E+03  0.11268675950E+04  0.14797008074E+04  0.25500000920E-02 0. -1.
       -2    1    3    3    0  502  0.61177638282E+03 -0.73852119813E+03 -0.21774427592E+04  0.23792731815E+04  0.25500000920E-02 0.  1.
</event>
<event>
 5   0  0.9418945E-08  0.3756253E+04  0.7818609E-02  0.8055608E-01
        1   -1    0    0  501    0  0.00000000000E+00  0.00000000000E+00  0.28975108728E+04  0.28975108728E+04  0.50400001928E-02 0. -1.
       -1   -1    0    0    0  501  0.00000000000E+00  0.00000000000E+00 -0.12173758535E+04  0.12173758536E+04  0.50400001928E-02 0.  1.
    10030    2    1    2    0    0  0.00000000000E+00  0.00000000000E+00  0.16801350193E+04  0.41148867264E+04  0.37562533312E+04 0.  0.
        5    1    3    3  502    0  0.47913850349E+03 -0.15350044366E+04 -0.22289762600E+03  0.16234277833E+04  0.46999998093E+01 0.  1.
       -5    1    3    3    0  502 -0.47913850349E+03  0.15350044366E+04  0.19030326453E+04  0.24914589430E+04  0.46999998093E+01 0. -1.
</event>
<event>
 5   0  0.9341000E-08  0.3701839E+04  0.7818609E-02  0.8067554E-01
        1   -1    0    0  501    0  0.00000000000E+00  0.00000000000E+00  0.33221166192E+04  0.33221166192E+04  0.50400001928E-02 0.  1.
       -1   -1    0    0    0  501  0.00000000000E+00  0.00000000000E+00 -0.10312408779E+04  0.10312408779E+04  0.50400001928E-02 0. -1.
    10030    2    1    2    0    0  0.00000000000E+00  0.00000000000E+00  0.22908757413E+04  0.43533574971E+04  0.37018387100E+04 0.  0.
        3    1    3    3  502    0 -0.14287200732E+04 -0.62683912074E+03  0.23165661482E+04  0.27929638486E+04  0.10100000352E+00 0.  1.
       -3    1    3    3    0  502  0.14287200732E+04  0.62683912074E+03 -0.25690406831E+02  0.15603936484E+04  0.10100000352E+00 0. -1.
</event>
<event>
 5   0  0.2897133E-07  0.3639542E+04  0.7818609E-02  0.8081494E-01
        2   -1    0    0  501    0  0.00000000000E+00  0.00000000000E+00  0.25366316703E+04  0.25366316703E+04  0.25500000920E-02 0.  1.
       -2   -1    0    0    0  501  0.00000000000E+00  0.00000000000E+00 -0.13054977691E+04  0.13054977691E+04  0.25500000920E-02 0. -1.
    10030    2    1    2    0    0  0.00000000000E+00  0.00000000000E+00  0.12311339012E+04  0.38421294395E+04  0.36395422716E+04 0.  0.
        4    1    3    3  502    0  0.46417841222E+03 -0.75209258581E+03 -0.10637203620E+04  0.13829705266E+04  0.12699999809E+01 0. -1.
       -4    1    3    3    0  502 -0.46417841222E+03  0.75209258581E+03  0.22948542633E+04  0.24591589128E+04  0.12699999809E+01 0.  1.
</event>
<event>
 5   0  0.9341000E-08  0.3696717E+04  0.7818609E-02  0.8068690E-01
        1   -1    0    0  501    0  0.00000000000E+00  0.00000000000E+00  0.27310875118E+04  0.27310875118E+04  0.50400001928E-02 0.  1.
       -1   -1    0    0    0  501  0.00000000000E+00  0.00000000000E+00 -0.12509411078E+04  0.12509411078E+04  0.50400001928E-02 0. -1.
    10030    2    1    2    0    0  0.00000000000E+00  0.00000000000E+00  0.14801464039E+04  0.39820286196E+04  0.36967172668E+04 0.  0.
        1    1    3    3  502    0  0.10853537449E+04 -0.14533406226E+04  0.35735152815E+03  0.18487541295E+04  0.50400001928E-02 0. -1.
       -1    1    3    3    0  502 -0.10853537449E+04  0.14533406226E+04  0.11227948758E+04  0.21332744901E+04  0.50400001928E-02 0.  1.
</event>
<event>
 5   0  0.2913025E-07  0.3698960E+04  0.7818609E-02  0.8068192E-01
        2   -1    0    0  501    0  0.00000000000E+00  0.00000000000E+00  0.19231991592E+04  0.19231991592E+04  0.25500000920E-02 0. -1.
       -2   -1    0    0    0  501  0.00000000000E+00  0.00000000000E+00 -0.17785863093E+04  0.17785863093E+04  0.25500000920E-02 0.  1.
    10030    2    1    2    0    0  0.00000000000E+00  0.00000000000E+00  0.14461284990E+03  0.37017854685E+04  0.36989596886E+04 0.  0.
        5    1    3    3  502    0 -0.54379810239E+03 -0.12840204417E+02  0.18413310996E+04  0.19200009259E+04  0.46999998093E+01 0. -1.
       -5    1    3    3    0  502  0.54379810239E+03  0.12840204417E+02 -0.16967182497E+04  0.17817845425E+04  0.46999998093E+01 0.  1.
</event>
<event>
 5   0  0.2913025E-07  0.3710577E+04  0.7818609E-02  0.8065622E-01
       -2   -1    0    0    0  501  0.00000000000E+00  0.00000000000E+00  0.14045856166E+04  0.14045856166E+04  0.25500000920E-02 0. -1.
        2   -1    0    0  501    0  0.00000000000E+00  0.00000000000E+00 -0.24506128552E+04  0.24506128552E+04  0.25500000920E-02 0.  1.
    10030    2    1    2    0    0  0.00000000000E+00  0.00000000000E+00 -0.10460272386E+04  0.38551984718E+04  0.37105770809E+04 0.  0.
        5    1    3    3  502    0 -0.14491988752E+04  0.98535595386E+03  0.10979812091E+03  0.17558990441E+04  0.46999998093E+01 0. -1.
       -5    1    3    3    0  502  0.14491988752E+04 -0.98535595386E+03 -0.11558253595E+04  0.20992994277E+04  0.46999998093E+01 0.  1.
</event>
<event>
 5   0  0.2913025E-07  0.3700554E+04  0.7818609E-02  0.8067839E-01
       -2   -1    0    0    0  501  0.00000000000E+00  0.00000000000E+00  0.14460330212E+04  0.14460330212E+04  0.25500000920E-02 0.  1.
        2   -1    0    0  501    0  0.00000000000E+00  0.00000000000E+00 -0.23675293379E+04  0.23675293379E+04  0.25500000920E-02 0. -1.
    10030    2    1    2    0    0  0.00000000000E+00  0.00000000000E+00 -0.92149631667E+03  0.38135623591E+04  0.37005543375E+04 0.  0.
        5    1    3    3  502    0  0.68070770420E+03 -0.89418157892E+03  0.10540306687E+04  0.15407551445E+04  0.46999998093E+01 0.  1.
       -5    1    3    3    0  502 -0.68070770420E+03  0.89418157892E+03 -0.19755269854E+04  0.22728072146E+04  0.46999998093E+01 0. -1.
</event>
<event>
 5   0  0.3008879E-07  0.3678822E+04  0.7818609E-02  0.8072671E-01
        2   -1    0    0  501    0  0.00000000000E+00  0.00000000000E+00  0.18418565882E+04  0.18418565882E+04  0.25500000920E-02 0. -1.
       -2   -1    0    0    0  501  0.00000000000E+00  0.00000000000E+00 -0.18369686313E+04  0.18369686313E+04  0.25500000920E-02 0.  1.
    10030    2    1    2    0    0  0.00000000000E+00  0.00000000000E+00  0.48879568892E+01  0.36788252195E+04  0.36788219723E+04 0.  0.
        2    1    3    3  502    0  0.17720417411E+04 -0.10497587468E+03 -0.47951174510E+03  0.18387722481E+04  0.25500000920E-02 0.  1.
       -2    1    3    3    0  502 -0.17720417411E+04  0.10497587468E+03  0.48439970199E+03  0.18400529715E+04  0.25500000920E-02 0. -1.
</event>
<event>
 5   0  0.9341000E-08  0.3709534E+04  0.7818609E-02  0.8065852E-01
       -1   -1    0    0    0  501  0.00000000000E+00  0.00000000000E+00  0.21973106577E+04  0.21973106577E+04  0.50400001928E-02 0. -1.
        1   -1    0    0  501    0  0.00000000000E+00  0.00000000000E+00 -0.15656228321E+04  0.15656228321E+04  0.50400001928E-02 0.  1.
    10030    2    1    2    0    0  0.00000000000E+00  0.00000000000E+00  0.63168782564E+03  0.37629334898E+04  0.37095335205E+04 0.  0.
        4    1    3    3  502    0  0.15482175967E+04  0.97617463213E+03  0.62060764696E+03  0.19326277716E+04  0.12699999809E+01 0.  1.
       -4    1    3    3    0  502 -0.15482175967E+04 -0.97617463213E+03  0.11080178686E+02  0.18303057183E+04  0.12699999809E+01 0. -1.
</event>
<event>
 5   0  0.2996969E-07  0.3702265E+04  0.7818609E-02  0.8067460E-01
        2   -1    0    0  501    0  0.00000000000E+00  0.00000000000E+00  0.28947311266E+04  0.28947311266E+04  0.25500000920E-02 0.  1.
       -2   -1    0    0    0  501  0.00000000000E+00  0.00000000000E+00 -0.11837683013E+04  0.11837683013E+04  0.25500000920E-02 0. -1.
    10030    2    1    2    0    0  0.00000000000E+00  0.00000000000E+00  0.17109628253E+04  0.40784994278E+04  0.37022646844E+04 0.  0.
        1    1    3    3  502    0 -0.17608726540E+04  0.55737490076E+03  0.99197450707E+03  0.20965096485E+04  0.50400001928E-02 0.  1.
       -1    1    3    3    0  502  0.17608726540E+04 -0.55737490076E+03  0.71898831826E+03  0.19819897793E+04  0.50400001928E-02 0. -1.
</event>
<event>
 5   0  0.2913025E-07  0.3679376E+04  0.7818609E-02  0.8072548E-01
        2   -1    0    0  501    0  0.00000000000E+00  0.00000000000E+00  0.23408928487E+04  0.23408928487E+04  0.25500000920E-02 0. -1.
       -2   -1    0    0    0  501  0.00000000000E+00  0.00000000000E+00 -0.14457955480E+04  0.14457955480E+04  0.25500000920E-02 0.  1.
    10030    2    1    2    0    0  0.00000000000E+00  0.00000000000E+00  0.89509730077E+03  0.37866883967E+04  0.36793762835E+04 0.  0.
        5    1    3    3  502    0 -0.71224548893E+01 -0.15578418023E+04  0.14546117812E+04  0.21313937540E+04  0.46999998093E+01 0. -1.
       -5    1    3    3    0  502  0.71224548893E+01  0.15578418023E+04 -0.55951448039E+03  0.16552946427E+04  0.46999998093E+01 0.  1.
</event>
<event>
 5   0  0.2897133E-07  0.3704835E+04  0.7818609E-02  0.8066891E-01
       -2   -1    0    0    0  501  0.00000000000E+00  0.00000000000E+00  0.14901585183E+04  0.14901585183E+04  0.25500000920E-02 0. -1.
        2   -1    0    0  501    0  0.00000000000E+00  0.00000000000E+00 -0.23027419987E+04  0.23027419987E+04  0.25500000920E-02 0.  1.
    10030    2    1    2    0    0  0.00000000000E+00  0.00000000000E+00 -0.81258348036E+03  0.37929005169E+04  0.37048350056E+04 0.  0.
        4    1    3    3  502    0 -0.28338794639E+03  0.13539751016E+04 -0.16676050301E+04  0.21666715148E+04  0.12699999809E+01 0.  1.
       -4    1    3    3    0  502  0.28338794639E+03 -0.13539751016E+04  0.85502154970E+03  0.16262290021E+04  0.12699999809E+01 0. -1.
</event>
<event>
 5   0  0.3032442E-07  0.3692683E+04  0.7818609E-02  0.8069585E-01
       -2   -1    0    0    0  501  0.00000000000E+00  0.00000000000E+00  0.15582085951E+04  0.15582085951E+04  0.25500000920E-02 0. -1.
        2   -1    0    0  501    0  0.00000000000E+00  0.00000000000E+00 -0.21877534076E+04  0.21877534076E+04  0.25500000920E-02 0.  1.
    10030    2    1    2    0    0  0.00000000000E+00  0.00000000000E+00 -0.62954481243E+03  0.37459620027E+04  0.36926825825E+04 0.  0.
        3    1    3    3  502    0 -0.69911739233E+03 -0.16042830954E+04  0.28235186089E+03  0.17726285460E+04  0.10100000352E+00 0. -1.
       -3    1    3    3    0  502  0.69911739233E+03  0.16042830954E+04 -0.91189667332E+03  0.19733334567E+04  0.10100000352E+00 0.  1.
</event>
<event>
 5   0  0.2913025E-07  0.3662220E+04  0.7818609E-02  0.8076386E-01
        2   -1    0    0  501    0  0.00000000000E+00  0.00000000000E+00  0.16749372570E+04  0.16749372570E+04  0.25500000920E-02 0.  1.
       -2   -1    0    0    0  501  0.00000000000E+00  0.00000000000E+00 -0.20018447476E+04  0.20018447476E+04  0.25500000920E-02 0. -1.
    10030    2    1    2    0    0  0.00000000000E+00  0.00000000000E+00 -0.32690749062E+03  0.36767820047E+04  0.36622202832E+04 0.  0.
        5    1    3    3  502    0 -0.23742433924E+03 -0.51315410480E+03  0.15850926060E+04  0.16829254623E+04  0.46999998093E+01 0.  1.
       -5    1    3    3    0  502  0.23742433924E+03  0.51315410480E+03 -0.19120000966E+04  0.19938565424E+04  0.46999998093E+01 0. -1.
</event>
<event>
 5   0  0.9341000E-08  0.3704220E+04  0.7818609E-02  0.8067027E-01
       -1   -1    0    0    0  501  0.00000000000E+00  0.00000000000E+00  0.25652725281E+04  0.25652725281E+04  0.50400001928E-02 0.  1.
        1   -1    0    0  501    0  0.00000000000E+00  0.00000000000E+00 -0.13372114186E+04  0.13372114187E+04  0.50400001928E-02 0. -1.
    10030    2    1    2    0    0  0.00000000000E+00  0.00000000000E+00  0.12280611095E+04  0.39024839468E+04  0.37042201428E+04 0.  0.
        4    1    3    3  502    0 -0.17959490416E+04 -0.32826982799E+03  0.94234490986E+03  0.20545582449E+04  0.12699999809E+01 0.  1.
       -4    1    3    3    0  502  0.17959490416E+04  0.32826982799E+03  0.28571619961E+03  0.18479257018E+04  0.12699999809E+01 0. -1.
</event>
<event>
 5   0  0.9341000E-08  0.3712800E+04  0.7818609E-02  0.8065131E-01
       -1   -1    0    0    0  501  0.00000000000E+00  0.00000000000E+00  0.15374399487E+04  0.15374399487E+04  0.50400001928E-02 0. -1.
        1   -1    0    0  501    0  0.00000000000E+00  0.00000000000E+00 -0.22415326277E+04  0.22415326277E+04  0.50400001928E-02 0.  1.
    10030    2    1    2    0    0  0.00000000000E+00  0.00000000000E+00 -0.70409267905E+03  0.37789725764E+04  0.37128004568E+04 0.  0.
        3    1    3    3  502    0  0.14200162314E+04 -0.52054859689E+03  0.74361739011E+03  0.16853438142E+04  0.10100000352E+00 0.  1.
       -3    1    3    3    0  502 -0.14200162314E+04  0.52054859689E+03 -0.14477100692E+04  0.20936287621E+04  0.10100000352E+00 0. -1.
</event>
<event>
 5   0  0.9341000E-08  0.3720689E+04  0.7818609E-02  0.8063392E-01
        3   -1    0    0  501    0  0.00000000000E+00  0.00000000000E+00  0.25614970630E+04  0.25614970650E+04  0.10100000352E+00 0.  1.
       -3   -1    0    0    0  501  0.00000000000E+00  0.00000000000E+00 -0.13511169779E+04  0.13511169817E+04  0.10100000352E+00 0. -1.
    10030    2    1    2    0    0  0.00000000000E+00  0.00000000000E+00  0.12103800851E+04  0.39126140467E+04  0.37206892813E+04 0.  0.
        2    1    3    3  502    0  0.68530730853E+03 -0.62045638172E+03 -0.10924800788E+04  0.14311271611E+04  0.25500000920E-02 0. -1.
       -2    1    3    3    0  502 -0.68530730853E+03  0.62045638172E+03  0.23028601639E+04  0.24814868856E+04  0.25500000920E-02 0.  1.
</event>
<event>
 5   0  0.2996969E-07  0.3701096E+04  0.7818609E-02  0.8067719E-01
       -2   -1    0    0    0  501  0.00000000000E+00  0.00000000000E+00  0.15212514461E+04  0.15212514461E+04  0.25500000920E-02 0.  1.
        2   -1    0    0  501    0  0.00000000000E+00  0.00000000000E+00 -0.22511260273E+04  0.22511260273E+04  0.25500000920E-02 0. -1.
    10030    2    1    2    0    0  0.00000000000E+00  0.00000000000E+00 -0.72987458121E+03  0.37723774734E+04  0.37010964453E+04 0.  0.
        1    1    3    3  502    0 -0.10388441541E+04 -0.10887788925E+04  0.73278764672E+03  0.16738023743E+04  0.50400001928E-02 0.  1.
       -1    1    3    3    0  502  0.10388441541E+04  0.10887788925E+04 -0.14626622279E+04  0.20985750990E+04  0.50400001928E-02 0. -1.
</event>
<event>
 5   0  0.2913025E-07  0.3783081E+04  0.7818609E-02  0.8049795E-01
       -2   -1    0    0    0  501  0.00000000000E+00  0.00000000000E+00  0.21044407988E+04  0.21044407988E+04  0.25500000920E-02 0.  1.
        2   -1    0    0  501    0  0.00000000000E+00  0.00000000000E+00 -0.17001786455E+04  0.17001786455E+04  0.25500000920E-02 0. -1.
    10030    2    1    2    0    0  0.00000000000E+00  0.00000000000E+00  0.40426215328E+03  0.38046194444E+04  0.37830809174E+04 0.  0.
        5    1    3    3  502    0  0.11911253621E+04  0.49708942802E+03  0.15927638299E+04  0.20500722513E+04  0.46999998093E+01 0.  1.
       -5    1    3    3    0  502 -0.11911253621E+04 -0.49708942802E+03 -0.11885016766E+04  0.17545471931E+04  0.46999998093E+01 0. -1.
</event>
<event>
 5   0  0.9341000E-08  0.3707637E+04  0.7818609E-02  0.8066272E-01
        3   -1    0    0  501    0  0.00000000000E+00  0.00000000000E+00  0.14055446889E+04  0.14055446926E+04  0.10100000352E+00 0. -1.
       -3   -1    0    0    0  501  0.00000000000E+00  0.00000000000E+00 -0.24450608889E+04  0.24450608910E+04  0.10100000352E+00 0.  1.
    10030    2    1    2    0    0  0.00000000000E+00  0.00000000000E+00 -0.10395162000E+04  0.38506055836E+04  0.37076366367E+04 0.  0.
        2    1    3    3  502    0 -0.12658065432E+04 -0.32791190200E+03 -0.18845271682E+04  0.22937382300E+04  0.25500000920E-02 0.  1.
       -2    1    3    3    0  502  0.12658065432E+04  0.32791190200E+03  0.84501096819E+03  0.15568673536E+04  0.25500000920E-02 0. -1.
</event>
<event>
 5   0  0.9341000E-08  0.3784987E+04  0.7818609E-02  0.8049384E-01
        1   -1    0    0  501    0  0.00000000000E+00  0.00000000000E+00  0.21876135885E+04  0.21876135885E+04  0.50400001928E-02 0. -1.
       -1   -1    0    0    0  501  0.00000000000E+00  0.00000000000E+00 -0.16371862389E+04  0.16371862390E+04  0.50400001928E-02 0.  1.
    10030    2    1    2    0    0  0.00000000000E+00  0.00000000000E+00  0.55042734953E+03  0.38247998274E+04  0.37849865856E+04 0.  0.
        1    1    3    3  502    0 -0.80027196829E+03 -0.14028206419E+04  0.12720943105E+04  0.20558611119E+04  0.50400001928E-02 0. -1.
       -1    1    3    3    0  502  0.80027196829E+03  0.14028206419E+04 -0.72166696100E+03  0.17689387155E+04  0.50400001928E-02 0.  1.
</event>
<event>
 5   0  0.2897133E-07  0.3701534E+04  0.7818609E-02  0.8067622E-01
        2   -1    0    0  501    0  0.00000000000E+00  0.00000000000E+00  0.29420616088E+04  0.29420616088E+04  0.25500000920E-02 0.  1.
       -2   -1    0    0    0  501  0.00000000000E+00  0.00000000000E+00 -0.11642645606E+04  0.11642645606E+04  0.25500000920E-02 0. -1.
    10030    2    1    2    0    0  0.00000000000E+00  0.00000000000E+00  0.17777970481E+04  0.41063261694E+04  0.37015337720E+04 0.  0.
        4    1    3    3  502    0 -0.34840102265E+03  0.17528767842E+04  0.35527983509E+03  0.18221376642E+04  0.12699999809E+01 0. -1.
       -4    1    3    3    0  502  0.34840102265E+03 -0.17528767842E+04  0.14225172130E+04  0.22841885052E+04  0.12699999809E+01 0.  1.
</event>
<event>
 5   0  0.9341000E-08  0.3749595E+04  0.7818609E-02  0.8057059E-01
       -1   -1    0    0    0  501  0.00000000000E+00  0.00000000000E+00  0.12304328390E+04  0.12304328390E+04  0.50400001928E-02 0.  1.
        1   -1    0    0  501    0  0.00000000000E+00  0.00000000000E+00 -0.28566093027E+04  0.28566093027E+04  0.50400001928E-02 0. -1.
    10030    2    1    2    0    0  0.00000000000E+00  0.00000000000E+00 -0.16261764637E+04  0.40870421417E+04  0.37495951218E+04 0.  0.
        1    1    3    3  502    0  0.14675131753E+04 -0.51967340501E+03 -0.19517087713E+04  0.24965621353E+04  0.50400001928E-02 0. -1.
       -1    1    3    3    0  502 -0.14675131753E+04  0.51967340501E+03  0.32553230762E+03  0.15904800064E+04  0.50400001928E-02 0.  1.
</event>
<event>
 5   0  0.2897133E-07  0.3690722E+04  0.7818609E-02  0.8070021E-01
        2   -1    0    0  501    0  0.00000000000E+00  0.00000000000E+00  0.12558426355E+04  0.12558426355E+04  0.25500000920E-02 0.  1.
       -2   -1    0    0    0  501  0.00000000000E+00  0.00000000000E+00 -0.27116114862E+04  0.27116114862E+04  0.25500000920E-02 0. -1.
    10030    2    1    2    0    0  0.00000000000E+00  0.00000000000E+00 -0.14557688507E+04  0.39674541217E+04  0.36907220515E+04 0.  0.
        4    1    3    3  502    0 -0.17157518201E+04 -0.64814051293E+03 -0.50898590756E+03  0.19034071293E+04  0.12699999809E+01 0.  1.
       -4    1    3    3    0  502  0.17157518201E+04  0.64814051293E+03 -0.94678294315E+03  0.20640469925E+04  0.12699999809E+01 0. -1.
</event>
<event>
 5   0  0.2996969E-07  0.3705994E+04  0.7818609E-02  0.8066635E-01
       -2   -1    0    0    0  501  0.00000000000E+00  0.00000000000E+00  0.18543749191E+04  0.18543749191E+04  0.25500000920E-02 0. -1.
        2   -1    0    0  501    0  0.00000000000E+00  0.00000000000E+00 -0.18516204651E+04  0.18516204651E+04  0.25500000920E-02 0.  1.
    10030    2    1    2    0    0  0.00000000000E+00  0.00000000000E+00  0.27544540227E+01  0.37059953842E+04  0.37059943606E+04 0.  0.
        1    1    3    3  502    0 -0.23963668066E+01  0.60802768582E+03  0.17517762768E+04  0.18542986634E+04  0.50400001928E-02 0. -1.
       -1    1    3    3    0  502  0.23963668066E+01 -0.60802768582E+03 -0.17490218228E+04  0.18516967208E+04  0.50400001928E-02 0.  1.
</event>
<event>
 5   0  0.9646615E-08  0.3683128E+04  0.7818609E-02  0.8071711E-01
        1   -1    0    0  501    0  0.00000000000E+00  0.00000000000E+00  0.18899141985E+04  0.18899141985E+04  0.50400001928E-02 0.  1.
       -1   -1    0    0    0  501  0.00000000000E+00  0.00000000000E+00 -0.17944508153E+04  0.17944508153E+04  0.50400001928E-02 0. -1.
    10030    2    1    2    0    0  0.00000000000E+00  0.00000000000E+00  0.95463383178E+02  0.36843650137E+04  0.36831280587E+04 0.  0.
        2    1    3    3  502    0  0.18994282547E+03  0.17029574736E+03 -0.17766897921E+04  0.17949110106E+04  0.25500000920E-02 0. -1.
       -2    1    3    3    0  502 -0.18994282547E+03 -0.17029574736E+03  0.18721531753E+04  0.18894540032E+04  0.25500000920E-02 0.  1.
</event>
<event>
 5   0  0.9341000E-08  0.3705064E+04  0.7818609E-02  0.8066841E-01
       -1   -1    0    0    0  501  0.00000000000E+00  0.00000000000E+00  0.15672750037E+04  0.15672750037E+04  0.50400001928E-02 0.  1.
        1   -1    0    0  501    0  0.00000000000E+00  0.00000000000E+00 -0.21897075366E+04  0.21897075366E+04  0.50400001928E-02 0. -1.
    10030    2    1    2    0    0  0.00000000000E+00  0.00000000000E+00 -0.62243253293E+03  0.37569825403E+04  0.37050635015E+04 0.  0.
        1    1    3    3  502    0  0.74619338299E+03  0.68691063806E+03  0.12607403851E+04  0.16180596738E+04  0.50400001928E-02 0.  1.
       -1    1    3    3    0  502 -0.74619338299E+03 -0.68691063806E+03 -0.18831729180E+04  0.21389228665E+04  0.50400001928E-02 0. -1.
</event>
<event>
 5   0  0.2897133E-07  0.3620843E+04  0.7818609E-02  0.8085734E-01
       -2   -1    0    0    0  501  0.00000000000E+00  0.00000000000E+00  0.13654046957E+04  0.13654046957E+04  0.25500000920E-02 0. -1.
        2   -1    0    0  501    0  0.00000000000E+00  0.00000000000E+00 -0.24004788837E+04  0.24004788837E+04  0.25500000920E-02 0.  1.
    10030    2    1    2    0    0  0.00000000000E+00  0.00000000000E+00 -0.10350741879E+04  0.37658835794E+04  0.36208425206E+04 0.  0.
        4    1    3    3  502    0  0.96854937441E+02 -0.12763939220E+04 -0.18490789987E+04  0.22489235379E+04  0.12699999809E+01 0.  1.
       -4    1    3    3    0  502 -0.96854937441E+02  0.12763939220E+04  0.81400481072E+03  0.15169600416E+04  0.12699999809E+01 0. -1.
</event>
<event>
 5   0  0.9341000E-08  0.3716326E+04  0.7818609E-02  0.8064353E-01
       -1   -1    0    0    0  501  0.00000000000E+00  0.00000000000E+00  0.15492349687E+04  0.15492349687E+04  0.50400001928E-02 0. -1.
        1   -1    0    0  501    0  0.00000000000E+00  0.00000000000E+00 -0.22286931283E+04  0.22286931283E+04  0.50400001928E-02 0.  1.
    10030    2    1    2    0    0  0.00000000000E+00  0.00000000000E+00 -0.67945815966E+03  0.37779280970E+04  0.37163257817E+04 0.  0.
        4    1    3    3  502    0 -0.12216424668E+04 -0.11987407256E+04 -0.10751697982E+04  0.20212326318E+04  0.12699999809E+01 0.  1.
       -4    1    3    3    0  502  0.12216424668E+04  0.11987407256E+04  0.39571163855E+03  0.17566954652E+04  0.12699999809E+01 0. -1.
</event>
<event>
 5   0  0.2897133E-07  0.3719220E+04  0.7818609E-02  0.8063716E-01
       -2   -1    0    0    0  501  0.00000000000E+00  0.00000000000E+00  0.15937266110E+04  0.15937266110E+04  0.25500000920E-02 0.  1.
        2   -1    0    0  501    0  0.00000000000E+00  0.00000000000E+00 -0.21698506126E+04  0.21698506126E+04  0.25500000920E-02 0. -1.
    10030    2    1    2    0    0  0.00000000000E+00  0.00000000000E+00 -0.57612400165E+03  0.37635772236E+04  0.37192196296E+04 0.  0.
        4    1    3    3  502    0  0.86463534384E+03  0.90079772952E+03  0.11064580984E+04  0.16683171053E+04  0.12699999809E+01 0.  1.
       -4    1    3    3    0  502 -0.86463534384E+03 -0.90079772952E+03 -0.16825821000E+04  0.20952601184E+04  0.12699999809E+01 0. -1.
</event>
<event>
 5   0  0.9646615E-08  0.3694035E+04  0.7818609E-02  0.8069285E-01
       -1   -1    0    0    0  501  0.00000000000E+00  0.00000000000E+00  0.18468018423E+04  0.18468018423E+04  0.50400001928E-02 0.  1.
        1   -1    0    0  501    0  0.00000000000E+00  0.00000000000E+00 -0.18472336114E+04  0.18472336114E+04  0.50400001928E-02 0. -1.
    10030    2    1    2    0    0  0.00000000000E+00  0.00000000000E+00 -0.43176908993E+00  0.36940354537E+04  0.36940354285E+04 0.  0.
        2    1    3    3  502    0 -0.75550010104E+03  0.16833560056E+04  0.83489506340E+02  0.18470079432E+04  0.25500000920E-02 0.  1.
       -2    1    3    3    0  502  0.75550010104E+03 -0.16833560056E+04 -0.83921275430E+02  0.18470275106E+04  0.25500000920E-02 0. -1.
</event>
<event>
 5   0  0.2996969E-07  0.3680737E+04  0.7818609E-02  0.8072244E-01
        2   -1    0    0  501    0  0.00000000000E+00  0.00000000000E+00  0.16722786038E+04  0.16722786038E+04  0.25500000920E-02 0.  1.
       -2   -1    0    0    0  501  0.00000000000E+00  0.00000000000E+00 -0.20253536884E+04  0.20253536884E+04  0.25500000920E-02 0. -1.
    10030    2    1    2    0    0  0.00000000000E+00  0.00000000000E+00 -0.35307508453E+03  0.36976322922E+04  0.36807366862E+04 0.  0.
        1    1    3    3  502    0 -0.44335720357E+03  0.12244468462E+04  0.11298624749E+04  0.17240721856E+04  0.50400001928E-02 0.  1.
       -1    1    3    3    0  502  0.44335720357E+03 -0.12244468462E+04 -0.14829375594E+04  0.19735601066E+04  0.50400001928E-02 0. -1.
</event>
<event>
 5   0  0.9341000E-08  0.3675648E+04  0.7818609E-02  0.8073380E-01
       -1   -1    0    0    0  501  0.00000000000E+00  0.00000000000E+00  0.13169469451E+04  0.13169469451E+04  0.50400001928E-02 0. -1.
        1   -1    0    0  501    0  0.00000000000E+00  0.00000000000E+00 -0.25647169578E+04  0.25647169578E+04  0.50400001928E-02 0.  1.
    10030    2    1    2    0    0  0.00000000000E+00  0.00000000000E+00 -0.12477700127E+04  0.38816639030E+04  0.36756475145E+04 0.  0.
        3    1    3    3  502    0  0.55210732441E+03  0.12152553638E+04 -0.19579922025E+04  0.23696838549E+04  0.10100000352E+00 0.  1.
       -3    1    3    3    0  502 -0.55210732441E+03 -0.12152553638E+04  0.71022218978E+03  0.15119800481E+04  0.10100000352E+00 0. -1.
</event>
<event>
 5   0  0.9341000E-08  0.3705317E+04  0.7818609E-02  0.8066785E-01
       -1   -1    0    0    0  501  0.00000000000E+00  0.00000000000E+00  0.13268065679E+04  0.13268065679E+04  0.50400001928E-02 0.  1.
        1   -1    0    0  501    0  0.00000000000E+00  0.00000000000E+00 -0.25869207380E+04  0.25869207380E+04  0.50400001928E-02 0. -1.
    10030    2    1    2    0    0  0.00000000000E+00  0.00000000000E+00 -0.12601141701E+04  0.39137273059E+04  0.37053169505E+04 0.  0.
        1    1    3    3  502    0 -0.77140453205E+03 -0.11185130729E+04  0.70022924225E+03  0.15285474929E+04  0.50400001928E-02 0.  1.
       -1    1    3    3    0  502  0.77140453205E+03  0.11185130729E+04 -0.19603434124E+04  0.23851798131E+04  0.50400001928E-02 0. -1.
</event>
<event>
 5   0  0.9341000E-08  0.3663571E+04  0.7818609E-02  0.8076083E-01
       -1   -1    0    0    0  501  0.00000000000E+00  0.00000000000E+00  0.13798391611E+04  0.13798391611E+04  0.50400001928E-02 0. -1.
        1   -1    0    0  501    0  0.00000000000E+00  0.00000000000E+00 -0.24317607271E+04  0.24317607271E+04  0.50400001928E-02 0.  1.
    10030    2    1    2    0    0  0.00000000000E+00  0.00000000000E+00 -0.10519215660E+04  0.38115998882E+04  0.36635713077E+04 0.  0.
        3    1    3    3  502    0 -0.13052330487E+04  0.40938052381E+03 -0.17934689440E+04  0.22556055923E+04  0.10100000352E+00 0.  1.
       -3    1    3    3    0  502  0.13052330487E+04 -0.40938052381E+03  0.74154737797E+03  0.15559942959E+04  0.10100000352E+00 0. -1.
</event>
<event>
 5   0  0.3032442E-07  0.3706119E+04  0.7818609E-02  0.8066607E-01
       -2   -1    0    0    0  501  0.00000000000E+00  0.00000000000E+00  0.13732179764E+04  0.13732179764E+04  0.25500000920E-02 0. -1.
        2   -1    0    0  501    0  0.00000000000E+00  0.00000000000E+00 -0.25005711900E+04  0.25005711900E+04  0.25500000920E-02 0.  1.
    10030    2    1    2    0    0  0.00000000000E+00  0.00000000000E+00 -0.11273532136E+04  0.38737891664E+04  0.37061188914E+04 0.  0.
        3    1    3    3  502    0  0.75633254360E+02 -0.48559627316E+03 -0.24312119670E+04  0.24803862136E+04  0.10100000352E+00 0.  1.
       -3    1    3    3    0  502 -0.75633254360E+02  0.48559627316E+03  0.13038587534E+04  0.13934029528E+04  0.10100000352E+00 0. -1.
</event>
<event>
 5   0  0.3008879E-07  0.3695603E+04  0.7818609E-02  0.8068937E-01
       -2   -1    0    0    0  501  0.00000000000E+00  0.00000000000E+00  0.16785537749E+04  0.16785537749E+04  0.25500000920E-02 0.  1.
        2   -1    0    0  501    0  0.00000000000E+00  0.00000000000E+00 -0.20341143583E+04  0.20341143583E+04  0.25500000920E-02 0. -1.
    10030    2    1    2    0    0  0.00000000000E+00  0.00000000000E+00 -0.35556058337E+03  0.37126681331E+04  0.36956029736E+04 0.  0.
        2    1    3    3  502    0  0.17578321586E+04  0.30923279383E+03 -0.65828959172E+03  0.19023522295E+04  0.25500000920E-02 0.  1.
       -2    1    3    3    0  502 -0.17578321586E+04 -0.30923279383E+03  0.30272900835E+03  0.18103159036E+04  0.25500000920E-02 0. -1.
</event>
<event>
 5   0  0.9341000E-08  0.3693990E+04  0.7818609E-02  0.8069295E-01
       -1   -1    0    0    0  501  0.00000000000E+00  0.00000000000E+00  0.11813761946E+04  0.11813761946E+04  0.50400001928E-02 0.  1.
        1   -1    0    0  501    0  0.00000000000E+00  0.00000000000E+00 -0.28876413324E+04  0.28876413324E+04  0.50400001928E-02 0. -1.
    10030    2    1    2    0    0  0.00000000000E+00  0.00000000000E+00 -0.17062651378E+04  0.40690175270E+04  0.36939901076E+04 0.  0.
        4    1    3    3  502    0 -0.61875967987E+03 -0.16861746646E+04 -0.37891342173E+03  0.18356539802E+04  0.12699999809E+01 0.  1.
       -4    1    3    3    0  502  0.61875967987E+03  0.16861746646E+04 -0.13273517161E+04  0.22333635468E+04  0.12699999809E+01 0. -1.
</event>
<event>
 5   0  0.2996969E-07  0.3709200E+04  0.7818609E-02  0.8065926E-01
        2   -1    0    0  501    0  0.00000000000E+00  0.00000000000E+00  0.24406008207E+04  0.24406008207E+04  0.25500000920E-02 0.  1.
       -2   -1    0    0    0  501  0.00000000000E+00  0.00000000000E+00 -0.14093006156E+04  0.14093006156E+04  0.25500000920E-02 0. -1.
    10030    2    1    2    0    0  0.00000000000E+00  0.00000000000E+00  0.10313002051E+04  0.38499014362E+04  0.37091995034E+04 0.  0.
        1    1    3    3  502    0 -0.10601658891E+04 -0.72531685779E+03 -0.87281750619E+03  0.15530121235E+04  0.50400001928E-02 0. -1.
       -1    1    3    3    0  502  0.10601658891E+04  0.72531685779E+03  0.19041177113E+04  0.22968893128E+04  0.50400001928E-02 0.  1.
</event>
<event>
 5   0  0.2913025E-07  0.3621117E+04  0.7818609E-02  0.8085672E-01
       -2   -1    0    0    0  501  0.00000000000E+00  0.00000000000E+00  0.14366670112E+04  0.14366670112E+04  0.25500000920E-02 0.  1.
        2   -1    0    0  501    0  0.00000000000E+00  0.00000000000E+00 -0.22817552242E+04  0.22817552242E+04  0.25500000920E-02 0. -1.
    10030    2    1    2    0    0  0.00000000000E+00  0.00000000000E+00 -0.84508821297E+03  0.37184222354E+04  0.36211172079E+04 0.  0.
        5    1    3    3  502    0  0.88897879317E+03  0.74399133424E+03  0.10056175205E+04  0.15346319062E+04  0.46999998093E+01 0.  1.
       -5    1    3    3    0  502 -0.88897879317E+03 -0.74399133424E+03 -0.18507057334E+04  0.21837903292E+04  0.46999998093E+01 0. -1.
</event>
<event>
 5   0  0.9341000E-08  0.3696458E+04  0.7818609E-02  0.8068747E-01
        1   -1    0    0  501    0  0.00000000000E+00  0.00000000000E+00  0.19714502047E+04  0.19714502047E+04  0.50400001928E-02 0. -1.
       -1   -1    0    0    0  501  0.00000000000E+00  0.00000000000E+00 -0.17327095109E+04  0.17327095110E+04  0.50400001928E-02 0.  1.
    10030    2    1    2    0    0  0.00000000000E+00  0.00000000000E+00  0.23874069371E+03  0.37041597156E+04  0.36964580452E+04 0.  0.
        4    1    3    3  502    0 -0.17184787784E+04  0.29350480945E+03 -0.49561389168E+03  0.18124428618E+04  0.12699999809E+01 0.  1.
       -4    1    3    3    0  502  0.17184787784E+04 -0.29350480945E+03  0.73435458539E+03  0.18917168538E+04  0.12699999809E+01 0. -1.
</event>
<event>
 5   0  0.2996969E-07  0.3683458E+04  0.7818609E-02  0.8071638E-01
        2   -1    0    0  501    0  0.00000000000E+00  0.00000000000E+00  0.20940257076E+04  0.20940257076E+04  0.25500000920E-02 0. -1.
       -2   -1    0    0    0  501  0.00000000000E+00  0.00000000000E+00 -0.16198298945E+04  0.16198298945E+04  0.25500000920E-02 0.  1.
    10030    2    1    2    0    0  0.00000000000E+00  0.00000000000E+00  0.47419581302E+03  0.37138556021E+04  0.36834578543E+04 0.  0.
        1    1    3    3  502    0  0.10737273726E+04 -0.63277522765E+03 -0.11300681296E+04  0.16823640917E+04  0.50400001928E-02 0.  1.
       -1    1    3    3    0  502 -0.10737273726E+04  0.63277522765E+03  0.16042639426E+04  0.20314915104E+04  0.50400001928E-02 0. -1.
</event>
<event>
 5   0  0.9341000E-08  0.3632902E+04  0.7818609E-02  0.8082996E-01
        1   -1    0    0  501    0  0.00000000000E+00  0.00000000000E+00  0.29298768322E+04  0.29298768322E+04  0.50400001928E-02 0.  1.
       -1   -1    0    0    0  501  0.00000000000E+00  0.00000000000E+00 -0.11261545280E+04  0.11261545280E+04  0.50400001928E-02 0. -1.
    10030    2    1    2    0    0  0.00000000000E+00  0.00000000000E+00  0.18037223042E+04  0.40560313602E+04  0.36329019040E+04 0.  0.
        1    1    3    3  502    0 -0.63003326530E+03 -0.12995172667E+04  0.21319102740E+04  0.25750200890E+04  0.50400001928E-02 0.  1.
       -1    1    3    3    0  502  0.63003326530E+03  0.12995172667E+04 -0.32818796980E+03  0.14810112712E+04  0.50400001928E-02 0. -1.
</event>
<event>
 5   0  0.2996969E-07  0.3692724E+04  0.7818609E-02  0.8069576E-01
       -2   -1    0    0    0  501  0.00000000000E+00  0.00000000000E+00  0.17554996402E+04  0.17554996402E+04  0.25500000920E-02 0. -1.
        2   -1    0    0  501    0  0.00000000000E+00  0.00000000000E+00 -0.19419277028E+04  0.19419277028E+04  0.25500000920E-02 0.  1.
    10030    2    1    2    0    0  0.00000000000E+00  0.00000000000E+00 -0.18642806260E+03  0.36974273430E+04  0.36927244054E+04 0.  0.
        1    1    3    3  502    0  0.16280209591E+04  0.72325867831E+02  0.77586034286E+03  0.18048940540E+04  0.50400001928E-02 0. -1.
       -1    1    3    3    0  502 -0.16280209591E+04 -0.72325867831E+02 -0.96228840547E+03  0.18925332890E+04  0.50400001928E-02 0.  1.
</event>
<event>
 5   0  0.9341000E-08  0.3682206E+04  0.7818609E-02  0.8071917E-01
       -1   -1    0    0    0  501  0.00000000000E+00  0.00000000000E+00  0.29472648408E+04  0.29472648408E+04  0.50400001928E-02 0. -1.
        1   -1    0    0  501    0  0.00000000000E+00  0.00000000000E+00 -0.11501038807E+04  0.11501038807E+04  0.50400001928E-02 0.  1.
    10030    2    1    2    0    0  0.00000000000E+00  0.00000000000E+00  0.17971609601E+04  0.40973687215E+04  0.36822062576E+04 0.  0.
        4    1    3    3  502    0 -0.91828175137E+03 -0.14474543130E+04  0.16461069884E+04  0.23765595287E+04  0.12699999809E+01 0. -1.
       -4    1    3    3    0  502  0.91828175137E+03  0.14474543130E+04  0.15105397172E+03  0.17208091929E+04  0.12699999809E+01 0.  1.
</event>
<event>
 5   0  0.3008879E-07  0.3691008E+04  0.7818609E-02  0.8069957E-01
        2   -1    0    0  501    0  0.00000000000E+00  0.00000000000E+00  0.17329164721E+04  0.17329164721E+04  0.25500000920E-02 0.  1.
       -2   -1    0    0    0  501  0.00000000000E+00  0.00000000000E+00 -0.19654062910E+04  0.19654062910E+04  0.25500000920E-02 0. -1.
    10030    2    1    2    0    0  0.00000000000E+00  0.00000000000E+00 -0.23248981890E+03  0.36983227631E+04  0.36910079578E+04 0.  0.
        2    1    3    3  502    0  0.97374589893E+03  0.39833269675E+01 -0.16870532659E+04  0.19479080226E+04  0.25500000920E-02 0. -1.
       -2    1    3    3    0  502 -0.97374589893E+03 -0.39833269675E+01  0.14545634470E+04  0.17504147405E+04  0.25500000920E-02 0.  1.
</event>
<event>
 5   0  0.3008879E-07  0.3699776E+04  0.7818609E-02  0.8068011E-01
       -2   -1    0    0    0  501  0.00000000000E+00  0.00000000000E+00  0.10595857194E+04  0.10595857194E+04  0.25500000920E-02 0. -1.
        2   -1    0    0  501    0  0.00000000000E+00  0.00000000000E+00 -0.32296457524E+04  0.32296457524E+04  0.25500000920E-02 0.  1.
    10030    2    1    2    0    0  0.00000000000E+00  0.00000000000E+00 -0.21700600330E+04  0.42892314718E+04  0.36997764894E+04 0.  0.
        2    1    3    3  502    0 -0.10464783701E+04 -0.15007168134E+04 -0.76792089046E+03  0.19841800390E+04  0.25500000920E-02 0.  1.
       -2    1    3    3    0  502  0.10464783701E+04  0.15007168134E+04 -0.14021391425E+04  0.23050514328E+04  0.25500000920E-02 0. -1.
</event>
<event>
 5   0  0.9341000E-08  0.3664235E+04  0.7818609E-02  0.8075934E-01
        1   -1    0    0  501    0  0.00000000000E+00  0.00000000000E+00  0.17858479546E+04  0.17858479546E+04  0.50400001928E-02 0. -1.
       -1   -1    0    0    0  501  0.00000000000E+00  0.00000000000E+00 -0.18795860989E+04  0.18795860989E+04  0.50400001928E-02 0.  1.
    10030    2    1    2    0    0  0.00000000000E+00  0.00000000000E+00 -0.93738144256E+02  0.36654340535E+04  0.36642352491E+04 0.  0.
        4    1    3    3  502    0  0.22317610971E+03  0.15586678309E+04 -0.98387205786E+03  0.18566795152E+04  0.12699999809E+01 0.  1.
       -4    1    3    3    0  502 -0.22317610971E+03 -0.15586678309E+04  0.89013391361E+03  0.18087545383E+04  0.12699999809E+01 0. -1.
</event>
<event>
 5   0  0.9418945E-08  0.3711156E+04  0.7818609E-02  0.8065494E-01
        1   -1    0    0  501    0  0.00000000000E+00  0.00000000000E+00  0.20660336615E+04  0.20660336615E+04  0.50400001928E-02 0. -1.
       -1   -1    0    0    0  501  0.00000000000E+00  0.00000000000E+00 -0.16665600110E+04  0.16665600110E+04  0.50400001928E-02 0.  1.
    10030    2    1    2    0    0  0.00000000000E+00  0.00000000000E+00  0.39947365053E+03  0.37325936726E+04  0.37111556592E+04 0.  0.
        5    1    3    3  502    0  0.86448666612E+03 -0.11127431900E+02  0.18510756607E+04  0.20430281954E+04  0.46999998093E+01 0. -1.
       -5    1    3    3    0  502 -0.86448666612E+03  0.11127431900E+02 -0.14516020102E+04  0.16895654771E+04  0.46999998093E+01 0.  1.
</event>
<event>
 5   0  0.9646615E-08  0.3692845E+04  0.7818609E-02  0.8069549E-01
       -1   -1    0    0    0  501  0.00000000000E+00  0.00000000000E+00  0.12785427201E+04  0.12785427201E+04  0.50400001928E-02 0. -1.
        1   -1    0    0  501    0  0.00000000000E+00  0.00000000000E+00 -0.26665334353E+04  0.26665334353E+04  0.50400001928E-02 0.  1.
    10030    2    1    2    0    0  0.00000000000E+00  0.00000000000E+00 -0.13879907152E+04  0.39450761554E+04  0.36928454674E+04 0.  0.
        2    1    3    3  502    0  0.68191625568E+02 -0.18446344265E+04 -0.64681257983E+03  0.19559378259E+04  0.25500000920E-02 0.  1.
       -2    1    3    3    0  502 -0.68191625568E+02  0.18446344265E+04 -0.74117813540E+03  0.19891383295E+04  0.25500000920E-02 0. -1.
</event>
<event>
 5   0  0.3032442E-07  0.3684628E+04  0.7818609E-02  0.8071377E-01
       -2   -1    0    0    0  501  0.00000000000E+00  0.00000000000E+00  0.11710441149E+04  0.11710441149E+04  0.25500000920E-02 0. -1.
        2   -1    0    0  501    0  0.00000000000E+00  0.00000000000E+00 -0.28983711156E+04  0.28983711156E+04  0.25500000920E-02 0.  1.
    10030    2    1    2    0    0  0.00000000000E+00  0.00000000000E+00 -0.17273270006E+04  0.40694152305E+04  0.36846277629E+04 0.  0.
        3    1    3    3  502    0  0.90732120495E+03  0.13234896097E+04 -0.18633188591E+04  0.24590269817E+04  0.10100000352E+00 0.  1.
       -3    1    3    3    0  502 -0.90732120495E+03 -0.13234896097E+04  0.13599185852E+03  0.16103882487E+04  0.10100000352E+00 0. -1.
</event>
<event>
 5   0  0.9646615E-08  0.3611973E+04  0.7818609E-02  0.8087755E-01
        1   -1    0    0  501    0  0.00000000000E+00  0.00000000000E+00  0.16232417611E+04  0.16232417611E+04  0.50400001928E-02 0. -1.
       -1   -1    0    0    0  501  0.00000000000E+00  0.00000000000E+00 -0.20093044761E+04  0.20093044761E+04  0.50400001928E-02 0.  1.
    10030    2    1    2    0    0  0.00000000000E+00  0.00000000000E+00 -0.38606271500E+03  0.36325462372E+04  0.36119728329E+04 0.  0.
        2    1    3    3  502    0  0.33106786979E+03 -0.17750103234E+04 -0.15650155495E+03  0.18123907744E+04  0.25500000920E-02 0.  1.
       -2    1    3    3    0  502 -0.33106786979E+03  0.17750103234E+04 -0.22956116005E+03  0.18201554628E+04  0.25500000920E-02 0. -1.
</event>
<event>
 5   0  0.9341000E-08  0.3707478E+04  0.7818609E-02  0.8066307E-01
       -1   -1    0    0    0  501  0.00000000000E+00  0.00000000000E+00  0.32341785240E+04  0.32341785240E+04  0.50400001928E-02 0.  1.
        1   -1    0    0  501    0  0.00000000000E+00  0.00000000000E+00 -0.10625101464E+04  0.10625101465E+04  0.50400001928E-02 0. -1.
    10030    2    1    2    0    0  0.00000000000E+00  0.00000000000E+00  0.21716683776E+04  0.42966886705E+04  0.37074775777E+04 0.  0.
        1    1    3    3  502    0 -0.15534771065E+04  0.81185136215E+03  0.38667117085E+03  0.17949675064E+04  0.50400001928E-02 0. -1.
       -1    1    3    3    0  502  0.15534771065E+04 -0.81185136215E+03  0.17849972067E+04  0.25017211641E+04  0.50400001928E-02 0.  1.
</event>
<event>
 5   0  0.2996969E-07  0.3687239E+04  0.7818609E-02  0.8070796E-01
        2   -1    0    0  501    0  0.00000000000E+00  0.00000000000E+00  0.26220804324E+04  0.26220804324E+04  0.25500000920E-02 0. -1.
       -2   -1    0    0    0  501  0.00000000000E+00  0.00000000000E+00 -0.12962734893E+04  0.12962734893E+04  0.25500000920E-02 0.  1.
    10030    2    1    2    0    0  0.00000000000E+00  0.00000000000E+00  0.13258069430E+04  0.39183539217E+04  0.36872392661E+04 0.  0.
        1    1    3    3  502    0  0.17675950956E+04  0.50757130675E+03  0.52470486827E+03  0.19124163386E+04  0.50400001928E-02 0. -1.
       -1    1    3    3    0  502 -0.17675950956E+04 -0.50757130675E+03  0.80110207477E+03  0.20059375831E+04  0.50400001928E-02 0.  1.
</event>
<event>
 5   0  0.9341000E-08  0.3712411E+04  0.7818609E-02  0.8065217E-01
       -3   -1    0    0    0  501  0.00000000000E+00  0.00000000000E+00  0.25318965932E+04  0.25318965952E+04  0.10100000352E+00 0. -1.
        3   -1    0    0  501    0  0.00000000000E+00  0.00000000000E+00 -0.13608368553E+04  0.13608368590E+04  0.10100000352E+00 0.  1.
    10030    2    1    2    0    0  0.00000000000E+00  0.00000000000E+00  0.11710597379E+04  0.38927334542E+04  0.37124106502E+04 0.  0.
        5    1    3    3  502    0 -0.82279385789E+03  0.41554005544E+03  0.22749409810E+04  0.24545960619E+04  0.46999998093E+01 0. -1.
       -5    1    3    3    0  502  0.82279385789E+03 -0.41554005544E+03 -0.11038812431E+04  0.14381373923E+04  0.46999998093E+01 0.  1.
</event>
<event>
 5   0  0.9418945E-08  0.3676942E+04  0.7818609E-02  0.8073091E-01
       -1   -1    0    0    0  501  0.00000000000E+00  0.00000000000E+00  0.15888582001E+04  0.15888582001E+04  0.50400001928E-02 0. -1.
        1   -1    0    0  501    0  0.00000000000E+00  0.00000000000E+00 -0.21272981401E+04  0.21272981401E+04  0.50400001928E-02 0.  1.
    10030    2    1    2    0    0  0.00000000000E+00  0.00000000000E+00 -0.53843994007E+03  0.37161563402E+04  0.36769417150E+04 0.  0.
        5    1    3    3  502    0 -0.11814597056E+04  0.71661913140E+03 -0.14948208007E+04  0.20356574691E+04  0.46999998093E+01 0.  1.
       -5    1    3    3    0  502  0.11814597056E+04 -0.71661913140E+03  0.95638086058E+03  0.16804988711E+04  0.46999998093E+01 0. -1.
</event>
<event>
 5   0  0.3008879E-07  0.3435072E+04  0.7818609E-02  0.8129352E-01
       -2   -1    0    0    0  501  0.00000000000E+00  0.00000000000E+00  0.10190915990E+04  0.10190915990E+04  0.25500000920E-02 0. -1.
        2   -1    0    0  501    0  0.00000000000E+00  0.00000000000E+00 -0.28946653020E+04  0.28946653020E+04  0.25500000920E-02 0.  1.
    10030    2    1    2    0    0  0.00000000000E+00  0.00000000000E+00 -0.18755737029E+04  0.39137569010E+04  0.34350715225E+04 0.  0.
        2    1    3    3  502    0 -0.48191014431E+03  0.93411475816E+03  0.60985521652E+03  0.12152082759E+04  0.25500000920E-02 0. -1.
       -2    1    3    3    0  502  0.48191014431E+03 -0.93411475816E+03 -0.24854289194E+04  0.26985486251E+04  0.25500000920E-02 0.  1.
</event>
<event>
 5   0  0.3008879E-07  0.3706027E+04  0.7818609E-02  0.8066627E-01
        2   -1    0    0  501    0  0.00000000000E+00  0.00000000000E+00  0.11898296848E+04  0.11898296848E+04  0.25500000920E-02 0. -1.
       -2   -1    0    0    0  501  0.00000000000E+00  0.00000000000E+00 -0.28858406911E+04  0.28858406911E+04  0.25500000920E-02 0.  1.
    10030    2    1    2    0    0  0.00000000000E+00  0.00000000000E+00 -0.16960110062E+04  0.40756703759E+04  0.37060269400E+04 0.  0.
        2    1    3    3  502    0 -0.17703229262E+04  0.51595224791E+03 -0.10490174150E+04  0.21214823879E+04  0.25500000920E-02 0.  1.
       -2    1    3    3    0  502  0.17703229262E+04 -0.51595224791E+03 -0.64699359128E+03  0.19541879880E+04  0.25500000920E-02 0. -1.
</event>
<event>
 5   0  0.9341000E-08  0.3389181E+04  0.7818609E-02  0.8140567E-01
        1   -1    0    0  501    0  0.00000000000E+00  0.00000000000E+00  0.25904933927E+04  0.25904933927E+04  0.50400001928E-02 0.  1.
       -1   -1    0    0    0  501  0.00000000000E+00  0.00000000000E+00 -0.11085286881E+04  0.11085286881E+04  0.50400001928E-02 0. -1.
    10030    2    1    2    0    0  0.00000000000E+00  0.00000000000E+00  0.14819647046E+04  0.36990220807E+04  0.33891805747E+04 0.  0.
        3    1    3    3  502    0 -0.16187702545E+04  0.45973193138E+03  0.95889960730E+03  0.19368167318E+04  0.10100000352E+00 0.  1.
       -3    1    3    3    0  502  0.16187702545E+04 -0.45973193138E+03  0.52306509732E+03  0.17622053489E+04  0.10100000352E+00 0. -1.
</event>
<event>
 5   0  0.2913025E-07  0.3686351E+04  0.7818609E-02  0.8070993E-01
        2   -1    0    0  501    0  0.00000000000E+00  0.00000000000E+00  0.19722404188E+04  0.19722404188E+04  0.25500000920E-02 0. -1.
       -2   -1    0    0    0  501  0.00000000000E+00  0.00000000000E+00 -0.17225570278E+04  0.17225570278E+04  0.25500000920E-02 0.  1.
    10030    2    1    2    0    0  0.00000000000E+00  0.00000000000E+00  0.24968339099E+03  0.36947974467E+04  0.36863513636E+04 0.  0.
        5    1    3    3  502    0 -0.13830663341E+04 -0.32620523141E+02  0.13455557844E+04  0.19298909404E+04  0.46999998093E+01 0. -1.
       -5    1    3    3    0  502  0.13830663341E+04  0.32620523141E+02 -0.10958723934E+04  0.17649065062E+04  0.46999998093E+01 0.  1.
</event>
<event>
 5   0  0.9341000E-08  0.3643076E+04  0.7818609E-02  0.8080695E-01
       -1   -1    0    0    0  501  0.00000000000E+00  0.00000000000E+00  0.15391480559E+04  0.15391480560E+04  0.50400001928E-02 0.  1.
        1   -1    0    0  501    0  0.00000000000E+00  0.00000000000E+00 -0.21557387314E+04  0.21557387314E+04  0.50400001928E-02 0. -1.
    10030    2    1    2    0    0  0.00000000000E+00  0.00000000000E+00 -0.61659067547E+03  0.36948867874E+04  0.36430762153E+04 0.  0.
        4    1    3    3  502    0 -0.71889722956E+03 -0.15977903052E+04  0.19703990589E+03  0.17631146937E+04  0.12699999809E+01 0.  1.
       -4    1    3    3    0  502  0.71889722956E+03  0.15977903052E+04 -0.81363058136E+03  0.19317720936E+04  0.12699999809E+01 0. -1.
</event>
<event>
 5   0  0.3008879E-07  0.3707412E+04  0.7818609E-02  0.8066321E-01
       -2   -1    0    0    0  501  0.00000000000E+00  0.00000000000E+00  0.18176520125E+04  0.18176520125E+04  0.25500000920E-02 0.  1.
        2   -1    0    0  501    0  0.00000000000E+00  0.00000000000E+00 -0.18904755116E+04  0.18904755116E+04  0.25500000920E-02 0. -1.
    10030    2    1    2    0    0  0.00000000000E+00  0.00000000000E+00 -0.72823499098E+02  0.37081275241E+04  0.37074123689E+04 0.  0.
        2    1    3    3  502    0 -0.15719252861E+03 -0.13237103406E+04  0.12519780518E+04  0.18287612198E+04  0.25500000920E-02 0.  1.
       -2    1    3    3    0  502  0.15719252861E+03  0.13237103406E+04 -0.13248015509E+04  0.18793663044E+04  0.25500000920E-02 0. -1.
</event>
<event>
 5   0  0.9418945E-08  0.3713071E+04  0.7818609E-02  0.8065071E-01
        1   -1    0    0  501    0  0.00000000000E+00  0.00000000000E+00  0.19964413949E+04  0.19964413949E+04  0.50400001928E-02 0.  1.
       -1   -1    0    0    0  501  0.00000000000E+00  0.00000000000E+00 -0.17264340324E+04  0.17264340324E+04  0.50400001928E-02 0. -1.
    10030    2    1    2    0    0  0.00000000000E+00  0.00000000000E+00  0.27000736254E+03  0.37228754273E+04  0.37130711644E+04 0.  0.
        5    1    3    3  502    0 -0.24220574917E+03  0.14204749236E+04  0.13086883165E+04  0.19465610274E+04  0.46999998093E+01 0.  1.
       -5    1    3    3    0  502  0.24220574917E+03 -0.14204749236E+04 -0.10386809539E+04  0.17763144000E+04  0.46999998093E+01 0. -1.
</event>
<event>
 5   0  0.9341000E-08  0.3696112E+04  0.7818609E-02  0.8068824E-01
       -3   -1    0    0    0  501  0.00000000000E+00  0.00000000000E+00  0.18387401897E+04  0.18387401924E+04  0.10100000352E+00 0. -1.
        3   -1    0    0  501    0  0.00000000000E+00  0.00000000000E+00 -0.18574185453E+04  0.18574185480E+04  0.10100000352E+00 0.  1.
    10030    2    1    2    0    0  0.00000000000E+00  0.00000000000E+00 -0.18678355585E+02  0.36961587404E+04  0.36961115451E+04 0.  0.
        5    1    3    3  502    0  0.10249558236E+04  0.10800829644E+04  0.10852863276E+04  0.18425477343E+04  0.46999998093E+01 0. -1.
       -5    1    3    3    0  502 -0.10249558236E+04 -0.10800829644E+04 -0.11039646832E+04  0.18536110061E+04  0.46999998093E+01 0.  1.
</event>
<event>
 5   0  0.9646615E-08  0.3765672E+04  0.7818609E-02  0.8053562E-01
        1   -1    0    0  501    0  0.00000000000E+00  0.00000000000E+00  0.13903376439E+04  0.13903376439E+04  0.50400001928E-02 0. -1.
       -1   -1    0    0    0  501  0.00000000000E+00  0.00000000000E+00 -0.25497912321E+04  0.25497912321E+04  0.50400001928E-02 0.  1.
    10030    2    1    2    0    0  0.00000000000E+00  0.00000000000E+00 -0.11594535882E+04  0.39401288760E+04  0.37656716448E+04 0.  0.
        2    1    3    3  502    0 -0.80315745969E+03  0.13639613026E+04  0.48712712394E+03  0.16561235385E+04  0.25500000920E-02 0. -1.
       -2    1    3    3    0  502  0.80315745969E+03 -0.13639613026E+04 -0.16465807122E+04  0.22840053375E+04  0.25500000920E-02 0.  1.
</event>
<event>
 5   0  0.9418945E-08  0.3641097E+04  0.7818609E-02  0.8081142E-01
        1   -1    0    0  501    0  0.00000000000E+00  0.00000000000E+00  0.19067487400E+04  0.19067487400E+04  0.50400001928E-02 0. -1.
       -1   -1    0    0    0  501  0.00000000000E+00  0.00000000000E+00 -0.17382447333E+04  0.17382447333E+04  0.50400001928E-02 0.  1.
    10030    2    1    2    0    0  0.00000000000E+00  0.00000000000E+00  0.16850400670E+03  0.36449934734E+04  0.36410965135E+04 0.  0.
        5    1    3    3  502    0  0.35562439000E+03 -0.30320874224E+03  0.18456719465E+04  0.19039252276E+04  0.46999998093E+01 0. -1.
       -5    1    3    3    0  502 -0.35562439000E+03  0.30320874224E+03 -0.16771679398E+04  0.17410682458E+04  0.46999998093E+01 0.  1.
</event>
<event>
 5   0  0.3008879E-07  0.3697756E+04  0.7818609E-02  0.8068459E-01
        2   -1    0    0  501    0  0.00000000000E+00  0.00000000000E+00  0.25557390799E+04  0.25557390799E+04  0.25500000920E-02 0.  1.
       -2   -1    0    0    0  501  0.00000000000E+00  0.00000000000E+00 -0.13375189930E+04  0.13375189930E+04  0.25500000920E-02 0. -1.
    10030    2    1    2    0    0  0.00000000000E+00  0.00000000000E+00  0.12182200869E+04  0.38932580729E+04  0.36977558386E+04 0.  0.
        2    1    3    3  502    0 -0.15189670647E+04 -0.84080218799E+03 -0.60221110483E+02  0.17371919425E+04  0.25500000920E-02 0. -1.
       -2    1    3    3    0  502  0.15189670647E+04  0.84080218799E+03  0.12784411974E+04  0.21560661303E+04  0.25500000920E-02 0.  1.
</event>
<event>
 5   0  0.3008879E-07  0.3718515E+04  0.7818609E-02  0.8063871E-01
        2   -1    0    0  501    0  0.00000000000E+00  0.00000000000E+00  0.17523280928E+04  0.17523280928E+04  0.25500000920E-02 0.  1.
       -2   -1    0    0    0  501  0.00000000000E+00  0.00000000000E+00 -0.19727117554E+04  0.19727117554E+04  0.25500000920E-02 0. -1.
    10030    2    1    2    0    0  0.00000000000E+00  0.00000000000E+00 -0.22038366265E+03  0.37250398482E+04  0.37185148799E+04 0.  0.
        2    1    3    3  502    0  0.17857990192E+04 -0.28872921992E+03 -0.54035833738E+03  0.18879697647E+04  0.25500000920E-02 0. -1.
       -2    1    3    3    0  502 -0.17857990192E+04  0.28872921992E+03  0.31997467473E+03  0.18370700836E+04  0.25500000920E-02 0.  1.
</event>
<event>
 5   0  0.9341000E-08  0.3698999E+04  0.7818609E-02  0.8068184E-01
        1   -1    0    0  501    0  0.00000000000E+00  0.00000000000E+00  0.29769940800E+04  0.29769940800E+04  0.50400001928E-02 0. -1.
       -1   -1    0    0    0  501  0.00000000000E+00  0.00000000000E+00 -0.11490274686E+04  0.11490274687E+04  0.50400001928E-02 0.  1.
    10030    2    1    2    0    0  0.00000000000E+00  0.00000000000E+00  0.18279666114E+04  0.41260215487E+04  0.36989987683E+04 0.  0.
        4    1    3    3  502    0  0.58334215937E+03  0.12787291478E+04 -0.42696733368E+03  0.14689244451E+04  0.12699999809E+01 0.  1.
       -4    1    3    3    0  502 -0.58334215937E+03 -0.12787291478E+04  0.22549339451E+04  0.26570971036E+04  0.12699999809E+01 0. -1.
</event>
<event>
 5   0  0.2897133E-07  0.3271130E+04  0.7818609E-02  0.8170281E-01
       -2   -1    0    0    0  501  0.00000000000E+00  0.00000000000E+00  0.13191519018E+04  0.13191519018E+04  0.25500000920E-02 0. -1.
        2   -1    0    0  501    0  0.00000000000E+00  0.00000000000E+00 -0.20278727900E+04  0.20278727900E+04  0.25500000920E-02 0.  1.
    10030    2    1    2    0    0  0.00000000000E+00  0.00000000000E+00 -0.70872088823E+03  0.33470246918E+04  0.32711296199E+04 0.  0.
        4    1    3    3  502    0 -0.41023664035E+03 -0.81446389689E+02 -0.19722303218E+04  0.20160906900E+04  0.12699999809E+01 0.  1.
       -4    1    3    3    0  502  0.41023664035E+03  0.81446389689E+02  0.12635094335E+04  0.13309340017E+04  0.12699999809E+01 0. -1.
</event>
<event>
 5   0  0.9341000E-08  0.3726214E+04  0.7818609E-02  0.8062177E-01
       -3   -1    0    0    0  501  0.00000000000E+00  0.00000000000E+00  0.16502412780E+04  0.16502412811E+04  0.10100000352E+00 0. -1.
        3   -1    0    0  501    0  0.00000000000E+00  0.00000000000E+00 -0.21034307910E+04  0.21034307934E+04  0.10100000352E+00 0.  1.
    10030    2    1    2    0    0  0.00000000000E+00  0.00000000000E+00 -0.45318951294E+03  0.37536720745E+04  0.37262143401E+04 0.  0.
        5    1    3    3  502    0 -0.88227648218E+03  0.14285561594E+04 -0.10399861137E+04  0.19750386575E+04  0.46999998093E+01 0.  1.
       -5    1    3    3    0  502  0.88227648218E+03 -0.14285561594E+04  0.58679660079E+03  0.17786334171E+04  0.46999998093E+01 0. -1.
</event>
<event>
 5   0  0.9418945E-08  0.3689307E+04  0.7818609E-02  0.8070336E-01
        1   -1    0    0  501    0  0.00000000000E+00  0.00000000000E+00  0.27899595170E+04  0.27899595170E+04  0.50400001928E-02 0.  1.
       -1   -1    0    0    0  501  0.00000000000E+00  0.00000000000E+00 -0.12196400345E+04  0.12196400345E+04  0.50400001928E-02 0. -1.
    10030    2    1    2    0    0  0.00000000000E+00  0.00000000000E+00  0.15703194825E+04  0.40095995515E+04  0.36893068842E+04 0.  0.
        5    1    3    3  502    0  0.31220707478E+03 -0.11939170404E+04 -0.70493386572E+03  0.14212195474E+04  0.46999998093E+01 0. -1.
       -5    1    3    3    0  502 -0.31220707478E+03  0.11939170404E+04  0.22752533482E+04  0.25883800041E+04  0.46999998093E+01 0.  1.
</event>
<event>
 5   0  0.3008879E-07  0.3691137E+04  0.7818609E-02  0.8069929E-01
       -2   -1    0    0    0  501  0.00000000000E+00  0.00000000000E+00  0.19887079428E+04  0.19887079428E+04  0.25500000920E-02 0. -1.
        2   -1    0    0  501    0  0.00000000000E+00  0.00000000000E+00 -0.17127320521E+04  0.17127320521E+04  0.25500000920E-02 0.  1.
    10030    2    1    2    0    0  0.00000000000E+00  0.00000000000E+00  0.27597589066E+03  0.37014399949E+04  0.36911374051E+04 0.  0.
        2    1    3    3  502    0 -0.16917796816E+04 -0.54050797207E+03  0.64124174526E+03  0.18882421283E+04  0.25500000920E-02 0. -1.
       -2    1    3    3    0  502  0.16917796816E+04  0.54050797207E+03 -0.36526585460E+03  0.18131978666E+04  0.25500000920E-02 0.  1.
</event>
<event>
 5   0  0.9341000E-08  0.3772811E+04  0.7818609E-02  0.8052015E-01
       -1   -1    0    0    0  501  0.00000000000E+00  0.00000000000E+00  0.16545706639E+04  0.16545706639E+04  0.50400001928E-02 0.  1.
        1   -1    0    0  501    0  0.00000000000E+00  0.00000000000E+00 -0.21507240523E+04  0.21507240523E+04  0.50400001928E-02 0. -1.
    10030    2    1    2    0    0  0.00000000000E+00  0.00000000000E+00 -0.49615338836E+03  0.38052947162E+04  0.37728105827E+04 0.  0.
        1    1    3    3  502    0 -0.25617975043E+03 -0.15066460599E+04 -0.13634528223E+04  0.20480756854E+04  0.50400001928E-02 0. -1.
       -1    1    3    3    0  502  0.25617975043E+03  0.15066460599E+04  0.86729943397E+03  0.17572190309E+04  0.50400001928E-02 0.  1.
</event>
<event>
 5   0  0.3008879E-07  0.3696946E+04  0.7818609E-02  0.8068639E-01
        2   -1    0    0  501    0  0.00000000000E+00  0.00000000000E+00  0.23253994899E+04  0.23253994899E+04  0.25500000920E-02 0. -1.
       -2   -1    0    0    0  501  0.00000000000E+00  0.00000000000E+00 -0.14693612070E+04  0.14693612070E+04  0.25500000920E-02 0.  1.
    10030    2    1    2    0    0  0.00000000000E+00  0.00000000000E+00  0.85603828289E+03  0.37947606970E+04  0.36969456590E+04 0.  0.
        2    1    3    3  502    0 -0.55481352692E+03 -0.22140017524E+03  0.22235925092E+04  0.23024334375E+04  0.25500000920E-02 0. -1.
       -2    1    3    3    0  502  0.55481352692E+03  0.22140017524E+03 -0.13675542263E+04  0.14923272594E+04  0.25500000920E-02 0.  1.
</event>
<event>
 5   0  0.3008879E-07  0.3711560E+04  0.7818609E-02  0.8065405E-01
        2   -1    0    0  501    0  0.00000000000E+00  0.00000000000E+00  0.29720895763E+04  0.29720895763E+04  0.25500000920E-02 0.  1.
       -2   -1    0    0    0  501  0.00000000000E+00  0.00000000000E+00 -0.11587535648E+04  0.11587535648E+04  0.25500000920E-02 0. -1.
    10030    2    1    2    0    0  0.00000000000E+00  0.00000000000E+00  0.18133360115E+04  0.41308431411E+04  0.37115599908E+04 0.  0.
        2    1    3    3  502    0  0.60165191482E+03  0.14402711115E+04  0.20238303157E+04  0.25558276640E+04  0.25500000920E-02 0.  1.
       -2    1    3    3    0  502 -0.60165191482E+03 -0.14402711115E+04 -0.21049430414E+03  0.15750154771E+04  0.25500000920E-02 0. -1.
</event>
<event>
 5   0  0.9418945E-08  0.3581450E+04  0.7818609E-02  0.8094754E-01
       -1   -1    0    0    0  501  0.00000000000E+00  0.00000000000E+00  0.13887877974E+04  0.13887877974E+04  0.50400001928E-02 0. -1.
        1   -1    0    0  501    0  0.00000000000E+00  0.00000000000E+00 -0.23089892645E+04  0.23089892645E+04  0.50400001928E-02 0.  1.
    10030    2    1    2    0    0  0.00000000000E+00  0.00000000000E+00 -0.92020146714E+03  0.36977770619E+04  0.35814500498E+04 0.  0.
        5    1    3    3  502    0 -0.94568122894E+03 -0.49567893628E+03  0.10241822309E+04  0.14795208436E+04  0.46999998093E+01 0. -1.
       -5    1    3    3    0  502  0.94568122894E+03  0.49567893628E+03 -0.19443836981E+04  0.22182562183E+04  0.46999998093E+01 0.  1.
</event>
<event>
 5   0  0.9341000E-08  0.3699512E+04  0.7818609E-02  0.8068070E-01
        1   -1    0    0  501    0  0.00000000000E+00  0.00000000000E+00  0.21639949052E+04  0.21639949052E+04  0.50400001928E-02 0.  1.
       -1   -1    0    0    0  501  0.00000000000E+00  0.00000000000E+00 -0.15811486655E+04  0.15811486655E+04  0.50400001928E-02 0. -1.
    10030    2    1    2    0    0  0.00000000000E+00  0.00000000000E+00  0.58284623973E+03  0.37451435707E+04  0.36995122147E+04 0.  0.
        1    1    3    3  502    0 -0.69719513085E+03 -0.14623233272E+04 -0.61240904099E+03  0.17319109091E+04  0.50400001928E-02 0. -1.
       -1    1    3    3    0  502  0.69719513085E+03  0.14623233272E+04  0.11952552807E+04  0.20132326616E+04  0.50400001928E-02 0.  1.
</event>
<event>
 5   0  0.9341000E-08  0.3696669E+04  0.7818609E-02  0.8068700E-01
       -1   -1    0    0    0  501  0.00000000000E+00  0.00000000000E+00  0.20870363239E+04  0.20870363239E+04  0.50400001928E-02 0. -1.
        1   -1    0    0  501    0  0.00000000000E+00  0.00000000000E+00 -0.16369338342E+04  0.16369338342E+04  0.50400001928E-02 0.  1.
    10030    2    1    2    0    0  0.00000000000E+00  0.00000000000E+00  0.45010248966E+03  0.37239701581E+04  0.36966689718E+04 0.  0.
        3    1    3    3  502    0 -0.52915499020E+03 -0.91053805317E+03 -0.13051322183E+04  0.16770374675E+04  0.10100000352E+00 0.  1.
       -3    1    3    3    0  502  0.52915499020E+03  0.91053805317E+03  0.17552347079E+04  0.20469326907E+04  0.10100000352E+00 0. -1.
</event>
<event>
 5   0  0.9341000E-08  0.3613258E+04  0.7818609E-02  0.8087462E-01
        1   -1    0    0  501    0  0.00000000000E+00  0.00000000000E+00  0.29290546829E+04  0.29290546829E+04  0.50400001928E-02 0.  1.
       -1   -1    0    0    0  501  0.00000000000E+00  0.00000000000E+00 -0.11143212328E+04  0.11143212328E+04  0.50400001928E-02 0. -1.
    10030    2    1    2    0    0  0.00000000000E+00  0.00000000000E+00  0.18147334501E+04  0.40433759157E+04  0.36132577130E+04 0.  0.
        4    1    3    3  502    0 -0.12508850126E+04  0.11476573010E+04  0.15990700179E+04  0.23321357443E+04  0.12699999809E+01 0.  1.
       -4    1    3    3    0  502  0.12508850126E+04 -0.11476573010E+04  0.21566343225E+03  0.17112401714E+04  0.12699999809E+01 0. -1.
</event>
<event>
 5   0  0.9341000E-08  0.3688896E+04  0.7818609E-02  0.8070427E-01
       -1   -1    0    0    0  501  0.00000000000E+00  0.00000000000E+00  0.12902501311E+04  0.12902501311E+04  0.50400001928E-02 0. -1.
        1   -1    0    0  501    0  0.00000000000E+00  0.00000000000E+00 -0.26366886015E+04  0.26366886015E+04  0.50400001928E-02 0.  1.
    10030    2    1    2    0    0  0.00000000000E+00  0.00000000000E+00 -0.13464384704E+04  0.39269387326E+04  0.36888956687E+04 0.  0.
        4    1    3    3  502    0 -0.11124626613E+04 -0.10139222986E+04 -0.18080171055E+04  0.23525601092E+04  0.12699999809E+01 0.  1.
       -4    1    3    3    0  502  0.11124626613E+04  0.10139222986E+04  0.46157863510E+03  0.15743786234E+04  0.12699999809E+01 0. -1.
</event>
<event>
 5   0  0.2996969E-07  0.3685082E+04  0.7818609E-02  0.8071276E-01
        2   -1    0    0  501    0  0.00000000000E+00  0.00000000000E+00  0.25728760987E+04  0.25728760987E+04  0.25500000920E-02 0. -1.
       -2   -1    0    0    0  501  0.00000000000E+00  0.00000000000E+00 -0.13195180562E+04  0.13195180562E+04  0.25500000920E-02 0.  1.
    10030    2    1    2    0    0  0.00000000000E+00  0.00000000000E+00  0.12533580425E+04  0.38923941548E+04  0.36850815288E+04 0.  0.
        1    1    3    3  502    0 -0.97360037132E+03  0.11466899519E+04 -0.49721094698E+03  0.15843024505E+04  0.50400001928E-02 0.  1.
       -1    1    3    3    0  502  0.97360037132E+03 -0.11466899519E+04  0.17505689895E+04  0.23080917044E+04  0.50400001928E-02 0. -1.
</event>
<event>
 5   0  0.3032442E-07  0.3595509E+04  0.7818609E-02  0.8091521E-01
        2   -1    0    0  501    0  0.00000000000E+00  0.00000000000E+00  0.29769005062E+04  0.29769005062E+04  0.25500000920E-02 0.  1.
       -2   -1    0    0    0  501  0.00000000000E+00  0.00000000000E+00 -0.10856667087E+04  0.10856667087E+04  0.25500000920E-02 0. -1.
    10030    2    1    2    0    0  0.00000000000E+00  0.00000000000E+00  0.18912337975E+04  0.40625672149E+04  0.35955092962E+04 0.  0.
        3    1    3    3  502    0 -0.52104901991E+03 -0.37803081903E+03 -0.95097473694E+03  0.11483694274E+04  0.10100000352E+00 0. -1.
       -3    1    3    3    0  502  0.52104901991E+03  0.37803081903E+03  0.28422085344E+04  0.29141977875E+04  0.10100000352E+00 0.  1.
</event>
<event>
 5   0  0.9341000E-08  0.3685714E+04  0.7818609E-02  0.8071135E-01
       -3   -1    0    0    0  501  0.00000000000E+00  0.00000000000E+00  0.21742814526E+04  0.21742814549E+04  0.10100000352E+00 0.  1.
        3   -1    0    0  501    0  0.00000000000E+00  0.00000000000E+00 -0.15619510350E+04  0.15619510383E+04  0.10100000352E+00 0. -1.
    10030    2    1    2    0    0  0.00000000000E+00  0.00000000000E+00  0.61233041761E+03  0.37362324932E+04  0.36857135948E+04 0.  0.
        5    1    3    3  502    0 -0.89148470640E+03 -0.88847927904E+03 -0.10583753622E+04  0.16444819575E+04  0.46999998093E+01 0. -1.
       -5    1    3    3    0  502  0.89148470640E+03  0.88847927904E+03  0.16707057798E+04  0.20917505357E+04  0.46999998093E+01 0.  1.
</event>
<event>
 5   0  0.3008879E-07  0.3703964E+04  0.7818609E-02  0.8067084E-01
       -2   -1    0    0    0  501  0.00000000000E+00  0.00000000000E+00  0.14305317833E+04  0.14305317833E+04  0.25500000920E-02 0.  1.
        2   -1    0    0  501    0  0.00000000000E+00  0.00000000000E+00 -0.23975964205E+04  0.23975964205E+04  0.25500000920E-02 0. -1.
    10030    2    1    2    0    0  0.00000000000E+00  0.00000000000E+00 -0.96706463715E+03  0.38281282038E+04  0.37039642995E+04 0.  0.
        2    1    3    3  502    0  0.17964454816E+04  0.29875831974E+03 -0.83151621115E+03  0.20019720556E+04  0.25500000920E-02 0. -1.
       -2    1    3    3    0  502 -0.17964454816E+04 -0.29875831974E+03 -0.13554842600E+03  0.18261561482E+04  0.25500000920E-02 0.  1.
</event>
<event>
 5   0  0.2897133E-07  0.3705611E+04  0.7818609E-02  0.8066720E-01
       -2   -1    0    0    0  501  0.00000000000E+00  0.00000000000E+00  0.16108293610E+04  0.16108293610E+04  0.25500000920E-02 0.  1.
        2   -1    0    0  501    0  0.00000000000E+00  0.00000000000E+00 -0.21311303304E+04  0.21311303304E+04  0.25500000920E-02 0. -1.
    10030    2    1    2    0    0  0.00000000000E+00  0.00000000000E+00 -0.52030096944E+03  0.37419596914E+04  0.37056105075E+04 0.  0.
        4    1    3    3  502    0 -0.63434375856E+02  0.13102971436E+04  0.10611119310E+04  0.16872648481E+04  0.12699999809E+01 0.  1.
       -4    1    3    3    0  502  0.63434375856E+02 -0.13102971436E+04 -0.15814129004E+04  0.20546948433E+04  0.12699999809E+01 0. -1.
</event>
<event>
 5   0  0.9341000E-08  0.3661714E+04  0.7818609E-02  0.8076500E-01
        1   -1    0    0  501    0  0.00000000000E+00  0.00000000000E+00  0.16356164535E+04  0.16356164535E+04  0.50400001928E-02 0.  1.
       -1   -1    0    0    0  501  0.00000000000E+00  0.00000000000E+00 -0.20494025256E+04  0.20494025256E+04  0.50400001928E-02 0. -1.
    10030    2    1    2    0    0  0.00000000000E+00  0.00000000000E+00 -0.41378607212E+03  0.36850189791E+04  0.36617135283E+04 0.  0.
        4    1    3    3  502    0 -0.13123450761E+04  0.89633866231E+03 -0.11217234772E+04  0.19452346307E+04  0.12699999809E+01 0.  1.
       -4    1    3    3    0  502  0.13123450761E+04 -0.89633866231E+03  0.70793740511E+03  0.17397843484E+04  0.12699999809E+01 0. -1.
</event>
<event>
 5   0  0.2913025E-07  0.3616786E+04  0.7818609E-02  0.8086657E-01
        2   -1    0    0  501    0  0.00000000000E+00  0.00000000000E+00  0.19830177671E+04  0.19830177671E+04  0.25500000920E-02 0. -1.
       -2   -1    0    0    0  501  0.00000000000E+00  0.00000000000E+00 -0.16491456337E+04  0.16491456337E+04  0.25500000920E-02 0.  1.
    10030    2    1    2    0    0  0.00000000000E+00  0.00000000000E+00  0.33387213342E+03  0.36321634007E+04  0.36167859168E+04 0.  0.
        5    1    3    3  502    0  0.13448565095E+04 -0.11709195382E+04 -0.13529432175E+03  0.17883003774E+04  0.46999998093E+01 0. -1.
       -5    1    3    3    0  502 -0.13448565095E+04  0.11709195382E+04  0.46916645517E+03  0.18438630234E+04  0.46999998093E+01 0.  1.
</event>
<event>
 5   0  0.3032442E-07  0.3731587E+04  0.7818609E-02  0.8060998E-01
       -2   -1    0    0    0  501  0.00000000000E+00  0.00000000000E+00  0.27635047616E+04  0.27635047616E+04  0.25500000920E-02 0. -1.
        2   -1    0    0  501    0  0.00000000000E+00  0.00000000000E+00 -0.12596997103E+04  0.12596997103E+04  0.25500000920E-02 0.  1.
    10030    2    1    2    0    0  0.00000000000E+00  0.00000000000E+00  0.15038050513E+04  0.40232044720E+04  0.37315874090E+04 0.  0.
        3    1    3    3  502    0 -0.15802060801E+04  0.36544618141E+03  0.17462475007E+04  0.23832713884E+04  0.10100000352E+00 0. -1.
       -3    1    3    3    0  502  0.15802060801E+04 -0.36544618141E+03 -0.24244244935E+03  0.16399330836E+04  0.10100000352E+00 0.  1.
</event>
<event>
 5   0  0.9341000E-08  0.3732189E+04  0.7818609E-02  0.8060866E-01
        1   -1    0    0  501    0  0.00000000000E+00  0.00000000000E+00  0.12956674693E+04  0.12956674693E+04  0.50400001928E-02 0.  1.
       -1   -1    0    0    0  501  0.00000000000E+00  0.00000000000E+00 -0.26876564908E+04  0.26876564909E+04  0.50400001928E-02 0. -1.
    10030    2    1    2    0    0  0.00000000000E+00  0.00000000000E+00 -0.13919890215E+04  0.39833239602E+04  0.37321892149E+04 0.  0.
        4    1    3    3  502    0  0.16828274643E+04  0.66982500688E+03 -0.21662417541E+03  0.18241440351E+04  0.12699999809E+01 0.  1.
       -4    1    3    3    0  502 -0.16828274643E+04 -0.66982500688E+03 -0.11753648461E+04  0.21591799251E+04  0.12699999809E+01 0. -1.
</event>
<event>
 5   0  0.9341000E-08  0.3699302E+04  0.7818609E-02  0.8068117E-01
        1   -1    0    0  501    0  0.00000000000E+00  0.00000000000E+00  0.23274354618E+04  0.23274354618E+04  0.50400001928E-02 0. -1.
       -1   -1    0    0    0  501  0.00000000000E+00  0.00000000000E+00 -0.14699475439E+04  0.14699475439E+04  0.50400001928E-02 0.  1.
    10030    2    1    2    0    0  0.00000000000E+00  0.00000000000E+00  0.85748791789E+03  0.37973830057E+04  0.36993015776E+04 0.  0.
        3    1    3    3  502    0 -0.51897906553E+03  0.16910396606E+04 -0.12619423847E+03  0.17733807826E+04  0.10100000352E+00 0.  1.
       -3    1    3    3    0  502  0.51897906553E+03 -0.16910396606E+04  0.98368215636E+03  0.20240022231E+04  0.10100000352E+00 0. -1.
</event>
<event>
 5   0  0.2897133E-07  0.3692046E+04  0.7818609E-02  0.8069727E-01
       -2   -1    0    0    0  501  0.00000000000E+00  0.00000000000E+00  0.21394327054E+04  0.21394327054E+04  0.25500000920E-02 0.  1.
        2   -1    0    0  501    0  0.00000000000E+00  0.00000000000E+00 -0.15928523808E+04  0.15928523808E+04  0.25500000920E-02 0. -1.
    10030    2    1    2    0    0  0.00000000000E+00  0.00000000000E+00  0.54658032462E+03  0.37322850861E+04  0.36920457626E+04 0.  0.
        4    1    3    3  502    0  0.11358362812E+04  0.10689827792E+04 -0.72486727054E+03  0.17199658173E+04  0.12699999809E+01 0. -1.
       -4    1    3    3    0  502 -0.11358362812E+04 -0.10689827792E+04  0.12714475952E+04  0.20123192689E+04  0.12699999809E+01 0.  1.
</event>
<event>
 5   0  0.3032442E-07  0.3691350E+04  0.7818609E-02  0.8069882E-01
        2   -1    0    0  501    0  0.00000000000E+00  0.00000000000E+00  0.20271204101E+04  0.20271204101E+04  0.25500000920E-02 0.  1.
       -2   -1    0    0    0  501  0.00000000000E+00  0.00000000000E+00 -0.16804703418E+04  0.16804703418E+04  0.25500000920E-02 0. -1.
    10030    2    1    2    0    0  0.00000000000E+00  0.00000000000E+00  0.34665006830E+03  0.37075907519E+04  0.36913497415E+04 0.  0.
        3    1    3    3  502    0 -0.12376145802E+04  0.13668476221E+04  0.25463457138E+03  0.18613976057E+04  0.10100000352E+00 0.  1.
       -3    1    3    3    0  502  0.12376145802E+04 -0.13668476221E+04  0.92015496923E+02  0.18461931462E+04  0.10100000352E+00 0. -1.
</event>
<event>
 5   0  0.3008879E-07  0.3667830E+04  0.7818609E-02  0.8075129E-01
       -2   -1    0    0    0  501  0.00000000000E+00  0.00000000000E+00  0.20959752138E+04  0.20959752138E+04  0.25500000920E-02 0.  1.
        2   -1    0    0  501    0  0.00000000000E+00  0.00000000000E+00 -0.16046199287E+04  0.16046199287E+04  0.25500000920E-02 0. -1.
    10030    2    1    2    0    0  0.00000000000E+00  0.00000000000E+00  0.49135528511E+03  0.37005951425E+04  0.36678296570E+04 0.  0.
        2    1    3    3  502    0 -0.10792707790E+04  0.60264750053E+03  0.16124876832E+04  0.20317790118E+04  0.25500000920E-02 0.  1.
       -2    1    3    3    0  502  0.10792707790E+04 -0.60264750053E+03 -0.11211323981E+04  0.16688161307E+04  0.25500000920E-02 0. -1.
</event>
<event>
 5   0  0.3008879E-07  0.3696954E+04  0.7818609E-02  0.8068637E-01
       -2   -1    0    0    0  501  0.00000000000E+00  0.00000000000E+00  0.13815529797E+04  0.13815529797E+04  0.25500000920E-02 0.  1.
        2   -1    0    0  501    0  0.00000000000E+00  0.00000000000E+00 -0.24732074859E+04  0.24732074859E+04  0.25500000920E-02 0. -1.
    10030    2    1    2    0    0  0.00000000000E+00  0.00000000000E+00 -0.10916545062E+04  0.38547604655E+04  0.36969539740E+04 0.  0.
        2    1    3    3  502    0 -0.25587165252E+03  0.16872705616E+04 -0.12864385970E+04  0.21371187413E+04  0.25500000920E-02 0.  1.
       -2    1    3    3    0  502  0.25587165252E+03 -0.16872705616E+04  0.19478409081E+03  0.17176417242E+04  0.25500000920E-02 0. -1.
</event>
<event>
 5   0  0.2897133E-07  0.3640386E+04  0.7818609E-02  0.8081303E-01
        2   -1    0    0  501    0  0.00000000000E+00  0.00000000000E+00  0.19743594217E+04  0.19743594217E+04  0.25500000920E-02 0.  1.
       -2   -1    0    0    0  501  0.00000000000E+00  0.00000000000E+00 -0.16780641456E+04  0.16780641456E+04  0.25500000920E-02 0. -1.
    10030    2    1    2    0    0  0.00000000000E+00  0.00000000000E+00  0.29629527611E+03  0.36524235673E+04  0.36403855598E+04 0.  0.
        4    1    3    3  502    0 -0.80523991438E+03 -0.15800382635E+04  0.55958650570E+03  0.18595889072E+04  0.12699999809E+01 0.  1.
       -4    1    3    3    0  502  0.80523991438E+03  0.15800382635E+04 -0.26329122959E+03  0.17928346600E+04  0.12699999809E+01 0. -1.
</event>
<event>
 5   0  0.2913025E-07  0.3692182E+04  0.7818609E-02  0.8069697E-01
       -2   -1    0    0    0  501  0.00000000000E+00  0.00000000000E+00  0.18634481152E+04  0.18634481152E+04  0.25500000920E-02 0.  1.
        2   -1    0    0  501    0  0.00000000000E+00  0.00000000000E+00 -0.18288955696E+04  0.18288955696E+04  0.25500000920E-02 0. -1.
    10030    2    1    2    0    0  0.00000000000E+00  0.00000000000E+00  0.34552545649E+02  0.36923436848E+04  0.36921820118E+04 0.  0.
        5    1    3    3  502    0  0.30673258187E+03  0.10753088720E+03  0.18346016039E+04  0.18631781728E+04  0.46999998093E+01 0.  1.
       -5    1    3    3    0  502 -0.30673258187E+03 -0.10753088720E+03 -0.18000490582E+04  0.18291655121E+04  0.46999998093E+01 0. -1.
</event>
<event>
 5   0  0.2913025E-07  0.3711816E+04  0.7818609E-02  0.8065348E-01
        2   -1    0    0  501    0  0.00000000000E+00  0.00000000000E+00  0.26808009175E+04  0.26808009175E+04  0.25500000920E-02 0.  1.
       -2   -1    0    0    0  501  0.00000000000E+00  0.00000000000E+00 -0.12848378692E+04  0.12848378692E+04  0.25500000920E-02 0. -1.
    10030    2    1    2    0    0  0.00000000000E+00  0.00000000000E+00  0.13959630483E+04  0.39656387867E+04  0.37118160184E+04 0.  0.
        5    1    3    3  502    0 -0.91333326794E+03 -0.15091891215E+04  0.81882376607E+02  0.17659434522E+04  0.46999998093E+01 0. -1.
       -5    1    3    3    0  502  0.91333326794E+03  0.15091891215E+04  0.13140806717E+04  0.21996953345E+04  0.46999998093E+01 0.  1.
</event>
<event>
 5   0  0.3032442E-07  0.3690447E+04  0.7818609E-02  0.8070082E-01
        2   -1    0    0  501    0  0.00000000000E+00  0.00000000000E+00  0.21161903335E+04  0.21161903335E+04  0.25500000920E-02 0.  1.
       -2   -1    0    0    0  501  0.00000000000E+00  0.00000000000E+00 -0.16089524167E+04  0.16089524167E+04  0.25500000920E-02 0. -1.
    10030    2    1    2    0    0  0.00000000000E+00  0.00000000000E+00  0.50723791678E+03  0.37251427502E+04  0.36904468842E+04 0.  0.
        3    1    3    3  502    0 -0.63853780203E+03 -0.15508491306E+04 -0.52302090014E+03  0.17568194052E+04  0.10100000352E+00 0.  1.
       -3    1    3    3    0  502  0.63853780203E+03  0.15508491306E+04  0.10302588169E+04  0.19683233450E+04  0.10100000352E+00 0. -1.
</event>
<event>
 5   0  0.9341000E-08  0.3722997E+04  0.7818609E-02  0.8062884E-01
       -1   -1    0    0    0  501  0.00000000000E+00  0.00000000000E+00  0.20375688719E+04  0.20375688719E+04  0.50400001928E-02 0.  1.
        1   -1    0    0  501    0  0.00000000000E+00  0.00000000000E+00 -0.17006431733E+04  0.17006431733E+04  0.50400001928E-02 0. -1.
    10030    2    1    2    0    0  0.00000000000E+00  0.00000000000E+00  0.33692569853E+03  0.37382120452E+04  0.37229974978E+04 0.  0.
        1    1    3    3  502    0 -0.88769950900E+03  0.15413701726E+04  0.71965535234E+03  0.19187850983E+04  0.50400001928E-02 0.  1.
       -1    1    3    3    0  502  0.88769950900E+03 -0.15413701726E+04 -0.38272965381E+03  0.18194269469E+04  0.50400001928E-02 0. -1.
</event>
<event>
 5   0  0.9341000E-08  0.3692999E+04  0.7818609E-02  0.8069515E-01
        1   -1    0    0  501    0  0.00000000000E+00  0.00000000000E+00  0.14524465436E+04  0.14524465436E+04  0.50400001928E-02 0. -1.
       -1   -1    0    0    0  501  0.00000000000E+00  0.00000000000E+00 -0.23474605684E+04  0.23474605684E+04  0.50400001928E-02 0.  1.
    10030    2    1    2    0    0  0.00000000000E+00  0.00000000000E+00 -0.89501402486E+03  0.37999071120E+04  0.36929993170E+04 0.  0.
        1    1    3    3  502    0  0.91680931141E+03  0.33732367536E+02  0.12013440830E+04  0.15115901535E+04  0.50400001928E-02 0. -1.
       -1    1    3    3    0  502 -0.91680931141E+03 -0.33732367536E+02 -0.20963581079E+04  0.22883169585E+04  0.50400001928E-02 0.  1.
</event>
<event>
 5   0  0.3008879E-07  0.3705628E+04  0.7818609E-02  0.8066716E-01
       -2   -1    0    0    0  501  0.00000000000E+00  0.00000000000E+00  0.19065979705E+04  0.19065979705E+04  0.25500000920E-02 0.  1.
        2   -1    0    0  501    0  0.00000000000E+00  0.00000000000E+00 -0.18005473005E+04  0.18005473005E+04  0.25500000920E-02 0. -1.
    10030    2    1    2    0    0  0.00000000000E+00  0.00000000000E+00  0.10605066997E+03  0.37071452711E+04  0.37056280596E+04 0.  0.
        2    1    3    3  502    0  0.15857002242E+03 -0.18101218361E+04 -0.30938575931E+03  0.18432051056E+04  0.25500000920E-02 0. -1.
       -2    1    3    3    0  502 -0.15857002242E+03  0.18101218361E+04  0.41543642928E+03  0.18639401654E+04  0.25500000920E-02 0.  1.
</event>
<event>
 5   0  0.2897133E-07  0.3590629E+04  0.7818609E-02  0.8092642E-01
        2   -1    0    0  501    0  0.00000000000E+00  0.00000000000E+00  0.11067034858E+04  0.11067034858E+04  0.25500000920E-02 0.  1.
       -2   -1    0    0    0  501  0.00000000000E+00  0.00000000000E+00 -0.29123912736E+04  0.29123912736E+04  0.25500000920E-02 0. -1.
    10030    2    1    2    0    0  0.00000000000E+00  0.00000000000E+00 -0.18056877878E+04  0.40190947595E+04  0.35906286773E+04 0.  0.
        4    1    3    3  502    0 -0.14914250053E+04 -0.12815698703E+03 -0.20122673158E+04  0.25079860691E+04  0.12699999809E+01 0. -1.
       -4    1    3    3    0  502  0.14914250053E+04  0.12815698703E+03  0.20657952802E+03  0.15111086903E+04  0.12699999809E+01 0.  1.
</event>
<event>
 5   0  0.9418945E-08  0.3698365E+04  0.7818609E-02  0.8068324E-01
       -1   -1    0    0    0  501  0.00000000000E+00  0.00000000000E+00  0.15968651475E+04  0.15968651475E+04  0.50400001928E-02 0. -1.
        1   -1    0    0  501    0  0.00000000000E+00  0.00000000000E+00 -0.21413677683E+04  0.21413677683E+04  0.50400001928E-02 0.  1.
    10030    2    1    2    0    0  0.00000000000E+00  0.00000000000E+00 -0.54450262077E+03  0.37382329158E+04  0.36983648047E+04 0.  0.
        5    1    3    3  502    0  0.59892861229E+03  0.84545270766E+03 -0.18204110630E+04  0.20946179346E+04  0.46999998093E+01 0.  1.
       -5    1    3    3    0  502 -0.59892861229E+03 -0.84545270766E+03  0.12759084423E+04  0.16436149812E+04  0.46999998093E+01 0. -1.
</event>
<event>
 5   0  0.2996969E-07  0.3698680E+04  0.7818609E-02  0.8068254E-01
        2   -1    0    0  501    0  0.00000000000E+00  0.00000000000E+00  0.23511919953E+04  0.23511919953E+04  0.25500000920E-02 0. -1.
       -2   -1    0    0    0  501  0.00000000000E+00  0.00000000000E+00 -0.14546059875E+04  0.14546059875E+04  0.25500000920E-02 0.  1.
    10030    2    1    2    0    0  0.00000000000E+00  0.00000000000E+00  0.89658600779E+03  0.38057979829E+04  0.36986797397E+04 0.  0.
        1    1    3    3  502    0 -0.65884909762E+03 -0.28626900485E+03  0.22017666549E+04  0.23159897408E+04  0.50400001928E-02 0. -1.
       -1    1    3    3    0  502  0.65884909762E+03  0.28626900485E+03 -0.13051806471E+04  0.14898082421E+04  0.50400001928E-02 0.  1.
</event>
<event>
 5   0  0.9418945E-08  0.3702222E+04  0.7818609E-02  0.8067470E-01
        1   -1    0    0  501    0  0.00000000000E+00  0.00000000000E+00  0.19266774244E+04  0.19266774244E+04  0.50400001928E-02 0.  1.
       -1   -1    0    0    0  501  0.00000000000E+00  0.00000000000E+00 -0.17785086478E+04  0.17785086479E+04  0.50400001928E-02 0. -1.
    10030    2    1    2    0    0  0.00000000000E+00  0.00000000000E+00  0.14816877658E+03  0.37051860723E+04  0.37022222845E+04 0.  0.
        5    1    3    3  502    0 -0.73670135060E+03 -0.16921880616E+04  0.21689078856E+03  0.18583038019E+04  0.46999998093E+01 0. -1.
       -5    1    3    3    0  502  0.73670135060E+03  0.16921880616E+04 -0.68722011982E+02  0.18468822704E+04  0.46999998093E+01 0.  1.
</event>
<event>
 5   0  0.9341000E-08  0.3699616E+04  0.7818609E-02  0.8068047E-01
       -1   -1    0    0    0  501  0.00000000000E+00  0.00000000000E+00  0.19477227523E+04  0.19477227523E+04  0.50400001928E-02 0.  1.
        1   -1    0    0  501    0  0.00000000000E+00  0.00000000000E+00 -0.17568158461E+04  0.17568158461E+04  0.50400001928E-02 0. -1.
    10030    2    1    2    0    0  0.00000000000E+00  0.00000000000E+00  0.19090690620E+03  0.37045385983E+04  0.36996163017E+04 0.  0.
        4    1    3    3  502    0  0.71086443029E+03  0.89595728911E+02 -0.16122284173E+04  0.17642669059E+04  0.12699999809E+01 0. -1.
       -4    1    3    3    0  502 -0.71086443029E+03 -0.89595728911E+02  0.18031353235E+04  0.19402716924E+04  0.12699999809E+01 0.  1.
</event>
<event>
 5   0  0.9341000E-08  0.3753324E+04  0.7818609E-02  0.8056246E-01
       -1   -1    0    0    0  501  0.00000000000E+00  0.00000000000E+00  0.23887154324E+04  0.23887154324E+04  0.50400001928E-02 0.  1.
        1   -1    0    0  501    0  0.00000000000E+00  0.00000000000E+00 -0.14743738136E+04  0.14743738136E+04  0.50400001928E-02 0. -1.
    10030    2    1    2    0    0  0.00000000000E+00  0.00000000000E+00  0.91434161881E+03  0.38630892461E+04  0.37533235841E+04 0.  0.
        1    1    3    3  502    0  0.93220486289E+03 -0.30765990491E+03 -0.11890416813E+04  0.15419081177E+04  0.50400001928E-02 0. -1.
       -1    1    3    3    0  502 -0.93220486289E+03  0.30765990491E+03  0.21033833001E+04  0.23211811284E+04  0.50400001928E-02 0.  1.
</event>
<event>
 5   0  0.9341000E-08  0.3680646E+04  0.7818609E-02  0.8072264E-01
       -1   -1    0    0    0  501  0.00000000000E+00  0.00000000000E+00  0.22355351257E+04  0.22355351257E+04  0.50400001928E-02 0.  1.
        1   -1    0    0  501    0  0.00000000000E+00  0.00000000000E+00 -0.15149790623E+04  0.15149790623E+04  0.50400001928E-02 0. -1.
    10030    2    1    2    0    0  0.00000000000E+00  0.00000000000E+00  0.72055606342E+03  0.37505141880E+04  0.36806460892E+04 0.  0.
        1    1    3    3  502    0  0.10230060505E+04 -0.68266275009E+03  0.17552867834E+04  0.21432688823E+04  0.50400001928E-02 0.  1.
       -1    1    3    3    0  502 -0.10230060505E+04  0.68266275009E+03 -0.10347307200E+04  0.16072453057E+04  0.50400001928E-02 0. -1.
</event>
<event>
 5   0  0.9341000E-08  0.3720898E+04  0.7818609E-02  0.8063346E-01
        1   -1    0    0  501    0  0.00000000000E+00  0.00000000000E+00  0.13789508212E+04  0.13789508212E+04  0.50400001928E-02 0. -1.
       -1   -1    0    0    0  501  0.00000000000E+00  0.00000000000E+00 -0.25100757409E+04  0.25100757409E+04  0.50400001928E-02 0.  1.
    10030    2    1    2    0    0  0.00000000000E+00  0.00000000000E+00 -0.11311249196E+04  0.38890265621E+04  0.37208982809E+04 0.  0.
        1    1    3    3  502    0  0.14055918508E+03 -0.18551226327E+04 -0.55945573437E+03  0.19427371375E+04  0.50400001928E-02 0.  1.
       -1    1    3    3    0  502 -0.14055918508E+03  0.18551226327E+04 -0.57166918526E+03  0.19462894246E+04  0.50400001928E-02 0. -1.
</event>
<event>
 5   0  0.9646615E-08  0.3710424E+04  0.7818609E-02  0.8065656E-01
       -1   -1    0    0    0  501  0.00000000000E+00  0.00000000000E+00  0.18901047793E+04  0.18901047793E+04  0.50400001928E-02 0. -1.
        1   -1    0    0  501    0  0.00000000000E+00  0.00000000000E+00 -0.18209629896E+04  0.18209629896E+04  0.50400001928E-02 0.  1.
    10030    2    1    2    0    0  0.00000000000E+00  0.00000000000E+00  0.69141789697E+02  0.37110677689E+04  0.37104236144E+04 0.  0.
        2    1    3    3  502    0 -0.11693036121E+03  0.21190879843E+03  0.18742468465E+04  0.18898093263E+04  0.25500000920E-02 0. -1.
       -2    1    3    3    0  502  0.11693036121E+03 -0.21190879843E+03 -0.18051050568E+04  0.18212584425E+04  0.25500000920E-02 0.  1.
</event>
<event>
 5   0  0.9418945E-08  0.3698584E+04  0.7818609E-02  0.8068276E-01
       -1   -1    0    0    0  501  0.00000000000E+00  0.00000000000E+00  0.21496493924E+04  0.21496493924E+04  0.50400001928E-02 0.  1.
        1   -1    0    0  501    0  0.00000000000E+00  0.00000000000E+00 -0.15909019012E+04  0.15909019012E+04  0.50400001928E-02 0. -1.
    10030    2    1    2    0    0  0.00000000000E+00  0.00000000000E+00  0.55874749117E+03  0.37405512936E+04  0.36985842185E+04 0.  0.
        5    1    3    3  502    0  0.14428652975E+04 -0.10714748907E+04  0.72014057031E+03  0.19361155025E+04  0.46999998093E+01 0. -1.
       -5    1    3    3    0  502 -0.14428652975E+04  0.10714748907E+04 -0.16139307914E+03  0.18044357911E+04  0.46999998093E+01 0.  1.
</event>
<event>
 5   0  0.3032442E-07  0.3718177E+04  0.7818609E-02  0.8063946E-01
        2   -1    0    0  501    0  0.00000000000E+00  0.00000000000E+00  0.15190877323E+04  0.15190877323E+04  0.25500000920E-02 0. -1.
       -2   -1    0    0    0  501  0.00000000000E+00  0.00000000000E+00 -0.22751878275E+04  0.22751878275E+04  0.25500000920E-02 0.  1.
    10030    2    1    2    0    0  0.00000000000E+00  0.00000000000E+00 -0.75610009524E+03  0.37942755598E+04  0.37181769282E+04 0.  0.
        3    1    3    3  502    0 -0.63559180408E+03 -0.22471937430E+03  0.13899608237E+04  0.15448193552E+04  0.10100000352E+00 0. -1.
       -3    1    3    3    0  502  0.63559180408E+03  0.22471937430E+03 -0.21460609189E+04  0.22494562046E+04  0.10100000352E+00 0.  1.
</event>
<event>
 5   0  0.9341000E-08  0.3689598E+04  0.7818609E-02  0.8070271E-01
        1   -1    0    0  501    0  0.00000000000E+00  0.00000000000E+00  0.19026429211E+04  0.19026429212E+04  0.50400001928E-02 0. -1.
       -1   -1    0    0    0  501  0.00000000000E+00  0.00000000000E+00 -0.17887134098E+04  0.17887134098E+04  0.50400001928E-02 0.  1.
    10030    2    1    2    0    0  0.00000000000E+00  0.00000000000E+00  0.11392951137E+03  0.36913563309E+04  0.36895977597E+04 0.  0.
        3    1    3    3  502    0 -0.14840670371E+04 -0.10307856211E+04 -0.31511158785E+03  0.18341944526E+04  0.10100000352E+00 0.  1.
       -3    1    3    3    0  502  0.14840670371E+04  0.10307856211E+04  0.42904109923E+03  0.18571618783E+04  0.10100000352E+00 0. -1.
</event>
<event>
 5   0  0.9646615E-08  0.3658806E+04  0.7818609E-02  0.8077153E-01
        1   -1    0    0  501    0  0.00000000000E+00  0.00000000000E+00  0.27591146465E+04  0.27591146465E+04  0.50400001928E-02 0. -1.
       -1   -1    0    0    0  501  0.00000000000E+00  0.00000000000E+00 -0.12129669228E+04  0.12129669228E+04  0.50400001928E-02 0.  1.
    10030    2    1    2    0    0  0.00000000000E+00  0.00000000000E+00  0.15461477237E+04  0.39720815693E+04  0.36588057081E+04 0.  0.
        2    1    3    3  502    0 -0.71712006288E+02  0.17876350792E+04  0.35835328248E+03  0.18246092358E+04  0.25500000920E-02 0.  1.
       -2    1    3    3    0  502  0.71712006288E+02 -0.17876350792E+04  0.11877944412E+04  0.21474723334E+04  0.25500000920E-02 0. -1.
</event>
<event>
 5   0  0.2913025E-07  0.3695570E+04  0.7818609E-02  0.8068944E-01
       -2   -1    0    0    0  501  0.00000000000E+00  0.00000000000E+00  0.13941782733E+04  0.13941782733E+04  0.25500000920E-02 0.  1.
        2   -1    0    0  501    0  0.00000000000E+00  0.00000000000E+00 -0.24489762225E+04  0.24489762225E+04  0.25500000920E-02 0. -1.
    10030    2    1    2    0    0  0.00000000000E+00  0.00000000000E+00 -0.10547979492E+04  0.38431544958E+04  0.36955700189E+04 0.  0.
        5    1    3    3  502    0  0.47924574095E+03 -0.57234879287E+03  0.12303774534E+04  0.14391352920E+04  0.46999998093E+01 0.  1.
       -5    1    3    3    0  502 -0.47924574095E+03  0.57234879287E+03 -0.22851754027E+04  0.24040192037E+04  0.46999998093E+01 0. -1.
</event>
<event>
 5   0  0.3032442E-07  0.3699647E+04  0.7818609E-02  0.8068040E-01
        2   -1    0    0  501    0  0.00000000000E+00  0.00000000000E+00  0.12038129577E+04  0.12038129577E+04  0.25500000920E-02 0. -1.
       -2   -1    0    0    0  501  0.00000000000E+00  0.00000000000E+00 -0.28425066152E+04  0.28425066152E+04  0.25500000920E-02 0.  1.
    10030    2    1    2    0    0  0.00000000000E+00  0.00000000000E+00 -0.16386936575E+04  0.40463195729E+04  0.36996466295E+04 0.  0.
        3    1    3    3  502    0 -0.16638823884E+04 -0.26287097643E+03  0.16632958829E+02  0.16846015606E+04  0.10100000352E+00 0. -1.
       -3    1    3    3    0  502  0.16638823884E+04  0.26287097643E+03 -0.16553266163E+04  0.23617180123E+04  0.10100000352E+00 0.  1.
</event>
<event>
 5   0  0.9341000E-08  0.3722373E+04  0.7818609E-02  0.8063022E-01
       -1   -1    0    0    0  501  0.00000000000E+00  0.00000000000E+00  0.13135071659E+04  0.13135071659E+04  0.50400001928E-02 0. -1.
        1   -1    0    0  501    0  0.00000000000E+00  0.00000000000E+00 -0.26372265858E+04  0.26372265858E+04  0.50400001928E-02 0.  1.
    10030    2    1    2    0    0  0.00000000000E+00  0.00000000000E+00 -0.13237194199E+04  0.39507337517E+04  0.37223734464E+04 0.  0.
        1    1    3    3  502    0 -0.12894609259E+04 -0.12333184359E+04 -0.10001432263E+03  0.17871168704E+04  0.50400001928E-02 0. -1.
       -1    1    3    3    0  502  0.12894609259E+04  0.12333184359E+04 -0.12237050973E+04  0.21636168813E+04  0.50400001928E-02 0.  1.
</event>
<event>
 5   0  0.2897133E-07  0.3688325E+04  0.7818609E-02  0.8070554E-01
        2   -1    0    0  501    0  0.00000000000E+00  0.00000000000E+00  0.17430503637E+04  0.17430503637E+04  0.25500000920E-02 0. -1.
       -2   -1    0    0    0  501  0.00000000000E+00  0.00000000000E+00 -0.19511402250E+04  0.19511402250E+04  0.25500000920E-02 0.  1.
    10030    2    1    2    0    0  0.00000000000E+00  0.00000000000E+00 -0.20808986136E+03  0.36941905887E+04  0.36883251911E+04 0.  0.
        4    1    3    3  502    0  0.17457510249E+04 -0.59437939026E+03 -0.10329182929E+03  0.18470528729E+04  0.12699999809E+01 0.  1.
       -4    1    3    3    0  502 -0.17457510249E+04  0.59437939026E+03 -0.10479803207E+03  0.18471377157E+04  0.12699999809E+01 0. -1.
</event>
<event>
 5   0  0.2996969E-07  0.3672160E+04  0.7818609E-02  0.8074160E-01
        2   -1    0    0  501    0  0.00000000000E+00  0.00000000000E+00  0.16469981076E+04  0.16469981076E+04  0.25500000920E-02 0.  1.
       -2   -1    0    0    0  501  0.00000000000E+00  0.00000000000E+00 -0.20468697872E+04  0.20468697872E+04  0.25500000920E-02 0. -1.
    10030    2    1    2    0    0  0.00000000000E+00  0.00000000000E+00 -0.39987167963E+03  0.36938678948E+04  0.36721604900E+04 0.  0.
        1    1    3    3  502    0  0.12694579279E+04  0.13522537473E+03  0.11274789383E+04  0.17032375316E+04  0.50400001928E-02 0.  1.
       -1    1    3    3    0  502 -0.12694579279E+04 -0.13522537473E+03 -0.15273506180E+04  0.19906303632E+04  0.50400001928E-02 0. -1.
</event>
<event>
 5   0  0.3032442E-07  0.3457997E+04  0.7818609E-02  0.8123817E-01
        2   -1    0    0  501    0  0.00000000000E+00  0.00000000000E+00  0.13250731479E+04  0.13250731479E+04  0.25500000920E-02 0.  1.
       -2   -1    0    0    0  501  0.00000000000E+00  0.00000000000E+00 -0.22560534327E+04  0.22560534327E+04  0.25500000920E-02 0. -1.
    10030    2    1    2    0    0  0.00000000000E+00  0.00000000000E+00 -0.93098028487E+03  0.35811265806E+04  0.34579970063E+04 0.  0.
        3    1    3    3  502    0 -0.40015312827E+02 -0.11226486976E+04  0.89565173101E+03  0.14367092110E+04  0.10100000352E+00 0.  1.
       -3    1    3    3    0  502  0.40015312827E+02  0.11226486976E+04 -0.18266320159E+04  0.21444173696E+04  0.10100000352E+00 0. -1.
</event>
<event>
 5   0  0.9418945E-08  0.3715353E+04  0.7818609E-02  0.8064568E-01
        1   -1    0    0  501    0  0.00000000000E+00  0.00000000000E+00  0.13865374265E+04  0.13865374265E+04  0.50400001928E-02 0.  1.
       -1   -1    0    0    0  501  0.00000000000E+00  0.00000000000E+00 -0.24889060413E+04  0.24889060413E+04  0.50400001928E-02 0. -1.
    10030    2    1    2    0    0  0.00000000000E+00  0.00000000000E+00 -0.11023686149E+04  0.38754434678E+04  0.37153526763E+04 0.  0.
        5    1    3    3  502    0 -0.11061940639E+04  0.81066978990E+03 -0.18582078897E+04  0.23095041603E+04  0.46999998093E+01 0. -1.
       -5    1    3    3    0  502  0.11061940639E+04 -0.81066978990E+03  0.75583927484E+03  0.15659393075E+04  0.46999998093E+01 0.  1.
</event>
<event>
 5   0  0.9646615E-08  0.3685635E+04  0.7818609E-02  0.8071153E-01
        1   -1    0    0  501    0  0.00000000000E+00  0.00000000000E+00  0.14110803045E+04  0.14110803045E+04  0.50400001928E-02 0. -1.
       -1   -1    0    0    0  501  0.00000000000E+00  0.00000000000E+00 -0.24066503862E+04  0.24066503862E+04  0.50400001928E-02 0.  1.
    10030    2    1    2    0    0  0.00000000000E+00  0.00000000000E+00 -0.99557008167E+03  0.38177306908E+04  0.36856353373E+04 0.  0.
        2    1    3    3  502    0 -0.12429720105E+04  0.92239278532E+03  0.53815348066E+03  0.16387181082E+04  0.25500000920E-02 0. -1.
       -2    1    3    3    0  502  0.12429720105E+04 -0.92239278532E+03 -0.15337235623E+04  0.21790125826E+04  0.25500000920E-02 0.  1.
</event>
<event>
 5   0  0.9341000E-08  0.3673106E+04  0.7818609E-02  0.8073948E-01
        1   -1    0    0  501    0  0.00000000000E+00  0.00000000000E+00  0.19677907907E+04  0.19677907907E+04  0.50400001928E-02 0.  1.
       -1   -1    0    0    0  501  0.00000000000E+00  0.00000000000E+00 -0.17140675338E+04  0.17140675338E+04  0.50400001928E-02 0. -1.
    10030    2    1    2    0    0  0.00000000000E+00  0.00000000000E+00  0.25372325694E+03  0.36818583245E+04  0.36731056656E+04 0.  0.
        3    1    3    3  502    0  0.18023339371E+04 -0.21215522264E+03 -0.15578340259E+03  0.18214516019E+04  0.10100000352E+00 0. -1.
       -3    1    3    3    0  502 -0.18023339371E+04  0.21215522264E+03  0.40950665953E+03  0.18604067226E+04  0.10100000352E+00 0.  1.
</event>
<event>
 5   0  0.3008879E-07  0.3577260E+04  0.7818609E-02  0.8095720E-01
        2   -1    0    0  501    0  0.00000000000E+00  0.00000000000E+00  0.26023259723E+04  0.26023259723E+04  0.25500000920E-02 0. -1.
       -2   -1    0    0    0  501  0.00000000000E+00  0.00000000000E+00 -0.12293607391E+04  0.12293607391E+04  0.25500000920E-02 0.  1.
    10030    2    1    2    0    0  0.00000000000E+00  0.00000000000E+00  0.13729652332E+04  0.38316867114E+04  0.35772600580E+04 0.  0.
        2    1    3    3  502    0  0.52927726003E+03  0.12983250152E+04  0.18760638738E+04  0.23420926373E+04  0.25500000920E-02 0. -1.
       -2    1    3    3    0  502 -0.52927726003E+03 -0.12983250152E+04 -0.50309864060E+03  0.14895940740E+04  0.25500000920E-02 0.  1.
</event>
<event>
 5   0  0.2897133E-07  0.3666296E+04  0.7818609E-02  0.8075472E-01
        2   -1    0    0  501    0  0.00000000000E+00  0.00000000000E+00  0.22359690609E+04  0.22359690609E+04  0.25500000920E-02 0. -1.
       -2   -1    0    0    0  501  0.00000000000E+00  0.00000000000E+00 -0.15028975426E+04  0.15028975426E+04  0.25500000920E-02 0.  1.
    10030    2    1    2    0    0  0.00000000000E+00  0.00000000000E+00  0.73307151836E+03  0.37388666035E+04  0.36662964457E+04 0.  0.
        4    1    3    3  502    0  0.11217487161E+04 -0.11873468825E+04  0.12150618526E+04  0.20358019845E+04  0.12699999809E+01 0. -1.
       -4    1    3    3    0  502 -0.11217487161E+04  0.11873468825E+04 -0.48199033422E+03  0.17030646190E+04  0.12699999809E+01 0.  1.
</event>
<event>
 5   0  0.9646615E-08  0.3702598E+04  0.7818609E-02  0.8067386E-01
       -1   -1    0    0    0  501  0.00000000000E+00  0.00000000000E+00  0.16061593478E+04  0.16061593479E+04  0.50400001928E-02 0.  1.
        1   -1    0    0  501    0  0.00000000000E+00  0.00000000000E+00 -0.21338527498E+04  0.21338527498E+04  0.50400001928E-02 0. -1.
    10030    2    1    2    0    0  0.00000000000E+00  0.00000000000E+00 -0.52769340194E+03  0.37400120976E+04  0.37025977589E+04 0.  0.
        2    1    3    3  502    0  0.17764284934E+04 -0.82634163503E+02 -0.78361505730E+03  0.19433422641E+04  0.25500000920E-02 0. -1.
       -2    1    3    3    0  502 -0.17764284934E+04  0.82634163503E+02  0.25592165536E+03  0.17966698336E+04  0.25500000920E-02 0.  1.
</event>
<event>
 5   0  0.9418945E-08  0.3688492E+04  0.7818609E-02  0.8070517E-01
        1   -1    0    0  501    0  0.00000000000E+00  0.00000000000E+00  0.16816962030E+04  0.16816962030E+04  0.50400001928E-02 0.  1.
       -1   -1    0    0    0  501  0.00000000000E+00  0.00000000000E+00 -0.20225080155E+04  0.20225080155E+04  0.50400001928E-02 0. -1.
    10030    2    1    2    0    0  0.00000000000E+00  0.00000000000E+00 -0.34081181250E+03  0.37042042186E+04  0.36884924023E+04 0.  0.
        5    1    3    3  502    0  0.68319761270E+02  0.31155967699E+03 -0.19945918456E+04  0.20199395393E+04  0.46999998093E+01 0. -1.
       -5    1    3    3    0  502 -0.68319761270E+02 -0.31155967699E+03  0.16537800331E+04  0.16842646793E+04  0.46999998093E+01 0.  1.
</event>
<event>
 5   0  0.9646615E-08  0.3466108E+04  0.7818609E-02  0.8121869E-01
       -1   -1    0    0    0  501  0.00000000000E+00  0.00000000000E+00  0.14600260848E+04  0.14600260848E+04  0.50400001928E-02 0. -1.
        1   -1    0    0  501    0  0.00000000000E+00  0.00000000000E+00 -0.20571387501E+04  0.20571387501E+04  0.50400001928E-02 0.  1.
    10030    2    1    2    0    0  0.00000000000E+00  0.00000000000E+00 -0.59711266531E+03  0.35171648350E+04  0.34661080395E+04 0.  0.
        2    1    3    3  502    0  0.58167370656E+03  0.83435415533E+03 -0.17224312483E+04  0.20003151158E+04  0.25500000920E-02 0.  1.
       -2    1    3    3    0  502 -0.58167370656E+03 -0.83435415533E+03  0.11253185830E+04  0.15168497192E+04  0.25500000920E-02 0. -1.
</event>
<event>
 5   0  0.3008879E-07  0.3685645E+04  0.7818609E-02  0.8071150E-01
        2   -1    0    0  501    0  0.00000000000E+00  0.00000000000E+00  0.27827021849E+04  0.27827021849E+04  0.25500000920E-02 0.  1.
       -2   -1    0    0    0  501  0.00000000000E+00  0.00000000000E+00 -0.12203949241E+04  0.12203949241E+04  0.25500000920E-02 0. -1.
    10030    2    1    2    0    0  0.00000000000E+00  0.00000000000E+00  0.15623072607E+04  0.40030971090E+04  0.36856454641E+04 0.  0.
        2    1    3    3  502    0  0.82296491016E+03  0.15330731192E+04  0.14404018646E+04  0.22588364181E+04  0.25500000920E-02 0.  1.
       -2    1    3    3    0  502 -0.82296491016E+03 -0.15330731192E+04  0.12190539609E+03  0.17442606909E+04  0.25500000920E-02 0. -1.
</event>
<event>
 5   0  0.3032442E-07  0.3798649E+04  0.7818609E-02  0.8046445E-01
       -2   -1    0    0    0  501  0.00000000000E+00  0.00000000000E+00  0.23289227217E+04  0.23289227217E+04  0.25500000920E-02 0.  1.
        2   -1    0    0  501    0  0.00000000000E+00  0.00000000000E+00 -0.15489706408E+04  0.15489706408E+04  0.25500000920E-02 0. -1.
    10030    2    1    2    0    0  0.00000000000E+00  0.00000000000E+00  0.77995208095E+03  0.38778933625E+04  0.37986486653E+04 0.  0.
        3    1    3    3  502    0 -0.25815584155E+03 -0.13196068862E+04 -0.97943475375E+03  0.16635201290E+04  0.10100000352E+00 0. -1.
       -3    1    3    3    0  502  0.25815584155E+03  0.13196068862E+04  0.17593868347E+04  0.22143732334E+04  0.10100000352E+00 0.  1.
</event>
<event>
 5   0  0.3008879E-07  0.3714341E+04  0.7818609E-02  0.8064791E-01
        2   -1    0    0  501    0  0.00000000000E+00  0.00000000000E+00  0.20808187500E+04  0.20808187500E+04  0.25500000920E-02 0. -1.
       -2   -1    0    0    0  501  0.00000000000E+00  0.00000000000E+00 -0.16575605768E+04  0.16575605768E+04  0.25500000920E-02 0.  1.
    10030    2    1    2    0    0  0.00000000000E+00  0.00000000000E+00  0.42325817319E+03  0.37383793268E+04  0.37143414638E+04 0.  0.
        2    1    3    3  502    0  0.40462439221E+03  0.90331553249E+03  0.17932259366E+04  0.20482575789E+04  0.25500000920E-02 0. -1.
       -2    1    3    3    0  502 -0.40462439221E+03 -0.90331553249E+03 -0.13699677634E+04  0.16901217479E+04  0.25500000920E-02 0.  1.
</event>
<event>
 5   0  0.9341000E-08  0.3693169E+04  0.7818609E-02  0.8069477E-01
       -1   -1    0    0    0  501  0.00000000000E+00  0.00000000000E+00  0.12464883997E+04  0.12464883997E+04  0.50400001928E-02 0.  1.
        1   -1    0    0  501    0  0.00000000000E+00  0.00000000000E+00 -0.27355843113E+04  0.27355843113E+04  0.50400001928E-02 0. -1.
    10030    2    1    2    0    0  0.00000000000E+00  0.00000000000E+00 -0.14890959116E+04  0.39820727110E+04  0.36931688889E+04 0.  0.
        3    1    3    3  502    0  0.15521246431E+04 -0.23735183844E+03 -0.17923973858E+04  0.23828796028E+04  0.10100000352E+00 0. -1.
       -3    1    3    3    0  502 -0.15521246431E+04  0.23735183844E+03  0.30330147415E+03  0.15991931082E+04  0.10100000352E+00 0.  1.
</event>
<event>
 5   0  0.9418945E-08  0.3690488E+04  0.7818609E-02  0.8070073E-01
        1   -1    0    0  501    0  0.00000000000E+00  0.00000000000E+00  0.24670740318E+04  0.24670740318E+04  0.50400001928E-02 0.  1.
       -1   -1    0    0    0  501  0.00000000000E+00  0.00000000000E+00 -0.13801470691E+04  0.13801470691E+04  0.50400001928E-02 0. -1.
    10030    2    1    2    0    0  0.00000000000E+00  0.00000000000E+00  0.10869269627E+04  0.38472211009E+04  0.36904877695E+04 0.  0.
        5    1    3    3  502    0  0.32043944419E+03 -0.23181651239E+03 -0.13354364311E+04  0.13927788354E+04  0.46999998093E+01 0. -1.
       -5    1    3    3    0  502 -0.32043944419E+03  0.23181651239E+03  0.24223633938E+04  0.24544422655E+04  0.46999998093E+01 0.  1.
</event>
<event>
 5   0  0.2913025E-07  0.3698417E+04  0.7818609E-02  0.8068313E-01
        2   -1    0    0  501    0  0.00000000000E+00  0.00000000000E+00  0.21325434674E+04  0.21325434674E+04  0.25500000920E-02 0. -1.
       -2   -1    0    0    0  501  0.00000000000E+00  0.00000000000E+00 -0.16035177256E+04  0.16035177256E+04  0.25500000920E-02 0.  1.
    10030    2    1    2    0    0  0.00000000000E+00  0.00000000000E+00  0.52902574175E+03  0.37360611930E+04  0.36984165534E+04 0.  0.
        5    1    3    3  502    0  0.13206629117E+04  0.63365062752E+03 -0.87564071274E+03  0.17065850087E+04  0.46999998093E+01 0.  1.
       -5    1    3    3    0  502 -0.13206629117E+04 -0.63365062752E+03  0.14046664545E+04  0.20294761843E+04  0.46999998093E+01 0. -1.
</event>
<event>
 5   0  0.9418945E-08  0.3690504E+04  0.7818609E-02  0.8070070E-01
        1   -1    0    0  501    0  0.00000000000E+00  0.00000000000E+00  0.25805279188E+04  0.25805279188E+04  0.50400001928E-02 0. -1.
       -1   -1    0    0    0  501  0.00000000000E+00  0.00000000000E+00 -0.13194798627E+04  0.13194798627E+04  0.50400001928E-02 0.  1.
    10030    2    1    2    0    0  0.00000000000E+00  0.00000000000E+00  0.12610480561E+04  0.39000077815E+04  0.36905038268E+04 0.  0.
        5    1    3    3  502    0 -0.61314478274E+03 -0.15595310349E+04  0.14469410189E+04  0.22139882510E+04  0.46999998093E+01 0. -1.
       -5    1    3    3    0  502  0.61314478274E+03  0.15595310349E+04 -0.18589296284E+03  0.16860195304E+04  0.46999998093E+01 0.  1.
</event>
<event>
 5   0  0.9646615E-08  0.3729845E+04  0.7818609E-02  0.8061380E-01
       -1   -1    0    0    0  501  0.00000000000E+00  0.00000000000E+00  0.12324184428E+04  0.12324184428E+04  0.50400001928E-02 0.  1.
        1   -1    0    0  501    0  0.00000000000E+00  0.00000000000E+00 -0.28220415624E+04  0.28220415624E+04  0.50400001928E-02 0. -1.
    10030    2    1    2    0    0  0.00000000000E+00  0.00000000000E+00 -0.15896231196E+04  0.40544600052E+04  0.37298450734E+04 0.  0.
        2    1    3    3  502    0  0.10744866741E+04  0.82695915602E+03  0.59707858275E+03  0.14815147291E+04  0.25500000920E-02 0.  1.
       -2    1    3    3    0  502 -0.10744866741E+04 -0.82695915602E+03 -0.21867017024E+04  0.25729452761E+04  0.25500000920E-02 0. -1.
</event>
<event>
 5   0  0.2913025E-07  0.3680832E+04  0.7818609E-02  0.8072223E-01
        2   -1    0    0  501    0  0.00000000000E+00  0.00000000000E+00  0.29316843127E+04  0.29316843127E+04  0.25500000920E-02 0. -1.
       -2   -1    0    0    0  501  0.00000000000E+00  0.00000000000E+00 -0.11553531626E+04  0.11553531626E+04  0.25500000920E-02 0.  1.
    10030    2    1    2    0    0  0.00000000000E+00  0.00000000000E+00  0.17763311501E+04  0.40870374753E+04  0.36808318312E+04 0.  0.
        5    1    3    3  502    0 -0.16267182010E+04 -0.45309672910E+03  0.75554217500E+02  0.16903370318E+04  0.46999998093E+01 0.  1.
       -5    1    3    3    0  502  0.16267182010E+04  0.45309672910E+03  0.17007769326E+04  0.23967004435E+04  0.46999998093E+01 0. -1.
</event>
<event>
 5   0  0.9341000E-08  0.3711235E+04  0.7818609E-02  0.8065477E-01
        1   -1    0    0  501    0  0.00000000000E+00  0.00000000000E+00  0.20879441994E+04  0.20879441994E+04  0.50400001928E-02 0.  1.
       -1   -1    0    0    0  501  0.00000000000E+00  0.00000000000E+00 -0.16491419623E+04  0.16491419623E+04  0.50400001928E-02 0. -1.
    10030    2    1    2    0    0  0.00000000000E+00  0.00000000000E+00  0.43880223715E+03  0.37370861617E+04  0.37112350474E+04 0.  0.
        1    1    3    3  502    0  0.10295451680E+04 -0.72469868150E+03 -0.11532393020E+04  0.17073700008E+04  0.50400001928E-02 0. -1.
       -1    1    3    3    0  502 -0.10295451680E+04  0.72469868150E+03  0.15920415391E+04  0.20297161610E+04  0.50400001928E-02 0.  1.
</event>
<event>
 5   0  0.3032442E-07  0.3703212E+04  0.7818609E-02  0.8067250E-01
        2   -1    0    0  501    0  0.00000000000E+00  0.00000000000E+00  0.17308942503E+04  0.17308942503E+04  0.25500000920E-02 0. -1.
       -2   -1    0    0    0  501  0.00000000000E+00  0.00000000000E+00 -0.19807363503E+04  0.19807363503E+04  0.25500000920E-02 0.  1.
    10030    2    1    2    0    0  0.00000000000E+00  0.00000000000E+00 -0.24984210000E+03  0.37116306005E+04  0.37032122056E+04 0.  0.
        3    1    3    3  502    0 -0.96069991676E+03  0.14507328406E+04  0.50966520081E+03  0.18130992063E+04  0.10100000352E+00 0. -1.
       -3    1    3    3    0  502  0.96069991676E+03 -0.14507328406E+04 -0.75950730081E+03  0.18985313942E+04  0.10100000352E+00 0.  1.
</event>
<event>
 5   0  0.2996969E-07  0.3706252E+04  0.7818609E-02  0.8066578E-01
       -2   -1    0    0    0  501  0.00000000000E+00  0.00000000000E+00  0.18341689396E+04  0.18341689396E+04  0.25500000920E-02 0.  1.
        2   -1    0    0  501    0  0.00000000000E+00  0.00000000000E+00 -0.18722792010E+04  0.18722792010E+04  0.25500000920E-02 0. -1.
    10030    2    1    2    0    0  0.00000000000E+00  0.00000000000E+00 -0.38110261471E+02  0.37064481406E+04  0.37062522077E+04 0.  0.
        1    1    3    3  502    0 -0.14414754432E+04  0.92123477879E+03  0.69340893919E+03  0.18458984068E+04  0.50400001928E-02 0.  1.
       -1    1    3    3    0  502  0.14414754432E+04 -0.92123477879E+03 -0.73151920066E+03  0.18605497338E+04  0.50400001928E-02 0. -1.
</event>
<event>
 5   0  0.3032442E-07  0.3661790E+04  0.7818609E-02  0.8076483E-01
        2   -1    0    0  501    0  0.00000000000E+00  0.00000000000E+00  0.24330477608E+04  0.24330477608E+04  0.25500000920E-02 0. -1.
       -2   -1    0    0    0  501  0.00000000000E+00  0.00000000000E+00 -0.13777683121E+04  0.13777683121E+04  0.25500000920E-02 0.  1.
    10030    2    1    2    0    0  0.00000000000E+00  0.00000000000E+00  0.10552794487E+04  0.38108160729E+04  0.36617897846E+04 0.  0.
        3    1    3    3  502    0  0.12673756485E+04  0.96438172466E+03  0.14676743081E+04  0.21657195178E+04  0.10100000352E+00 0. -1.
       -3    1    3    3    0  502 -0.12673756485E+04 -0.96438172466E+03 -0.41239485937E+03  0.16450965550E+04  0.10100000352E+00 0.  1.
</event>
<event>
 5   0  0.9646615E-08  0.3658621E+04  0.7818609E-02  0.8077194E-01
       -1   -1    0    0    0  501  0.00000000000E+00  0.00000000000E+00  0.15549537955E+04  0.15549537955E+04  0.50400001928E-02 0.  1.
        1   -1    0    0  501    0  0.00000000000E+00  0.00000000000E+00 -0.21520744980E+04  0.21520744980E+04  0.50400001928E-02 0. -1.
    10030    2    1    2    0    0  0.00000000000E+00  0.00000000000E+00 -0.59712070246E+03  0.37070282935E+04  0.36586207285E+04 0.  0.
        2    1    3    3  502    0  0.48454099842E+03 -0.72722832044E+03 -0.19269130103E+04  0.21158059359E+04  0.25500000920E-02 0. -1.
       -2    1    3    3    0  502 -0.48454099842E+03  0.72722832044E+03  0.13297923078E+04  0.15912223576E+04  0.25500000920E-02 0.  1.
</event>
<event>
 5   0  0.2897133E-07  0.3709880E+04  0.7818609E-02  0.8065776E-01
       -2   -1    0    0    0  501  0.00000000000E+00  0.00000000000E+00  0.13412724612E+04  0.13412724612E+04  0.25500000920E-02 0.  1.
        2   -1    0    0  501    0  0.00000000000E+00  0.00000000000E+00 -0.25653265359E+04  0.25653265359E+04  0.25500000920E-02 0. -1.
    10030    2    1    2    0    0  0.00000000000E+00  0.00000000000E+00 -0.12240540747E+04  0.39065989971E+04  0.37098796943E+04 0.  0.
        4    1    3    3  502    0 -0.58477136092E+03 -0.82755351191E+03  0.10240639363E+04  0.14406633605E+04  0.12699999809E+01 0.  1.
       -4    1    3    3    0  502  0.58477136092E+03  0.82755351191E+03 -0.22481180110E+04  0.24659356366E+04  0.12699999809E+01 0. -1.
</event>
<event>
 5   0  0.9418945E-08  0.3697223E+04  0.7818609E-02  0.8068578E-01
        1   -1    0    0  501    0  0.00000000000E+00  0.00000000000E+00  0.13452041242E+04  0.13452041242E+04  0.50400001928E-02 0.  1.
       -1   -1    0    0    0  501  0.00000000000E+00  0.00000000000E+00 -0.25404058499E+04  0.25404058499E+04  0.50400001928E-02 0. -1.
    10030    2    1    2    0    0  0.00000000000E+00  0.00000000000E+00 -0.11952017258E+04  0.38856099741E+04  0.36972229721E+04 0.  0.
        5    1    3    3  502    0  0.11753529959E+04 -0.84666713706E+03  0.60941491037E+03  0.15715306325E+04  0.46999998093E+01 0.  1.
       -5    1    3    3    0  502 -0.11753529959E+04  0.84666713706E+03 -0.18046166361E+04  0.23140793416E+04  0.46999998093E+01 0. -1.
</event>
<event>
 5   0  0.9646615E-08  0.3681192E+04  0.7818609E-02  0.8072143E-01
       -1   -1    0    0    0  501  0.00000000000E+00  0.00000000000E+00  0.13331428942E+04  0.13331428943E+04  0.50400001928E-02 0. -1.
        1   -1    0    0  501    0  0.00000000000E+00  0.00000000000E+00 -0.25412088424E+04  0.25412088424E+04  0.50400001928E-02 0.  1.
    10030    2    1    2    0    0  0.00000000000E+00  0.00000000000E+00 -0.12080659481E+04  0.38743517366E+04  0.36811924758E+04 0.  0.
        2    1    3    3  502    0 -0.17891174236E+04  0.29862801994E+03 -0.93296145320E+03  0.20397394253E+04  0.25500000920E-02 0.  1.
       -2    1    3    3    0  502  0.17891174236E+04 -0.29862801994E+03 -0.27510449491E+03  0.18346123113E+04  0.25500000920E-02 0. -1.
</event>
<event>
 5   0  0.9646615E-08  0.3716697E+04  0.7818609E-02  0.8064272E-01
       -1   -1    0    0    0  501  0.00000000000E+00  0.00000000000E+00  0.21063876852E+04  0.21063876852E+04  0.50400001928E-02 0. -1.
        1   -1    0    0  501    0  0.00000000000E+00  0.00000000000E+00 -0.16395170077E+04  0.16395170077E+04  0.50400001928E-02 0.  1.
    10030    2    1    2    0    0  0.00000000000E+00  0.00000000000E+00  0.46687067749E+03  0.37459046928E+04  0.37166966164E+04 0.  0.
        2    1    3    3  502    0  0.10220472237E+04  0.67730041797E+03  0.16408845587E+04  0.20483697221E+04  0.25500000920E-02 0. -1.
       -2    1    3    3    0  502 -0.10220472237E+04 -0.67730041797E+03 -0.11740138812E+04  0.16975349707E+04  0.25500000920E-02 0.  1.
</event>
<event>
 5   0  0.9341000E-08  0.3750777E+04  0.7818609E-02  0.8056801E-01
        1   -1    0    0  501    0  0.00000000000E+00  0.00000000000E+00  0.17659526171E+04  0.17659526171E+04  0.50400001928E-02 0. -1.
       -1   -1    0    0    0  501  0.00000000000E+00  0.00000000000E+00 -0.19916056431E+04  0.19916056431E+04  0.50400001928E-02 0.  1.
    10030    2    1    2    0    0  0.00000000000E+00  0.00000000000E+00 -0.22565302602E+03  0.37575582602E+04  0.37507765584E+04 0.  0.
        3    1    3    3  502    0 -0.27239126329E+03 -0.13996441452E+04 -0.13331753371E+04  0.19520648614E+04  0.10100000352E+00 0.  1.
       -3    1    3    3    0  502  0.27239126329E+03  0.13996441452E+04  0.11075223111E+04  0.18054933988E+04  0.10100000352E+00 0. -1.
</event>
<event>
 5   0  0.9418945E-08  0.3710010E+04  0.7818609E-02  0.8065747E-01
       -1   -1    0    0    0  501  0.00000000000E+00  0.00000000000E+00  0.13572567099E+04  0.13572567099E+04  0.50400001928E-02 0.  1.
        1   -1    0    0  501    0  0.00000000000E+00  0.00000000000E+00 -0.25352936584E+04  0.25352936584E+04  0.50400001928E-02 0. -1.
    10030    2    1    2    0    0  0.00000000000E+00  0.00000000000E+00 -0.11780369485E+04  0.38925503683E+04  0.37100104202E+04 0.  0.
        5    1    3    3  502    0 -0.17285777902E+04 -0.57395718419E+03 -0.95790544546E+03  0.20579147112E+04  0.46999998093E+01 0. -1.
       -5    1    3    3    0  502  0.17285777902E+04  0.57395718419E+03 -0.22013150308E+03  0.18346356572E+04  0.46999998093E+01 0.  1.
</event>
<event>
 5   0  0.2913025E-07  0.3720332E+04  0.7818609E-02  0.8063471E-01
       -2   -1    0    0    0  501  0.00000000000E+00  0.00000000000E+00  0.15178808568E+04  0.15178808568E+04  0.25500000920E-02 0.  1.
        2   -1    0    0  501    0  0.00000000000E+00  0.00000000000E+00 -0.22796373472E+04  0.22796373472E+04  0.25500000920E-02 0. -1.
    10030    2    1    2    0    0  0.00000000000E+00  0.00000000000E+00 -0.76175649038E+03  0.37975182039E+04  0.37203321839E+04 0.  0.
        5    1    3    3  502    0  0.67956477185E+03  0.67012020159E+03  0.12489088321E+04  0.15718348274E+04  0.46999998093E+01 0.  1.
       -5    1    3    3    0  502 -0.67956477185E+03 -0.67012020159E+03 -0.20106653225E+04  0.22256833766E+04  0.46999998093E+01 0. -1.
</event>
<event>
 5   0  0.9341000E-08  0.3697226E+04  0.7818609E-02  0.8068577E-01
       -1   -1    0    0    0  501  0.00000000000E+00  0.00000000000E+00  0.27948039613E+04  0.27948039613E+04  0.50400001928E-02 0.  1.
        1   -1    0    0  501    0  0.00000000000E+00  0.00000000000E+00 -0.12227580804E+04  0.12227580804E+04  0.50400001928E-02 0. -1.
    10030    2    1    2    0    0  0.00000000000E+00  0.00000000000E+00  0.15720458808E+04  0.40175620417E+04  0.36972255148E+04 0.  0.
        3    1    3    3  502    0 -0.61421078778E+02 -0.13164241746E+04 -0.62268812531E+03  0.14575615486E+04  0.10100000352E+00 0. -1.
       -3    1    3    3    0  502  0.61421078778E+02  0.13164241746E+04  0.21947340062E+04  0.25600004931E+04  0.10100000352E+00 0.  1.
</event>
<event>
 5   0  0.9418945E-08  0.3654679E+04  0.7818609E-02  0.8078080E-01
       -1   -1    0    0    0  501  0.00000000000E+00  0.00000000000E+00  0.14210986733E+04  0.14210986733E+04  0.50400001928E-02 0. -1.
        1   -1    0    0  501    0  0.00000000000E+00  0.00000000000E+00 -0.23497105096E+04  0.23497105096E+04  0.50400001928E-02 0.  1.
    10030    2    1    2    0    0  0.00000000000E+00  0.00000000000E+00 -0.92861183629E+03  0.37708091828E+04  0.36546794594E+04 0.  0.
        5    1    3    3  502    0 -0.32963173156E+03  0.13424678047E+04  0.76877236973E+03  0.15817426882E+04  0.46999998093E+01 0. -1.
       -5    1    3    3    0  502  0.32963173156E+03 -0.13424678047E+04 -0.16973842060E+04  0.21890664947E+04  0.46999998093E+01 0.  1.
</event>
<event>
 5   0  0.9341000E-08  0.3698401E+04  0.7818609E-02  0.8068316E-01
       -1   -1    0    0    0  501  0.00000000000E+00  0.00000000000E+00  0.22332812615E+04  0.22332812615E+04  0.50400001928E-02 0. -1.
        1   -1    0    0  501    0  0.00000000000E+00  0.00000000000E+00 -0.15311742512E+04  0.15311742512E+04  0.50400001928E-02 0.  1.
    10030    2    1    2    0    0  0.00000000000E+00  0.00000000000E+00  0.70210701024E+03  0.37644555127E+04  0.36984011482E+04 0.  0.
        4    1    3    3  502    0  0.13346589260E+04  0.12797668500E+04  0.37200045090E+03  0.18861345624E+04  0.12699999809E+01 0. -1.
       -4    1    3    3    0  502 -0.13346589260E+04 -0.12797668500E+04  0.33010655934E+03  0.18783209503E+04  0.12699999809E+01 0.  1.
</event>
<event>
 5   0  0.9646615E-08  0.3719243E+04  0.7818609E-02  0.8063711E-01
        1   -1    0    0  501    0  0.00000000000E+00  0.00000000000E+00  0.21746068703E+04  0.21746068703E+04  0.50400001928E-02 0.  1.
       -1   -1    0    0    0  501  0.00000000000E+00  0.00000000000E+00 -0.15902612171E+04  0.15902612171E+04  0.50400001928E-02 0. -1.
    10030    2    1    2    0    0  0.00000000000E+00  0.00000000000E+00  0.58434565319E+03  0.37648680875E+04  0.37192434545E+04 0.  0.
        2    1    3    3  502    0  0.65261713148E+03 -0.46332187957E+03  0.19913400102E+04  0.21461619977E+04  0.25500000920E-02 0.  1.
       -2    1    3    3    0  502 -0.65261713148E+03  0.46332187957E+03 -0.14069943570E+04  0.16187060897E+04  0.25500000920E-02 0. -1.
</event>
<event>
 5   0  0.3008879E-07  0.3715529E+04  0.7818609E-02  0.8064529E-01
       -2   -1    0    0    0  501  0.00000000000E+00  0.00000000000E+00  0.12802547058E+04  0.12802547058E+04  0.25500000920E-02 0. -1.
        2   -1    0    0  501    0  0.00000000000E+00  0.00000000000E+00 -0.26957832056E+04  0.26957832056E+04  0.25500000920E-02 0.  1.
    10030    2    1    2    0    0  0.00000000000E+00  0.00000000000E+00 -0.14155284997E+04  0.39760379114E+04  0.37155291063E+04 0.  0.
        2    1    3    3  502    0  0.16269522275E+04  0.50320399488E+03 -0.15021758480E+04  0.22708412735E+04  0.25500000920E-02 0.  1.
       -2    1    3    3    0  502 -0.16269522275E+04 -0.50320399488E+03  0.86647348293E+02  0.17051966379E+04  0.25500000920E-02 0. -1.
</event>
<event>
 5   0  0.3032442E-07  0.3720527E+04  0.7818609E-02  0.8063428E-01
       -2   -1    0    0    0  501  0.00000000000E+00  0.00000000000E+00  0.14974182632E+04  0.14974182632E+04  0.25500000920E-02 0. -1.
        2   -1    0    0  501    0  0.00000000000E+00  0.00000000000E+00 -0.23110306016E+04  0.23110306016E+04  0.25500000920E-02 0.  1.
    10030    2    1    2    0    0  0.00000000000E+00  0.00000000000E+00 -0.81361233842E+03  0.38084488648E+04  0.37205265378E+04 0.  0.
        3    1    3    3  502    0 -0.13882495950E+04  0.11019110600E+04 -0.98507608428E+03  0.20277622701E+04  0.10100000352E+00 0.  1.
       -3    1    3    3    0  502  0.13882495950E+04 -0.11019110600E+04  0.17146374586E+03  0.17806865947E+04  0.10100000352E+00 0. -1.
</event>
<event>
 5   0  0.2897133E-07  0.3694869E+04  0.7818609E-02  0.8069100E-01
        2   -1    0    0  501    0  0.00000000000E+00  0.00000000000E+00  0.23706718203E+04  0.23706718203E+04  0.25500000920E-02 0. -1.
       -2   -1    0    0    0  501  0.00000000000E+00  0.00000000000E+00 -0.14396825723E+04  0.14396825723E+04  0.25500000920E-02 0.  1.
    10030    2    1    2    0    0  0.00000000000E+00  0.00000000000E+00  0.93098924806E+03  0.38103543926E+04  0.36948693641E+04 0.  0.
        4    1    3    3  502    0  0.10082381258E+04  0.43007908487E+03 -0.10680974926E+04  0.15304724774E+04  0.12699999809E+01 0.  1.
       -4    1    3    3    0  502 -0.10082381258E+04 -0.43007908487E+03  0.19990867407E+04  0.22798819152E+04  0.12699999809E+01 0. -1.
</event>
<event>
 5   0  0.9418945E-08  0.3704659E+04  0.7818609E-02  0.8066930E-01
        1   -1    0    0  501    0  0.00000000000E+00  0.00000000000E+00  0.22502259807E+04  0.22502259807E+04  0.50400001928E-02 0. -1.
       -1   -1    0    0    0  501  0.00000000000E+00  0.00000000000E+00 -0.15247912204E+04  0.15247912204E+04  0.50400001928E-02 0.  1.
    10030    2    1    2    0    0  0.00000000000E+00  0.00000000000E+00  0.72543476035E+03  0.37750172011E+04  0.37046591311E+04 0.  0.
        5    1    3    3  502    0  0.78792579380E+03 -0.19558690925E+02  0.20708263834E+04  0.22157512494E+04  0.46999998093E+01 0. -1.
       -5    1    3    3    0  502 -0.78792579380E+03  0.19558690925E+02 -0.13453916231E+04  0.15592659518E+04  0.46999998093E+01 0.  1.
</event>
<event>
 5   0  0.2996969E-07  0.3699783E+04  0.7818609E-02  0.8068010E-01
       -2   -1    0    0    0  501  0.00000000000E+00  0.00000000000E+00  0.16213598364E+04  0.16213598364E+04  0.25500000920E-02 0. -1.
        2   -1    0    0  501    0  0.00000000000E+00  0.00000000000E+00 -0.21106343589E+04  0.21106343589E+04  0.25500000920E-02 0.  1.
    10030    2    1    2    0    0  0.00000000000E+00  0.00000000000E+00 -0.48927452252E+03  0.37319941953E+04  0.36997825768E+04 0.  0.
        1    1    3    3  502    0  0.15075314824E+04  0.94549336611E+03 -0.75449706852E+03  0.19328410960E+04  0.50400001928E-02 0.  1.
       -1    1    3    3    0  502 -0.15075314824E+04 -0.94549336611E+03  0.26522254600E+03  0.17991530993E+04  0.50400001928E-02 0. -1.
</event>
<event>
 5   0  0.2913025E-07  0.3494228E+04  0.7818609E-02  0.8115159E-01
       -2   -1    0    0    0  501  0.00000000000E+00  0.00000000000E+00  0.14290249941E+04  0.14290249941E+04  0.25500000920E-02 0.  1.
        2   -1    0    0  501    0  0.00000000000E+00  0.00000000000E+00 -0.21360065049E+04  0.21360065049E+04  0.25500000920E-02 0. -1.
    10030    2    1    2    0    0  0.00000000000E+00  0.00000000000E+00 -0.70698151087E+03  0.35650314990E+04  0.34942276303E+04 0.  0.
        5    1    3    3  502    0  0.13524687857E+04 -0.95652202107E+03  0.21298812884E+03  0.16701773038E+04  0.46999998093E+01 0.  1.
       -5    1    3    3    0  502 -0.13524687857E+04  0.95652202107E+03 -0.91996963971E+03  0.18948541952E+04  0.46999998093E+01 0. -1.
</event>
<event>
 5   0  0.9341000E-08  0.3701446E+04  0.7818609E-02  0.8067641E-01
       -1   -1    0    0    0  501  0.00000000000E+00  0.00000000000E+00  0.28217466248E+04  0.28217466248E+04  0.50400001928E-02 0.  1.
        1   -1    0    0  501    0  0.00000000000E+00  0.00000000000E+00 -0.12138495408E+04  0.12138495409E+04  0.50400001928E-02 0. -1.
    10030    2    1    2    0    0  0.00000000000E+00  0.00000000000E+00  0.16078970839E+04  0.40355961656E+04  0.37014461200E+04 0.  0.
        4    1    3    3  502    0  0.88421856829E+03 -0.10960394113E+04  0.21132007675E+04  0.25394416639E+04  0.12699999809E+01 0.  1.
       -4    1    3    3    0  502 -0.88421856829E+03  0.10960394113E+04 -0.50530368354E+03  0.14961545018E+04  0.12699999809E+01 0. -1.
</event>
<event>
 5   0  0.9646615E-08  0.3692185E+04  0.7818609E-02  0.8069696E-01
        1   -1    0    0  501    0  0.00000000000E+00  0.00000000000E+00  0.19521577241E+04  0.19521577241E+04  0.50400001928E-02 0.  1.
       -1   -1    0    0    0  501  0.00000000000E+00  0.00000000000E+00 -0.17457902333E+04  0.17457902333E+04  0.50400001928E-02 0. -1.
    10030    2    1    2    0    0  0.00000000000E+00  0.00000000000E+00  0.20636749076E+03  0.36979479574E+04  0.36921852005E+04 0.  0.
        2    1    3    3  502    0  0.84049935098E+03 -0.11555102635E+04 -0.10675781798E+04  0.17836384998E+04  0.25500000920E-02 0. -1.
       -2    1    3    3    0  502 -0.84049935098E+03  0.11555102635E+04  0.12739456706E+04  0.19143094576E+04  0.25500000920E-02 0.  1.
</event>
<event>
 5   0  0.9646615E-08  0.3694929E+04  0.7818609E-02  0.8069087E-01
       -1   -1    0    0    0  501  0.00000000000E+00  0.00000000000E+00  0.21844111894E+04  0.21844111894E+04  0.50400001928E-02 0. -1.
        1   -1    0    0  501    0  0.00000000000E+00  0.00000000000E+00 -0.15624919366E+04  0.15624919366E+04  0.50400001928E-02 0.  1.
    10030    2    1    2    0    0  0.00000000000E+00  0.00000000000E+00  0.62191925273E+03  0.37469031260E+04  0.36949288869E+04 0.  0.
        2    1    3    3  502    0 -0.55581813980E+03  0.84495148403E+03 -0.12568302913E+04  0.16132263313E+04  0.25500000920E-02 0.  1.
       -2    1    3    3    0  502  0.55581813980E+03 -0.84495148403E+03  0.18787495441E+04  0.21336767947E+04  0.25500000920E-02 0. -1.
</event>
<event>
 5   0  0.9418945E-08  0.3693686E+04  0.7818609E-02  0.8069363E-01
        1   -1    0    0  501    0  0.00000000000E+00  0.00000000000E+00  0.26567112047E+04  0.26567112047E+04  0.50400001928E-02 0. -1.
       -1   -1    0    0    0  501  0.00000000000E+00  0.00000000000E+00 -0.12838537896E+04  0.12838537896E+04  0.50400001928E-02 0.  1.
    10030    2    1    2    0    0  0.00000000000E+00  0.00000000000E+00  0.13728574151E+04  0.39405649943E+04  0.36936858275E+04 0.  0.
        5    1    3    3  502    0 -0.68721837237E+03  0.82517139526E+03 -0.91653946807E+03  0.14118227967E+04  0.46999998093E+01 0.  1.
       -5    1    3    3    0  502  0.68721837237E+03 -0.82517139526E+03  0.22893968832E+04  0.25287421976E+04  0.46999998093E+01 0. -1.
</event>
<event>
 5   0  0.9341000E-08  0.3681009E+04  0.7818609E-02  0.8072183E-01
       -1   -1    0    0    0  501  0.00000000000E+00  0.00000000000E+00  0.21616173114E+04  0.21616173114E+04  0.50400001928E-02 0. -1.
        1   -1    0    0  501    0  0.00000000000E+00  0.00000000000E+00 -0.15670938302E+04  0.15670938303E+04  0.50400001928E-02 0.  1.
    10030    2    1    2    0    0  0.00000000000E+00  0.00000000000E+00  0.59452348114E+03  0.37287111416E+04  0.36810091834E+04 0.  0.
        4    1    3    3  502    0 -0.18241777513E+04  0.18873443356E+03  0.13964850603E+03  0.18392249653E+04  0.12699999809E+01 0. -1.
       -4    1    3    3    0  502  0.18241777513E+04 -0.18873443356E+03  0.45487497511E+03  0.18894861764E+04  0.12699999809E+01 0.  1.
</event>
<event>
 5   0  0.3008879E-07  0.3694578E+04  0.7818609E-02  0.8069164E-01
        2   -1    0    0  501    0  0.00000000000E+00  0.00000000000E+00  0.27512331682E+04  0.27512331682E+04  0.25500000920E-02 0. -1.
       -2   -1    0    0    0  501  0.00000000000E+00  0.00000000000E+00 -0.12403445112E+04  0.12403445112E+04  0.25500000920E-02 0.  1.
    10030    2    1    2    0    0  0.00000000000E+00  0.00000000000E+00  0.15108886570E+04  0.39915776794E+04  0.36945781676E+04 0.  0.
        2    1    3    3  502    0  0.19438609484E+03  0.68102076896E+03 -0.10878449502E+04  0.12980685179E+04  0.25500000920E-02 0.  1.
       -2    1    3    3    0  502 -0.19438609484E+03 -0.68102076896E+03  0.25987336072E+04  0.26935091614E+04  0.25500000920E-02 0. -1.
</event>
<event>
 5   0  0.3008879E-07  0.3604222E+04  0.7818609E-02  0.8089525E-01
       -2   -1    0    0    0  501  0.00000000000E+00  0.00000000000E+00  0.11268565988E+04  0.11268565988E+04  0.25500000920E-02 0. -1.
        2   -1    0    0  501    0  0.00000000000E+00  0.00000000000E+00 -0.28820034606E+04  0.28820034606E+04  0.25500000920E-02 0.  1.
    10030    2    1    2    0    0  0.00000000000E+00  0.00000000000E+00 -0.17551468618E+04  0.40088600594E+04  0.36042223114E+04 0.  0.
        2    1    3    3  502    0 -0.14947141527E+04 -0.68818544860E+03 -0.60351810577E+02  0.16466365570E+04  0.25500000920E-02 0. -1.
       -2    1    3    3    0  502  0.14947141527E+04  0.68818544860E+03 -0.16947950512E+04  0.23622235024E+04  0.25500000920E-02 0.  1.
</event>
<event>
 5   0  0.3032442E-07  0.3694607E+04  0.7818609E-02  0.8069158E-01
        2   -1    0    0  501    0  0.00000000000E+00  0.00000000000E+00  0.19743586502E+04  0.19743586502E+04  0.25500000920E-02 0.  1.
       -2   -1    0    0    0  501  0.00000000000E+00  0.00000000000E+00 -0.17284243983E+04  0.17284243983E+04  0.25500000920E-02 0. -1.
    10030    2    1    2    0    0  0.00000000000E+00  0.00000000000E+00  0.24593425191E+03  0.37027830484E+04  0.36946066973E+04 0.  0.
        3    1    3    3  502    0 -0.40806525546E+03 -0.41019609149E+03 -0.16352675223E+04  0.17346117623E+04  0.10100000352E+00 0. -1.
       -3    1    3    3    0  502  0.40806525546E+03  0.41019609149E+03  0.18812017742E+04  0.19681712861E+04  0.10100000352E+00 0.  1.
</event>
<event>
 5   0  0.9341000E-08  0.3718016E+04  0.7818609E-02  0.8063981E-01
       -1   -1    0    0    0  501  0.00000000000E+00  0.00000000000E+00  0.23906455277E+04  0.23906455277E+04  0.50400001928E-02 0.  1.
        1   -1    0    0  501    0  0.00000000000E+00  0.00000000000E+00 -0.14455971560E+04  0.14455971560E+04  0.50400001928E-02 0. -1.
    10030    2    1    2    0    0  0.00000000000E+00  0.00000000000E+00  0.94504837166E+03  0.38362426837E+04  0.37180158019E+04 0.  0.
        1    1    3    3  502    0 -0.14822910516E+04  0.97395400527E+02  0.16257580631E+04  0.22022174973E+04  0.50400001928E-02 0.  1.
       -1    1    3    3    0  502  0.14822910516E+04 -0.97395400527E+02 -0.68070969148E+03  0.16340251864E+04  0.50400001928E-02 0. -1.
</event>
<event>
 5   0  0.9646615E-08  0.3709167E+04  0.7818609E-02  0.8065933E-01
       -1   -1    0    0    0  501  0.00000000000E+00  0.00000000000E+00  0.26088603159E+04  0.26088603159E+04  0.50400001928E-02 0.  1.
        1   -1    0    0  501    0  0.00000000000E+00  0.00000000000E+00 -0.13183843941E+04  0.13183843941E+04  0.50400001928E-02 0. -1.
    10030    2    1    2    0    0  0.00000000000E+00  0.00000000000E+00  0.12904759218E+04  0.39272447100E+04  0.37091674144E+04 0.  0.
        2    1    3    3  502    0  0.16129668592E+04 -0.90829868539E+03  0.52539230318E+03  0.19242415812E+04  0.25500000920E-02 0.  1.
       -2    1    3    3    0  502 -0.16129668592E+04  0.90829868539E+03  0.76508361862E+03  0.20030031288E+04  0.25500000920E-02 0. -1.
</event>
<event>
 5   0  0.9646615E-08  0.3750902E+04  0.7818609E-02  0.8056774E-01
        1   -1    0    0  501    0  0.00000000000E+00  0.00000000000E+00  0.22457074587E+04  0.22457074587E+04  0.50400001928E-02 0.  1.
       -1   -1    0    0    0  501  0.00000000000E+00  0.00000000000E+00 -0.15662401703E+04  0.15662401703E+04  0.50400001928E-02 0. -1.
    10030    2    1    2    0    0  0.00000000000E+00  0.00000000000E+00  0.67946728837E+03  0.38119476290E+04  0.37509024155E+04 0.  0.
        2    1    3    3  502    0  0.12695334902E+04  0.32712030278E+03 -0.10232095679E+04  0.16630336121E+04  0.25500000920E-02 0. -1.
       -2    1    3    3    0  502 -0.12695334902E+04 -0.32712030278E+03  0.17026768562E+04  0.21489140169E+04  0.25500000920E-02 0.  1.
</event>
<event>
 5   0  0.3032442E-07  0.3708789E+04  0.7818609E-02  0.8066017E-01
        2   -1    0    0  501    0  0.00000000000E+00  0.00000000000E+00  0.12605688125E+04  0.12605688125E+04  0.25500000920E-02 0.  1.
       -2   -1    0    0    0  501  0.00000000000E+00  0.00000000000E+00 -0.27279579922E+04  0.27279579922E+04  0.25500000920E-02 0. -1.
    10030    2    1    2    0    0  0.00000000000E+00  0.00000000000E+00 -0.14673891797E+04  0.39885268047E+04  0.37087888949E+04 0.  0.
        3    1    3    3  502    0  0.32584388000E+03 -0.26696696727E+03  0.12084340126E+04  0.12797493383E+04  0.10100000352E+00 0.  1.
       -3    1    3    3    0  502 -0.32584388000E+03  0.26696696727E+03 -0.26758231923E+04  0.27087774664E+04  0.10100000352E+00 0. -1.
</event>
<event>
 5   0  0.3008879E-07  0.3664574E+04  0.7818609E-02  0.8075858E-01
       -2   -1    0    0    0  501  0.00000000000E+00  0.00000000000E+00  0.13328294870E+04  0.13328294870E+04  0.25500000920E-02 0.  1.
        2   -1    0    0  501    0  0.00000000000E+00  0.00000000000E+00 -0.25189088994E+04  0.25189088994E+04  0.25500000920E-02 0. -1.
    10030    2    1    2    0    0  0.00000000000E+00  0.00000000000E+00 -0.11860794125E+04  0.38517383864E+04  0.36645742215E+04 0.  0.
        2    1    3    3  502    0 -0.41574021645E+03 -0.94643359983E+03  0.99707206854E+03  0.14362204553E+04  0.25500000920E-02 0.  1.
       -2    1    3    3    0  502  0.41574021645E+03  0.94643359983E+03 -0.21831514810E+04  0.24155179311E+04  0.25500000920E-02 0. -1.
</event>
<event>
 5   0  0.3008879E-07  0.3739912E+04  0.7818609E-02  0.8059174E-01
        2   -1    0    0  501    0  0.00000000000E+00  0.00000000000E+00  0.28102237210E+04  0.28102237210E+04  0.25500000920E-02 0. -1.
       -2   -1    0    0    0  501  0.00000000000E+00  0.00000000000E+00 -0.12442909059E+04  0.12442909059E+04  0.25500000920E-02 0.  1.
    10030    2    1    2    0    0  0.00000000000E+00  0.00000000000E+00  0.15659328150E+04  0.40545146269E+04  0.37399122020E+04 0.  0.
        2    1    3    3  502    0 -0.13662734494E+04 -0.95959077235E+03  0.16959593282E+04  0.23798730285E+04  0.25500000920E-02 0. -1.
       -2    1    3    3    0  502  0.13662734494E+04  0.95959077235E+03 -0.13002651315E+03  0.16746415984E+04  0.25500000920E-02 0.  1.
</event>
<event>
 5   0  0.9341000E-08  0.3728291E+04  0.7818609E-02  0.8061721E-01
       -1   -1    0    0    0  501  0.00000000000E+00  0.00000000000E+00  0.13903724194E+04  0.13903724194E+04  0.50400001928E-02 0.  1.
        1   -1    0    0  501    0  0.00000000000E+00  0.00000000000E+00 -0.24993578303E+04  0.24993578303E+04  0.50400001928E-02 0. -1.
    10030    2    1    2    0    0  0.00000000000E+00  0.00000000000E+00 -0.11089854108E+04  0.38897302497E+04  0.37282908650E+04 0.  0.
        4    1    3    3  502    0 -0.79776607158E+03 -0.13814246728E+04  0.45177749957E+03  0.16579714574E+04  0.12699999809E+01 0.  1.
       -4    1    3    3    0  502  0.79776607158E+03  0.13814246728E+04 -0.15607629104E+04  0.22317587923E+04  0.12699999809E+01 0. -1.
</event>
<event>
 5   0  0.2996969E-07  0.3768540E+04  0.7818609E-02  0.8052940E-01
       -2   -1    0    0    0  501  0.00000000000E+00  0.00000000000E+00  0.21151639787E+04  0.21151639787E+04  0.25500000920E-02 0. -1.
        2   -1    0    0  501    0  0.00000000000E+00  0.00000000000E+00 -0.16785803447E+04  0.16785803447E+04  0.25500000920E-02 0.  1.
    10030    2    1    2    0    0  0.00000000000E+00  0.00000000000E+00  0.43658363397E+03  0.37937443235E+04  0.37685396007E+04 0.  0.
        1    1    3    3  502    0  0.99553149044E+03 -0.12557435945E+04 -0.77954783773E+03  0.17820408960E+04  0.50400001928E-02 0.  1.
       -1    1    3    3    0  502 -0.99553149044E+03  0.12557435945E+04  0.12161314717E+04  0.20117034275E+04  0.50400001928E-02 0. -1.
</event>
<event>
 5   0  0.3032442E-07  0.3759126E+04  0.7818609E-02  0.8054984E-01
        2   -1    0    0  501    0  0.00000000000E+00  0.00000000000E+00  0.26451165355E+04  0.26451165355E+04  0.25500000920E-02 0.  1.
       -2   -1    0    0    0  501  0.00000000000E+00  0.00000000000E+00 -0.13355768497E+04  0.13355768497E+04  0.25500000920E-02 0. -1.
    10030    2    1    2    0    0  0.00000000000E+00  0.00000000000E+00  0.13095396858E+04  0.39806933853E+04  0.37591256482E+04 0.  0.
        3    1    3    3  502    0 -0.47402956200E+03  0.41090467384E+03 -0.12214427664E+04  0.13731238540E+04  0.10100000352E+00 0. -1.
       -3    1    3    3    0  502  0.47402956200E+03 -0.41090467384E+03  0.25309824522E+04  0.26075695312E+04  0.10100000352E+00 0.  1.
</event>
<event>
 5   0  0.9646615E-08  0.3701656E+04  0.7818609E-02  0.8067595E-01
       -1   -1    0    0    0  501  0.00000000000E+00  0.00000000000E+00  0.30102969433E+04  0.30102969433E+04  0.50400001928E-02 0. -1.
        1   -1    0    0  501    0  0.00000000000E+00  0.00000000000E+00 -0.11379490594E+04  0.11379490594E+04  0.50400001928E-02 0.  1.
    10030    2    1    2    0    0  0.00000000000E+00  0.00000000000E+00  0.18723478839E+04  0.41482460028E+04  0.37016561565E+04 0.  0.
        2    1    3    3  502    0  0.17373217914E+04  0.38644804841E+03  0.36702757759E+03  0.18172337064E+04  0.25500000920E-02 0.  1.
       -2    1    3    3    0  502 -0.17373217914E+04 -0.38644804841E+03  0.15053203064E+04  0.23310122963E+04  0.25500000920E-02 0. -1.
</event>
<event>
 5   0  0.3032442E-07  0.3714454E+04  0.7818609E-02  0.8064766E-01
       -2   -1    0    0    0  501  0.00000000000E+00  0.00000000000E+00  0.18725317148E+04  0.18725317148E+04  0.25500000920E-02 0.  1.
        2   -1    0    0  501    0  0.00000000000E+00  0.00000000000E+00 -0.18420476618E+04  0.18420476618E+04  0.25500000920E-02 0. -1.
    10030    2    1    2    0    0  0.00000000000E+00  0.00000000000E+00  0.30484053028E+02  0.37145793767E+04  0.37144542894E+04 0.  0.
        3    1    3    3  502    0  0.97605988032E+03 -0.80491361017E+02 -0.15628228087E+04  0.18443391474E+04  0.10100000352E+00 0. -1.
       -3    1    3    3    0  502 -0.97605988032E+03  0.80491361017E+02  0.15933068617E+04  0.18702402292E+04  0.10100000352E+00 0.  1.
</event>
<event>
 5   0  0.3008879E-07  0.3485701E+04  0.7818609E-02  0.8117187E-01
        2   -1    0    0  501    0  0.00000000000E+00  0.00000000000E+00  0.14688516764E+04  0.14688516764E+04  0.25500000920E-02 0. -1.
       -2   -1    0    0    0  501  0.00000000000E+00  0.00000000000E+00 -0.20679605932E+04  0.20679605932E+04  0.25500000920E-02 0.  1.
    10030    2    1    2    0    0  0.00000000000E+00  0.00000000000E+00 -0.59910891674E+03  0.35368122696E+04  0.34857007239E+04 0.  0.
        2    1    3    3  502    0  0.12456046094E+04 -0.52178448691E+03 -0.14174064253E+04  0.19577616985E+04  0.25500000920E-02 0.  1.
       -2    1    3    3    0  502 -0.12456046094E+04  0.52178448691E+03  0.81829750853E+03  0.15790505711E+04  0.25500000920E-02 0. -1.
</event>
<event>
 5   0  0.2913025E-07  0.3726982E+04  0.7818609E-02  0.8062008E-01
       -2   -1    0    0    0  501  0.00000000000E+00  0.00000000000E+00  0.20016552110E+04  0.20016552110E+04  0.25500000920E-02 0. -1.
        2   -1    0    0  501    0  0.00000000000E+00  0.00000000000E+00 -0.17348636484E+04  0.17348636484E+04  0.25500000920E-02 0.  1.
    10030    2    1    2    0    0  0.00000000000E+00  0.00000000000E+00  0.26679156259E+03  0.37365188595E+04  0.37269820833E+04 0.  0.
        5    1    3    3  502    0 -0.39151557169E+03  0.15858456570E+04  0.10325663707E+04  0.19324612003E+04  0.46999998093E+01 0. -1.
       -5    1    3    3    0  502  0.39151557169E+03 -0.15858456570E+04 -0.76577480811E+03  0.18040576592E+04  0.46999998093E+01 0.  1.
</event>
<event>
 5   0  0.9418945E-08  0.3721351E+04  0.7818609E-02  0.8063247E-01
        1   -1    0    0  501    0  0.00000000000E+00  0.00000000000E+00  0.24570608660E+04  0.24570608660E+04  0.50400001928E-02 0.  1.
       -1   -1    0    0    0  501  0.00000000000E+00  0.00000000000E+00 -0.14090469334E+04  0.14090469334E+04  0.50400001928E-02 0. -1.
    10030    2    1    2    0    0  0.00000000000E+00  0.00000000000E+00  0.10480139326E+04  0.38661077994E+04  0.37213514096E+04 0.  0.
        5    1    3    3  502    0  0.63137914373E+03 -0.17498241471E+04  0.56514289726E+03  0.19442049154E+04  0.46999998093E+01 0. -1.
       -5    1    3    3    0  502 -0.63137914373E+03  0.17498241471E+04  0.48287103530E+03  0.19219028840E+04  0.46999998093E+01 0.  1.
</event>
<event>
 5   0  0.9341000E-08  0.3738844E+04  0.7818609E-02  0.8059408E-01
        3   -1    0    0  501    0  0.00000000000E+00  0.00000000000E+00  0.16604330703E+04  0.16604330734E+04  0.10100000352E+00 0.  1.
       -3   -1    0    0    0  501  0.00000000000E+00  0.00000000000E+00 -0.21047146348E+04  0.21047146373E+04  0.10100000352E+00 0. -1.
    10030    2    1    2    0    0  0.00000000000E+00  0.00000000000E+00 -0.44428156456E+03  0.37651477106E+04  0.37388435611E+04 0.  0.
        2    1    3    3  502    0  0.13757928942E+04 -0.69479000497E+02 -0.14947977931E+04  0.20327454001E+04  0.25500000920E-02 0. -1.
       -2    1    3    3    0  502 -0.13757928942E+04  0.69479000497E+02  0.10505162285E+04  0.17324023106E+04  0.25500000920E-02 0.  1.
</event>
<event>
 5   0  0.2996969E-07  0.3666146E+04  0.7818609E-02  0.8075506E-01
       -2   -1    0    0    0  501  0.00000000000E+00  0.00000000000E+00  0.16268668781E+04  0.16268668781E+04  0.25500000920E-02 0. -1.
        2   -1    0    0  501    0  0.00000000000E+00  0.00000000000E+00 -0.20654156605E+04  0.20654156605E+04  0.25500000920E-02 0.  1.
    10030    2    1    2    0    0  0.00000000000E+00  0.00000000000E+00 -0.43854878236E+03  0.36922825386E+04  0.36661458387E+04 0.  0.
        1    1    3    3  502    0 -0.63845651000E+03 -0.17177401454E+04 -0.26315570881E+03  0.18513532481E+04  0.50400001928E-02 0.  1.
       -1    1    3    3    0  502  0.63845651000E+03  0.17177401454E+04 -0.17539307355E+03  0.18409292905E+04  0.50400001928E-02 0. -1.
</event>
<event>
 5   0  0.9341000E-08  0.3679195E+04  0.7818609E-02  0.8072588E-01
       -1   -1    0    0    0  501  0.00000000000E+00  0.00000000000E+00  0.13036491055E+04  0.13036491055E+04  0.50400001928E-02 0.  1.
        1   -1    0    0  501    0  0.00000000000E+00  0.00000000000E+00 -0.25958813697E+04  0.25958813697E+04  0.50400001928E-02 0. -1.
    10030    2    1    2    0    0  0.00000000000E+00  0.00000000000E+00 -0.12922322642E+04  0.38995304752E+04  0.36791947084E+04 0.  0.
        4    1    3    3  502    0 -0.34742946109E+03  0.12993126017E+04  0.68411434734E+03  0.15089514639E+04  0.12699999809E+01 0.  1.
       -4    1    3    3    0  502  0.34742946109E+03 -0.12993126017E+04 -0.19763466116E+04  0.23905790113E+04  0.12699999809E+01 0. -1.
</event>
<event>
 5   0  0.3008879E-07  0.3596536E+04  0.7818609E-02  0.8091286E-01
        2   -1    0    0  501    0  0.00000000000E+00  0.00000000000E+00  0.18203789853E+04  0.18203789853E+04  0.25500000920E-02 0. -1.
       -2   -1    0    0    0  501  0.00000000000E+00  0.00000000000E+00 -0.17764255580E+04  0.17764255581E+04  0.25500000920E-02 0.  1.
    10030    2    1    2    0    0  0.00000000000E+00  0.00000000000E+00  0.43953427238E+02  0.35968045433E+04  0.35965359750E+04 0.  0.
        2    1    3    3  502    0  0.19705321997E+02 -0.14333983479E+04  0.11077596948E+04  0.18116706833E+04  0.25500000920E-02 0. -1.
       -2    1    3    3    0  502 -0.19705321997E+02  0.14333983479E+04 -0.10638062675E+04  0.17851338600E+04  0.25500000920E-02 0.  1.
</event>
<event>
 5   0  0.9341000E-08  0.3696292E+04  0.7818609E-02  0.8068784E-01
        1   -1    0    0  501    0  0.00000000000E+00  0.00000000000E+00  0.11242289565E+04  0.11242289565E+04  0.50400001928E-02 0.  1.
       -1   -1    0    0    0  501  0.00000000000E+00  0.00000000000E+00 -0.30382106840E+04  0.30382106840E+04  0.50400001928E-02 0. -1.
    10030    2    1    2    0    0  0.00000000000E+00  0.00000000000E+00 -0.19139817276E+04  0.41624396405E+04  0.36962924272E+04 0.  0.
        1    1    3    3  502    0 -0.30914273494E+02  0.13210381246E+04 -0.24120510317E+04  0.27502886391E+04  0.50400001928E-02 0. -1.
       -1    1    3    3    0  502  0.30914273494E+02 -0.13210381246E+04  0.49806930414E+03  0.14121510014E+04  0.50400001928E-02 0.  1.
</event>
<event>
 5   0  0.2897133E-07  0.3739887E+04  0.7818609E-02  0.8059179E-01
        2   -1    0    0  501    0  0.00000000000E+00  0.00000000000E+00  0.18623624932E+04  0.18623624932E+04  0.25500000920E-02 0.  1.
       -2   -1    0    0    0  501  0.00000000000E+00  0.00000000000E+00 -0.18775552180E+04  0.18775552180E+04  0.25500000920E-02 0. -1.
    10030    2    1    2    0    0  0.00000000000E+00  0.00000000000E+00 -0.15192724745E+02  0.37399177112E+04  0.37398868522E+04 0.  0.
        4    1    3    3  502    0  0.17469024088E+04  0.34731387692E+02 -0.67379440568E+03  0.18726651621E+04  0.12699999809E+01 0. -1.
       -4    1    3    3    0  502 -0.17469024088E+04 -0.34731387692E+02  0.65860168094E+03  0.18672525491E+04  0.12699999809E+01 0.  1.
</event>
<event>
 5   0  0.9341000E-08  0.3712777E+04  0.7818609E-02  0.8065136E-01
        1   -1    0    0  501    0  0.00000000000E+00  0.00000000000E+00  0.19386308721E+04  0.19386308721E+04  0.50400001928E-02 0. -1.
       -1   -1    0    0    0  501  0.00000000000E+00  0.00000000000E+00 -0.17776350452E+04  0.17776350452E+04  0.50400001928E-02 0.  1.
    10030    2    1    2    0    0  0.00000000000E+00  0.00000000000E+00  0.16099582687E+03  0.37162659173E+04  0.37127769543E+04 0.  0.
        4    1    3    3  502    0 -0.13171835356E+04  0.82659989173E+03  0.10953228080E+04  0.19020971358E+04  0.12699999809E+01 0. -1.
       -4    1    3    3    0  502  0.13171835356E+04 -0.82659989173E+03 -0.93432698109E+03  0.18141687815E+04  0.12699999809E+01 0.  1.
</event>
<event>
 5   0  0.2913025E-07  0.3700379E+04  0.7818609E-02  0.8067878E-01
        2   -1    0    0  501    0  0.00000000000E+00  0.00000000000E+00  0.28709581337E+04  0.28709581337E+04  0.25500000920E-02 0. -1.
       -2   -1    0    0    0  501  0.00000000000E+00  0.00000000000E+00 -0.11923551214E+04  0.11923551214E+04  0.25500000920E-02 0.  1.
    10030    2    1    2    0    0  0.00000000000E+00  0.00000000000E+00  0.16786030123E+04  0.40633132551E+04  0.37003792422E+04 0.  0.
        5    1    3    3  502    0 -0.70591082496E+03  0.13703733254E+04 -0.28425855448E+03  0.15675006091E+04  0.46999998093E+01 0.  1.
       -5    1    3    3    0  502  0.70591082496E+03 -0.13703733254E+04  0.19628615668E+04  0.24958126460E+04  0.46999998093E+01 0. -1.
</event>
<event>
 5   0  0.9341000E-08  0.3419447E+04  0.7818609E-02  0.8133150E-01
        1   -1    0    0  501    0  0.00000000000E+00  0.00000000000E+00  0.21314754720E+04  0.21314754720E+04  0.50400001928E-02 0. -1.
       -1   -1    0    0    0  501  0.00000000000E+00  0.00000000000E+00 -0.13714226498E+04  0.13714226498E+04  0.50400001928E-02 0.  1.
    10030    2    1    2    0    0  0.00000000000E+00  0.00000000000E+00  0.76005282221E+03  0.35028981218E+04  0.34194465866E+04 0.  0.
        4    1    3    3  502    0  0.49427361107E+03 -0.18889595108E+03 -0.12854318042E+04  0.13900807959E+04  0.12699999809E+01 0.  1.
       -4    1    3    3    0  502 -0.49427361107E+03  0.18889595108E+03  0.20454846264E+04  0.21128173259E+04  0.12699999809E+01 0. -1.
</event>
<event>
 5   0  0.9418945E-08  0.3663182E+04  0.7818609E-02  0.8076170E-01
       -1   -1    0    0    0  501  0.00000000000E+00  0.00000000000E+00  0.14596262286E+04  0.14596262286E+04  0.50400001928E-02 0. -1.
        1   -1    0    0  501    0  0.00000000000E+00  0.00000000000E+00 -0.22983457217E+04  0.22983457217E+04  0.50400001928E-02 0.  1.
    10030    2    1    2    0    0  0.00000000000E+00  0.00000000000E+00 -0.83871949316E+03  0.37579719503E+04  0.36631820581E+04 0.  0.
        5    1    3    3  502    0 -0.69650579880E+02 -0.67902439717E+03  0.13242614312E+04  0.14898374956E+04  0.46999998093E+01 0. -1.
       -5    1    3    3    0  502  0.69650579880E+02  0.67902439717E+03 -0.21629809244E+04  0.22681344547E+04  0.46999998093E+01 0.  1.
</event>
<event>
 5   0  0.2996969E-07  0.3691771E+04  0.7818609E-02  0.8069788E-01
        2   -1    0    0  501    0  0.00000000000E+00  0.00000000000E+00  0.13232550153E+04  0.13232550153E+04  0.25500000920E-02 0.  1.
       -2   -1    0    0    0  501  0.00000000000E+00  0.00000000000E+00 -0.25749329314E+04  0.25749329314E+04  0.25500000920E-02 0. -1.
    10030    2    1    2    0    0  0.00000000000E+00  0.00000000000E+00 -0.12516779161E+04  0.38981879467E+04  0.36917708030E+04 0.  0.
        1    1    3    3  502    0 -0.31536680413E+03  0.21856267629E+03  0.12806807970E+04  0.13369252666E+04  0.50400001928E-02 0.  1.
       -1    1    3    3    0  502  0.31536680413E+03 -0.21856267629E+03 -0.25323587131E+04  0.25612626801E+04  0.50400001928E-02 0. -1.
</event>
<event>
 5   0  0.9418945E-08  0.3689639E+04  0.7818609E-02  0.8070262E-01
       -1   -1    0    0    0  501  0.00000000000E+00  0.00000000000E+00  0.23629157038E+04  0.23629157038E+04  0.50400001928E-02 0.  1.
        1   -1    0    0  501    0  0.00000000000E+00  0.00000000000E+00 -0.14403215925E+04  0.14403215925E+04  0.50400001928E-02 0. -1.
    10030    2    1    2    0    0  0.00000000000E+00  0.00000000000E+00  0.92259411127E+03  0.38032372963E+04  0.36896387408E+04 0.  0.
        5    1    3    3  502    0 -0.55520159575E+03  0.98122935677E+03 -0.10438930114E+04  0.15364877389E+04  0.46999998093E+01 0. -1.
       -5    1    3    3    0  502  0.55520159575E+03 -0.98122935677E+03  0.19664871226E+04  0.22667495574E+04  0.46999998093E+01 0.  1.
</event>
<event>
 5   0  0.2996969E-07  0.3661430E+04  0.7818609E-02  0.8076564E-01
       -2   -1    0    0    0  501  0.00000000000E+00  0.00000000000E+00  0.14348561213E+04  0.14348561213E+04  0.25500000920E-02 0. -1.
        2   -1    0    0  501    0  0.00000000000E+00  0.00000000000E+00 -0.23357864743E+04  0.23357864743E+04  0.25500000920E-02 0.  1.
    10030    2    1    2    0    0  0.00000000000E+00  0.00000000000E+00 -0.90093035297E+03  0.37706425956E+04  0.36614300598E+04 0.  0.
        1    1    3    3  502    0 -0.64881409871E+03 -0.11243878418E+04 -0.17798248389E+04  0.22029489805E+04  0.50400001928E-02 0.  1.
       -1    1    3    3    0  502  0.64881409871E+03  0.11243878418E+04  0.87889448597E+03  0.15676936151E+04  0.50400001928E-02 0. -1.
</event>
<event>
 5   0  0.9341000E-08  0.3702334E+04  0.7818609E-02  0.8067445E-01
       -1   -1    0    0    0  501  0.00000000000E+00  0.00000000000E+00  0.26522394274E+04  0.26522394275E+04  0.50400001928E-02 0.  1.
        1   -1    0    0  501    0  0.00000000000E+00  0.00000000000E+00 -0.12920477424E+04  0.12920477424E+04  0.50400001928E-02 0. -1.
    10030    2    1    2    0    0  0.00000000000E+00  0.00000000000E+00  0.13601916851E+04  0.39442871698E+04  0.37023343795E+04 0.  0.
        3    1    3    3  502    0  0.10323085292E+04 -0.11606253987E+04 -0.39274410302E+03  0.16021735724E+04  0.10100000352E+00 0. -1.
       -3    1    3    3    0  502 -0.10323085292E+04  0.11606253987E+04  0.17529357881E+04  0.23421135974E+04  0.10100000352E+00 0.  1.
</event>
<event>
 5   0  0.9418945E-08  0.3719738E+04  0.7818609E-02  0.8063602E-01
       -1   -1    0    0    0  501  0.00000000000E+00  0.00000000000E+00  0.18546586851E+04  0.18546586851E+04  0.50400001928E-02 0. -1.
        1   -1    0    0  501    0  0.00000000000E+00  0.00000000000E+00 -0.18650937250E+04  0.18650937250E+04  0.50400001928E-02 0.  1.
    10030    2    1    2    0    0  0.00000000000E+00  0.00000000000E+00 -0.10435039870E+02  0.37197524101E+04  0.37197377733E+04 0.  0.
        5    1    3    3  502    0  0.47513003352E+02  0.13995882727E+04 -0.12291444605E+04  0.18633096933E+04  0.46999998093E+01 0.  1.
       -5    1    3    3    0  502 -0.47513003352E+02 -0.13995882727E+04  0.12187094206E+04  0.18564427167E+04  0.46999998093E+01 0. -1.
</event>
<event>
 5   0  0.2897133E-07  0.3525202E+04  0.7818609E-02  0.8107843E-01
       -2   -1    0    0    0  501  0.00000000000E+00  0.00000000000E+00  0.15432451495E+04  0.15432451495E+04  0.25500000920E-02 0. -1.
        2   -1    0    0  501    0  0.00000000000E+00  0.00000000000E+00 -0.20131354059E+04  0.20131354059E+04  0.25500000920E-02 0.  1.
    10030    2    1    2    0    0  0.00000000000E+00  0.00000000000E+00 -0.46989025635E+03  0.35563805554E+04  0.35252015264E+04 0.  0.
        4    1    3    3  502    0 -0.43664667919E+01  0.17608883285E+03 -0.20042335219E+04  0.20119592358E+04  0.12699999809E+01 0.  1.
       -4    1    3    3    0  502  0.43664667919E+01 -0.17608883285E+03  0.15343432656E+04  0.15444213196E+04  0.12699999809E+01 0. -1.
</event>
<event>
 5   0  0.3008879E-07  0.3683084E+04  0.7818609E-02  0.8071721E-01
        2   -1    0    0  501    0  0.00000000000E+00  0.00000000000E+00  0.21745651871E+04  0.21745651871E+04  0.25500000920E-02 0.  1.
       -2   -1    0    0    0  501  0.00000000000E+00  0.00000000000E+00 -0.15595193058E+04  0.15595193058E+04  0.25500000920E-02 0. -1.
    10030    2    1    2    0    0  0.00000000000E+00  0.00000000000E+00  0.61504588130E+03  0.37340844930E+04  0.36830837032E+04 0.  0.
        2    1    3    3  502    0 -0.11734449009E+04 -0.10926142217E+04 -0.61083336880E+03  0.17157785922E+04  0.25500000920E-02 0. -1.
       -2    1    3    3    0  502  0.11734449009E+04  0.10926142217E+04  0.12258792501E+04  0.20183059007E+04  0.25500000920E-02 0.  1.
</event>
<event>
 5   0  0.9341000E-08  0.3668079E+04  0.7818609E-02  0.8075073E-01
        1   -1    0    0  501    0  0.00000000000E+00  0.00000000000E+00  0.15298461350E+04  0.15298461351E+04  0.50400001928E-02 0.  1.
       -1   -1    0    0    0  501  0.00000000000E+00  0.00000000000E+00 -0.21987185284E+04  0.21987185284E+04  0.50400001928E-02 0. -1.
    10030    2    1    2    0    0  0.00000000000E+00  0.00000000000E+00 -0.66887239336E+03  0.37285646635E+04  0.36680790846E+04 0.  0.
        1    1    3    3  502    0 -0.27657730559E+03  0.13329395978E+04 -0.15837173845E+04  0.20883926191E+04  0.50400001928E-02 0. -1.
       -1    1    3    3    0  502  0.27657730559E+03 -0.13329395978E+04  0.91484499110E+03  0.16401720444E+04  0.50400001928E-02 0.  1.
</event>
<event>
 5   0  0.2913025E-07  0.3617126E+04  0.7818609E-02  0.8086580E-01
        2   -1    0    0  501    0  0.00000000000E+00  0.00000000000E+00  0.20932686518E+04  0.20932686518E+04  0.25500000920E-02 0. -1.
       -2   -1    0    0    0  501  0.00000000000E+00  0.00000000000E+00 -0.15625802002E+04  0.15625802002E+04  0.25500000920E-02 0.  1.
    10030    2    1    2    0    0  0.00000000000E+00  0.00000000000E+00  0.53068845161E+03  0.36558488519E+04  0.36171260132E+04 0.  0.
        5    1    3    3  502    0  0.58242165108E+03 -0.18191286757E+03  0.19860893532E+04  0.20777103455E+04  0.46999998093E+01 0. -1.
       -5    1    3    3    0  502 -0.58242165108E+03  0.18191286757E+03 -0.14554009016E+04  0.15781385064E+04  0.46999998093E+01 0.  1.
</event>
<event>
 5   0  0.9341000E-08  0.3692887E+04  0.7818609E-02  0.8069540E-01
       -1   -1    0    0    0  501  0.00000000000E+00  0.00000000000E+00  0.18478461180E+04  0.18478461180E+04  0.50400001928E-02 0. -1.
        1   -1    0    0  501    0  0.00000000000E+00  0.00000000000E+00 -0.18450421834E+04  0.18450421834E+04  0.50400001928E-02 0.  1.
    10030    2    1    2    0    0  0.00000000000E+00  0.00000000000E+00  0.28039346043E+01  0.36928883013E+04  0.36928872369E+04 0.  0.
        1    1    3    3  502    0  0.45574215904E+03  0.11321976868E+04 -0.13841602382E+04  0.18453921216E+04  0.50400001928E-02 0.  1.
       -1    1    3    3    0  502 -0.45574215904E+03 -0.11321976868E+04  0.13869641728E+04  0.18474961797E+04  0.50400001928E-02 0. -1.
</event>
<event>
 5   0  0.2897133E-07  0.3695750E+04  0.7818609E-02  0.8068904E-01
       -2   -1    0    0    0  501  0.00000000000E+00  0.00000000000E+00  0.17380232563E+04  0.17380232563E+04  0.25500000920E-02 0. -1.
        2   -1    0    0  501    0  0.00000000000E+00  0.00000000000E+00 -0.19646704365E+04  0.19646704365E+04  0.25500000920E-02 0.  1.
    10030    2    1    2    0    0  0.00000000000E+00  0.00000000000E+00 -0.22664718015E+03  0.37026936928E+04  0.36957504838E+04 0.  0.
        4    1    3    3  502    0  0.13005824865E+04  0.12924994972E+04 -0.34303919779E+03  0.18654080675E+04  0.12699999809E+01 0. -1.
       -4    1    3    3    0  502 -0.13005824865E+04 -0.12924994972E+04  0.11639201764E+03  0.18372856253E+04  0.12699999809E+01 0.  1.
</event>
<event>
 5   0  0.9341000E-08  0.3662963E+04  0.7818609E-02  0.8076220E-01
        1   -1    0    0  501    0  0.00000000000E+00  0.00000000000E+00  0.26181081472E+04  0.26181081472E+04  0.50400001928E-02 0. -1.
       -1   -1    0    0    0  501  0.00000000000E+00  0.00000000000E+00 -0.12812015564E+04  0.12812015564E+04  0.50400001928E-02 0.  1.
    10030    2    1    2    0    0  0.00000000000E+00  0.00000000000E+00  0.13369065908E+04  0.38993097036E+04  0.36629628625E+04 0.  0.
        4    1    3    3  502    0  0.95240150154E+03 -0.14941553634E+04  0.17513685039E+03  0.17805177335E+04  0.12699999809E+01 0.  1.
       -4    1    3    3    0  502 -0.95240150154E+03  0.14941553634E+04  0.11617697404E+04  0.21187919701E+04  0.12699999809E+01 0. -1.
</event>
<event>
 5   0  0.9646615E-08  0.3705641E+04  0.7818609E-02  0.8066713E-01
        1   -1    0    0  501    0  0.00000000000E+00  0.00000000000E+00  0.25055710615E+04  0.25055710615E+04  0.50400001928E-02 0.  1.
       -1   -1    0    0    0  501  0.00000000000E+00  0.00000000000E+00 -0.13701242855E+04  0.13701242855E+04  0.50400001928E-02 0. -1.
    10030    2    1    2    0    0  0.00000000000E+00  0.00000000000E+00  0.11354467760E+04  0.38756953470E+04  0.37056409759E+04 0.  0.
        2    1    3    3  502    0 -0.26366731152E+03  0.81383946047E+03  0.22866435667E+04  0.24414327596E+04  0.25500000920E-02 0.  1.
       -2    1    3    3    0  502  0.26366731152E+03 -0.81383946047E+03 -0.11511967907E+04  0.14342625874E+04  0.25500000920E-02 0. -1.
</event>
<event>
 5   0  0.3008879E-07  0.3716525E+04  0.7818609E-02  0.8064309E-01
        2   -1    0    0  501    0  0.00000000000E+00  0.00000000000E+00  0.15550300467E+04  0.15550300467E+04  0.25500000920E-02 0. -1.
       -2   -1    0    0    0  501  0.00000000000E+00  0.00000000000E+00 -0.22206257729E+04  0.22206257729E+04  0.25500000920E-02 0.  1.
    10030    2    1    2    0    0  0.00000000000E+00  0.00000000000E+00 -0.66559572620E+03  0.37756558197E+04  0.37165251510E+04 0.  0.
        2    1    3    3  502    0  0.63510992094E+03 -0.99523309903E+03  0.11250549645E+04  0.16308286870E+04  0.25500000920E-02 0. -1.
       -2    1    3    3    0  502 -0.63510992094E+03  0.99523309903E+03 -0.17906506907E+04  0.21448271327E+04  0.25500000920E-02 0.  1.
</event>
<event>
 5   0  0.9341000E-08  0.3704794E+04  0.7818609E-02  0.8066900E-01
       -3   -1    0    0    0  501  0.00000000000E+00  0.00000000000E+00  0.16240055557E+04  0.16240055588E+04  0.10100000352E+00 0.  1.
        3   -1    0    0  501    0  0.00000000000E+00  0.00000000000E+00 -0.21129076683E+04  0.21129076707E+04  0.10100000352E+00 0. -1.
    10030    2    1    2    0    0  0.00000000000E+00  0.00000000000E+00 -0.48890211262E+03  0.37369132295E+04  0.37047935448E+04 0.  0.
        4    1    3    3  502    0  0.11242238006E+03  0.16308448396E+04 -0.11232557137E+04  0.19834310408E+04  0.12699999809E+01 0. -1.
       -4    1    3    3    0  502 -0.11242238006E+03 -0.16308448396E+04  0.63435360105E+03  0.17534821888E+04  0.12699999809E+01 0.  1.
</event>
<event>
 5   0  0.9341000E-08  0.3702587E+04  0.7818609E-02  0.8067389E-01
        1   -1    0    0  501    0  0.00000000000E+00  0.00000000000E+00  0.17289117462E+04  0.17289117462E+04  0.50400001928E-02 0.  1.
       -1   -1    0    0    0  501  0.00000000000E+00  0.00000000000E+00 -0.19823384374E+04  0.19823384374E+04  0.50400001928E-02 0. -1.
    10030    2    1    2    0    0  0.00000000000E+00  0.00000000000E+00 -0.25342669116E+03  0.37112501836E+04  0.37025873166E+04 0.  0.
        1    1    3    3  502    0  0.10573567458E+04  0.19822952882E+03  0.13834603195E+04  0.17525012666E+04  0.50400001928E-02 0.  1.
       -1    1    3    3    0  502 -0.10573567458E+04 -0.19822952882E+03 -0.16368870107E+04  0.19587489169E+04  0.50400001928E-02 0. -1.
</event>
<event>
 5   0  0.9418945E-08  0.3671627E+04  0.7818609E-02  0.8074279E-01
       -1   -1    0    0    0  501  0.00000000000E+00  0.00000000000E+00  0.12885603081E+04  0.12885603081E+04  0.50400001928E-02 0.  1.
        1   -1    0    0  501    0  0.00000000000E+00  0.00000000000E+00 -0.26154856634E+04  0.26154856634E+04  0.50400001928E-02 0. -1.
    10030    2    1    2    0    0  0.00000000000E+00  0.00000000000E+00 -0.13269253553E+04  0.39040459716E+04  0.36716268941E+04 0.  0.
        5    1    3    3  502    0  0.19080935855E+03  0.12240510819E+04  0.77709671603E+03  0.14623989396E+04  0.46999998093E+01 0.  1.
       -5    1    3    3    0  502 -0.19080935855E+03 -0.12240510819E+04 -0.21040220713E+04  0.24416470320E+04  0.46999998093E+01 0. -1.
</event>
<event>
 5   0  0.3008879E-07  0.3706723E+04  0.7818609E-02  0.8066473E-01
       -2   -1    0    0    0  501  0.00000000000E+00  0.00000000000E+00  0.14758825179E+04  0.14758825179E+04  0.25500000920E-02 0. -1.
        2   -1    0    0  501    0  0.00000000000E+00  0.00000000000E+00 -0.23273869651E+04  0.23273869651E+04  0.25500000920E-02 0.  1.
    10030    2    1    2    0    0  0.00000000000E+00  0.00000000000E+00 -0.85150444717E+03  0.38032694829E+04  0.37067234772E+04 0.  0.
        2    1    3    3  502    0 -0.81963911812E+03 -0.16618376471E+04 -0.38685593767E+03  0.18929263498E+04  0.25500000920E-02 0. -1.
       -2    1    3    3    0  502  0.81963911812E+03  0.16618376471E+04 -0.46464850950E+03  0.19103431332E+04  0.25500000920E-02 0.  1.
</event>
<event>
 5   0  0.3008879E-07  0.3705140E+04  0.7818609E-02  0.8066824E-01
        2   -1    0    0  501    0  0.00000000000E+00  0.00000000000E+00  0.24822216348E+04  0.24822216348E+04  0.25500000920E-02 0. -1.
       -2   -1    0    0    0  501  0.00000000000E+00  0.00000000000E+00 -0.13826386255E+04  0.13826386256E+04  0.25500000920E-02 0.  1.
    10030    2    1    2    0    0  0.00000000000E+00  0.00000000000E+00  0.10995830092E+04  0.38648602603E+04  0.37051399485E+04 0.  0.
        2    1    3    3  502    0  0.10290519205E+03 -0.18165198565E+04  0.18592530937E+03  0.18289073482E+04  0.25500000920E-02 0.  1.
       -2    1    3    3    0  502 -0.10290519205E+03  0.18165198565E+04  0.91365769985E+03  0.20359529121E+04  0.25500000920E-02 0. -1.
</event>
<event>
 5   0  0.9341000E-08  0.3684291E+04  0.7818609E-02  0.8071452E-01
       -1   -1    0    0    0  501  0.00000000000E+00  0.00000000000E+00  0.21514219124E+04  0.21514219124E+04  0.50400001928E-02 0. -1.
        1   -1    0    0  501    0  0.00000000000E+00  0.00000000000E+00 -0.15773290745E+04  0.15773290745E+04  0.50400001928E-02 0.  1.
    10030    2    1    2    0    0  0.00000000000E+00  0.00000000000E+00  0.57409283783E+03  0.37287509869E+04  0.36842911579E+04 0.  0.
        1    1    3    3  502    0 -0.89877504353E+03  0.11720721698E+04  0.14012175300E+04  0.20359175614E+04  0.50400001928E-02 0. -1.
       -1    1    3    3    0  502  0.89877504353E+03 -0.11720721698E+04 -0.82712469219E+03  0.16928334255E+04  0.50400001928E-02 0.  1.
</event>
<event>
 5   0  0.3032442E-07  0.3705486E+04  0.7818609E-02  0.8066747E-01
        2   -1    0    0  501    0  0.00000000000E+00  0.00000000000E+00  0.22948912929E+04  0.22948912929E+04  0.25500000920E-02 0. -1.
       -2   -1    0    0    0  501  0.00000000000E+00  0.00000000000E+00 -0.14957816122E+04  0.14957816122E+04  0.25500000920E-02 0.  1.
    10030    2    1    2    0    0  0.00000000000E+00  0.00000000000E+00  0.79910968075E+03  0.37906729051E+04  0.37054857700E+04 0.  0.
        3    1    3    3  502    0 -0.10292720409E+04 -0.15392628992E+04  0.46364478686E+03  0.19088472191E+04  0.10100000352E+00 0.  1.
       -3    1    3    3    0  502  0.10292720409E+04  0.15392628992E+04  0.33546489389E+03  0.18818256860E+04  0.10100000352E+00 0. -1.
</event>
<event>
 5   0  0.3032442E-07  0.3733747E+04  0.7818609E-02  0.8060524E-01
        2   -1    0    0  501    0  0.00000000000E+00  0.00000000000E+00  0.19507293603E+04  0.19507293603E+04  0.25500000920E-02 0. -1.
       -2   -1    0    0    0  501  0.00000000000E+00  0.00000000000E+00 -0.17866222885E+04  0.17866222885E+04  0.25500000920E-02 0.  1.
    10030    2    1    2    0    0  0.00000000000E+00  0.00000000000E+00  0.16410707180E+03  0.37373516488E+04  0.37337469405E+04 0.  0.
        3    1    3    3  502    0  0.14068197769E+04  0.65228355854E+03 -0.95846957092E+03  0.18229864657E+04  0.10100000352E+00 0.  1.
       -3    1    3    3    0  502 -0.14068197769E+04 -0.65228355854E+03  0.11225766427E+04  0.19143651831E+04  0.10100000352E+00 0. -1.
</event>
<event>
 5   0  0.2897133E-07  0.3714287E+04  0.7818609E-02  0.8064803E-01
        2   -1    0    0  501    0  0.00000000000E+00  0.00000000000E+00  0.22474206766E+04  0.22474206766E+04  0.25500000920E-02 0.  1.
       -2   -1    0    0    0  501  0.00000000000E+00  0.00000000000E+00 -0.15346400848E+04  0.15346400848E+04  0.25500000920E-02 0. -1.
    10030    2    1    2    0    0  0.00000000000E+00  0.00000000000E+00  0.71278059182E+03  0.37820607614E+04  0.37142869343E+04 0.  0.
        4    1    3    3  502    0 -0.11099055124E+03 -0.14197353546E+04  0.15702040550E+04  0.21197900290E+04  0.12699999809E+01 0.  1.
       -4    1    3    3    0  502  0.11099055124E+03  0.14197353546E+04 -0.85742346317E+03  0.16622707324E+04  0.12699999809E+01 0. -1.
</event>
<event>
 5   0  0.9341000E-08  0.3698815E+04  0.7818609E-02  0.8068224E-01
       -1   -1    0    0    0  501  0.00000000000E+00  0.00000000000E+00  0.13776129377E+04  0.13776129377E+04  0.50400001928E-02 0. -1.
        1   -1    0    0  501    0  0.00000000000E+00  0.00000000000E+00 -0.24827786968E+04  0.24827786968E+04  0.50400001928E-02 0.  1.
    10030    2    1    2    0    0  0.00000000000E+00  0.00000000000E+00 -0.11051657590E+04  0.38603916345E+04  0.36988149746E+04 0.  0.
        4    1    3    3  502    0 -0.63355325167E+03  0.10954975991E+04 -0.19601251228E+04  0.23331516930E+04  0.12699999809E+01 0.  1.
       -4    1    3    3    0  502  0.63355325167E+03 -0.10954975991E+04  0.85495936377E+03  0.15272399415E+04  0.12699999809E+01 0. -1.
</event>
<event>
 5   0  0.9341000E-08  0.3790440E+04  0.7818609E-02  0.8048210E-01
        1   -1    0    0  501    0  0.00000000000E+00  0.00000000000E+00  0.19888009836E+04  0.19888009836E+04  0.50400001928E-02 0. -1.
       -1   -1    0    0    0  501  0.00000000000E+00  0.00000000000E+00 -0.18060422232E+04  0.18060422232E+04  0.50400001928E-02 0.  1.
    10030    2    1    2    0    0  0.00000000000E+00  0.00000000000E+00  0.18275876037E+03  0.37948432068E+04  0.37904398425E+04 0.  0.
        4    1    3    3  502    0 -0.27281726160E+03 -0.90901459666E+03 -0.15509897430E+04  0.18183254910E+04  0.12699999809E+01 0.  1.
       -4    1    3    3    0  502  0.27281726160E+03  0.90901459666E+03  0.17337485034E+04  0.19765177159E+04  0.12699999809E+01 0. -1.
</event>
<event>
 5   0  0.2913025E-07  0.3689998E+04  0.7818609E-02  0.8070182E-01
       -2   -1    0    0    0  501  0.00000000000E+00  0.00000000000E+00  0.18926106241E+04  0.18926106241E+04  0.25500000920E-02 0.  1.
        2   -1    0    0  501    0  0.00000000000E+00  0.00000000000E+00 -0.17985851122E+04  0.17985851122E+04  0.25500000920E-02 0. -1.
    10030    2    1    2    0    0  0.00000000000E+00  0.00000000000E+00  0.94025511954E+02  0.36911957363E+04  0.36899979901E+04 0.  0.
        5    1    3    3  502    0  0.24485972705E+03  0.11612434099E+04  0.14601130196E+04  0.18815936498E+04  0.46999998093E+01 0.  1.
       -5    1    3    3    0  502 -0.24485972705E+03 -0.11612434099E+04 -0.13660875076E+04  0.18096020865E+04  0.46999998093E+01 0. -1.
</event>
<event>
 5   0  0.9341000E-08  0.3674266E+04  0.7818609E-02  0.8073689E-01
       -1   -1    0    0    0  501  0.00000000000E+00  0.00000000000E+00  0.17790715746E+04  0.17790715747E+04  0.50400001928E-02 0. -1.
        1   -1    0    0  501    0  0.00000000000E+00  0.00000000000E+00 -0.18970894847E+04  0.18970894847E+04  0.50400001928E-02 0.  1.
    10030    2    1    2    0    0  0.00000000000E+00  0.00000000000E+00 -0.11801791006E+03  0.36761610594E+04  0.36742661726E+04 0.  0.
        4    1    3    3  502    0  0.43965448719E+03 -0.87274034511E+03 -0.16154733439E+04  0.18880486000E+04  0.12699999809E+01 0.  1.
       -4    1    3    3    0  502 -0.43965448719E+03  0.87274034511E+03  0.14974554339E+04  0.17881124594E+04  0.12699999809E+01 0. -1.
</event>
<event>
 5   0  0.3032442E-07  0.3707893E+04  0.7818609E-02  0.8066215E-01
       -2   -1    0    0    0  501  0.00000000000E+00  0.00000000000E+00  0.18354085172E+04  0.18354085172E+04  0.25500000920E-02 0.  1.
        2   -1    0    0  501    0  0.00000000000E+00  0.00000000000E+00 -0.18726715513E+04  0.18726715513E+04  0.25500000920E-02 0. -1.
    10030    2    1    2    0    0  0.00000000000E+00  0.00000000000E+00 -0.37263034092E+02  0.37080800685E+04  0.37078928329E+04 0.  0.
        3    1    3    3  502    0 -0.14947469533E+04 -0.50361466061E+03 -0.99296051245E+03  0.18638312075E+04  0.10100000352E+00 0. -1.
       -3    1    3    3    0  502  0.14947469533E+04  0.50361466061E+03  0.95569747836E+03  0.18442488609E+04  0.10100000352E+00 0.  1.
</event>
<event>
 5   0  0.2913025E-07  0.3674775E+04  0.7818609E-02  0.8073575E-01
        2   -1    0    0  501    0  0.00000000000E+00  0.00000000000E+00  0.10542437398E+04  0.10542437398E+04  0.25500000920E-02 0. -1.
       -2   -1    0    0    0  501  0.00000000000E+00  0.00000000000E+00 -0.32022883925E+04  0.32022883925E+04  0.25500000920E-02 0.  1.
    10030    2    1    2    0    0  0.00000000000E+00  0.00000000000E+00 -0.21480446528E+04  0.42565321323E+04  0.36747748180E+04 0.  0.
        5    1    3    3  502    0 -0.12516922771E+04 -0.50751056436E+03 -0.25168845011E+04  0.28564016194E+04  0.46999998093E+01 0.  1.
       -5    1    3    3    0  502  0.12516922771E+04  0.50751056436E+03  0.36883984828E+03  0.14001305129E+04  0.46999998093E+01 0. -1.
</event>
<event>
 5   0  0.9341000E-08  0.3731275E+04  0.7818609E-02  0.8061066E-01
       -1   -1    0    0    0  501  0.00000000000E+00  0.00000000000E+00  0.16784412698E+04  0.16784412698E+04  0.50400001928E-02 0. -1.
        1   -1    0    0  501    0  0.00000000000E+00  0.00000000000E+00 -0.20737120515E+04  0.20737120515E+04  0.50400001928E-02 0.  1.
    10030    2    1    2    0    0  0.00000000000E+00  0.00000000000E+00 -0.39527078163E+03  0.37521533213E+04  0.37312753256E+04 0.  0.
        4    1    3    3  502    0 -0.14772165515E+03 -0.15082579782E+04 -0.12918130532E+04  0.19913428619E+04  0.12699999809E+01 0.  1.
       -4    1    3    3    0  502  0.14772165515E+03  0.15082579782E+04  0.89654227160E+03  0.17608104594E+04  0.12699999809E+01 0. -1.
</event>
<event>
 5   0  0.9341000E-08  0.3671828E+04  0.7818609E-02  0.8074234E-01
       -1   -1    0    0    0  501  0.00000000000E+00  0.00000000000E+00  0.16217460707E+04  0.16217460707E+04  0.50400001928E-02 0. -1.
        1   -1    0    0  501    0  0.00000000000E+00  0.00000000000E+00 -0.20783646168E+04  0.20783646168E+04  0.50400001928E-02 0.  1.
    10030    2    1    2    0    0  0.00000000000E+00  0.00000000000E+00 -0.45661854615E+03  0.37001106875E+04  0.36718276925E+04 0.  0.
        3    1    3    3  502    0  0.38241136171E+03  0.17946458843E+04 -0.28866503736E+03  0.18575036510E+04  0.10100000352E+00 0. -1.
       -3    1    3    3    0  502 -0.38241136171E+03 -0.17946458843E+04 -0.16795350880E+03  0.18426070365E+04  0.10100000352E+00 0.  1.
</event>
<event>
 5   0  0.9341000E-08  0.3672587E+04  0.7818609E-02  0.8074064E-01
        1   -1    0    0  501    0  0.00000000000E+00  0.00000000000E+00  0.20543819617E+04  0.20543819618E+04  0.50400001928E-02 0. -1.
       -1   -1    0    0    0  501  0.00000000000E+00  0.00000000000E+00 -0.16413571741E+04  0.16413571741E+04  0.50400001928E-02 0.  1.
    10030    2    1    2    0    0  0.00000000000E+00  0.00000000000E+00  0.41302478767E+03  0.36957391358E+04  0.36725874101E+04 0.  0.
        4    1    3    3  502    0  0.54988286230E+03  0.10221284793E+04 -0.12254319892E+04  0.16878397327E+04  0.12699999809E+01 0.  1.
       -4    1    3    3    0  502 -0.54988286230E+03 -0.10221284793E+04  0.16384567769E+04  0.20078994031E+04  0.12699999809E+01 0. -1.
</event>
<event>
 5   0  0.2913025E-07  0.3550105E+04  0.7818609E-02  0.8102017E-01
       -2   -1    0    0    0  501  0.00000000000E+00  0.00000000000E+00  0.16487132728E+04  0.16487132728E+04  0.25500000920E-02 0.  1.
        2   -1    0    0  501    0  0.00000000000E+00  0.00000000000E+00 -0.19110734000E+04  0.19110734000E+04  0.25500000920E-02 0. -1.
    10030    2    1    2    0    0  0.00000000000E+00  0.00000000000E+00 -0.26236012722E+03  0.35597866728E+04  0.35501053955E+04 0.  0.
        5    1    3    3  502    0 -0.13037975820E+04 -0.73536529851E+03  0.82543400431E+03  0.17093898451E+04  0.46999998093E+01 0.  1.
       -5    1    3    3    0  502  0.13037975820E+04  0.73536529851E+03 -0.10877941315E+04  0.18503968276E+04  0.46999998093E+01 0. -1.
</event>
<event>
 5   0  0.9341000E-08  0.3702763E+04  0.7818609E-02  0.8067350E-01
        1   -1    0    0  501    0  0.00000000000E+00  0.00000000000E+00  0.15432119530E+04  0.15432119530E+04  0.50400001928E-02 0. -1.
       -1   -1    0    0    0  501  0.00000000000E+00  0.00000000000E+00 -0.22210902257E+04  0.22210902257E+04  0.50400001928E-02 0.  1.
    10030    2    1    2    0    0  0.00000000000E+00  0.00000000000E+00 -0.67787827270E+03  0.37643021786E+04  0.37027627441E+04 0.  0.
        4    1    3    3  502    0 -0.68652964854E+03 -0.94866276795E+03 -0.17967618798E+04  0.21446768687E+04  0.12699999809E+01 0.  1.
       -4    1    3    3    0  502  0.68652964854E+03  0.94866276795E+03  0.11188836071E+04  0.16196253100E+04  0.12699999809E+01 0. -1.
</event>
<event>
 5   0  0.9646615E-08  0.3699284E+04  0.7818609E-02  0.8068121E-01
        1   -1    0    0  501    0  0.00000000000E+00  0.00000000000E+00  0.25035584249E+04  0.25035584249E+04  0.50400001928E-02 0.  1.
       -1   -1    0    0    0  501  0.00000000000E+00  0.00000000000E+00 -0.13665248032E+04  0.13665248032E+04  0.50400001928E-02 0. -1.
    10030    2    1    2    0    0  0.00000000000E+00  0.00000000000E+00  0.11370336217E+04  0.38700832281E+04  0.36992835436E+04 0.  0.
        2    1    3    3  502    0 -0.52658266936E+03 -0.17714512853E+04  0.48852938916E+03  0.19115412441E+04  0.25500000920E-02 0.  1.
       -2    1    3    3    0  502  0.52658266936E+03  0.17714512853E+04  0.64850423256E+03  0.19585419841E+04  0.25500000920E-02 0. -1.
</event>
<event>
 5   0  0.9341000E-08  0.3709767E+04  0.7818609E-02  0.8065801E-01
       -3   -1    0    0    0  501  0.00000000000E+00  0.00000000000E+00  0.22408205380E+04  0.22408205403E+04  0.10100000352E+00 0. -1.
        3   -1    0    0  501    0  0.00000000000E+00  0.00000000000E+00 -0.15354167574E+04  0.15354167607E+04  0.10100000352E+00 0.  1.
    10030    2    1    2    0    0  0.00000000000E+00  0.00000000000E+00  0.70540378061E+03  0.37762373010E+04  0.37097673323E+04 0.  0.
        4    1    3    3  502    0 -0.10260623863E+04  0.35240087940E+03 -0.11787825273E+04  0.16020362854E+04  0.12699999809E+01 0.  1.
       -4    1    3    3    0  502  0.10260623863E+04 -0.35240087940E+03  0.18841863079E+04  0.21742010156E+04  0.12699999809E+01 0. -1.
</event>
<event>
 5   0  0.3008879E-07  0.3651541E+04  0.7818609E-02  0.8078787E-01
       -2   -1    0    0    0  501  0.00000000000E+00  0.00000000000E+00  0.29000351142E+04  0.29000351142E+04  0.25500000920E-02 0. -1.
        2   -1    0    0  501    0  0.00000000000E+00  0.00000000000E+00 -0.11494472125E+04  0.11494472125E+04  0.25500000920E-02 0.  1.
    10030    2    1    2    0    0  0.00000000000E+00  0.00000000000E+00  0.17505879017E+04  0.40494823267E+04  0.36515406492E+04 0.  0.
        2    1    3    3  502    0  0.59932448351E+03 -0.16177300153E+04  0.21250189616E+03  0.17382166996E+04  0.25500000920E-02 0.  1.
       -2    1    3    3    0  502 -0.59932448351E+03  0.16177300153E+04  0.15380860055E+04  0.23112656271E+04  0.25500000920E-02 0. -1.
</event>
<event>
 5   0  0.2897133E-07  0.3706937E+04  0.7818609E-02  0.8066426E-01
        2   -1    0    0  501    0  0.00000000000E+00  0.00000000000E+00  0.12616914377E+04  0.12616914377E+04  0.25500000920E-02 0.  1.
       -2   -1    0    0    0  501  0.00000000000E+00  0.00000000000E+00 -0.27228096049E+04  0.27228096049E+04  0.25500000920E-02 0. -1.
    10030    2    1    2    0    0  0.00000000000E+00  0.00000000000E+00 -0.14611181672E+04  0.39845010426E+04  0.37069370456E+04 0.  0.
        4    1    3    3  502    0 -0.10921207742E+04  0.10613027091E+04  0.40507913711E+03  0.15758115198E+04  0.12699999809E+01 0.  1.
       -4    1    3    3    0  502  0.10921207742E+04 -0.10613027091E+04 -0.18661973044E+04  0.24086895228E+04  0.12699999809E+01 0. -1.
</event>
<event>
 5   0  0.3032442E-07  0.3720651E+04  0.7818609E-02  0.8063401E-01
        2   -1    0    0  501    0  0.00000000000E+00  0.00000000000E+00  0.24525009751E+04  0.24525009751E+04  0.25500000920E-02 0.  1.
       -2   -1    0    0    0  501  0.00000000000E+00  0.00000000000E+00 -0.14111351486E+04  0.14111351486E+04  0.25500000920E-02 0. -1.
    10030    2    1    2    0    0  0.00000000000E+00  0.00000000000E+00  0.10413658266E+04  0.38636361237E+04  0.37206506571E+04 0.  0.
        3    1    3    3  502    0  0.12440248041E+04  0.13752698552E+04  0.67416497411E+03  0.19731860810E+04  0.10100000352E+00 0. -1.
       -3    1    3    3    0  502 -0.12440248041E+04 -0.13752698552E+04  0.36720085245E+03  0.18904500427E+04  0.10100000352E+00 0.  1.
</event>
<event>
 5   0  0.9341000E-08  0.3691452E+04  0.7818609E-02  0.8069859E-01
       -1   -1    0    0    0  501  0.00000000000E+00  0.00000000000E+00  0.21103318866E+04  0.21103318866E+04  0.50400001928E-02 0. -1.
        1   -1    0    0  501    0  0.00000000000E+00  0.00000000000E+00 -0.16142976676E+04  0.16142976677E+04  0.50400001928E-02 0.  1.
    10030    2    1    2    0    0  0.00000000000E+00  0.00000000000E+00  0.49603421895E+03  0.37246295542E+04  0.36914516616E+04 0.  0.
        1    1    3    3  502    0 -0.52139264843E+03  0.10054498851E+04 -0.12224502652E+04  0.16664826480E+04  0.50400001928E-02 0.  1.
       -1    1    3    3    0  502  0.52139264843E+03 -0.10054498851E+04  0.17184844841E+04  0.20581469062E+04  0.50400001928E-02 0. -1.
</event>
<event>
 5   0  0.9341000E-08  0.3673217E+04  0.7818609E-02  0.8073923E-01
        1   -1    0    0  501    0  0.00000000000E+00  0.00000000000E+00  0.21466383427E+04  0.21466383427E+04  0.50400001928E-02 0. -1.
       -1   -1    0    0    0  501  0.00000000000E+00  0.00000000000E+00 -0.15713547661E+04  0.15713547661E+04  0.50400001928E-02 0.  1.
    10030    2    1    2    0    0  0.00000000000E+00  0.00000000000E+00  0.57528357657E+03  0.37179931088E+04  0.36732167869E+04 0.  0.
        3    1    3    3  502    0  0.16635775135E+04 -0.37876990667E+03  0.97576242897E+03  0.19654691841E+04  0.10100000352E+00 0. -1.
       -3    1    3    3    0  502 -0.16635775135E+04  0.37876990667E+03 -0.40047885239E+03  0.17525239248E+04  0.10100000352E+00 0.  1.
</event>
<event>
 5   0  0.9418945E-08  0.3735217E+04  0.7818609E-02  0.8060202E-01
        1   -1    0    0  501    0  0.00000000000E+00  0.00000000000E+00  0.31923521503E+04  0.31923521503E+04  0.50400001928E-02 0.  1.
       -1   -1    0    0    0  501  0.00000000000E+00  0.00000000000E+00 -0.10925990079E+04  0.10925990079E+04  0.50400001928E-02 0. -1.
    10030    2    1    2    0    0  0.00000000000E+00  0.00000000000E+00  0.20997531424E+04  0.42849511583E+04  0.37352166162E+04 0.  0.
        5    1    3    3  502    0 -0.23786428998E+03 -0.85996508635E+02  0.31726061452E+04  0.31826760222E+04  0.46999998093E+01 0.  1.
       -5    1    3    3    0  502  0.23786428998E+03  0.85996508635E+02 -0.10728530028E+04  0.11022751360E+04  0.46999998093E+01 0. -1.
</event>
<event>
 5   0  0.9418945E-08  0.3735298E+04  0.7818609E-02  0.8060184E-01
       -1   -1    0    0    0  501  0.00000000000E+00  0.00000000000E+00  0.15027960480E+04  0.15027960480E+04  0.50400001928E-02 0.  1.
        1   -1    0    0  501    0  0.00000000000E+00  0.00000000000E+00 -0.23210816772E+04  0.23210816772E+04  0.50400001928E-02 0. -1.
    10030    2    1    2    0    0  0.00000000000E+00  0.00000000000E+00 -0.81828562923E+03  0.38238777252E+04  0.37352977775E+04 0.  0.
        5    1    3    3  502    0  0.32911003341E+03  0.32232097855E+03 -0.22620051823E+04  0.23084396812E+04  0.46999998093E+01 0. -1.
       -5    1    3    3    0  502 -0.32911003341E+03 -0.32232097855E+03  0.14437195530E+04  0.15154380440E+04  0.46999998093E+01 0.  1.
</event>
<event>
 5   0  0.3008879E-07  0.3675192E+04  0.7818609E-02  0.8073482E-01
       -2   -1    0    0    0  501  0.00000000000E+00  0.00000000000E+00  0.11291562616E+04  0.11291562616E+04  0.25500000920E-02 0. -1.
        2   -1    0    0  501    0  0.00000000000E+00  0.00000000000E+00 -0.29905159805E+04  0.29905159805E+04  0.25500000920E-02 0.  1.
    10030    2    1    2    0    0  0.00000000000E+00  0.00000000000E+00 -0.18613597189E+04  0.41196722421E+04  0.36751924275E+04 0.  0.
        2    1    3    3  502    0 -0.17361425477E+04 -0.54694948681E+03 -0.64840050190E+03  0.19322960172E+04  0.25500000920E-02 0.  1.
       -2    1    3    3    0  502  0.17361425477E+04  0.54694948681E+03 -0.12129592170E+04  0.21873762249E+04  0.25500000920E-02 0. -1.
</event>
<event>
 5   0  0.3008879E-07  0.3678819E+04  0.7818609E-02  0.8072672E-01
       -2   -1    0    0    0  501  0.00000000000E+00  0.00000000000E+00  0.15852957343E+04  0.15852957343E+04  0.25500000920E-02 0.  1.
        2   -1    0    0  501    0  0.00000000000E+00  0.00000000000E+00 -0.21342565000E+04  0.21342565000E+04  0.25500000920E-02 0. -1.
    10030    2    1    2    0    0  0.00000000000E+00  0.00000000000E+00 -0.54896076569E+03  0.37195522343E+04  0.36788192265E+04 0.  0.
        2    1    3    3  502    0 -0.20580042659E+03  0.51820471813E+01  0.15736112917E+04  0.15870202162E+04  0.25500000920E-02 0.  1.
       -2    1    3    3    0  502  0.20580042659E+03 -0.51820471813E+01 -0.21225720574E+04  0.21325320181E+04  0.25500000920E-02 0. -1.
</event>
<event>
 5   0  0.9341000E-08  0.3708000E+04  0.7818609E-02  0.8066191E-01
        1   -1    0    0  501    0  0.00000000000E+00  0.00000000000E+00  0.18610784076E+04  0.18610784076E+04  0.50400001928E-02 0.  1.
       -1   -1    0    0    0  501  0.00000000000E+00  0.00000000000E+00 -0.18469480505E+04  0.18469480505E+04  0.50400001928E-02 0. -1.
    10030    2    1    2    0    0  0.00000000000E+00  0.00000000000E+00  0.14130357065E+02  0.37080264581E+04  0.37079995344E+04 0.  0.
        3    1    3    3  502    0  0.52741787616E+02  0.20849403199E+03 -0.18344322866E+04  0.18469957450E+04  0.10100000352E+00 0. -1.
       -3    1    3    3    0  502 -0.52741787616E+02 -0.20849403199E+03  0.18485626437E+04  0.18610307132E+04  0.10100000352E+00 0.  1.
</event>
<event>
 5   0  0.9341000E-08  0.3694145E+04  0.7818609E-02  0.8069261E-01
        1   -1    0    0  501    0  0.00000000000E+00  0.00000000000E+00  0.23334843790E+04  0.23334843790E+04  0.50400001928E-02 0.  1.
       -1   -1    0    0    0  501  0.00000000000E+00  0.00000000000E+00 -0.14620526019E+04  0.14620526019E+04  0.50400001928E-02 0. -1.
    10030    2    1    2    0    0  0.00000000000E+00  0.00000000000E+00  0.87143177712E+03  0.37955369809E+04  0.36941450474E+04 0.  0.
        1    1    3    3  502    0  0.24262888483E+03  0.99841188283E+03 -0.11413333507E+04  0.15356877551E+04  0.50400001928E-02 0. -1.
       -1    1    3    3    0  502 -0.24262888483E+03 -0.99841188283E+03  0.20127651279E+04  0.22598492258E+04  0.50400001928E-02 0.  1.
</event>
<event>
 5   0  0.2996969E-07  0.3657412E+04  0.7818609E-02  0.8077466E-01
        2   -1    0    0  501    0  0.00000000000E+00  0.00000000000E+00  0.22457007157E+04  0.22457007158E+04  0.25500000920E-02 0. -1.
       -2   -1    0    0    0  501  0.00000000000E+00  0.00000000000E+00 -0.14891413731E+04  0.14891413731E+04  0.25500000920E-02 0.  1.
    10030    2    1    2    0    0  0.00000000000E+00  0.00000000000E+00  0.75655934267E+03  0.37348420888E+04  0.36574121165E+04 0.  0.
        1    1    3    3  502    0  0.27293717264E+01 -0.14765280675E+03  0.22396016119E+04  0.22444652327E+04  0.50400001928E-02 0. -1.
       -1    1    3    3    0  502 -0.27293717264E+01  0.14765280675E+03 -0.14830422693E+04  0.14903768561E+04  0.50400001928E-02 0.  1.
</event>
<event>
 5   0  0.2913025E-07  0.3698024E+04  0.7818609E-02  0.8068400E-01
       -2   -1    0    0    0  501  0.00000000000E+00  0.00000000000E+00  0.14827736732E+04  0.14827736732E+04  0.25500000920E-02 0.  1.
        2   -1    0    0  501    0  0.00000000000E+00  0.00000000000E+00 -0.23057101296E+04  0.23057101296E+04  0.25500000920E-02 0. -1.
    10030    2    1    2    0    0  0.00000000000E+00  0.00000000000E+00 -0.82293645632E+03  0.37884838028E+04  0.36980244879E+04 0.  0.
        5    1    3    3  502    0 -0.54877155269E+03 -0.66543931905E+03 -0.20869763768E+04  0.22581966680E+04  0.46999998093E+01 0. -1.
       -5    1    3    3    0  502  0.54877155269E+03  0.66543931905E+03  0.12640399204E+04  0.15302871348E+04  0.46999998093E+01 0.  1.
</event>
<event>
 5   0  0.9646615E-08  0.3672470E+04  0.7818609E-02  0.8074090E-01
        1   -1    0    0  501    0  0.00000000000E+00  0.00000000000E+00  0.21538641889E+04  0.21538641889E+04  0.50400001928E-02 0. -1.
       -1   -1    0    0    0  501  0.00000000000E+00  0.00000000000E+00 -0.15654463937E+04  0.15654463937E+04  0.50400001928E-02 0.  1.
    10030    2    1    2    0    0  0.00000000000E+00  0.00000000000E+00  0.58841779525E+03  0.37193105826E+04  0.36724699737E+04 0.  0.
        2    1    3    3  502    0  0.17879879687E+04  0.41671215216E+03  0.32942208240E+03  0.18652262336E+04  0.25500000920E-02 0. -1.
       -2    1    3    3    0  502 -0.17879879687E+04 -0.41671215216E+03  0.25899571285E+03  0.18540843490E+04  0.25500000920E-02 0.  1.
</event>
<event>
 5   0  0.9646615E-08  0.3570090E+04  0.7818609E-02  0.8097377E-01
        1   -1    0    0  501    0  0.00000000000E+00  0.00000000000E+00  0.13487165947E+04  0.13487165947E+04  0.50400001928E-02 0. -1.
       -1   -1    0    0    0  501  0.00000000000E+00  0.00000000000E+00 -0.23625319403E+04  0.23625319403E+04  0.50400001928E-02 0.  1.
    10030    2    1    2    0    0  0.00000000000E+00  0.00000000000E+00 -0.10138153456E+04  0.37112485350E+04  0.35700902136E+04 0.  0.
        2    1    3    3  502    0 -0.19731680902E+03  0.10193219731E+04 -0.20163653447E+04  0.22679683444E+04  0.25500000920E-02 0.  1.
       -2    1    3    3    0  502  0.19731680902E+03 -0.10193219731E+04  0.10025499991E+04  0.14432801906E+04  0.25500000920E-02 0. -1.
</event>
<event>
 5   0  0.9341000E-08  0.3725828E+04  0.7818609E-02  0.8062262E-01
       -1   -1    0    0    0  501  0.00000000000E+00  0.00000000000E+00  0.16981690558E+04  0.16981690558E+04  0.50400001928E-02 0.  1.
        1   -1    0    0  501    0  0.00000000000E+00  0.00000000000E+00 -0.20436416646E+04  0.20436416647E+04  0.50400001928E-02 0. -1.
    10030    2    1    2    0    0  0.00000000000E+00  0.00000000000E+00 -0.34547260886E+03  0.37418107205E+04  0.37258282494E+04 0.  0.
        3    1    3    3  502    0 -0.93740324478E+03  0.25023255603E+03  0.14244024890E+04  0.17234452809E+04  0.10100000352E+00 0.  1.
       -3    1    3    3    0  502  0.93740324478E+03 -0.25023255603E+03 -0.17698750978E+04  0.20183654396E+04  0.10100000352E+00 0. -1.
</event>
<event>
 5   0  0.3032442E-07  0.3705090E+04  0.7818609E-02  0.8066835E-01
        2   -1    0    0  501    0  0.00000000000E+00  0.00000000000E+00  0.15038291093E+04  0.15038291093E+04  0.25500000920E-02 0.  1.
       -2   -1    0    0    0  501  0.00000000000E+00  0.00000000000E+00 -0.22821223762E+04  0.22821223762E+04  0.25500000920E-02 0. -1.
    10030    2    1    2    0    0  0.00000000000E+00  0.00000000000E+00 -0.77829326686E+03  0.37859514855E+04  0.37050895051E+04 0.  0.
        3    1    3    3  502    0 -0.26648522245E+03  0.34659223342E+03  0.14503593979E+04  0.15148210928E+04  0.10100000352E+00 0.  1.
       -3    1    3    3    0  502  0.26648522245E+03 -0.34659223342E+03 -0.22286526648E+04  0.22711303926E+04  0.10100000352E+00 0. -1.
</event>
<event>
 5   0  0.9418945E-08  0.3709127E+04  0.7818609E-02  0.8065942E-01
        1   -1    0    0  501    0  0.00000000000E+00  0.00000000000E+00  0.23363705110E+04  0.23363705110E+04  0.50400001928E-02 0.  1.
       -1   -1    0    0    0  501  0.00000000000E+00  0.00000000000E+00 -0.14721149644E+04  0.14721149644E+04  0.50400001928E-02 0. -1.
    10030    2    1    2    0    0  0.00000000000E+00  0.00000000000E+00  0.86425554665E+03  0.38084854754E+04  0.37091271165E+04 0.  0.
        5    1    3    3  502    0  0.13086117302E+04 -0.11605405537E+04 -0.20088058939E+03  0.17605948252E+04  0.46999998093E+01 0. -1.
       -5    1    3    3    0  502 -0.13086117302E+04  0.11605405537E+04  0.10651361360E+04  0.20478906503E+04  0.46999998093E+01 0.  1.
</event>
<event>
 5   0  0.9341000E-08  0.3669546E+04  0.7818609E-02  0.8074745E-01
        1   -1    0    0  501    0  0.00000000000E+00  0.00000000000E+00  0.14474770999E+04  0.14474770999E+04  0.50400001928E-02 0. -1.
       -1   -1    0    0    0  501  0.00000000000E+00  0.00000000000E+00 -0.23256961789E+04  0.23256961790E+04  0.50400001928E-02 0.  1.
    10030    2    1    2    0    0  0.00000000000E+00  0.00000000000E+00 -0.87821907908E+03  0.37731732788E+04  0.36695459993E+04 0.  0.
        4    1    3    3  502    0 -0.69227033073E+03  0.41905753352E+03 -0.21322876903E+04  0.22806796869E+04  0.12699999809E+01 0.  1.
       -4    1    3    3    0  502  0.69227033073E+03 -0.41905753352E+03  0.12540686113E+04  0.14924935919E+04  0.12699999809E+01 0. -1.
</event>
<event>
 5   0  0.3032442E-07  0.3697955E+04  0.7818609E-02  0.8068415E-01
       -2   -1    0    0    0  501  0.00000000000E+00  0.00000000000E+00  0.11801884770E+04  0.11801884770E+04  0.25500000920E-02 0.  1.
        2   -1    0    0  501    0  0.00000000000E+00  0.00000000000E+00 -0.28967556664E+04  0.28967556664E+04  0.25500000920E-02 0. -1.
    10030    2    1    2    0    0  0.00000000000E+00  0.00000000000E+00 -0.17165671894E+04  0.40769441434E+04  0.36979549257E+04 0.  0.
        3    1    3    3  502    0  0.44097092067E+03  0.98068313515E+03  0.80004136859E+03  0.13402466064E+04  0.10100000352E+00 0.  1.
       -3    1    3    3    0  502 -0.44097092067E+03 -0.98068313515E+03 -0.25166085580E+04  0.27366975370E+04  0.10100000352E+00 0. -1.
</event>
<event>
 5   0  0.2913025E-07  0.3697917E+04  0.7818609E-02  0.8068424E-01
        2   -1    0    0  501    0  0.00000000000E+00  0.00000000000E+00  0.18265176944E+04  0.18265176944E+04  0.25500000920E-02 0.  1.
       -2   -1    0    0    0  501  0.00000000000E+00  0.00000000000E+00 -0.18716754036E+04  0.18716754036E+04  0.25500000920E-02 0. -1.
    10030    2    1    2    0    0  0.00000000000E+00  0.00000000000E+00 -0.45157709164E+02  0.36981930981E+04  0.36979173830E+04 0.  0.
        5    1    3    3  502    0  0.16466350731E+04  0.72479032718E+03  0.40394804512E+03  0.18438883359E+04  0.46999998093E+01 0.  1.
       -5    1    3    3    0  502 -0.16466350731E+04 -0.72479032718E+03 -0.44910575428E+03  0.18543047621E+04  0.46999998093E+01 0. -1.
</event>
<event>
 5   0  0.2913025E-07  0.3699282E+04  0.7818609E-02  0.8068121E-01
        2   -1    0    0  501    0  0.00000000000E+00  0.00000000000E+00  0.27136274071E+04  0.27136274071E+04  0.25500000920E-02 0.  1.
       -2   -1    0    0    0  501  0.00000000000E+00  0.00000000000E+00 -0.12607374923E+04  0.12607374924E+04  0.25500000920E-02 0. -1.
    10030    2    1    2    0    0  0.00000000000E+00  0.00000000000E+00  0.14528899147E+04  0.39743648994E+04  0.36992819911E+04 0.  0.
        5    1    3    3  502    0  0.92482851646E+03 -0.14871390873E+04  0.13659013208E+04  0.22209455100E+04  0.46999998093E+01 0.  1.
       -5    1    3    3    0  502 -0.92482851646E+03  0.14871390873E+04  0.86988593893E+02  0.17534193895E+04  0.46999998093E+01 0. -1.
</event>
<event>
 5   0  0.2913025E-07  0.3618457E+04  0.7818609E-02  0.8086277E-01
       -2   -1    0    0    0  501  0.00000000000E+00  0.00000000000E+00  0.14304016550E+04  0.14304016550E+04  0.25500000920E-02 0. -1.
        2   -1    0    0  501    0  0.00000000000E+00  0.00000000000E+00 -0.22883837488E+04  0.22883837488E+04  0.25500000920E-02 0.  1.
    10030    2    1    2    0    0  0.00000000000E+00  0.00000000000E+00 -0.85798209386E+03  0.37187854038E+04  0.36184570753E+04 0.  0.
        5    1    3    3  502    0 -0.10771371943E+04  0.14286905488E+04 -0.70457632010E+03  0.19229745449E+04  0.46999998093E+01 0.  1.
       -5    1    3    3    0  502  0.10771371943E+04 -0.14286905488E+04 -0.15340577377E+03  0.17958108589E+04  0.46999998093E+01 0. -1.
</event>
<event>
 5   0  0.3008879E-07  0.3661863E+04  0.7818609E-02  0.8076466E-01
       -2   -1    0    0    0  501  0.00000000000E+00  0.00000000000E+00  0.16528759836E+04  0.16528759836E+04  0.25500000920E-02 0. -1.
        2   -1    0    0  501    0  0.00000000000E+00  0.00000000000E+00 -0.20281679395E+04  0.20281679395E+04  0.25500000920E-02 0.  1.
    10030    2    1    2    0    0  0.00000000000E+00  0.00000000000E+00 -0.37529195589E+03  0.36810439230E+04  0.36618629563E+04 0.  0.
        2    1    3    3  502    0  0.41198172897E+03  0.51046467437E+03 -0.19059876989E+04  0.20157113477E+04  0.25500000920E-02 0.  1.
       -2    1    3    3    0  502 -0.41198172897E+03 -0.51046467437E+03  0.15306957430E+04  0.16653325753E+04  0.25500000920E-02 0. -1.
</event>
<event>
 5   0  0.2897133E-07  0.3719905E+04  0.7818609E-02  0.8063565E-01
       -2   -1    0    0    0  501  0.00000000000E+00  0.00000000000E+00  0.28392640331E+04  0.28392640331E+04  0.25500000920E-02 0. -1.
        2   -1    0    0  501    0  0.00000000000E+00  0.00000000000E+00 -0.12184224863E+04  0.12184224863E+04  0.25500000920E-02 0.  1.
    10030    2    1    2    0    0  0.00000000000E+00  0.00000000000E+00  0.16208415467E+04  0.40576865194E+04  0.37199049141E+04 0.  0.
        4    1    3    3  502    0  0.72508425019E+03 -0.16981738429E+04  0.56680259173E+03  0.19315300571E+04  0.12699999809E+01 0. -1.
       -4    1    3    3    0  502 -0.72508425019E+03  0.16981738429E+04  0.10540389550E+04  0.21261564623E+04  0.12699999809E+01 0.  1.
</event>
<event>
 5   0  0.3032442E-07  0.3676104E+04  0.7818609E-02  0.8073278E-01
        2   -1    0    0  501    0  0.00000000000E+00  0.00000000000E+00  0.14491930251E+04  0.14491930251E+04  0.25500000920E-02 0. -1.
       -2   -1    0    0    0  501  0.00000000000E+00  0.00000000000E+00 -0.23312528171E+04  0.23312528171E+04  0.25500000920E-02 0.  1.
    10030    2    1    2    0    0  0.00000000000E+00  0.00000000000E+00 -0.88205979206E+03  0.37804458422E+04  0.36761040911E+04 0.  0.
        3    1    3    3  502    0  0.14741296653E+04  0.10020605996E+04  0.20314115783E+02  0.17825813835E+04  0.10100000352E+00 0. -1.
       -3    1    3    3    0  502 -0.14741296653E+04 -0.10020605996E+04 -0.90237390784E+03  0.19978644587E+04  0.10100000352E+00 0.  1.
</event>
<event>
 5   0  0.2913025E-07  0.3756468E+04  0.7818609E-02  0.8055562E-01
       -2   -1    0    0    0  501  0.00000000000E+00  0.00000000000E+00  0.19119118800E+04  0.19119118800E+04  0.25500000920E-02 0.  1.
        2   -1    0    0  501    0  0.00000000000E+00  0.00000000000E+00 -0.18451492681E+04  0.18451492681E+04  0.25500000920E-02 0. -1.
    10030    2    1    2    0    0  0.00000000000E+00  0.00000000000E+00  0.66762611866E+02  0.37570611481E+04  0.37564679187E+04 0.  0.
        5    1    3    3  502    0  0.13338343766E+04  0.13064010742E+04  0.23821307468E+03  0.18821704147E+04  0.46999998093E+01 0.  1.
       -5    1    3    3    0  502 -0.13338343766E+04 -0.13064010742E+04 -0.17145046281E+03  0.18748907334E+04  0.46999998093E+01 0. -1.
</event>
<event>
 5   0  0.2996969E-07  0.3695050E+04  0.7818609E-02  0.8069060E-01
       -2   -1    0    0    0  501  0.00000000000E+00  0.00000000000E+00  0.23935105177E+04  0.23935105177E+04  0.25500000920E-02 0. -1.
        2   -1    0    0  501    0  0.00000000000E+00  0.00000000000E+00 -0.14260849873E+04  0.14260849873E+04  0.25500000920E-02 0.  1.
    10030    2    1    2    0    0  0.00000000000E+00  0.00000000000E+00  0.96742553041E+03  0.38195955050E+04  0.36950504280E+04 0.  0.
        1    1    3    3  502    0 -0.90154843918E+03  0.16093663781E+04  0.37779099595E+03  0.18829699317E+04  0.50400001928E-02 0.  1.
       -1    1    3    3    0  502  0.90154843918E+03 -0.16093663781E+04  0.58963453446E+03  0.19366255733E+04  0.50400001928E-02 0. -1.
</event>
<event>
 5   0  0.2996969E-07  0.3677653E+04  0.7818609E-02  0.8072932E-01
        2   -1    0    0  501    0  0.00000000000E+00  0.00000000000E+00  0.18807270353E+04  0.18807270353E+04  0.25500000920E-02 0.  1.
       -2   -1    0    0    0  501  0.00000000000E+00  0.00000000000E+00 -0.17978590166E+04  0.17978590166E+04  0.25500000920E-02 0. -1.
    10030    2    1    2    0    0  0.00000000000E+00  0.00000000000E+00  0.82868018731E+02  0.36785860518E+04  0.36776525437E+04 0.  0.
        1    1    3    3  502    0  0.31162142643E+03  0.17916740992E+04 -0.23080793929E+03  0.18331601937E+04  0.50400001928E-02 0. -1.
       -1    1    3    3    0  502 -0.31162142643E+03 -0.17916740992E+04  0.31367595802E+03  0.18454258581E+04  0.50400001928E-02 0.  1.
</event>
<event>
 5   0  0.9646615E-08  0.3700467E+04  0.7818609E-02  0.8067858E-01
       -1   -1    0    0    0  501  0.00000000000E+00  0.00000000000E+00  0.14263073862E+04  0.14263073862E+04  0.50400001928E-02 0. -1.
        1   -1    0    0  501    0  0.00000000000E+00  0.00000000000E+00 -0.24001581056E+04  0.24001581056E+04  0.50400001928E-02 0.  1.
    10030    2    1    2    0    0  0.00000000000E+00  0.00000000000E+00 -0.97385071940E+03  0.38264654918E+04  0.37004665836E+04 0.  0.
        2    1    3    3  502    0 -0.73087725002E+03 -0.36792167291E+03  0.12290408055E+04  0.14765125173E+04  0.25500000920E-02 0. -1.
       -2    1    3    3    0  502  0.73087725002E+03  0.36792167291E+03 -0.22028915249E+04  0.23499529745E+04  0.25500000920E-02 0.  1.
</event>
<event>
 5   0  0.3032442E-07  0.3675408E+04  0.7818609E-02  0.8073434E-01
        2   -1    0    0  501    0  0.00000000000E+00  0.00000000000E+00  0.18723181478E+04  0.18723181478E+04  0.25500000920E-02 0.  1.
       -2   -1    0    0    0  501  0.00000000000E+00  0.00000000000E+00 -0.18037294223E+04  0.18037294223E+04  0.25500000920E-02 0. -1.
    10030    2    1    2    0    0  0.00000000000E+00  0.00000000000E+00  0.68588725569E+02  0.36760475701E+04  0.36754076406E+04 0.  0.
        3    1    3    3  502    0  0.14406973616E+04  0.10063295532E+04 -0.50324433845E+03  0.18279942373E+04  0.10100000352E+00 0. -1.
       -3    1    3    3    0  502 -0.14406973616E+04 -0.10063295532E+04  0.57183306402E+03  0.18480533327E+04  0.10100000352E+00 0.  1.
</event>
<event>
 5   0  0.9341000E-08  0.3712076E+04  0.7818609E-02  0.8065291E-01
       -1   -1    0    0    0  501  0.00000000000E+00  0.00000000000E+00  0.20127701667E+04  0.20127701667E+04  0.50400001928E-02 0.  1.
        1   -1    0    0  501    0  0.00000000000E+00  0.00000000000E+00 -0.17115107907E+04  0.17115107907E+04  0.50400001928E-02 0. -1.
    10030    2    1    2    0    0  0.00000000000E+00  0.00000000000E+00  0.30125937602E+03  0.37242809574E+04  0.37120764322E+04 0.  0.
        4    1    3    3  502    0 -0.93874511365E+02 -0.12316536840E+04  0.15404976376E+04  0.19745677515E+04  0.12699999809E+01 0.  1.
       -4    1    3    3    0  502  0.93874511365E+02  0.12316536840E+04 -0.12392382616E+04  0.17497132059E+04  0.12699999809E+01 0. -1.
</event>
<event>
 5   0  0.9341000E-08  0.3710098E+04  0.7818609E-02  0.8065728E-01
        1   -1    0    0  501    0  0.00000000000E+00  0.00000000000E+00  0.20259835950E+04  0.20259835950E+04  0.50400001928E-02 0. -1.
       -1   -1    0    0    0  501  0.00000000000E+00  0.00000000000E+00 -0.16985363276E+04  0.16985363276E+04  0.50400001928E-02 0.  1.
    10030    2    1    2    0    0  0.00000000000E+00  0.00000000000E+00  0.32744726735E+03  0.37245199226E+04  0.37100979691E+04 0.  0.
        1    1    3    3  502    0  0.59363594741E+03  0.50144131807E+03 -0.15272705820E+04  0.17135934361E+04  0.50400001928E-02 0.  1.
       -1    1    3    3    0  502 -0.59363594741E+03 -0.50144131807E+03  0.18547178493E+04  0.20109264865E+04  0.50400001928E-02 0. -1.
</event>
<event>
 5   0  0.9341000E-08  0.3720198E+04  0.7818609E-02  0.8063500E-01
       -3   -1    0    0    0  501  0.00000000000E+00  0.00000000000E+00  0.25050157360E+04  0.25050157380E+04  0.10100000352E+00 0.  1.
        3   -1    0    0  501    0  0.00000000000E+00  0.00000000000E+00 -0.13812164238E+04  0.13812164275E+04  0.10100000352E+00 0. -1.
    10030    2    1    2    0    0  0.00000000000E+00  0.00000000000E+00  0.11237993121E+04  0.38862321655E+04  0.37201983214E+04 0.  0.
        4    1    3    3  502    0 -0.47263011809E+03  0.99658380499E+03  0.21265483999E+04  0.23955726286E+04  0.12699999809E+01 0.  1.
       -4    1    3    3    0  502  0.47263011809E+03 -0.99658380499E+03 -0.10027490878E+04  0.14906595369E+04  0.12699999809E+01 0. -1.
</event>
<event>
 5   0  0.2897133E-07  0.3766830E+04  0.7818609E-02  0.8053311E-01
       -2   -1    0    0    0  501  0.00000000000E+00  0.00000000000E+00  0.15565823901E+04  0.15565823901E+04  0.25500000920E-02 0.  1.
        2   -1    0    0  501    0  0.00000000000E+00  0.00000000000E+00 -0.22788726244E+04  0.22788726244E+04  0.25500000920E-02 0. -1.
    10030    2    1    2    0    0  0.00000000000E+00  0.00000000000E+00 -0.72229023430E+03  0.38354550144E+04  0.37668304959E+04 0.  0.
        4    1    3    3  502    0 -0.26089667447E+03  0.42621478291E+03  0.14878462419E+04  0.15695267339E+04  0.12699999809E+01 0.  1.
       -4    1    3    3    0  502  0.26089667447E+03 -0.42621478291E+03 -0.22101364762E+04  0.22659282805E+04  0.12699999809E+01 0. -1.
</event>
<event>
 5   0  0.9341000E-08  0.3618729E+04  0.7818609E-02  0.8086215E-01
       -1   -1    0    0    0  501  0.00000000000E+00  0.00000000000E+00  0.20784948873E+04  0.20784948873E+04  0.50400001928E-02 0. -1.
        1   -1    0    0  501    0  0.00000000000E+00  0.00000000000E+00 -0.15750822351E+04  0.15750822351E+04  0.50400001928E-02 0.  1.
    10030    2    1    2    0    0  0.00000000000E+00  0.00000000000E+00  0.50341265213E+03  0.36535771224E+04  0.36187292647E+04 0.  0.
        4    1    3    3  502    0 -0.97033784852E+03  0.14848291044E+04 -0.10884004629E+03  0.17771102324E+04  0.12699999809E+01 0.  1.
       -4    1    3    3    0  502  0.97033784852E+03 -0.14848291044E+04  0.61225269842E+03  0.18764668900E+04  0.12699999809E+01 0. -1.
</event>
<event>
 5   0  0.3008879E-07  0.3722500E+04  0.7818609E-02  0.8062994E-01
       -2   -1    0    0    0  501  0.00000000000E+00  0.00000000000E+00  0.13930085919E+04  0.13930085919E+04  0.25500000920E-02 0.  1.
        2   -1    0    0  501    0  0.00000000000E+00  0.00000000000E+00 -0.24868845584E+04  0.24868845584E+04  0.25500000920E-02 0. -1.
    10030    2    1    2    0    0  0.00000000000E+00  0.00000000000E+00 -0.10938759665E+04  0.38798931502E+04  0.37224999969E+04 0.  0.
        2    1    3    3  502    0 -0.97993316346E+03 -0.89594425069E+03  0.81253702586E+03  0.15566635872E+04  0.25500000920E-02 0.  1.
       -2    1    3    3    0  502  0.97993316346E+03  0.89594425069E+03 -0.19064129924E+04  0.23232295631E+04  0.25500000920E-02 0. -1.
</event>
<event>
 5   0  0.2996969E-07  0.3705513E+04  0.7818609E-02  0.8066741E-01
        2   -1    0    0  501    0  0.00000000000E+00  0.00000000000E+00  0.26621600538E+04  0.26621600538E+04  0.25500000920E-02 0. -1.
       -2   -1    0    0    0  501  0.00000000000E+00  0.00000000000E+00 -0.12894444583E+04  0.12894444583E+04  0.25500000920E-02 0.  1.
    10030    2    1    2    0    0  0.00000000000E+00  0.00000000000E+00  0.13727155955E+04  0.39516045121E+04  0.37055134751E+04 0.  0.
        1    1    3    3  502    0  0.17320687000E+04  0.48547257530E+03  0.11596356880E+04  0.21402103943E+04  0.50400001928E-02 0.  1.
       -1    1    3    3    0  502 -0.17320687000E+04 -0.48547257530E+03  0.21307990747E+03  0.18113941178E+04  0.50400001928E-02 0. -1.
</event>
<event>
 5   0  0.2913025E-07  0.3707301E+04  0.7818609E-02  0.8066346E-01
       -2   -1    0    0    0  501  0.00000000000E+00  0.00000000000E+00  0.18101939647E+04  0.18101939647E+04  0.25500000920E-02 0.  1.
        2   -1    0    0  501    0  0.00000000000E+00  0.00000000000E+00 -0.18981502754E+04  0.18981502754E+04  0.25500000920E-02 0. -1.
    10030    2    1    2    0    0  0.00000000000E+00  0.00000000000E+00 -0.87956310772E+02  0.37083442401E+04  0.37073009981E+04 0.  0.
        5    1    3    3  502    0  0.58451865840E+03 -0.73405565485E+03  0.15550642966E+04  0.18162452541E+04  0.46999998093E+01 0.  1.
       -5    1    3    3    0  502 -0.58451865840E+03  0.73405565485E+03 -0.16430206074E+04  0.18920989860E+04  0.46999998093E+01 0. -1.
</event>
<event>
 5   0  0.9646615E-08  0.3842768E+04  0.7818609E-02  0.8037039E-01
       -1   -1    0    0    0  501  0.00000000000E+00  0.00000000000E+00  0.24271816278E+04  0.24271816278E+04  0.50400001928E-02 0.  1.
        1   -1    0    0  501    0  0.00000000000E+00  0.00000000000E+00 -0.15209890457E+04  0.15209890457E+04  0.50400001928E-02 0. -1.
    10030    2    1    2    0    0  0.00000000000E+00  0.00000000000E+00  0.90619258209E+03  0.39481706735E+04  0.38427681001E+04 0.  0.
        2    1    3    3  502    0  0.72225696025E+02  0.94039720368E+03 -0.12667818642E+04  0.15793352220E+04  0.25500000920E-02 0. -1.
       -2    1    3    3    0  502 -0.72225696025E+02 -0.94039720368E+03  0.21729744463E+04  0.23688354515E+04  0.25500000920E-02 0.  1.
</event>
<event>
 5   0  0.9341000E-08  0.3691233E+04  0.7818609E-02  0.8069907E-01
        1   -1    0    0  501    0  0.00000000000E+00  0.00000000000E+00  0.19587687792E+04  0.19587687792E+04  0.50400001928E-02 0.  1.
       -1   -1    0    0    0  501  0.00000000000E+00  0.00000000000E+00 -0.17390008296E+04  0.17390008296E+04  0.50400001928E-02 0. -1.
    10030    2    1    2    0    0  0.00000000000E+00  0.00000000000E+00  0.21976794955E+03  0.36977696088E+04  0.36912331446E+04 0.  0.
        4    1    3    3  502    0  0.44469620804E+03  0.17534104948E+03  0.18956790995E+04  0.19550191974E+04  0.12699999809E+01 0.  1.
       -4    1    3    3    0  502 -0.44469620804E+03 -0.17534104948E+03 -0.16759111499E+04  0.17427504114E+04  0.12699999809E+01 0. -1.
</event>
<event>
 5   0  0.2897133E-07  0.3698291E+04  0.7818609E-02  0.8068341E-01
       -2   -1    0    0    0  501  0.00000000000E+00  0.00000000000E+00  0.21602503811E+04  0.21602503811E+04  0.25500000920E-02 0. -1.
        2   -1    0    0  501    0  0.00000000000E+00  0.00000000000E+00 -0.15828441041E+04  0.15828441041E+04  0.25500000920E-02 0.  1.
    10030    2    1    2    0    0  0.00000000000E+00  0.00000000000E+00  0.57740627691E+03  0.37430944852E+04  0.36982912698E+04 0.  0.
        4    1    3    3  502    0  0.12687096078E+04 -0.13006137083E+04  0.63654952637E+03  0.19252057032E+04  0.12699999809E+01 0. -1.
       -4    1    3    3    0  502 -0.12687096078E+04  0.13006137083E+04 -0.59143249456E+02  0.18178887821E+04  0.12699999809E+01 0.  1.
</event>
<event>
 5   0  0.3032442E-07  0.3717580E+04  0.7818609E-02  0.8064077E-01
       -2   -1    0    0    0  501  0.00000000000E+00  0.00000000000E+00  0.12830140746E+04  0.12830140746E+04  0.25500000920E-02 0. -1.
        2   -1    0    0  501    0  0.00000000000E+00  0.00000000000E+00 -0.26929560035E+04  0.26929560035E+04  0.25500000920E-02 0.  1.
    10030    2    1    2    0    0  0.00000000000E+00  0.00000000000E+00 -0.14099419289E+04  0.39759700781E+04  0.37175801025E+04 0.  0.
        3    1    3    3  502    0  0.10620228494E+04  0.63102499011E+03 -0.21903955810E+04  0.25147401222E+04  0.10100000352E+00 0. -1.
       -3    1    3    3    0  502 -0.10620228494E+04 -0.63102499011E+03  0.78045365204E+03  0.14612299559E+04  0.10100000352E+00 0.  1.
</event>
<event>
 5   0  0.9341000E-08  0.3710898E+04  0.7818609E-02  0.8065551E-01
        1   -1    0    0  501    0  0.00000000000E+00  0.00000000000E+00  0.24513657498E+04  0.24513657498E+04  0.50400001928E-02 0.  1.
       -1   -1    0    0    0  501  0.00000000000E+00  0.00000000000E+00 -0.14043973628E+04  0.14043973628E+04  0.50400001928E-02 0. -1.
    10030    2    1    2    0    0  0.00000000000E+00  0.00000000000E+00  0.10469683870E+04  0.38557631126E+04  0.37108983248E+04 0.  0.
        1    1    3    3  502    0  0.79776308913E+03  0.15555907876E+04  0.11693637007E+04  0.21032594014E+04  0.50400001928E-02 0.  1.
       -1    1    3    3    0  502 -0.79776308913E+03 -0.15555907876E+04 -0.12239531367E+03  0.17525037112E+04  0.50400001928E-02 0. -1.
</event>
<event>
 5   0  0.9341000E-08  0.3616794E+04  0.7818609E-02  0.8086656E-01
       -1   -1    0    0    0  501  0.00000000000E+00  0.00000000000E+00  0.17046358958E+04  0.17046358958E+04  0.50400001928E-02 0.  1.
        1   -1    0    0  501    0  0.00000000000E+00  0.00000000000E+00 -0.19184735242E+04  0.19184735242E+04  0.50400001928E-02 0. -1.
    10030    2    1    2    0    0  0.00000000000E+00  0.00000000000E+00 -0.21383762834E+03  0.36231094200E+04  0.36167935161E+04 0.  0.
        3    1    3    3  502    0 -0.17900631041E+04  0.96736544669E+02 -0.34527328031E+03  0.18256225031E+04  0.10100000352E+00 0. -1.
       -3    1    3    3    0  502  0.17900631041E+04 -0.96736544669E+02  0.13143565196E+03  0.17974869169E+04  0.10100000352E+00 0.  1.
</event>
<event>
 5   0  0.9646615E-08  0.3611440E+04  0.7818609E-02  0.8087876E-01
       -1   -1    0    0    0  501  0.00000000000E+00  0.00000000000E+00  0.16229726616E+04  0.16229726616E+04  0.50400001928E-02 0.  1.
        1   -1    0    0  501    0  0.00000000000E+00  0.00000000000E+00 -0.20090442431E+04  0.20090442431E+04  0.50400001928E-02 0. -1.
    10030    2    1    2    0    0  0.00000000000E+00  0.00000000000E+00 -0.38607158158E+03  0.36320169047E+04  0.36114395371E+04 0.  0.
        2    1    3    3  502    0 -0.41421379622E+03  0.37929868026E+03  0.15328962030E+04  0.16325474961E+04  0.25500000920E-02 0.  1.
       -2    1    3    3    0  502  0.41421379622E+03 -0.37929868026E+03 -0.19189677846E+04  0.19994694086E+04  0.25500000920E-02 0. -1.
</event>
<event>
 5   0  0.9646615E-08  0.3662896E+04  0.7818609E-02  0.8076235E-01
       -1   -1    0    0    0  501  0.00000000000E+00  0.00000000000E+00  0.11524646606E+04  0.11524646606E+04  0.50400001928E-02 0.  1.
        1   -1    0    0  501    0  0.00000000000E+00  0.00000000000E+00 -0.29104588920E+04  0.29104588920E+04  0.50400001928E-02 0. -1.
    10030    2    1    2    0    0  0.00000000000E+00  0.00000000000E+00 -0.17579942315E+04  0.40629235526E+04  0.36628955864E+04 0.  0.
        2    1    3    3  502    0 -0.90218899465E+03  0.48023921414E+03  0.80672107438E+03  0.13020651200E+04  0.25500000920E-02 0.  1.
       -2    1    3    3    0  502  0.90218899465E+03 -0.48023921414E+03 -0.25647153058E+04  0.27608584326E+04  0.25500000920E-02 0. -1.
</event>
<event>
 5   0  0.2913025E-07  0.3711292E+04  0.7818609E-02  0.8065464E-01
       -2   -1    0    0    0  501  0.00000000000E+00  0.00000000000E+00  0.17310749564E+04  0.17310749564E+04  0.25500000920E-02 0.  1.
        2   -1    0    0  501    0  0.00000000000E+00  0.00000000000E+00 -0.19891812659E+04  0.19891812659E+04  0.25500000920E-02 0. -1.
    10030    2    1    2    0    0  0.00000000000E+00  0.00000000000E+00 -0.25810630949E+03  0.37202562223E+04  0.37112918900E+04 0.  0.
        5    1    3    3  502    0  0.34644528938E+03 -0.17443063652E+04 -0.66021108428E+03  0.18969791248E+04  0.46999998093E+01 0. -1.
       -5    1    3    3    0  502 -0.34644528938E+03  0.17443063652E+04  0.40210477479E+03  0.18232770975E+04  0.46999998093E+01 0.  1.
</event>
<event>
 5   0  0.9341000E-08  0.3687089E+04  0.7818609E-02  0.8070829E-01
        3   -1    0    0  501    0  0.00000000000E+00  0.00000000000E+00  0.21611834589E+04  0.21611834613E+04  0.10100000352E+00 0.  1.
       -3   -1    0    0    0  501  0.00000000000E+00  0.00000000000E+00 -0.15725905814E+04  0.15725905846E+04  0.10100000352E+00 0. -1.
    10030    2    1    2    0    0  0.00000000000E+00  0.00000000000E+00  0.58859287756E+03  0.37337740459E+04  0.36870892382E+04 0.  0.
        2    1    3    3  502    0 -0.95543130883E+03 -0.15423542381E+04  0.62547115723E+03  0.19190934709E+04  0.25500000920E-02 0.  1.
       -2    1    3    3    0  502  0.95543130883E+03  0.15423542381E+04 -0.36878279669E+02  0.18146805750E+04  0.25500000920E-02 0. -1.
</event>
<event>
 5   0  0.9341000E-08  0.3682745E+04  0.7818609E-02  0.8071797E-01
       -1   -1    0    0    0  501  0.00000000000E+00  0.00000000000E+00  0.18995171396E+04  0.18995171396E+04  0.50400001928E-02 0.  1.
        1   -1    0    0  501    0  0.00000000000E+00  0.00000000000E+00 -0.17850073291E+04  0.17850073291E+04  0.50400001928E-02 0. -1.
    10030    2    1    2    0    0  0.00000000000E+00  0.00000000000E+00  0.11450981046E+03  0.36845244687E+04  0.36827446374E+04 0.  0.
        3    1    3    3  502    0 -0.16617444273E+03 -0.18337704795E+04  0.39249296749E+02  0.18417026455E+04  0.10100000352E+00 0. -1.
       -3    1    3    3    0  502  0.16617444273E+03  0.18337704795E+04  0.75260513714E+02  0.18428218232E+04  0.10100000352E+00 0.  1.
</event>
<event>
 5   0  0.9418945E-08  0.3719441E+04  0.7818609E-02  0.8063667E-01
       -1   -1    0    0    0  501  0.00000000000E+00  0.00000000000E+00  0.17502642635E+04  0.17502642635E+04  0.50400001928E-02 0.  1.
        1   -1    0    0  501    0  0.00000000000E+00  0.00000000000E+00 -0.19760221944E+04  0.19760221944E+04  0.50400001928E-02 0. -1.
    10030    2    1    2    0    0  0.00000000000E+00  0.00000000000E+00 -0.22575793089E+03  0.37262864579E+04  0.37194413724E+04 0.  0.
        5    1    3    3  502    0 -0.17012944546E+03  0.18303024961E+04 -0.39551104735E+03  0.18802665593E+04  0.46999998093E+01 0.  1.
       -5    1    3    3    0  502  0.17012944546E+03 -0.18303024961E+04  0.16975311646E+03  0.18460198986E+04  0.46999998093E+01 0. -1.
</event>
<event>
 5   0  0.9341000E-08  0.3708751E+04  0.7818609E-02  0.8066025E-01
       -1   -1    0    0    0  501  0.00000000000E+00  0.00000000000E+00  0.31215236997E+04  0.31215236998E+04  0.50400001928E-02 0.  1.
        1   -1    0    0  501    0  0.00000000000E+00  0.00000000000E+00 -0.11016120912E+04  0.11016120912E+04  0.50400001928E-02 0. -1.
    10030    2    1    2    0    0  0.00000000000E+00  0.00000000000E+00  0.20199116085E+04  0.42231357910E+04  0.37087508683E+04 0.  0.
        1    1    3    3  502    0 -0.10350688805E+04 -0.15330870956E+04  0.86155532245E+03  0.20405884454E+04  0.50400001928E-02 0. -1.
       -1    1    3    3    0  502  0.10350688805E+04  0.15330870956E+04  0.11583562861E+04  0.21825473455E+04  0.50400001928E-02 0.  1.
</event>
<event>
 5   0  0.3008879E-07  0.3706117E+04  0.7818609E-02  0.8066608E-01
        2   -1    0    0  501    0  0.00000000000E+00  0.00000000000E+00  0.15509973720E+04  0.15509973720E+04  0.25500000920E-02 0.  1.
       -2   -1    0    0    0  501  0.00000000000E+00  0.00000000000E+00 -0.22139466907E+04  0.22139466907E+04  0.25500000920E-02 0. -1.
    10030    2    1    2    0    0  0.00000000000E+00  0.00000000000E+00 -0.66294931865E+03  0.37649440627E+04  0.37061168352E+04 0.  0.
        2    1    3    3  502    0 -0.10966945396E+04 -0.91721946234E+03 -0.15290829699E+04  0.20933526182E+04  0.25500000920E-02 0. -1.
       -2    1    3    3    0  502  0.10966945396E+04  0.91721946234E+03  0.86613365127E+03  0.16715914445E+04  0.25500000920E-02 0.  1.
</event>
<event>
 5   0  0.2996969E-07  0.3674386E+04  0.7818609E-02  0.8073662E-01
        2   -1    0    0  501    0  0.00000000000E+00  0.00000000000E+00  0.25678478931E+04  0.25678478931E+04  0.25500000920E-02 0.  1.
       -2   -1    0    0    0  501  0.00000000000E+00  0.00000000000E+00 -0.13144386882E+04  0.13144386882E+04  0.25500000920E-02 0. -1.
    10030    2    1    2    0    0  0.00000000000E+00  0.00000000000E+00  0.12534092049E+04  0.38822865813E+04  0.36743862704E+04 0.  0.
        1    1    3    3  502    0 -0.55395389582E+03  0.11964499857E+04  0.19785177264E+04  0.23775806781E+04  0.50400001928E-02 0.  1.
       -1    1    3    3    0  502  0.55395389582E+03 -0.11964499857E+04 -0.72510852150E+03  0.15047059032E+04  0.50400001928E-02 0. -1.
</event>
<event>
 5   0  0.9341000E-08  0.3682934E+04  0.7818609E-02  0.8071755E-01
       -3   -1    0    0    0  501  0.00000000000E+00  0.00000000000E+00  0.20100709845E+04  0.20100709871E+04  0.10100000352E+00 0.  1.
        3   -1    0    0  501    0  0.00000000000E+00  0.00000000000E+00 -0.16870049911E+04  0.16870049941E+04  0.10100000352E+00 0. -1.
    10030    2    1    2    0    0  0.00000000000E+00  0.00000000000E+00  0.32306599349E+03  0.36970759812E+04  0.36829335012E+04 0.  0.
        5    1    3    3  502    0 -0.45233395353E+03 -0.11857552958E+04  0.15009565587E+04  0.19655824349E+04  0.46999998093E+01 0.  1.
       -5    1    3    3    0  502  0.45233395353E+03  0.11857552958E+04 -0.11778905652E+04  0.17314935463E+04  0.46999998093E+01 0. -1.
</event>
<event>
 5   0  0.9646615E-08  0.3765733E+04  0.7818609E-02  0.8053549E-01
       -1   -1    0    0    0  501  0.00000000000E+00  0.00000000000E+00  0.16977220081E+04  0.16977220082E+04  0.50400001928E-02 0.  1.
        1   -1    0    0  501    0  0.00000000000E+00  0.00000000000E+00 -0.20882023557E+04  0.20882023557E+04  0.50400001928E-02 0. -1.
    10030    2    1    2    0    0  0.00000000000E+00  0.00000000000E+00 -0.39048034758E+03  0.37859243639E+04  0.37657334461E+04 0.  0.
        2    1    3    3  502    0 -0.11117144531E+04  0.13323618221E+03  0.13266551070E+04  0.17359938590E+04  0.25500000920E-02 0.  1.
       -2    1    3    3    0  502  0.11117144531E+04 -0.13323618221E+03 -0.17171354546E+04  0.20499305049E+04  0.25500000920E-02 0. -1.
</event>
<event>
 5   0  0.9341000E-08  0.3776394E+04  0.7818609E-02  0.8051240E-01
        1   -1    0    0  501    0  0.00000000000E+00  0.00000000000E+00  0.27914956168E+04  0.27914956168E+04  0.50400001928E-02 0. -1.
       -1   -1    0    0    0  501  0.00000000000E+00  0.00000000000E+00 -0.12771964149E+04  0.12771964149E+04  0.50400001928E-02 0.  1.
    10030    2    1    2    0    0  0.00000000000E+00  0.00000000000E+00  0.15142992019E+04  0.40686920316E+04  0.37763941499E+04 0.  0.
        3    1    3    3  502    0 -0.20973068703E+03 -0.12440533322E+04  0.22707479643E+04  0.25976820402E+04  0.10100000352E+00 0. -1.
       -3    1    3    3    0  502  0.20973068703E+03  0.12440533322E+04 -0.75644876241E+03  0.14710099914E+04  0.10100000352E+00 0.  1.
</event>
<event>
 5   0  0.3008879E-07  0.3619770E+04  0.7818609E-02  0.8085978E-01
       -2   -1    0    0    0  501  0.00000000000E+00  0.00000000000E+00  0.13718659927E+04  0.13718659927E+04  0.25500000920E-02 0.  1.
        2   -1    0    0  501    0  0.00000000000E+00  0.00000000000E+00 -0.23877575438E+04  0.23877575438E+04  0.25500000920E-02 0. -1.
    10030    2    1    2    0    0  0.00000000000E+00  0.00000000000E+00 -0.10158915511E+04  0.37596235365E+04  0.36197698121E+04 0.  0.
        2    1    3    3  502    0 -0.52180049709E+02 -0.70219243498E+03 -0.22396628153E+04  0.23477407224E+04  0.25500000920E-02 0. -1.
       -2    1    3    3    0  502  0.52180049709E+02  0.70219243498E+03  0.12237712643E+04  0.14118828140E+04  0.25500000920E-02 0.  1.
</event>
<event>
 5   0  0.2996969E-07  0.3718305E+04  0.7818609E-02  0.8063917E-01
       -2   -1    0    0    0  501  0.00000000000E+00  0.00000000000E+00  0.13820259577E+04  0.13820259577E+04  0.25500000920E-02 0. -1.
        2   -1    0    0  501    0  0.00000000000E+00  0.00000000000E+00 -0.25010014365E+04  0.25010014365E+04  0.25500000920E-02 0.  1.
    10030    2    1    2    0    0  0.00000000000E+00  0.00000000000E+00 -0.11189754788E+04  0.38830273942E+04  0.37183054772E+04 0.  0.
        1    1    3    3  502    0 -0.11901264332E+04 -0.12139199496E+04 -0.13454555746E+04  0.21680067515E+04  0.50400001928E-02 0.  1.
       -1    1    3    3    0  502  0.11901264332E+04  0.12139199496E+04  0.22648009585E+03  0.17150206427E+04  0.50400001928E-02 0. -1.
</event>
<event>
 5   0  0.9341000E-08  0.3710028E+04  0.7818609E-02  0.8065743E-01
       -1   -1    0    0    0  501  0.00000000000E+00  0.00000000000E+00  0.13933263470E+04  0.13933263470E+04  0.50400001928E-02 0.  1.
        1   -1    0    0  501    0  0.00000000000E+00  0.00000000000E+00 -0.24696850010E+04  0.24696850010E+04  0.50400001928E-02 0. -1.
    10030    2    1    2    0    0  0.00000000000E+00  0.00000000000E+00 -0.10763586539E+04  0.38630113480E+04  0.37100281296E+04 0.  0.
        1    1    3    3  502    0  0.18491789948E+04 -0.12603168378E+03 -0.45935954813E+03  0.19095439598E+04  0.50400001928E-02 0. -1.
       -1    1    3    3    0  502 -0.18491789948E+04  0.12603168378E+03 -0.61699910581E+03  0.19534673882E+04  0.50400001928E-02 0.  1.
</event>
<event>
 5   0  0.3008879E-07  0.3713232E+04  0.7818609E-02  0.8065036E-01
       -2   -1    0    0    0  501  0.00000000000E+00  0.00000000000E+00  0.16978224082E+04  0.16978224082E+04  0.25500000920E-02 0. -1.
        2   -1    0    0  501    0  0.00000000000E+00  0.00000000000E+00 -0.20302613909E+04  0.20302613909E+04  0.25500000920E-02 0.  1.
    10030    2    1    2    0    0  0.00000000000E+00  0.00000000000E+00 -0.33243898265E+03  0.37280837991E+04  0.37132321683E+04 0.  0.
        2    1    3    3  502    0  0.99315153951E+03  0.65200736081E+03  0.12662173565E+04  0.17363092964E+04  0.25500000920E-02 0. -1.
       -2    1    3    3    0  502 -0.99315153951E+03 -0.65200736081E+03 -0.15986563391E+04  0.19917745027E+04  0.25500000920E-02 0.  1.
</event>
<event>
 5   0  0.9341000E-08  0.3655500E+04  0.7818609E-02  0.8077896E-01
       -1   -1    0    0    0  501  0.00000000000E+00  0.00000000000E+00  0.16589434236E+04  0.16589434236E+04  0.50400001928E-02 0.  1.
        1   -1    0    0  501    0  0.00000000000E+00  0.00000000000E+00 -0.20137335516E+04  0.20137335516E+04  0.50400001928E-02 0. -1.
    10030    2    1    2    0    0  0.00000000000E+00  0.00000000000E+00 -0.35479012798E+03  0.36726769751E+04  0.36554999834E+04 0.  0.
        4    1    3    3  502    0  0.31648320250E+03 -0.26054075980E+03  0.16121611232E+04  0.16634627152E+04  0.12699999809E+01 0.  1.
       -4    1    3    3    0  502 -0.31648320250E+03  0.26054075980E+03 -0.19669512511E+04  0.20092142599E+04  0.12699999809E+01 0. -1.
</event>
<event>
 5   0  0.9341000E-08  0.3698256E+04  0.7818609E-02  0.8068348E-01
        1   -1    0    0  501    0  0.00000000000E+00  0.00000000000E+00  0.32976228105E+04  0.32976228105E+04  0.50400001928E-02 0. -1.
       -1   -1    0    0    0  501  0.00000000000E+00  0.00000000000E+00 -0.10368905556E+04  0.10368905556E+04  0.50400001928E-02 0.  1.
    10030    2    1    2    0    0  0.00000000000E+00  0.00000000000E+00  0.22607322549E+04  0.43345133661E+04  0.36982557771E+04 0.  0.
        3    1    3    3  502    0 -0.28579853265E+02 -0.18376254763E+04  0.89134488526E+03  0.20425914701E+04  0.10100000352E+00 0. -1.
       -3    1    3    3    0  502  0.28579853265E+02  0.18376254763E+04  0.13693873697E+04  0.22919218960E+04  0.10100000352E+00 0.  1.
</event>
<event>
 5   0  0.2913025E-07  0.3449545E+04  0.7818609E-02  0.8125852E-01
        2   -1    0    0  501    0  0.00000000000E+00  0.00000000000E+00  0.22421598489E+04  0.22421598489E+04  0.25500000920E-02 0.  1.
       -2   -1    0    0    0  501  0.00000000000E+00  0.00000000000E+00 -0.13267746634E+04  0.13267746634E+04  0.25500000920E-02 0. -1.
    10030    2    1    2    0    0  0.00000000000E+00  0.00000000000E+00  0.91538518546E+03  0.35689345123E+04  0.34495454070E+04 0.  0.
        5    1    3    3  502    0  0.92328652089E+03 -0.82337347341E+03  0.17011273286E+04  0.21033920591E+04  0.46999998093E+01 0.  1.
       -5    1    3    3    0  502 -0.92328652089E+03  0.82337347341E+03 -0.78574214314E+03  0.14655424531E+04  0.46999998093E+01 0. -1.
</event>
<event>
 5   0  0.3008879E-07  0.3759664E+04  0.7818609E-02  0.8054867E-01
        2   -1    0    0  501    0  0.00000000000E+00  0.00000000000E+00  0.21502882382E+04  0.21502882382E+04  0.25500000920E-02 0.  1.
       -2   -1    0    0    0  501  0.00000000000E+00  0.00000000000E+00 -0.16433932350E+04  0.16433932350E+04  0.25500000920E-02 0. -1.
    10030    2    1    2    0    0  0.00000000000E+00  0.00000000000E+00  0.50689500318E+03  0.37936814732E+04  0.37596644233E+04 0.  0.
        2    1    3    3  502    0 -0.24340171680E+03 -0.18550437267E+04  0.43768516872E+03  0.19214577619E+04  0.25500000920E-02 0. -1.
       -2    1    3    3    0  502  0.24340171680E+03  0.18550437267E+04  0.69209834467E+02  0.18722237113E+04  0.25500000920E-02 0.  1.
</event>
<event>
 5   0  0.9341000E-08  0.3681671E+04  0.7818609E-02  0.8072036E-01
       -3   -1    0    0    0  501  0.00000000000E+00  0.00000000000E+00  0.11933310391E+04  0.11933310434E+04  0.10100000352E+00 0.  1.
        3   -1    0    0  501    0  0.00000000000E+00  0.00000000000E+00 -0.28396781328E+04  0.28396781346E+04  0.10100000352E+00 0. -1.
    10030    2    1    2    0    0  0.00000000000E+00  0.00000000000E+00 -0.16463470937E+04  0.40330091779E+04  0.36816713971E+04 0.  0.
        1    1    3    3  502    0 -0.66833579821E+03  0.16532194944E+04 -0.13238080751E+04  0.22208726338E+04  0.50400001928E-02 0. -1.
       -1    1    3    3    0  502  0.66833579821E+03 -0.16532194944E+04 -0.32253901853E+03  0.18121365441E+04  0.50400001928E-02 0.  1.
</event>
<event>
 5   0  0.9646615E-08  0.3305663E+04  0.7818609E-02  0.8161456E-01
       -1   -1    0    0    0  501  0.00000000000E+00  0.00000000000E+00  0.15764298234E+04  0.15764298234E+04  0.50400001928E-02 0. -1.
        1   -1    0    0  501    0  0.00000000000E+00  0.00000000000E+00 -0.17329358647E+04  0.17329358647E+04  0.50400001928E-02 0.  1.
    10030    2    1    2    0    0  0.00000000000E+00  0.00000000000E+00 -0.15650604132E+03  0.33093656881E+04  0.33056628862E+04 0.  0.
        2    1    3    3  502    0  0.11354087990E+04 -0.13395787026E+03  0.11167145772E+04  0.15981706100E+04  0.25500000920E-02 0. -1.
       -2    1    3    3    0  502 -0.11354087990E+04  0.13395787026E+03 -0.12732206185E+04  0.17111950781E+04  0.25500000920E-02 0.  1.
</event>
<event>
 5   0  0.9341000E-08  0.3341228E+04  0.7818609E-02  0.8152483E-01
        1   -1    0    0  501    0  0.00000000000E+00  0.00000000000E+00  0.26090739831E+04  0.26090739831E+04  0.50400001928E-02 0. -1.
       -1   -1    0    0    0  501  0.00000000000E+00  0.00000000000E+00 -0.10697094716E+04  0.10697094716E+04  0.50400001928E-02 0.  1.
    10030    2    1    2    0    0  0.00000000000E+00  0.00000000000E+00  0.15393645114E+04  0.36787834547E+04  0.33412280089E+04 0.  0.
        1    1    3    3  502    0 -0.76777977700E+03  0.59059547005E+03 -0.72895405129E+03  0.12122965001E+04  0.50400001928E-02 0.  1.
       -1    1    3    3    0  502  0.76777977700E+03 -0.59059547005E+03  0.22683185627E+04  0.24664869546E+04  0.50400001928E-02 0. -1.
</event>
<event>
 5   0  0.3008879E-07  0.3599226E+04  0.7818609E-02  0.8090669E-01
       -2   -1    0    0    0  501  0.00000000000E+00  0.00000000000E+00  0.14221471197E+04  0.14221471197E+04  0.25500000920E-02 0.  1.
        2   -1    0    0  501    0  0.00000000000E+00  0.00000000000E+00 -0.22772656564E+04  0.22772656564E+04  0.25500000920E-02 0. -1.
    10030    2    1    2    0    0  0.00000000000E+00  0.00000000000E+00 -0.85511853669E+03  0.36994127761E+04  0.35992259135E+04 0.  0.
        2    1    3    3  502    0 -0.81104919678E+03 -0.87851021531E+03 -0.18099985479E+04  0.21692569560E+04  0.25500000920E-02 0. -1.
       -2    1    3    3    0  502  0.81104919678E+03  0.87851021531E+03  0.95488001118E+03  0.15301558201E+04  0.25500000920E-02 0.  1.
</event>
<event>
 5   0  0.9341000E-08  0.3808355E+04  0.7818609E-02  0.8044364E-01
       -1   -1    0    0    0  501  0.00000000000E+00  0.00000000000E+00  0.18449446426E+04  0.18449446426E+04  0.50400001928E-02 0. -1.
        1   -1    0    0  501    0  0.00000000000E+00  0.00000000000E+00 -0.19653123924E+04  0.19653123925E+04  0.50400001928E-02 0.  1.
    10030    2    1    2    0    0  0.00000000000E+00  0.00000000000E+00 -0.12036774981E+03  0.38102570351E+04  0.38083553246E+04 0.  0.
        1    1    3    3  502    0  0.12944907520E+04 -0.12710733928E+04  0.51851544365E+03  0.18868471433E+04  0.50400001928E-02 0. -1.
       -1    1    3    3    0  502 -0.12944907520E+04  0.12710733928E+04 -0.63888319347E+03  0.19234098918E+04  0.50400001928E-02 0.  1.
</event>
<event>
 5   0  0.2913025E-07  0.3626319E+04  0.7818609E-02  0.8084489E-01
        2   -1    0    0  501    0  0.00000000000E+00  0.00000000000E+00  0.24297780636E+04  0.24297780636E+04  0.25500000920E-02 0. -1.
       -2   -1    0    0    0  501  0.00000000000E+00  0.00000000000E+00 -0.13530240101E+04  0.13530240101E+04  0.25500000920E-02 0.  1.
    10030    2    1    2    0    0  0.00000000000E+00  0.00000000000E+00  0.10767540534E+04  0.37828020737E+04  0.36263193788E+04 0.  0.
        5    1    3    3  502    0  0.60086445195E+03 -0.44300144107E+03 -0.11852678369E+04  0.14007748932E+04  0.46999998093E+01 0.  1.
       -5    1    3    3    0  502 -0.60086445195E+03  0.44300144107E+03  0.22620218903E+04  0.23820271805E+04  0.46999998093E+01 0. -1.
</event>
<event>
 5   0  0.9341000E-08  0.3657668E+04  0.7818609E-02  0.8077408E-01
        1   -1    0    0  501    0  0.00000000000E+00  0.00000000000E+00  0.17878019916E+04  0.17878019916E+04  0.50400001928E-02 0. -1.
       -1   -1    0    0    0  501  0.00000000000E+00  0.00000000000E+00 -0.18708073343E+04  0.18708073343E+04  0.50400001928E-02 0.  1.
    10030    2    1    2    0    0  0.00000000000E+00  0.00000000000E+00 -0.83005342697E+02  0.36586093260E+04  0.36576676056E+04 0.  0.
        3    1    3    3  502    0  0.14818398568E+04  0.95788350515E+03  0.43949835426E+03  0.18183918676E+04  0.10100000352E+00 0. -1.
       -3    1    3    3    0  502 -0.14818398568E+04 -0.95788350515E+03 -0.52250369695E+03  0.18402174584E+04  0.10100000352E+00 0.  1.
</event>
<event>
 5   0  0.9418945E-08  0.3640094E+04  0.7818609E-02  0.8081369E-01
        1   -1    0    0  501    0  0.00000000000E+00  0.00000000000E+00  0.11763761533E+04  0.11763761533E+04  0.50400001928E-02 0.  1.
       -1   -1    0    0    0  501  0.00000000000E+00  0.00000000000E+00 -0.28159113254E+04  0.28159113254E+04  0.50400001928E-02 0. -1.
    10030    2    1    2    0    0  0.00000000000E+00  0.00000000000E+00 -0.16395351721E+04  0.39922874787E+04  0.36400939180E+04 0.  0.
        5    1    3    3  502    0  0.47642883084E+03 -0.38192768514E+03 -0.27002115788E+04  0.27683962591E+04  0.46999998093E+01 0. -1.
       -5    1    3    3    0  502 -0.47642883084E+03  0.38192768514E+03  0.10606764067E+04  0.12238912195E+04  0.46999998093E+01 0.  1.
</event>
<event>
 5   0  0.3008879E-07  0.3696227E+04  0.7818609E-02  0.8068798E-01
        2   -1    0    0  501    0  0.00000000000E+00  0.00000000000E+00  0.16168336562E+04  0.16168336563E+04  0.25500000920E-02 0. -1.
       -2   -1    0    0    0  501  0.00000000000E+00  0.00000000000E+00 -0.21124772225E+04  0.21124772225E+04  0.25500000920E-02 0.  1.
    10030    2    1    2    0    0  0.00000000000E+00  0.00000000000E+00 -0.49564356620E+03  0.37293108787E+04  0.36962274126E+04 0.  0.
        2    1    3    3  502    0  0.37544975733E+03 -0.14520469467E+04 -0.13373582985E+04  0.20094601450E+04  0.25500000920E-02 0.  1.
       -2    1    3    3    0  502 -0.37544975733E+03  0.14520469467E+04  0.84171473228E+03  0.17198507337E+04  0.25500000920E-02 0. -1.
</event>
<event>
 5   0  0.9341000E-08  0.3634636E+04  0.7818609E-02  0.8082604E-01
        1   -1    0    0  501    0  0.00000000000E+00  0.00000000000E+00  0.14072689012E+04  0.14072689012E+04  0.50400001928E-02 0.  1.
       -1   -1    0    0    0  501  0.00000000000E+00  0.00000000000E+00 -0.23468467653E+04  0.23468467653E+04  0.50400001928E-02 0. -1.
    10030    2    1    2    0    0  0.00000000000E+00  0.00000000000E+00 -0.93957786408E+03  0.37541156665E+04  0.36346358655E+04 0.  0.
        1    1    3    3  502    0  0.53428961046E+03 -0.31270418087E+03  0.12950016792E+04  0.14353670756E+04  0.50400001928E-02 0.  1.
       -1    1    3    3    0  502 -0.53428961046E+03  0.31270418087E+03 -0.22345795433E+04  0.23187485909E+04  0.50400001928E-02 0. -1.
</event>
<event>
 5   0  0.3008879E-07  0.3709380E+04  0.7818609E-02  0.8065886E-01
       -2   -1    0    0    0  501  0.00000000000E+00  0.00000000000E+00  0.17876909857E+04  0.17876909857E+04  0.25500000920E-02 0.  1.
        2   -1    0    0  501    0  0.00000000000E+00  0.00000000000E+00 -0.19242004060E+04  0.19242004060E+04  0.25500000920E-02 0. -1.
    10030    2    1    2    0    0  0.00000000000E+00  0.00000000000E+00 -0.13650942033E+03  0.37118913916E+04  0.37093803905E+04 0.  0.
        2    1    3    3  502    0  0.12669958584E+04 -0.13239363172E+04  0.21792812134E+03  0.18454209664E+04  0.25500000920E-02 0.  1.
       -2    1    3    3    0  502 -0.12669958584E+04  0.13239363172E+04 -0.35443754168E+03  0.18664704252E+04  0.25500000920E-02 0. -1.
</event>
<event>
 5   0  0.9646615E-08  0.3705249E+04  0.7818609E-02  0.8066800E-01
       -1   -1    0    0    0  501  0.00000000000E+00  0.00000000000E+00  0.13339618580E+04  0.13339618580E+04  0.50400001928E-02 0. -1.
        1   -1    0    0  501    0  0.00000000000E+00  0.00000000000E+00 -0.25729501237E+04  0.25729501237E+04  0.50400001928E-02 0.  1.
    10030    2    1    2    0    0  0.00000000000E+00  0.00000000000E+00 -0.12389882657E+04  0.39069119817E+04  0.37052488864E+04 0.  0.
        2    1    3    3  502    0  0.43729144002E+03  0.31848721650E+03  0.12488229943E+04  0.13609617120E+04  0.25500000920E-02 0. -1.
       -2    1    3    3    0  502 -0.43729144002E+03 -0.31848721650E+03 -0.24878112599E+04  0.25459502697E+04  0.25500000920E-02 0.  1.
</event>
<event>
 5   0  0.9646615E-08  0.3702800E+04  0.7818609E-02  0.8067342E-01
        1   -1    0    0  501    0  0.00000000000E+00  0.00000000000E+00  0.26466793649E+04  0.26466793649E+04  0.50400001928E-02 0. -1.
       -1   -1    0    0    0  501  0.00000000000E+00  0.00000000000E+00 -0.12950877936E+04  0.12950877936E+04  0.50400001928E-02 0.  1.
    10030    2    1    2    0    0  0.00000000000E+00  0.00000000000E+00  0.13515915713E+04  0.39417671585E+04  0.37028000967E+04 0.  0.
        2    1    3    3  502    0  0.74278641316E+03  0.64110714243E+03 -0.99553795985E+03  0.13978003624E+04  0.25500000920E-02 0.  1.
       -2    1    3    3    0  502 -0.74278641316E+03 -0.64110714243E+03  0.23471295311E+04  0.25439667961E+04  0.25500000920E-02 0. -1.
</event>
<event>
 5   0  0.9341000E-08  0.3707855E+04  0.7818609E-02  0.8066223E-01
       -1   -1    0    0    0  501  0.00000000000E+00  0.00000000000E+00  0.18165999893E+04  0.18165999893E+04  0.50400001928E-02 0. -1.
        1   -1    0    0  501    0  0.00000000000E+00  0.00000000000E+00 -0.18920222239E+04  0.18920222239E+04  0.50400001928E-02 0.  1.
    10030    2    1    2    0    0  0.00000000000E+00  0.00000000000E+00 -0.75422234583E+02  0.37086222131E+04  0.37078552030E+04 0.  0.
        4    1    3    3  502    0  0.16105805200E+04  0.48677160409E+03  0.74099327316E+03  0.18384745986E+04  0.12699999809E+01 0. -1.
       -4    1    3    3    0  502 -0.16105805200E+04 -0.48677160409E+03 -0.81641550774E+03  0.18701476145E+04  0.12699999809E+01 0.  1.
</event>
<event>
 5   0  0.9341000E-08  0.3673786E+04  0.7818609E-02  0.8073796E-01
        1   -1    0    0  501    0  0.00000000000E+00  0.00000000000E+00  0.22352209438E+04  0.22352209438E+04  0.50400001928E-02 0. -1.
       -1   -1    0    0    0  501  0.00000000000E+00  0.00000000000E+00 -0.15095488624E+04  0.15095488624E+04  0.50400001928E-02 0.  1.
    10030    2    1    2    0    0  0.00000000000E+00  0.00000000000E+00  0.72567208140E+03  0.37447698061E+04  0.36737856404E+04 0.  0.
        4    1    3    3  502    0 -0.15858962201E+04  0.48331151277E+03  0.11690137699E+04  0.20286083029E+04  0.12699999809E+01 0. -1.
       -4    1    3    3    0  502  0.15858962201E+04 -0.48331151277E+03 -0.44334168855E+03  0.17161615032E+04  0.12699999809E+01 0.  1.
</event>
<event>
 5   0  0.9418945E-08  0.3716092E+04  0.7818609E-02  0.8064405E-01
        1   -1    0    0  501    0  0.00000000000E+00  0.00000000000E+00  0.23015261677E+04  0.23015261677E+04  0.50400001928E-02 0. -1.
       -1   -1    0    0    0  501  0.00000000000E+00  0.00000000000E+00 -0.15000195304E+04  0.15000195304E+04  0.50400001928E-02 0.  1.
    10030    2    1    2    0    0  0.00000000000E+00  0.00000000000E+00  0.80150663728E+03  0.38015456981E+04  0.37160916034E+04 0.  0.
        5    1    3    3  502    0  0.13384732593E+04  0.95253058819E+02  0.17155031065E+04  0.21779708009E+04  0.46999998093E+01 0. -1.
       -5    1    3    3    0  502 -0.13384732593E+04 -0.95253058819E+02 -0.91399646923E+03  0.16235748972E+04  0.46999998093E+01 0.  1.
</event>
<event>
 5   0  0.9341000E-08  0.3262892E+04  0.7818609E-02  0.8172402E-01
        1   -1    0    0  501    0  0.00000000000E+00  0.00000000000E+00  0.11815026010E+04  0.11815026010E+04  0.50400001928E-02 0.  1.
       -1   -1    0    0    0  501  0.00000000000E+00  0.00000000000E+00 -0.22527386121E+04  0.22527386121E+04  0.50400001928E-02 0. -1.
    10030    2    1    2    0    0  0.00000000000E+00  0.00000000000E+00 -0.10712360111E+04  0.34342412131E+04  0.32628922934E+04 0.  0.
        3    1    3    3  502    0  0.75244649789E+02  0.27708619254E+03 -0.22259371713E+04  0.22443784921E+04  0.10100000352E+00 0. -1.
       -3    1    3    3    0  502 -0.75244649789E+02 -0.27708619254E+03  0.11547011601E+04  0.11898627210E+04  0.10100000352E+00 0.  1.
</event>
<event>
 5   0  0.2913025E-07  0.3684448E+04  0.7818609E-02  0.8071417E-01
       -2   -1    0    0    0  501  0.00000000000E+00  0.00000000000E+00  0.14602627380E+04  0.14602627380E+04  0.25500000920E-02 0.  1.
        2   -1    0    0  501    0  0.00000000000E+00  0.00000000000E+00 -0.23240947226E+04  0.23240947226E+04  0.25500000920E-02 0. -1.
    10030    2    1    2    0    0  0.00000000000E+00  0.00000000000E+00 -0.86383198462E+03  0.37843574607E+04  0.36844478138E+04 0.  0.
        5    1    3    3  502    0  0.69160370612E+03 -0.11844068510E+04 -0.16951573067E+04  0.21805310498E+04  0.46999998093E+01 0. -1.
       -5    1    3    3    0  502 -0.69160370612E+03  0.11844068510E+04  0.83132532203E+03  0.16038264108E+04  0.46999998093E+01 0.  1.
</event>
<event>
 5   0  0.9418945E-08  0.3717939E+04  0.7818609E-02  0.8063998E-01
       -1   -1    0    0    0  501  0.00000000000E+00  0.00000000000E+00  0.23037150869E+04  0.23037150869E+04  0.50400001928E-02 0. -1.
        1   -1    0    0  501    0  0.00000000000E+00  0.00000000000E+00 -0.15000849705E+04  0.15000849705E+04  0.50400001928E-02 0.  1.
    10030    2    1    2    0    0  0.00000000000E+00  0.00000000000E+00  0.80363011640E+03  0.38038000574E+04  0.37179394176E+04 0.  0.
        5    1    3    3  502    0 -0.11437537856E+04 -0.11497398585E+04  0.13314642672E+04  0.20983073295E+04  0.46999998093E+01 0. -1.
       -5    1    3    3    0  502  0.11437537856E+04  0.11497398585E+04 -0.52783415079E+03  0.17054927279E+04  0.46999998093E+01 0.  1.
</event>
<event>
 5   0  0.2996969E-07  0.3669218E+04  0.7818609E-02  0.8074818E-01
        2   -1    0    0  501    0  0.00000000000E+00  0.00000000000E+00  0.14892442974E+04  0.14892442974E+04  0.25500000920E-02 0. -1.
       -2   -1    0    0    0  501  0.00000000000E+00  0.00000000000E+00 -0.22600661186E+04  0.22600661186E+04  0.25500000920E-02 0.  1.
    10030    2    1    2    0    0  0.00000000000E+00  0.00000000000E+00 -0.77082182124E+03  0.37493104161E+04  0.36692182159E+04 0.  0.
        1    1    3    3  502    0  0.13354023408E+04 -0.36718050661E+03  0.84404395825E+03  0.16218912232E+04  0.50400001928E-02 0. -1.
       -1    1    3    3    0  502 -0.13354023408E+04  0.36718050661E+03 -0.16148657795E+04  0.21274191929E+04  0.50400001928E-02 0.  1.
</event>
<event>
 5   0  0.9341000E-08  0.3731963E+04  0.7818609E-02  0.8060915E-01
        1   -1    0    0  501    0  0.00000000000E+00  0.00000000000E+00  0.13479366828E+04  0.13479366828E+04  0.50400001928E-02 0.  1.
       -1   -1    0    0    0  501  0.00000000000E+00  0.00000000000E+00 -0.25831231954E+04  0.25831231954E+04  0.50400001928E-02 0. -1.
    10030    2    1    2    0    0  0.00000000000E+00  0.00000000000E+00 -0.12351865126E+04  0.39310598782E+04  0.37319627604E+04 0.  0.
        3    1    3    3  502    0  0.15684834606E+04 -0.87065678613E+03 -0.76677282137E+02  0.17955676042E+04  0.10100000352E+00 0.  1.
       -3    1    3    3    0  502 -0.15684834606E+04  0.87065678613E+03 -0.11585092305E+04  0.21354922741E+04  0.10100000352E+00 0. -1.
</event>
<event>
 5   0  0.9341000E-08  0.3692727E+04  0.7818609E-02  0.8069575E-01
       -1   -1    0    0    0  501  0.00000000000E+00  0.00000000000E+00  0.16084193671E+04  0.16084193671E+04  0.50400001928E-02 0. -1.
        1   -1    0    0  501    0  0.00000000000E+00  0.00000000000E+00 -0.21195085641E+04  0.21195085641E+04  0.50400001928E-02 0.  1.
    10030    2    1    2    0    0  0.00000000000E+00  0.00000000000E+00 -0.51108919702E+03  0.37279279311E+04  0.36927272432E+04 0.  0.
        4    1    3    3  502    0 -0.16207939284E+04 -0.47876051249E+03  0.49509719629E+03  0.17610529332E+04  0.12699999809E+01 0. -1.
       -4    1    3    3    0  502  0.16207939284E+04  0.47876051249E+03 -0.10061863933E+04  0.19668749980E+04  0.12699999809E+01 0.  1.
</event>
<event>
 5   0  0.2996969E-07  0.3684668E+04  0.7818609E-02  0.8071368E-01
        2   -1    0    0  501    0  0.00000000000E+00  0.00000000000E+00  0.21076628090E+04  0.21076628090E+04  0.25500000920E-02 0. -1.
       -2   -1    0    0    0  501  0.00000000000E+00  0.00000000000E+00 -0.16104065705E+04  0.16104065705E+04  0.25500000920E-02 0.  1.
    10030    2    1    2    0    0  0.00000000000E+00  0.00000000000E+00  0.49725623846E+03  0.37180693795E+04  0.36846677115E+04 0.  0.
        1    1    3    3  502    0 -0.17250355763E+04  0.59020955096E+03  0.51579032348E+03  0.18947650808E+04  0.50400001928E-02 0.  1.
       -1    1    3    3    0  502  0.17250355763E+04 -0.59020955096E+03 -0.18534085021E+02  0.18233042988E+04  0.50400001928E-02 0. -1.
</event>
<event>
 5   0  0.3032442E-07  0.3714787E+04  0.7818609E-02  0.8064693E-01
        2   -1    0    0  501    0  0.00000000000E+00  0.00000000000E+00  0.20133965967E+04  0.20133965967E+04  0.25500000920E-02 0.  1.
       -2   -1    0    0    0  501  0.00000000000E+00  0.00000000000E+00 -0.17134782664E+04  0.17134782664E+04  0.25500000920E-02 0. -1.
    10030    2    1    2    0    0  0.00000000000E+00  0.00000000000E+00  0.29991833025E+03  0.37268748631E+04  0.37147873748E+04 0.  0.
        3    1    3    3  502    0 -0.16447099528E+04  0.45780091331E+03  0.88395358092E+03  0.19225052532E+04  0.10100000352E+00 0.  1.
       -3    1    3    3    0  502  0.16447099528E+04 -0.45780091331E+03 -0.58403525067E+03  0.18043696099E+04  0.10100000352E+00 0. -1.
</event>
<event>
 5   0  0.2996969E-07  0.3697996E+04  0.7818609E-02  0.8068406E-01
       -2   -1    0    0    0  501  0.00000000000E+00  0.00000000000E+00  0.20302008310E+04  0.20302008310E+04  0.25500000920E-02 0. -1.
        2   -1    0    0  501    0  0.00000000000E+00  0.00000000000E+00 -0.16839683856E+04  0.16839683856E+04  0.25500000920E-02 0.  1.
    10030    2    1    2    0    0  0.00000000000E+00  0.00000000000E+00  0.34623244539E+03  0.37141692166E+04  0.36979962227E+04 0.  0.
        1    1    3    3  502    0 -0.59777181347E+03 -0.61061343050E+03 -0.14737543144E+04  0.17035644050E+04  0.50400001928E-02 0.  1.
       -1    1    3    3    0  502  0.59777181347E+03  0.61061343050E+03  0.18199867598E+04  0.20106048116E+04  0.50400001928E-02 0. -1.
</event>
<event>
 5   0  0.3032442E-07  0.3810902E+04  0.7818609E-02  0.8043819E-01
        2   -1    0    0  501    0  0.00000000000E+00  0.00000000000E+00  0.21987562650E+04  0.21987562650E+04  0.25500000920E-02 0.  1.
       -2   -1    0    0    0  501  0.00000000000E+00  0.00000000000E+00 -0.16512716847E+04  0.16512716847E+04  0.25500000920E-02 0. -1.
    10030    2    1    2    0    0  0.00000000000E+00  0.00000000000E+00  0.54748458028E+03  0.38500279496E+04  0.38109022353E+04 0.  0.
        3    1    3    3  502    0 -0.18838355229E+04  0.27381226012E+03  0.35787101155E+03  0.19369773108E+04  0.10100000352E+00 0.  1.
       -3    1    3    3    0  502  0.18838355229E+04 -0.27381226012E+03  0.18961356872E+03  0.19130506389E+04  0.10100000352E+00 0. -1.
</event>
<event>
 5   0  0.3008879E-07  0.3733418E+04  0.7818609E-02  0.8060596E-01
        2   -1    0    0  501    0  0.00000000000E+00  0.00000000000E+00  0.16404241124E+04  0.16404241124E+04  0.25500000920E-02 0. -1.
       -2   -1    0    0    0  501  0.00000000000E+00  0.00000000000E+00 -0.21242080563E+04  0.21242080563E+04  0.25500000920E-02 0.  1.
    10030    2    1    2    0    0  0.00000000000E+00  0.00000000000E+00 -0.48378394392E+03  0.37646321687E+04  0.37334177989E+04 0.  0.
        2    1    3    3  502    0  0.35160517523E+03  0.13784077998E+04 -0.14607027479E+04  0.20389425641E+04  0.25500000920E-02 0.  1.
       -2    1    3    3    0  502 -0.35160517523E+03 -0.13784077998E+04  0.97691880401E+03  0.17256896046E+04  0.25500000920E-02 0. -1.
</event>
<event>
 5   0  0.2996969E-07  0.3680432E+04  0.7818609E-02  0.8072312E-01
       -2   -1    0    0    0  501  0.00000000000E+00  0.00000000000E+00  0.18604810243E+04  0.18604810243E+04  0.25500000920E-02 0. -1.
        2   -1    0    0  501    0  0.00000000000E+00  0.00000000000E+00 -0.18201721225E+04  0.18201721225E+04  0.25500000920E-02 0.  1.
    10030    2    1    2    0    0  0.00000000000E+00  0.00000000000E+00  0.40308901818E+02  0.36806531469E+04  0.36804324175E+04 0.  0.
        1    1    3    3  502    0  0.90249935045E+03  0.12069118159E+04  0.10762738864E+04  0.18518927311E+04  0.50400001928E-02 0. -1.
       -1    1    3    3    0  502 -0.90249935045E+03 -0.12069118159E+04 -0.10359649846E+04  0.18287604158E+04  0.50400001928E-02 0.  1.
</event>
<event>
 5   0  0.9418945E-08  0.3374254E+04  0.7818609E-02  0.8144254E-01
        1   -1    0    0  501    0  0.00000000000E+00  0.00000000000E+00  0.17890237303E+04  0.17890237303E+04  0.50400001928E-02 0.  1.
       -1   -1    0    0    0  501  0.00000000000E+00  0.00000000000E+00 -0.15910337726E+04  0.15910337726E+04  0.50400001928E-02 0. -1.
    10030    2    1    2    0    0  0.00000000000E+00  0.00000000000E+00  0.19798995770E+03  0.33800575029E+04  0.33742537989E+04 0.  0.
        5    1    3    3  502    0  0.47088222631E+03 -0.14441967375E+02 -0.15238026824E+04  0.15949718951E+04  0.46999998093E+01 0. -1.
       -5    1    3    3    0  502 -0.47088222631E+03  0.14441967375E+02  0.17217926401E+04  0.17850856077E+04  0.46999998093E+01 0.  1.
</event>
<event>
 5   0  0.9418945E-08  0.3676530E+04  0.7818609E-02  0.8073183E-01
        1   -1    0    0  501    0  0.00000000000E+00  0.00000000000E+00  0.15689330707E+04  0.15689330708E+04  0.50400001928E-02 0.  1.
       -1   -1    0    0    0  501  0.00000000000E+00  0.00000000000E+00 -0.21538324882E+04  0.21538324882E+04  0.50400001928E-02 0. -1.
    10030    2    1    2    0    0  0.00000000000E+00  0.00000000000E+00 -0.58489941743E+03  0.37227655589E+04  0.36765304403E+04 0.  0.
        5    1    3    3  502    0  0.80775191316E+03  0.21611967961E+03 -0.19501157086E+04  0.21218256847E+04  0.46999998093E+01 0. -1.
       -5    1    3    3    0  502 -0.80775191316E+03 -0.21611967961E+03  0.13652162912E+04  0.16009398742E+04  0.46999998093E+01 0.  1.
</event>
<event>
 5   0  0.3008879E-07  0.3742723E+04  0.7818609E-02  0.8058559E-01
        2   -1    0    0  501    0  0.00000000000E+00  0.00000000000E+00  0.23027759186E+04  0.23027759186E+04  0.25500000920E-02 0.  1.
       -2   -1    0    0    0  501  0.00000000000E+00  0.00000000000E+00 -0.15207701836E+04  0.15207701836E+04  0.25500000920E-02 0. -1.
    10030    2    1    2    0    0  0.00000000000E+00  0.00000000000E+00  0.78200573500E+03  0.38235461022E+04  0.37427225152E+04 0.  0.
        2    1    3    3  502    0  0.97084169994E+02  0.64480759808E+02 -0.15170590051E+04  0.15215292075E+04  0.25500000920E-02 0. -1.
       -2    1    3    3    0  502 -0.97084169994E+02 -0.64480759808E+02  0.22990647401E+04  0.23020168947E+04  0.25500000920E-02 0.  1.
</event>
<event>
 5   0  0.9341000E-08  0.3731949E+04  0.7818609E-02  0.8060918E-01
       -1   -1    0    0    0  501  0.00000000000E+00  0.00000000000E+00  0.15415504236E+04  0.15415504236E+04  0.50400001928E-02 0. -1.
        1   -1    0    0  501    0  0.00000000000E+00  0.00000000000E+00 -0.22586751238E+04  0.22586751238E+04  0.50400001928E-02 0.  1.
    10030    2    1    2    0    0  0.00000000000E+00  0.00000000000E+00 -0.71712470018E+03  0.38002255473E+04  0.37319494068E+04 0.  0.
        3    1    3    3  502    0 -0.17988549161E+04  0.34665400088E+03 -0.71975373453E+03  0.19682716921E+04  0.10100000352E+00 0.  1.
       -3    1    3    3    0  502  0.17988549161E+04 -0.34665400088E+03  0.26290343474E+01  0.18319538552E+04  0.10100000352E+00 0. -1.
</event>
<event>
 5   0  0.9418945E-08  0.3694489E+04  0.7818609E-02  0.8069184E-01
        1   -1    0    0  501    0  0.00000000000E+00  0.00000000000E+00  0.22202277680E+04  0.22202277680E+04  0.50400001928E-02 0. -1.
       -1   -1    0    0    0  501  0.00000000000E+00  0.00000000000E+00 -0.15369197842E+04  0.15369197842E+04  0.50400001928E-02 0.  1.
    10030    2    1    2    0    0  0.00000000000E+00  0.00000000000E+00  0.68330798381E+03  0.37571475523E+04  0.36944888590E+04 0.  0.
        5    1    3    3  502    0 -0.17045003874E+04 -0.68318313265E+03  0.13768027750E+03  0.18414773178E+04  0.46999998093E+01 0.  1.
       -5    1    3    3    0  502  0.17045003874E+04  0.68318313265E+03  0.54562770632E+03  0.19156702345E+04  0.46999998093E+01 0. -1.
</event>
<event>
 5   0  0.2913025E-07  0.3414286E+04  0.7818609E-02  0.8134409E-01
        2   -1    0    0  501    0  0.00000000000E+00  0.00000000000E+00  0.17789145621E+04  0.17789145621E+04  0.25500000920E-02 0.  1.
       -2   -1    0    0    0  501  0.00000000000E+00  0.00000000000E+00 -0.16382674146E+04  0.16382674146E+04  0.25500000920E-02 0. -1.
    10030    2    1    2    0    0  0.00000000000E+00  0.00000000000E+00  0.14064714757E+03  0.34171819767E+04  0.34142863152E+04 0.  0.
        5    1    3    3  502    0 -0.14924764219E+04  0.61899632637E+03 -0.48120943390E+03  0.16858905455E+04  0.46999998093E+01 0. -1.
       -5    1    3    3    0  502  0.14924764219E+04 -0.61899632637E+03  0.62185658147E+03  0.17312914313E+04  0.46999998093E+01 0.  1.
</event>
<event>
 5   0  0.3032442E-07  0.3675209E+04  0.7818609E-02  0.8073478E-01
       -2   -1    0    0    0  501  0.00000000000E+00  0.00000000000E+00  0.17188600906E+04  0.17188600906E+04  0.25500000920E-02 0. -1.
        2   -1    0    0  501    0  0.00000000000E+00  0.00000000000E+00 -0.19645522870E+04  0.19645522870E+04  0.25500000920E-02 0.  1.
    10030    2    1    2    0    0  0.00000000000E+00  0.00000000000E+00 -0.24569219643E+03  0.36834123777E+04  0.36752091217E+04 0.  0.
        3    1    3    3  502    0  0.27774433177E+03  0.73472517168E+03  0.15421348098E+04  0.17306480790E+04  0.10100000352E+00 0. -1.
       -3    1    3    3    0  502 -0.27774433177E+03 -0.73472517168E+03 -0.17878270062E+04  0.19527642986E+04  0.10100000352E+00 0.  1.
</event>
<event>
 5   0  0.9341000E-08  0.3617661E+04  0.7818609E-02  0.8086458E-01
       -3   -1    0    0    0  501  0.00000000000E+00  0.00000000000E+00  0.23708552033E+04  0.23708552054E+04  0.10100000352E+00 0. -1.
        3   -1    0    0  501    0  0.00000000000E+00  0.00000000000E+00 -0.13800369986E+04  0.13800370023E+04  0.10100000352E+00 0.  1.
    10030    2    1    2    0    0  0.00000000000E+00  0.00000000000E+00  0.99081820465E+03  0.37508922077E+04  0.36176610730E+04 0.  0.
        3    1    3    3  502    0  0.11273459571E+04 -0.22788201928E+03 -0.95208176633E+03  0.14930836620E+04  0.10100000352E+00 0.  1.
       -3    1    3    3    0  502 -0.11273459571E+04  0.22788201928E+03  0.19428999710E+04  0.22578085457E+04  0.10100000352E+00 0. -1.
</event>
<event>
 5   0  0.3008879E-07  0.3707231E+04  0.7818609E-02  0.8066361E-01
       -2   -1    0    0    0  501  0.00000000000E+00  0.00000000000E+00  0.23131894916E+04  0.23131894916E+04  0.25500000920E-02 0.  1.
        2   -1    0    0  501    0  0.00000000000E+00  0.00000000000E+00 -0.14853477095E+04  0.14853477095E+04  0.25500000920E-02 0. -1.
    10030    2    1    2    0    0  0.00000000000E+00  0.00000000000E+00  0.82784178204E+03  0.37985372011E+04  0.37072311571E+04 0.  0.
        2    1    3    3  502    0 -0.14199120189E+04  0.85371427348E+03 -0.43776263334E+03  0.17136552528E+04  0.25500000920E-02 0. -1.
       -2    1    3    3    0  502  0.14199120189E+04 -0.85371427348E+03  0.12656044154E+04  0.20848819483E+04  0.25500000920E-02 0.  1.
</event>
<event>
 5   0  0.9341000E-08  0.3685358E+04  0.7818609E-02  0.8071214E-01
       -1   -1    0    0    0  501  0.00000000000E+00  0.00000000000E+00  0.15703547068E+04  0.15703547068E+04  0.50400001928E-02 0. -1.
        1   -1    0    0  501    0  0.00000000000E+00  0.00000000000E+00 -0.21622290683E+04  0.21622290683E+04  0.50400001928E-02 0.  1.
    10030    2    1    2    0    0  0.00000000000E+00  0.00000000000E+00 -0.59187436154E+03  0.37325837751E+04  0.36853583786E+04 0.  0.
        3    1    3    3  502    0  0.10991563749E+04 -0.10270860104E+04 -0.13737240029E+04  0.20371961259E+04  0.10100000352E+00 0.  1.
       -3    1    3    3    0  502 -0.10991563749E+04  0.10270860104E+04  0.78184964133E+03  0.16953876492E+04  0.10100000352E+00 0. -1.
</event>
<event>
 5   0  0.3032442E-07  0.3695282E+04  0.7818609E-02  0.8069008E-01
       -2   -1    0    0    0  501  0.00000000000E+00  0.00000000000E+00  0.95457913903E+03  0.95457913903E+03  0.25500000920E-02 0.  1.
        2   -1    0    0  501    0  0.00000000000E+00  0.00000000000E+00 -0.35762124317E+04  0.35762124317E+04  0.25500000920E-02 0. -1.
    10030    2    1    2    0    0  0.00000000000E+00  0.00000000000E+00 -0.26216332927E+04  0.45307915707E+04  0.36952822810E+04 0.  0.
        3    1    3    3  502    0 -0.15510991767E+04 -0.87782135561E+03 -0.71354180451E+03  0.19197971001E+04  0.10100000352E+00 0.  1.
       -3    1    3    3    0  502  0.15510991767E+04  0.87782135561E+03 -0.19080914882E+04  0.26109944707E+04  0.10100000352E+00 0. -1.
</event>
<event>
 5   0  0.9646615E-08  0.3670477E+04  0.7818609E-02  0.8074536E-01
        1   -1    0    0  501    0  0.00000000000E+00  0.00000000000E+00  0.13627525070E+04  0.13627525070E+04  0.50400001928E-02 0.  1.
       -1   -1    0    0    0  501  0.00000000000E+00  0.00000000000E+00 -0.24715423373E+04  0.24715423373E+04  0.50400001928E-02 0. -1.
    10030    2    1    2    0    0  0.00000000000E+00  0.00000000000E+00 -0.11087898303E+04  0.38342948442E+04  0.36704770895E+04 0.  0.
        2    1    3    3  502    0 -0.69283450750E+03 -0.16932178709E+04 -0.70611515516E+03  0.19610214240E+04  0.25500000920E-02 0. -1.
       -2    1    3    3    0  502  0.69283450750E+03  0.16932178709E+04 -0.40267467515E+03  0.18732734202E+04  0.25500000920E-02 0.  1.
</event>
<event>
 5   0  0.9418945E-08  0.3491350E+04  0.7818609E-02  0.8115843E-01
       -1   -1    0    0    0  501  0.00000000000E+00  0.00000000000E+00  0.13949073648E+04  0.13949073648E+04  0.50400001928E-02 0.  1.
        1   -1    0    0  501    0  0.00000000000E+00  0.00000000000E+00 -0.21846476096E+04  0.21846476096E+04  0.50400001928E-02 0. -1.
    10030    2    1    2    0    0  0.00000000000E+00  0.00000000000E+00 -0.78974024478E+03  0.35795549744E+04  0.34913499052E+04 0.  0.
        5    1    3    3  502    0 -0.10206766042E+04 -0.77720765798E+03 -0.16086398834E+04  0.20575657556E+04  0.46999998093E+01 0. -1.
       -5    1    3    3    0  502  0.10206766042E+04  0.77720765798E+03  0.81889963862E+03  0.15219892188E+04  0.46999998093E+01 0.  1.
</event>
<event>
 5   0  0.9418945E-08  0.3747485E+04  0.7818609E-02  0.8057519E-01
        1   -1    0    0  501    0  0.00000000000E+00  0.00000000000E+00  0.17848315664E+04  0.17848315664E+04  0.50400001928E-02 0. -1.
       -1   -1    0    0    0  501  0.00000000000E+00  0.00000000000E+00 -0.19670825592E+04  0.19670825592E+04  0.50400001928E-02 0.  1.
    10030    2    1    2    0    0  0.00000000000E+00  0.00000000000E+00 -0.18225099287E+03  0.37519141256E+04  0.37474850475E+04 0.  0.
        5    1    3    3  502    0  0.16756179381E+04  0.83852517390E+03 -0.99442756634E+02  0.18763610776E+04  0.46999998093E+01 0.  1.
       -5    1    3    3    0  502 -0.16756179381E+04 -0.83852517390E+03 -0.82808236240E+02  0.18755530480E+04  0.46999998093E+01 0. -1.
</event>
<event>
 5   0  0.9646615E-08  0.3716104E+04  0.7818609E-02  0.8064402E-01
       -1   -1    0    0    0  501  0.00000000000E+00  0.00000000000E+00  0.12573303487E+04  0.12573303487E+04  0.50400001928E-02 0. -1.
        1   -1    0    0  501    0  0.00000000000E+00  0.00000000000E+00 -0.27457835903E+04  0.27457835903E+04  0.50400001928E-02 0.  1.
    10030    2    1    2    0    0  0.00000000000E+00  0.00000000000E+00 -0.14884532417E+04  0.40031139390E+04  0.37161038947E+04 0.  0.
        2    1    3    3  502    0  0.20231893520E+01  0.12268975150E+04  0.75892051120E+03  0.14426510139E+04  0.25500000920E-02 0. -1.
       -2    1    3    3    0  502 -0.20231893520E+01 -0.12268975150E+04 -0.22473737529E+04  0.25604629251E+04  0.25500000920E-02 0.  1.
</event>
<event>
 5   0  0.2897133E-07  0.3618189E+04  0.7818609E-02  0.8086338E-01
        2   -1    0    0  501    0  0.00000000000E+00  0.00000000000E+00  0.16912109903E+04  0.16912109903E+04  0.25500000920E-02 0. -1.
       -2   -1    0    0    0  501  0.00000000000E+00  0.00000000000E+00 -0.19351953637E+04  0.19351953637E+04  0.25500000920E-02 0.  1.
    10030    2    1    2    0    0  0.00000000000E+00  0.00000000000E+00 -0.24398437339E+03  0.36264063539E+04  0.36181894187E+04 0.  0.
        4    1    3    3  502    0 -0.15279537283E+03  0.13585234915E+04 -0.13095414613E+04  0.18931014116E+04  0.12699999809E+01 0.  1.
       -4    1    3    3    0  502  0.15279537283E+03 -0.13585234915E+04  0.10655570879E+04  0.17333049424E+04  0.12699999809E+01 0. -1.
</event>
<event>
 5   0  0.9341000E-08  0.3704803E+04  0.7818609E-02  0.8066898E-01
        1   -1    0    0  501    0  0.00000000000E+00  0.00000000000E+00  0.27281754414E+04  0.27281754414E+04  0.50400001928E-02 0.  1.
       -1   -1    0    0    0  501  0.00000000000E+00  0.00000000000E+00 -0.12577606457E+04  0.12577606457E+04  0.50400001928E-02 0. -1.
    10030    2    1    2    0    0  0.00000000000E+00  0.00000000000E+00  0.14704147957E+04  0.39859360871E+04  0.37048032092E+04 0.  0.
        4    1    3    3  502    0  0.69093740883E+03 -0.89969598455E+03 -0.84034386415E+03  0.14117460078E+04  0.12699999809E+01 0. -1.
       -4    1    3    3    0  502 -0.69093740883E+03  0.89969598455E+03  0.23107586599E+04  0.25741900794E+04  0.12699999809E+01 0.  1.
</event>
<event>
 5   0  0.9418945E-08  0.3618149E+04  0.7818609E-02  0.8086347E-01
       -1   -1    0    0    0  501  0.00000000000E+00  0.00000000000E+00  0.16804145713E+04  0.16804145714E+04  0.50400001928E-02 0. -1.
        1   -1    0    0  501    0  0.00000000000E+00  0.00000000000E+00 -0.19475856813E+04  0.19475856813E+04  0.50400001928E-02 0.  1.
    10030    2    1    2    0    0  0.00000000000E+00  0.00000000000E+00 -0.26717110999E+03  0.36280002527E+04  0.36181494485E+04 0.  0.
        5    1    3    3  502    0 -0.36761483422E+03  0.15888176732E+04 -0.91881852145E+03  0.18718258013E+04  0.46999998093E+01 0.  1.
       -5    1    3    3    0  502  0.36761483422E+03 -0.15888176732E+04  0.65164741146E+03  0.17561744514E+04  0.46999998093E+01 0. -1.
</event>
<event>
 5   0  0.9646615E-08  0.3693225E+04  0.7818609E-02  0.8069465E-01
       -1   -1    0    0    0  501  0.00000000000E+00  0.00000000000E+00  0.29057389354E+04  0.29057389354E+04  0.50400001928E-02 0.  1.
        1   -1    0    0  501    0  0.00000000000E+00  0.00000000000E+00 -0.11735321024E+04  0.11735321024E+04  0.50400001928E-02 0. -1.
    10030    2    1    2    0    0  0.00000000000E+00  0.00000000000E+00  0.17322068330E+04  0.40792710378E+04  0.36932251065E+04 0.  0.
        2    1    3    3  502    0  0.77209491853E+03  0.14079572398E+04  0.18732875926E+04  0.24673225482E+04  0.25500000920E-02 0.  1.
       -2    1    3    3    0  502 -0.77209491853E+03 -0.14079572398E+04 -0.14108075959E+03  0.16119484896E+04  0.25500000920E-02 0. -1.
</event>
<event>
 5   0  0.2996969E-07  0.3709378E+04  0.7818609E-02  0.8065887E-01
       -2   -1    0    0    0  501  0.00000000000E+00  0.00000000000E+00  0.12366537655E+04  0.12366537655E+04  0.25500000920E-02 0. -1.
        2   -1    0    0  501    0  0.00000000000E+00  0.00000000000E+00 -0.27815953529E+04  0.27815953529E+04  0.25500000920E-02 0.  1.
    10030    2    1    2    0    0  0.00000000000E+00  0.00000000000E+00 -0.15449415874E+04  0.40182491184E+04  0.37093775043E+04 0.  0.
        1    1    3    3  502    0  0.89486725725E+03  0.15343289351E+04 -0.19424758086E+03  0.17868085549E+04  0.50400001928E-02 0.  1.
       -1    1    3    3    0  502 -0.89486725725E+03 -0.15343289351E+04 -0.13506940065E+04  0.22314405635E+04  0.50400001928E-02 0. -1.
</event>
<event>
 5   0  0.3032442E-07  0.3490940E+04  0.7818609E-02  0.8115940E-01
        2   -1    0    0  501    0  0.00000000000E+00  0.00000000000E+00  0.15835495681E+04  0.15835495681E+04  0.25500000920E-02 0.  1.
       -2   -1    0    0    0  501  0.00000000000E+00  0.00000000000E+00 -0.19239470649E+04  0.19239470649E+04  0.25500000920E-02 0. -1.
    10030    2    1    2    0    0  0.00000000000E+00  0.00000000000E+00 -0.34039749686E+03  0.35074966330E+04  0.34909400131E+04 0.  0.
        3    1    3    3  502    0 -0.55702139424E+03 -0.16516603506E+04 -0.26234404531E+03  0.17626908849E+04  0.10100000352E+00 0.  1.
       -3    1    3    3    0  502  0.55702139424E+03  0.16516603506E+04 -0.78053451546E+02  0.17448057482E+04  0.10100000352E+00 0. -1.
</event>
<event>
 5   0  0.3032442E-07  0.3708138E+04  0.7818609E-02  0.8066161E-01
        2   -1    0    0  501    0  0.00000000000E+00  0.00000000000E+00  0.30985068043E+04  0.30985068043E+04  0.25500000920E-02 0. -1.
       -2   -1    0    0    0  501  0.00000000000E+00  0.00000000000E+00 -0.11094288239E+04  0.11094288239E+04  0.25500000920E-02 0.  1.
    10030    2    1    2    0    0  0.00000000000E+00  0.00000000000E+00  0.19890779804E+04  0.42079356282E+04  0.37081384871E+04 0.  0.
        3    1    3    3  502    0 -0.77621577217E+01 -0.17400175377E+04  0.26805442923E+03  0.17605608396E+04  0.10100000352E+00 0.  1.
       -3    1    3    3    0  502  0.77621577217E+01  0.17400175377E+04  0.17210235511E+04  0.24473747887E+04  0.10100000352E+00 0. -1.
</event>
<event>
 5   0  0.9341000E-08  0.3711385E+04  0.7818609E-02  0.8065443E-01
       -1   -1    0    0    0  501  0.00000000000E+00  0.00000000000E+00  0.23407233357E+04  0.23407233357E+04  0.50400001928E-02 0.  1.
        1   -1    0    0  501    0  0.00000000000E+00  0.00000000000E+00 -0.14711668198E+04  0.14711668198E+04  0.50400001928E-02 0. -1.
    10030    2    1    2    0    0  0.00000000000E+00  0.00000000000E+00  0.86955651596E+03  0.38118901555E+04  0.37113849198E+04 0.  0.
        4    1    3    3  502    0 -0.11595990009E+04  0.14458223484E+04  0.52958609290E+03  0.19275723459E+04  0.12699999809E+01 0.  1.
       -4    1    3    3    0  502  0.11595990009E+04 -0.14458223484E+04  0.33997042306E+03  0.18843178096E+04  0.12699999809E+01 0. -1.
</event>
<event>
 5   0  0.2996969E-07  0.3705241E+04  0.7818609E-02  0.8066801E-01
       -2   -1    0    0    0  501  0.00000000000E+00  0.00000000000E+00  0.15690909120E+04  0.15690909120E+04  0.25500000920E-02 0.  1.
        2   -1    0    0  501    0  0.00000000000E+00  0.00000000000E+00 -0.21873828837E+04  0.21873828837E+04  0.25500000920E-02 0. -1.
    10030    2    1    2    0    0  0.00000000000E+00  0.00000000000E+00 -0.61829197174E+03  0.37564737957E+04  0.37052409390E+04 0.  0.
        1    1    3    3  502    0  0.94495663078E+03  0.10602594193E+04  0.89688631116E+03  0.16797315635E+04  0.50400001928E-02 0.  1.
       -1    1    3    3    0  502 -0.94495663078E+03 -0.10602594193E+04 -0.15151782829E+04  0.20767422322E+04  0.50400001928E-02 0. -1.
</event>
<event>
 5   0  0.9646615E-08  0.3729389E+04  0.7818609E-02  0.8061480E-01
       -1   -1    0    0    0  501  0.00000000000E+00  0.00000000000E+00  0.21214897737E+04  0.21214897737E+04  0.50400001928E-02 0.  1.
        1   -1    0    0  501    0  0.00000000000E+00  0.00000000000E+00 -0.16389832152E+04  0.16389832152E+04  0.50400001928E-02 0. -1.
    10030    2    1    2    0    0  0.00000000000E+00  0.00000000000E+00  0.48250655852E+03  0.37604729890E+04  0.37293892961E+04 0.  0.
        2    1    3    3  502    0 -0.57064255282E+03  0.16350543509E+04  0.93842799997E+03  0.19696910328E+04  0.25500000920E-02 0.  1.
       -2    1    3    3    0  502  0.57064255282E+03 -0.16350543509E+04 -0.45592144146E+03  0.17907819561E+04  0.25500000920E-02 0. -1.
</event>
<event>
 5   0  0.9341000E-08  0.3725837E+04  0.7818609E-02  0.8062260E-01
       -1   -1    0    0    0  501  0.00000000000E+00  0.00000000000E+00  0.21195545564E+04  0.21195545564E+04  0.50400001928E-02 0. -1.
        1   -1    0    0  501    0  0.00000000000E+00  0.00000000000E+00 -0.16373559393E+04  0.16373559393E+04  0.50400001928E-02 0.  1.
    10030    2    1    2    0    0  0.00000000000E+00  0.00000000000E+00  0.48219861703E+03  0.37569104957E+04  0.37258369485E+04 0.  0.
        3    1    3    3  502    0 -0.71742336057E+03 -0.66585368585E+02  0.19733720943E+04  0.21007920702E+04  0.10100000352E+00 0. -1.
       -3    1    3    3    0  502  0.71742336057E+03  0.66585368585E+02 -0.14911734773E+04  0.16561184255E+04  0.10100000352E+00 0.  1.
</event>
<event>
 5   0  0.9418945E-08  0.3678947E+04  0.7818609E-02  0.8072643E-01
        1   -1    0    0  501    0  0.00000000000E+00  0.00000000000E+00  0.22762434359E+04  0.22762434359E+04  0.50400001928E-02 0. -1.
       -1   -1    0    0    0  501  0.00000000000E+00  0.00000000000E+00 -0.14865118134E+04  0.14865118134E+04  0.50400001928E-02 0.  1.
    10030    2    1    2    0    0  0.00000000000E+00  0.00000000000E+00  0.78973162259E+03  0.37627552493E+04  0.36789470002E+04 0.  0.
        5    1    3    3  502    0 -0.70209522756E+03  0.61324870208E+03  0.20167483487E+04  0.22217802932E+04  0.46999998093E+01 0. -1.
       -5    1    3    3    0  502  0.70209522756E+03 -0.61324870208E+03 -0.12270167261E+04  0.15409749561E+04  0.46999998093E+01 0.  1.
</event>
<event>
 5   0  0.3008879E-07  0.3662132E+04  0.7818609E-02  0.8076406E-01
        2   -1    0    0  501    0  0.00000000000E+00  0.00000000000E+00  0.18433482131E+04  0.18433482131E+04  0.25500000920E-02 0.  1.
       -2   -1    0    0    0  501  0.00000000000E+00  0.00000000000E+00 -0.18188661027E+04  0.18188661027E+04  0.25500000920E-02 0. -1.
    10030    2    1    2    0    0  0.00000000000E+00  0.00000000000E+00  0.24482110340E+02  0.36622143158E+04  0.36621324827E+04 0.  0.
        2    1    3    3  502    0  0.15763738204E+04  0.78696988026E+03 -0.48629547654E+03  0.18277744129E+04  0.25500000920E-02 0. -1.
       -2    1    3    3    0  502 -0.15763738204E+04 -0.78696988026E+03  0.51077758688E+03  0.18344399029E+04  0.25500000920E-02 0.  1.
</event>
<event>
 5   0  0.2996969E-07  0.3663745E+04  0.7818609E-02  0.8076044E-01
        2   -1    0    0  501    0  0.00000000000E+00  0.00000000000E+00  0.25150265944E+04  0.25150265944E+04  0.25500000920E-02 0.  1.
       -2   -1    0    0    0  501  0.00000000000E+00  0.00000000000E+00 -0.13342828131E+04  0.13342828131E+04  0.25500000920E-02 0. -1.
    10030    2    1    2    0    0  0.00000000000E+00  0.00000000000E+00  0.11807437813E+04  0.38493094074E+04  0.36637449471E+04 0.  0.
        1    1    3    3  502    0  0.88449815523E+03  0.94866804472E+03  0.19495106326E+04  0.23415592566E+04  0.50400001928E-02 0.  1.
       -1    1    3    3    0  502 -0.88449815523E+03 -0.94866804472E+03 -0.76876685126E+03  0.15077501508E+04  0.50400001928E-02 0. -1.
</event>
<event>
 5   0  0.2913025E-07  0.3687759E+04  0.7818609E-02  0.8070680E-01
       -2   -1    0    0    0  501  0.00000000000E+00  0.00000000000E+00  0.15823205109E+04  0.15823205109E+04  0.25500000920E-02 0. -1.
        2   -1    0    0  501    0  0.00000000000E+00  0.00000000000E+00 -0.21486739604E+04  0.21486739604E+04  0.25500000920E-02 0.  1.
    10030    2    1    2    0    0  0.00000000000E+00  0.00000000000E+00 -0.56635344950E+03  0.37309944713E+04  0.36877586031E+04 0.  0.
        5    1    3    3  502    0  0.15917441551E+04 -0.66767360033E+00 -0.12247973120E+04  0.20084323356E+04  0.46999998093E+01 0.  1.
       -5    1    3    3    0  502 -0.15917441551E+04  0.66767360033E+00  0.65844386255E+03  0.17225621357E+04  0.46999998093E+01 0. -1.
</event>
<event>
 5   0  0.9646615E-08  0.3643870E+04  0.7818609E-02  0.8080516E-01
        1   -1    0    0  501    0  0.00000000000E+00  0.00000000000E+00  0.22816591760E+04  0.22816591761E+04  0.50400001928E-02 0. -1.
       -1   -1    0    0    0  501  0.00000000000E+00  0.00000000000E+00 -0.14548389001E+04  0.14548389001E+04  0.50400001928E-02 0.  1.
    10030    2    1    2    0    0  0.00000000000E+00  0.00000000000E+00  0.82682027596E+03  0.37364980762E+04  0.36438696607E+04 0.  0.
        2    1    3    3  502    0  0.14346460369E+04 -0.69008748685E+03 -0.49512416903E+03  0.16672066259E+04  0.25500000920E-02 0.  1.
       -2    1    3    3    0  502 -0.14346460369E+04  0.69008748685E+03  0.13219444450E+04  0.20692914503E+04  0.25500000920E-02 0. -1.
</event>
<event>
 5   0  0.2897133E-07  0.3751175E+04  0.7818609E-02  0.8056714E-01
       -2   -1    0    0    0  501  0.00000000000E+00  0.00000000000E+00  0.15599386522E+04  0.15599386522E+04  0.25500000920E-02 0.  1.
        2   -1    0    0  501    0  0.00000000000E+00  0.00000000000E+00 -0.22551075297E+04  0.22551075297E+04  0.25500000920E-02 0. -1.
    10030    2    1    2    0    0  0.00000000000E+00  0.00000000000E+00 -0.69516887757E+03  0.38150461819E+04  0.37511754960E+04 0.  0.
        4    1    3    3  502    0  0.50830534557E+03  0.27563722516E+03 -0.21621945012E+04  0.22381771329E+04  0.12699999809E+01 0. -1.
       -4    1    3    3    0  502 -0.50830534557E+03 -0.27563722516E+03  0.14670256237E+04  0.15768690490E+04  0.12699999809E+01 0.  1.
</event>
<event>
 5   0  0.2996969E-07  0.3749194E+04  0.7818609E-02  0.8057146E-01
       -2   -1    0    0    0  501  0.00000000000E+00  0.00000000000E+00  0.14428139564E+04  0.14428139564E+04  0.25500000920E-02 0. -1.
        2   -1    0    0  501    0  0.00000000000E+00  0.00000000000E+00 -0.24355972653E+04  0.24355972653E+04  0.25500000920E-02 0.  1.
    10030    2    1    2    0    0  0.00000000000E+00  0.00000000000E+00 -0.99278330895E+03  0.38784112217E+04  0.37491939009E+04 0.  0.
        1    1    3    3  502    0 -0.98379950841E+03  0.13223659002E+04  0.42747376275E+03  0.17027174941E+04  0.50400001928E-02 0. -1.
       -1    1    3    3    0  502  0.98379950841E+03 -0.13223659002E+04 -0.14202570717E+04  0.21756937276E+04  0.50400001928E-02 0.  1.
</event>
<event>
 5   0  0.9341000E-08  0.3709777E+04  0.7818609E-02  0.8065799E-01
        1   -1    0    0  501    0  0.00000000000E+00  0.00000000000E+00  0.20163475020E+04  0.20163475020E+04  0.50400001928E-02 0. -1.
       -1   -1    0    0    0  501  0.00000000000E+00  0.00000000000E+00 -0.17063585936E+04  0.17063585936E+04  0.50400001928E-02 0.  1.
    10030    2    1    2    0    0  0.00000000000E+00  0.00000000000E+00  0.30998890847E+03  0.37227060956E+04  0.37097772913E+04 0.  0.
        1    1    3    3  502    0  0.47284254734E+03 -0.39069878869E+03  0.19116340421E+04  0.20076280355E+04  0.50400001928E-02 0. -1.
       -1    1    3    3    0  502 -0.47284254734E+03  0.39069878869E+03 -0.16016451336E+04  0.17150780601E+04  0.50400001928E-02 0.  1.
</event>
<event>
 5   0  0.9418945E-08  0.3694045E+04  0.7818609E-02  0.8069283E-01
        1   -1    0    0  501    0  0.00000000000E+00  0.00000000000E+00  0.15976933113E+04  0.15976933113E+04  0.50400001928E-02 0.  1.
       -1   -1    0    0    0  501  0.00000000000E+00  0.00000000000E+00 -0.21352608333E+04  0.21352608333E+04  0.50400001928E-02 0. -1.
    10030    2    1    2    0    0  0.00000000000E+00  0.00000000000E+00 -0.53756752195E+03  0.37329541446E+04  0.36940449110E+04 0.  0.
        5    1    3    3  502    0  0.49999404814E+03 -0.11527755527E+04  0.10992048107E+04  0.16694786099E+04  0.46999998093E+01 0.  1.
       -5    1    3    3    0  502 -0.49999404814E+03  0.11527755527E+04 -0.16367723327E+04  0.20634755346E+04  0.46999998093E+01 0. -1.
</event>
<event>
 5   0  0.2913025E-07  0.3709534E+04  0.7818609E-02  0.8065852E-01
        2   -1    0    0  501    0  0.00000000000E+00  0.00000000000E+00  0.16235723677E+04  0.16235723677E+04  0.25500000920E-02 0.  1.
       -2   -1    0    0    0  501  0.00000000000E+00  0.00000000000E+00 -0.21188836275E+04  0.21188836275E+04  0.25500000920E-02 0. -1.
    10030    2    1    2    0    0  0.00000000000E+00  0.00000000000E+00 -0.49531125978E+03  0.37424559952E+04  0.37095341530E+04 0.  0.
        5    1    3    3  502    0  0.18455669015E+03  0.88827415868E+03 -0.18797417145E+04  0.20872333737E+04  0.46999998093E+01 0. -1.
       -5    1    3    3    0  502 -0.18455669015E+03 -0.88827415868E+03  0.13844304547E+04  0.16552226215E+04  0.46999998093E+01 0.  1.
</event>
<event>
 5   0  0.2913025E-07  0.3701360E+04  0.7818609E-02  0.8067660E-01
       -2   -1    0    0    0  501  0.00000000000E+00  0.00000000000E+00  0.11256617371E+04  0.11256617371E+04  0.25500000920E-02 0. -1.
        2   -1    0    0  501    0  0.00000000000E+00  0.00000000000E+00 -0.30426693797E+04  0.30426693797E+04  0.25500000920E-02 0.  1.
    10030    2    1    2    0    0  0.00000000000E+00  0.00000000000E+00 -0.19170076427E+04  0.41683311168E+04  0.37013600199E+04 0.  0.
        5    1    3    3  502    0 -0.37114730075E+03  0.11741028366E+04  0.59736416897E+03  0.13686247952E+04  0.46999998093E+01 0. -1.
       -5    1    3    3    0  502  0.37114730075E+03 -0.11741028366E+04 -0.25143718117E+04  0.27997063216E+04  0.46999998093E+01 0.  1.
</event>
<event>
 5   0  0.2913025E-07  0.3561648E+04  0.7818609E-02  0.8099334E-01
       -2   -1    0    0    0  501  0.00000000000E+00  0.00000000000E+00  0.18307759983E+04  0.18307759983E+04  0.25500000920E-02 0. -1.
        2   -1    0    0  501    0  0.00000000000E+00  0.00000000000E+00 -0.17322349763E+04  0.17322349763E+04  0.25500000920E-02 0.  1.
    10030    2    1    2    0    0  0.00000000000E+00  0.00000000000E+00  0.98541021939E+02  0.35630109746E+04  0.35616480556E+04 0.  0.
        5    1    3    3  502    0 -0.69203639352E+03 -0.12301518419E+04  0.11355608940E+04  0.18115486629E+04  0.46999998093E+01 0. -1.
       -5    1    3    3    0  502  0.69203639352E+03  0.12301518419E+04 -0.10370198720E+04  0.17514623117E+04  0.46999998093E+01 0.  1.
</event>
<event>
 5   0  0.2897133E-07  0.3699868E+04  0.7818609E-02  0.8067991E-01
       -2   -1    0    0    0  501  0.00000000000E+00  0.00000000000E+00  0.19361160108E+04  0.19361160108E+04  0.25500000920E-02 0.  1.
        2   -1    0    0  501    0  0.00000000000E+00  0.00000000000E+00 -0.17675878019E+04  0.17675878019E+04  0.25500000920E-02 0. -1.
    10030    2    1    2    0    0  0.00000000000E+00  0.00000000000E+00  0.16852820892E+03  0.37037038126E+04  0.36998675888E+04 0.  0.
        4    1    3    3  502    0  0.24449713564E+03 -0.16364442336E+04  0.91248212690E+03  0.18895379922E+04  0.12699999809E+01 0.  1.
       -4    1    3    3    0  502 -0.24449713564E+03  0.16364442336E+04 -0.74395391798E+03  0.18141658204E+04  0.12699999809E+01 0. -1.
</event>
<event>
 5   0  0.2897133E-07  0.3740047E+04  0.7818609E-02  0.8059144E-01
        2   -1    0    0  501    0  0.00000000000E+00  0.00000000000E+00  0.19573628010E+04  0.19573628010E+04  0.25500000920E-02 0. -1.
       -2   -1    0    0    0  501  0.00000000000E+00  0.00000000000E+00 -0.17865811080E+04  0.17865811080E+04  0.25500000920E-02 0.  1.
    10030    2    1    2    0    0  0.00000000000E+00  0.00000000000E+00  0.17078169297E+03  0.37439439091E+04  0.37400467387E+04 0.  0.
        4    1    3    3  502    0  0.11360844426E+04 -0.10991449674E+04  0.10855206274E+04  0.19175933264E+04  0.12699999809E+01 0. -1.
       -4    1    3    3    0  502 -0.11360844426E+04  0.10991449674E+04 -0.91473893442E+03  0.18263505827E+04  0.12699999809E+01 0.  1.
</event>
<event>
 5   0  0.9418945E-08  0.3558594E+04  0.7818609E-02  0.8100043E-01
       -1   -1    0    0    0  501  0.00000000000E+00  0.00000000000E+00  0.23537001714E+04  0.23537001714E+04  0.50400001928E-02 0.  1.
        1   -1    0    0  501    0  0.00000000000E+00  0.00000000000E+00 -0.13450728643E+04  0.13450728643E+04  0.50400001928E-02 0. -1.
    10030    2    1    2    0    0  0.00000000000E+00  0.00000000000E+00  0.10086273071E+04  0.36987730357E+04  0.35585942344E+04 0.  0.
        5    1    3    3  502    0 -0.76523474934E+03 -0.13453236978E+04  0.14166106413E+04  0.20981629757E+04  0.46999998093E+01 0.  1.
       -5    1    3    3    0  502  0.76523474934E+03  0.13453236978E+04 -0.40798333422E+03  0.16006100601E+04  0.46999998093E+01 0. -1.
</event>
<event>
 5   0  0.3032442E-07  0.3695072E+04  0.7818609E-02  0.8069055E-01
       -2   -1    0    0    0  501  0.00000000000E+00  0.00000000000E+00  0.24425399701E+04  0.24425399701E+04  0.25500000920E-02 0. -1.
        2   -1    0    0  501    0  0.00000000000E+00  0.00000000000E+00 -0.13974750208E+04  0.13974750208E+04  0.25500000920E-02 0.  1.
    10030    2    1    2    0    0  0.00000000000E+00  0.00000000000E+00  0.10450649493E+04  0.38400149910E+04  0.36950716343E+04 0.  0.
        3    1    3    3  502    0  0.14342790022E+04  0.51600068639E+03 -0.56243932370E+03  0.16247310447E+04  0.10100000352E+00 0.  1.
       -3    1    3    3    0  502 -0.14342790022E+04 -0.51600068639E+03  0.16075042730E+04  0.22152839462E+04  0.10100000352E+00 0. -1.
</event>
<event>
 5   0  0.3008879E-07  0.3676735E+04  0.7818609E-02  0.8073137E-01
       -2   -1    0    0    0  501  0.00000000000E+00  0.00000000000E+00  0.12304399326E+04  0.12304399326E+04  0.25500000920E-02 0.  1.
        2   -1    0    0  501    0  0.00000000000E+00  0.00000000000E+00 -0.27466554269E+04  0.27466554269E+04  0.25500000920E-02 0. -1.
    10030    2    1    2    0    0  0.00000000000E+00  0.00000000000E+00 -0.15162154944E+04  0.39770953595E+04  0.36767347026E+04 0.  0.
        2    1    3    3  502    0  0.89030697266E+03  0.10544330299E+04  0.55565589341E+03  0.14876925059E+04  0.25500000920E-02 0.  1.
       -2    1    3    3    0  502 -0.89030697266E+03 -0.10544330299E+04 -0.20718713878E+04  0.24894028536E+04  0.25500000920E-02 0. -1.
</event>
<event>
 5   0  0.9341000E-08  0.3715941E+04  0.7818609E-02  0.8064438E-01
        1   -1    0    0  501    0  0.00000000000E+00  0.00000000000E+00  0.34462386208E+04  0.34462386208E+04  0.50400001928E-02 0.  1.
       -1   -1    0    0    0  501  0.00000000000E+00  0.00000000000E+00 -0.10016877884E+04  0.10016877884E+04  0.50400001928E-02 0. -1.
    10030    2    1    2    0    0  0.00000000000E+00  0.00000000000E+00  0.24445508324E+04  0.44479264093E+04  0.37159414110E+04 0.  0.
        3    1    3    3  502    0 -0.54006108177E+03  0.13948248092E+04  0.25415967491E+04  0.29490534525E+04  0.10100000352E+00 0.  1.
       -3    1    3    3    0  502  0.54006108177E+03 -0.13948248092E+04 -0.97045916707E+02  0.14988729568E+04  0.10100000352E+00 0. -1.
</event>
<event>
 5   0  0.2913025E-07  0.3697136E+04  0.7818609E-02  0.8068597E-01
       -2   -1    0    0    0  501  0.00000000000E+00  0.00000000000E+00  0.13694611367E+04  0.13694611367E+04  0.25500000920E-02 0. -1.
        2   -1    0    0  501    0  0.00000000000E+00  0.00000000000E+00 -0.24952911697E+04  0.24952911697E+04  0.25500000920E-02 0.  1.
    10030    2    1    2    0    0  0.00000000000E+00  0.00000000000E+00 -0.11258300331E+04  0.38647523064E+04  0.36971363413E+04 0.  0.
        5    1    3    3  502    0  0.64820540088E+02  0.97026750207E+03  0.10804797742E+04  0.14536434777E+04  0.46999998093E+01 0. -1.
       -5    1    3    3    0  502 -0.64820540088E+02 -0.97026750207E+03 -0.22063098073E+04  0.24111088286E+04  0.46999998093E+01 0.  1.
</event>
<event>
 5   0  0.3008879E-07  0.3658224E+04  0.7818609E-02  0.8077284E-01
       -2   -1    0    0    0  501  0.00000000000E+00  0.00000000000E+00  0.12594852043E+04  0.12594852043E+04  0.25500000920E-02 0.  1.
        2   -1    0    0  501    0  0.00000000000E+00  0.00000000000E+00 -0.26563632937E+04  0.26563632937E+04  0.25500000920E-02 0. -1.
    10030    2    1    2    0    0  0.00000000000E+00  0.00000000000E+00 -0.13968780893E+04  0.39158484980E+04  0.36582237579E+04 0.  0.
        2    1    3    3  502    0  0.47339090983E+03 -0.11549276820E+04  0.73276689084E+03  0.14473783957E+04  0.25500000920E-02 0.  1.
       -2    1    3    3    0  502 -0.47339090983E+03  0.11549276820E+04 -0.21296449802E+04  0.24684701023E+04  0.25500000920E-02 0. -1.
</event>
<event>
 5   0  0.9341000E-08  0.3412244E+04  0.7818609E-02  0.8134908E-01
        1   -1    0    0  501    0  0.00000000000E+00  0.00000000000E+00  0.19870189771E+04  0.19870189771E+04  0.50400001928E-02 0.  1.
       -1   -1    0    0    0  501  0.00000000000E+00  0.00000000000E+00 -0.14649347145E+04  0.14649347145E+04  0.50400001928E-02 0. -1.
    10030    2    1    2    0    0  0.00000000000E+00  0.00000000000E+00  0.52208426260E+03  0.34519536916E+04  0.34122444683E+04 0.  0.
        1    1    3    3  502    0  0.23499383611E+02 -0.16209525710E+04  0.79903309666E+03  0.18073442804E+04  0.50400001928E-02 0.  1.
       -1    1    3    3    0  502 -0.23499383611E+02  0.16209525710E+04 -0.27694883406E+03  0.16446094111E+04  0.50400001928E-02 0. -1.
</event>
<event>
 5   0  0.2913025E-07  0.3373115E+04  0.7818609E-02  0.8144536E-01
       -2   -1    0    0    0  501  0.00000000000E+00  0.00000000000E+00  0.14498236157E+04  0.14498236157E+04  0.25500000920E-02 0.  1.
        2   -1    0    0  501    0  0.00000000000E+00  0.00000000000E+00 -0.19619469245E+04  0.19619469245E+04  0.25500000920E-02 0. -1.
    10030    2    1    2    0    0  0.00000000000E+00  0.00000000000E+00 -0.51212330876E+03  0.34117705402E+04  0.33731154643E+04 0.  0.
        5    1    3    3  502    0  0.62729396952E+03  0.68301389589E+03 -0.16809098566E+04  0.19197618973E+04  0.46999998093E+01 0. -1.
       -5    1    3    3    0  502 -0.62729396952E+03 -0.68301389589E+03  0.11687865478E+04  0.14920086429E+04  0.46999998093E+01 0.  1.
</event>
<event>
 5   0  0.2913025E-07  0.3700187E+04  0.7818609E-02  0.8067920E-01
        2   -1    0    0  501    0  0.00000000000E+00  0.00000000000E+00  0.20442985983E+04  0.20442985983E+04  0.25500000920E-02 0.  1.
       -2   -1    0    0    0  501  0.00000000000E+00  0.00000000000E+00 -0.16743378300E+04  0.16743378300E+04  0.25500000920E-02 0. -1.
    10030    2    1    2    0    0  0.00000000000E+00  0.00000000000E+00  0.36996076827E+03  0.37186364283E+04  0.37001872811E+04 0.  0.
        5    1    3    3  502    0 -0.11320630674E+04  0.13645659205E+03  0.16491719432E+04  0.20049881242E+04  0.46999998093E+01 0.  1.
       -5    1    3    3    0  502  0.11320630674E+04 -0.13645659205E+03 -0.12792111749E+04  0.17136483041E+04  0.46999998093E+01 0. -1.
</event>
<event>
 5   0  0.3032442E-07  0.3682064E+04  0.7818609E-02  0.8071948E-01
        2   -1    0    0  501    0  0.00000000000E+00  0.00000000000E+00  0.21374391467E+04  0.21374391467E+04  0.25500000920E-02 0.  1.
       -2   -1    0    0    0  501  0.00000000000E+00  0.00000000000E+00 -0.15857287323E+04  0.15857287323E+04  0.25500000920E-02 0. -1.
    10030    2    1    2    0    0  0.00000000000E+00  0.00000000000E+00  0.55171041449E+03  0.37231678790E+04  0.36820639150E+04 0.  0.
        3    1    3    3  502    0 -0.66946013256E+03  0.11747410935E+04 -0.98757508147E+03  0.16743649714E+04  0.10100000352E+00 0. -1.
       -3    1    3    3    0  502  0.66946013256E+03 -0.11747410935E+04  0.15392854960E+04  0.20488029076E+04  0.10100000352E+00 0.  1.
</event>
<event>
 5   0  0.9646615E-08  0.3708357E+04  0.7818609E-02  0.8066112E-01
       -1   -1    0    0    0  501  0.00000000000E+00  0.00000000000E+00  0.97221948148E+03  0.97221948149E+03  0.50400001928E-02 0. -1.
        1   -1    0    0  501    0  0.00000000000E+00  0.00000000000E+00 -0.35362167603E+04  0.35362167603E+04  0.50400001928E-02 0.  1.
    10030    2    1    2    0    0  0.00000000000E+00  0.00000000000E+00 -0.25639972789E+04  0.45084362418E+04  0.37083574937E+04 0.  0.
        2    1    3    3  502    0  0.94020161887E+03  0.15973582467E+04 -0.13421306412E+04  0.22884158517E+04  0.25500000920E-02 0. -1.
       -2    1    3    3    0  502 -0.94020161887E+03 -0.15973582467E+04 -0.12218666377E+04  0.22200203901E+04  0.25500000920E-02 0.  1.
</event>
<event>
 5   0  0.9418945E-08  0.3713706E+04  0.7818609E-02  0.8064931E-01
        1   -1    0    0  501    0  0.00000000000E+00  0.00000000000E+00  0.17122490317E+04  0.17122490317E+04  0.50400001928E-02 0.  1.
       -1   -1    0    0    0  501  0.00000000000E+00  0.00000000000E+00 -0.20136691143E+04  0.20136691143E+04  0.50400001928E-02 0. -1.
    10030    2    1    2    0    0  0.00000000000E+00  0.00000000000E+00 -0.30142008253E+03  0.37259181460E+04  0.37137059610E+04 0.  0.
        5    1    3    3  502    0  0.24974584788E+03  0.18398903270E+04 -0.16841736260E+03  0.18643915635E+04  0.46999998093E+01 0.  1.
       -5    1    3    3    0  502 -0.24974584788E+03 -0.18398903270E+04 -0.13300271993E+03  0.18615265825E+04  0.46999998093E+01 0. -1.
</event>
<event>
 5   0  0.3008879E-07  0.3774379E+04  0.7818609E-02  0.8051675E-01
        2   -1    0    0  501    0  0.00000000000E+00  0.00000000000E+00  0.23793301118E+04  0.23793301118E+04  0.25500000920E-02 0.  1.
       -2   -1    0    0    0  501  0.00000000000E+00  0.00000000000E+00 -0.14968435177E+04  0.14968435177E+04  0.25500000920E-02 0. -1.
    10030    2    1    2    0    0  0.00000000000E+00  0.00000000000E+00  0.88248659404E+03  0.38761736295E+04  0.37743793420E+04 0.  0.
        2    1    3    3  502    0 -0.16287715694E+04  0.55162568786E+03 -0.35708760746E+03  0.17563312000E+04  0.25500000920E-02 0. -1.
       -2    1    3    3    0  502  0.16287715694E+04 -0.55162568786E+03  0.12395742015E+04  0.21198424295E+04  0.25500000920E-02 0.  1.
</event>
<event>
 5   0  0.2996969E-07  0.3703276E+04  0.7818609E-02  0.8067236E-01
        2   -1    0    0  501    0  0.00000000000E+00  0.00000000000E+00  0.18876191089E+04  0.18876191089E+04  0.25500000920E-02 0. -1.
       -2   -1    0    0    0  501  0.00000000000E+00  0.00000000000E+00 -0.18163424647E+04  0.18163424647E+04  0.25500000920E-02 0.  1.
    10030    2    1    2    0    0  0.00000000000E+00  0.00000000000E+00  0.71276644266E+02  0.37039615736E+04  0.37032757093E+04 0.  0.
        1    1    3    3  502    0  0.52456639047E+03  0.20683455827E+03  0.17996577720E+04  0.18859264378E+04  0.50400001928E-02 0. -1.
       -1    1    3    3    0  502 -0.52456639047E+03 -0.20683455827E+03 -0.17283811277E+04  0.18180351358E+04  0.50400001928E-02 0.  1.
</event>
<event>
 5   0  0.9341000E-08  0.3745464E+04  0.7818609E-02  0.8057961E-01
       -1   -1    0    0    0  501  0.00000000000E+00  0.00000000000E+00  0.15354708050E+04  0.15354708050E+04  0.50400001928E-02 0. -1.
        1   -1    0    0  501    0  0.00000000000E+00  0.00000000000E+00 -0.22840711224E+04  0.22840711224E+04  0.50400001928E-02 0.  1.
    10030    2    1    2    0    0  0.00000000000E+00  0.00000000000E+00 -0.74860031738E+03  0.38195419275E+04  0.37454636696E+04 0.  0.
        4    1    3    3  502    0 -0.81791852502E+03 -0.15836163688E+03 -0.20846884356E+04  0.22449936766E+04  0.12699999809E+01 0.  1.
       -4    1    3    3    0  502  0.81791852502E+03  0.15836163688E+03  0.13360881182E+04  0.15745482508E+04  0.12699999809E+01 0. -1.
</event>
<event>
 5   0  0.9341000E-08  0.3702183E+04  0.7818609E-02  0.8067478E-01
       -1   -1    0    0    0  501  0.00000000000E+00  0.00000000000E+00  0.17175909150E+04  0.17175909150E+04  0.50400001928E-02 0.  1.
        1   -1    0    0  501    0  0.00000000000E+00  0.00000000000E+00 -0.19949686000E+04  0.19949686000E+04  0.50400001928E-02 0. -1.
    10030    2    1    2    0    0  0.00000000000E+00  0.00000000000E+00 -0.27737768496E+03  0.37125595151E+04  0.37021831090E+04 0.  0.
        3    1    3    3  502    0 -0.68679374341E+03 -0.50538774080E+03  0.15089126217E+04  0.17331819653E+04  0.10100000352E+00 0.  1.
       -3    1    3    3    0  502  0.68679374341E+03  0.50538774080E+03 -0.17862903067E+04  0.19793775498E+04  0.10100000352E+00 0. -1.
</event>
<event>
 5   0  0.3008879E-07  0.3700414E+04  0.7818609E-02  0.8067870E-01
        2   -1    0    0  501    0  0.00000000000E+00  0.00000000000E+00  0.22396654277E+04  0.22396654277E+04  0.25500000920E-02 0. -1.
       -2   -1    0    0    0  501  0.00000000000E+00  0.00000000000E+00 -0.15284723351E+04  0.15284723351E+04  0.25500000920E-02 0.  1.
    10030    2    1    2    0    0  0.00000000000E+00  0.00000000000E+00  0.71119309261E+03  0.37681377627E+04  0.37004143800E+04 0.  0.
        2    1    3    3  502    0  0.52890837699E+03 -0.11731408103E+04  0.17093108911E+04  0.21395670484E+04  0.25500000920E-02 0. -1.
       -2    1    3    3    0  502 -0.52890837699E+03  0.11731408103E+04 -0.99811779847E+03  0.16285707144E+04  0.25500000920E-02 0.  1.
</event>
<event>
 5   0  0.9341000E-08  0.3671432E+04  0.7818609E-02  0.8074322E-01
       -1   -1    0    0    0  501  0.00000000000E+00  0.00000000000E+00  0.13830272376E+04  0.13830272376E+04  0.50400001928E-02 0.  1.
        1   -1    0    0  501    0  0.00000000000E+00  0.00000000000E+00 -0.24365778207E+04  0.24365778207E+04  0.50400001928E-02 0. -1.
    10030    2    1    2    0    0  0.00000000000E+00  0.00000000000E+00 -0.10535505831E+04  0.38196050583E+04  0.36714321416E+04 0.  0.
        3    1    3    3  502    0 -0.80130537488E+03 -0.38641217431E+03  0.11437852187E+04  0.14490166697E+04  0.10100000352E+00 0.  1.
       -3    1    3    3    0  502  0.80130537488E+03  0.38641217431E+03 -0.21973358018E+04  0.23705883886E+04  0.10100000352E+00 0. -1.
</event>
<event>
 5   0  0.9341000E-08  0.3614753E+04  0.7818609E-02  0.8087121E-01
       -1   -1    0    0    0  501  0.00000000000E+00  0.00000000000E+00  0.16067251806E+04  0.16067251806E+04  0.50400001928E-02 0.  1.
        1   -1    0    0  501    0  0.00000000000E+00  0.00000000000E+00 -0.20330852557E+04  0.20330852557E+04  0.50400001928E-02 0. -1.
    10030    2    1    2    0    0  0.00000000000E+00  0.00000000000E+00 -0.42636007505E+03  0.36398104363E+04  0.36147527023E+04 0.  0.
        1    1    3    3  502    0 -0.63160698518E+03  0.10067538296E+04 -0.15842831079E+04  0.19805134746E+04  0.50400001928E-02 0. -1.
       -1    1    3    3    0  502  0.63160698518E+03 -0.10067538296E+04  0.11579230328E+04  0.16592969617E+04  0.50400001928E-02 0.  1.
</event>
<event>
 5   0  0.9646615E-08  0.3673865E+04  0.7818609E-02  0.8073778E-01
       -1   -1    0    0    0  501  0.00000000000E+00  0.00000000000E+00  0.13216754047E+04  0.13216754047E+04  0.50400001928E-02 0.  1.
        1   -1    0    0  501    0  0.00000000000E+00  0.00000000000E+00 -0.25530635170E+04  0.25530635170E+04  0.50400001928E-02 0. -1.
    10030    2    1    2    0    0  0.00000000000E+00  0.00000000000E+00 -0.12313881123E+04  0.38747389217E+04  0.36738651347E+04 0.  0.
        2    1    3    3  502    0  0.27078014339E+03 -0.37695229843E+03 -0.24902034023E+04  0.25330866361E+04  0.25500000920E-02 0. -1.
       -2    1    3    3    0  502 -0.27078014339E+03  0.37695229843E+03  0.12588152899E+04  0.13416522856E+04  0.25500000920E-02 0.  1.
</event>
<event>
 5   0  0.2897133E-07  0.3380671E+04  0.7818609E-02  0.8142667E-01
        2   -1    0    0  501    0  0.00000000000E+00  0.00000000000E+00  0.10476941182E+04  0.10476941182E+04  0.25500000920E-02 0. -1.
       -2   -1    0    0    0  501  0.00000000000E+00  0.00000000000E+00 -0.27271647754E+04  0.27271647754E+04  0.25500000920E-02 0.  1.
    10030    2    1    2    0    0  0.00000000000E+00  0.00000000000E+00 -0.16794706573E+04  0.37748588936E+04  0.33806712319E+04 0.  0.
        4    1    3    3  502    0  0.31620945817E+03  0.13190808012E+04 -0.19659364792E+04  0.23884870598E+04  0.12699999809E+01 0.  1.
       -4    1    3    3    0  502 -0.31620945817E+03 -0.13190808012E+04  0.28646582194E+03  0.13863718338E+04  0.12699999809E+01 0. -1.
</event>
<event>
 5   0  0.9341000E-08  0.3682844E+04  0.7818609E-02  0.8071775E-01
       -4   -1    0    0    0  501  0.00000000000E+00  0.00000000000E+00  0.17100958229E+04  0.17100962944E+04  0.12699999809E+01 0. -1.
        4   -1    0    0  501    0  0.00000000000E+00  0.00000000000E+00 -0.19828319271E+04  0.19828323338E+04  0.12699999809E+01 0.  1.
    10030    2    1    2    0    0  0.00000000000E+00  0.00000000000E+00 -0.27273610425E+03  0.36929286282E+04  0.36828435849E+04 0.  0.
        3    1    3    3  502    0  0.72789458158E+03  0.16086315843E+04 -0.66058843195E+03  0.18851798807E+04  0.10100000352E+00 0.  1.
       -3    1    3    3    0  502 -0.72789458158E+03 -0.16086315843E+04  0.38785232770E+03  0.18077487475E+04  0.10100000352E+00 0. -1.
</event>
<event>
 5   0  0.2897133E-07  0.3742808E+04  0.7818609E-02  0.8058541E-01
        2   -1    0    0  501    0  0.00000000000E+00  0.00000000000E+00  0.11890305983E+04  0.11890305983E+04  0.25500000920E-02 0.  1.
       -2   -1    0    0    0  501  0.00000000000E+00  0.00000000000E+00 -0.29453852147E+04  0.29453852147E+04  0.25500000920E-02 0. -1.
    10030    2    1    2    0    0  0.00000000000E+00  0.00000000000E+00 -0.17563546164E+04  0.41344158130E+04  0.37428081138E+04 0.  0.
        4    1    3    3  502    0 -0.41196990035E+03 -0.24446092591E+03  0.11201553100E+04  0.12182897334E+04  0.12699999809E+01 0.  1.
       -4    1    3    3    0  502  0.41196990035E+03  0.24446092591E+03 -0.28765099263E+04  0.29161260796E+04  0.12699999809E+01 0. -1.
</event>
<event>
 5   0  0.2996969E-07  0.3675369E+04  0.7818609E-02  0.8073442E-01
        2   -1    0    0  501    0  0.00000000000E+00  0.00000000000E+00  0.17330265317E+04  0.17330265317E+04  0.25500000920E-02 0.  1.
       -2   -1    0    0    0  501  0.00000000000E+00  0.00000000000E+00 -0.19486628240E+04  0.19486628240E+04  0.25500000920E-02 0. -1.
    10030    2    1    2    0    0  0.00000000000E+00  0.00000000000E+00 -0.21563629221E+03  0.36816893557E+04  0.36753690293E+04 0.  0.
        1    1    3    3  502    0  0.12688522694E+04 -0.11527053536E+04 -0.77105086101E+03  0.18796901723E+04  0.50400001928E-02 0. -1.
       -1    1    3    3    0  502 -0.12688522694E+04  0.11527053536E+04  0.55541456880E+03  0.18019991834E+04  0.50400001928E-02 0.  1.
</event>
<event>
 5   0  0.2913025E-07  0.3696875E+04  0.7818609E-02  0.8068655E-01
        2   -1    0    0  501    0  0.00000000000E+00  0.00000000000E+00  0.17097842228E+04  0.17097842228E+04  0.25500000920E-02 0.  1.
       -2   -1    0    0    0  501  0.00000000000E+00  0.00000000000E+00 -0.19983345055E+04  0.19983345055E+04  0.25500000920E-02 0. -1.
    10030    2    1    2    0    0  0.00000000000E+00  0.00000000000E+00 -0.28855028266E+03  0.37081187283E+04  0.36968747934E+04 0.  0.
        5    1    3    3  502    0  0.15524039145E+04 -0.38731438339E+03  0.78413625835E+03  0.17818142740E+04  0.46999998093E+01 0.  1.
       -5    1    3    3    0  502 -0.15524039145E+04  0.38731438339E+03 -0.10726865410E+04  0.19263044543E+04  0.46999998093E+01 0. -1.
</event>
<event>
 5   0  0.3032442E-07  0.3683819E+04  0.7818609E-02  0.8071557E-01
        2   -1    0    0  501    0  0.00000000000E+00  0.00000000000E+00  0.21802624897E+04  0.21802624897E+04  0.25500000920E-02 0.  1.
       -2   -1    0    0    0  501  0.00000000000E+00  0.00000000000E+00 -0.15560655880E+04  0.15560655880E+04  0.25500000920E-02 0. -1.
    10030    2    1    2    0    0  0.00000000000E+00  0.00000000000E+00  0.62419690166E+03  0.37363280777E+04  0.36838194489E+04 0.  0.
        3    1    3    3  502    0  0.51362399981E+03 -0.81768679365E+03 -0.12787644978E+04  0.16023919485E+04  0.10100000352E+00 0. -1.
       -3    1    3    3    0  502 -0.51362399981E+03  0.81768679365E+03  0.19029613994E+04  0.21339361292E+04  0.10100000352E+00 0.  1.
</event>
<event>
 5   0  0.2897133E-07  0.3520557E+04  0.7818609E-02  0.8108935E-01
        2   -1    0    0  501    0  0.00000000000E+00  0.00000000000E+00  0.22663384450E+04  0.22663384450E+04  0.25500000920E-02 0. -1.
       -2   -1    0    0    0  501  0.00000000000E+00  0.00000000000E+00 -0.13672191116E+04  0.13672191116E+04  0.25500000920E-02 0.  1.
    10030    2    1    2    0    0  0.00000000000E+00  0.00000000000E+00  0.89911933335E+03  0.36335575566E+04  0.35205574760E+04 0.  0.
        4    1    3    3  502    0 -0.14206979854E+03  0.10621385628E+04  0.18909001330E+04  0.21734366980E+04  0.12699999809E+01 0. -1.
       -4    1    3    3    0  502  0.14206979854E+03 -0.10621385628E+04 -0.99178079968E+03  0.14601208586E+04  0.12699999809E+01 0.  1.
</event>
<event>
 5   0  0.9341000E-08  0.3720295E+04  0.7818609E-02  0.8063479E-01
        1   -1    0    0  501    0  0.00000000000E+00  0.00000000000E+00  0.16846221971E+04  0.16846221971E+04  0.50400001928E-02 0. -1.
       -1   -1    0    0    0  501  0.00000000000E+00  0.00000000000E+00 -0.20539616443E+04  0.20539616443E+04  0.50400001928E-02 0.  1.
    10030    2    1    2    0    0  0.00000000000E+00  0.00000000000E+00 -0.36933944721E+03  0.37385838414E+04  0.37202953528E+04 0.  0.
        3    1    3    3  502    0 -0.30747274947E+02 -0.10868508479E+03  0.16811728989E+04  0.16849629577E+04  0.10100000352E+00 0. -1.
       -3    1    3    3    0  502  0.30747274947E+02  0.10868508479E+03 -0.20505123461E+04  0.20536208838E+04  0.10100000352E+00 0.  1.
</event>
<event>
 5   0  0.9646615E-08  0.3662491E+04  0.7818609E-02  0.8076325E-01
       -1   -1    0    0    0  501  0.00000000000E+00  0.00000000000E+00  0.17097866194E+04  0.17097866194E+04  0.50400001928E-02 0.  1.
        1   -1    0    0  501    0  0.00000000000E+00  0.00000000000E+00 -0.19613329399E+04  0.19613329399E+04  0.50400001928E-02 0. -1.
    10030    2    1    2    0    0  0.00000000000E+00  0.00000000000E+00 -0.25154632055E+03  0.36711195593E+04  0.36624914017E+04 0.  0.
        2    1    3    3  502    0 -0.38493682164E+02 -0.13391806370E+04 -0.13771429516E+04  0.19213040496E+04  0.25500000920E-02 0. -1.
       -2    1    3    3    0  502  0.38493682164E+02  0.13391806370E+04  0.11255966311E+04  0.17498155097E+04  0.25500000920E-02 0.  1.
</event>
<event>
 5   0  0.9418945E-08  0.3742151E+04  0.7818609E-02  0.8058684E-01
        1   -1    0    0  501    0  0.00000000000E+00  0.00000000000E+00  0.16152720693E+04  0.16152720693E+04  0.50400001928E-02 0. -1.
       -1   -1    0    0    0  501  0.00000000000E+00  0.00000000000E+00 -0.21673895577E+04  0.21673895577E+04  0.50400001928E-02 0.  1.
    10030    2    1    2    0    0  0.00000000000E+00  0.00000000000E+00 -0.55211748836E+03  0.37826616270E+04  0.37421511545E+04 0.  0.
        5    1    3    3  502    0  0.13369805105E+04  0.12100438349E+04  0.22852316589E+03  0.18176820116E+04  0.46999998093E+01 0. -1.
       -5    1    3    3    0  502 -0.13369805105E+04 -0.12100438349E+04 -0.78064065424E+03  0.19649796154E+04  0.46999998093E+01 0.  1.
</event>
<event>
 5   0  0.2897133E-07  0.3689364E+04  0.7818609E-02  0.8070323E-01
        2   -1    0    0  501    0  0.00000000000E+00  0.00000000000E+00  0.23865294496E+04  0.23865294496E+04  0.25500000920E-02 0. -1.
       -2   -1    0    0    0  501  0.00000000000E+00  0.00000000000E+00 -0.14258574972E+04  0.14258574972E+04  0.25500000920E-02 0.  1.
    10030    2    1    2    0    0  0.00000000000E+00  0.00000000000E+00  0.96067195248E+03  0.38123869468E+04  0.36893635809E+04 0.  0.
        4    1    3    3  502    0 -0.10225163348E+04  0.12162486056E+04 -0.48795277420E+03  0.16621972953E+04  0.12699999809E+01 0.  1.
       -4    1    3    3    0  502  0.10225163348E+04 -0.12162486056E+04  0.14486247267E+04  0.21501896515E+04  0.12699999809E+01 0. -1.
</event>
<event>
 5   0  0.9341000E-08  0.3695406E+04  0.7818609E-02  0.8068981E-01
        1   -1    0    0  501    0  0.00000000000E+00  0.00000000000E+00  0.21564707313E+04  0.21564707313E+04  0.50400001928E-02 0.  1.
       -1   -1    0    0    0  501  0.00000000000E+00  0.00000000000E+00 -0.15831451505E+04  0.15831451505E+04  0.50400001928E-02 0. -1.
    10030    2    1    2    0    0  0.00000000000E+00  0.00000000000E+00  0.57332558083E+03  0.37396158818E+04  0.36954058941E+04 0.  0.
        1    1    3    3  502    0  0.68179109763E+03  0.10178851786E+04 -0.11130246181E+04  0.16552199667E+04  0.50400001928E-02 0. -1.
       -1    1    3    3    0  502 -0.68179109763E+03 -0.10178851786E+04  0.16863501989E+04  0.20843959151E+04  0.50400001928E-02 0.  1.
</event>
<event>
 5   0  0.9418945E-08  0.3682758E+04  0.7818609E-02  0.8071794E-01
       -1   -1    0    0    0  501  0.00000000000E+00  0.00000000000E+00  0.17415200451E+04  0.17415200451E+04  0.50400001928E-02 0. -1.
        1   -1    0    0  501    0  0.00000000000E+00  0.00000000000E+00 -0.19469634930E+04  0.19469634930E+04  0.50400001928E-02 0.  1.
    10030    2    1    2    0    0  0.00000000000E+00  0.00000000000E+00 -0.20544344792E+03  0.36884835381E+04  0.36827576353E+04 0.  0.
        5    1    3    3  502    0  0.15122335860E+04  0.42270661944E+03  0.86060663552E+03  0.17905857075E+04  0.46999998093E+01 0.  1.
       -5    1    3    3    0  502 -0.15122335860E+04 -0.42270661944E+03 -0.10660500834E+04  0.18978978306E+04  0.46999998093E+01 0. -1.
</event>
<event>
 5   0  0.9341000E-08  0.3709901E+04  0.7818609E-02  0.8065771E-01
        1   -1    0    0  501    0  0.00000000000E+00  0.00000000000E+00  0.16047000735E+04  0.16047000735E+04  0.50400001928E-02 0. -1.
       -1   -1    0    0    0  501  0.00000000000E+00  0.00000000000E+00 -0.21442268589E+04  0.21442268589E+04  0.50400001928E-02 0.  1.
    10030    2    1    2    0    0  0.00000000000E+00  0.00000000000E+00 -0.53952678537E+03  0.37489269324E+04  0.37099008062E+04 0.  0.
        1    1    3    3  502    0  0.12435748385E+04  0.13621195317E+04 -0.46930708544E+03  0.19031807949E+04  0.50400001928E-02 0. -1.
       -1    1    3    3    0  502 -0.12435748385E+04 -0.13621195317E+04 -0.70219699927E+02  0.18457461375E+04  0.50400001928E-02 0.  1.
</event>
<event>
 5   0  0.9646615E-08  0.3697127E+04  0.7818609E-02  0.8068599E-01
       -1   -1    0    0    0  501  0.00000000000E+00  0.00000000000E+00  0.31350936073E+04  0.31350936073E+04  0.50400001928E-02 0. -1.
        1   -1    0    0  501    0  0.00000000000E+00  0.00000000000E+00 -0.10899794702E+04  0.10899794702E+04  0.50400001928E-02 0.  1.
    10030    2    1    2    0    0  0.00000000000E+00  0.00000000000E+00  0.20451141371E+04  0.42250730774E+04  0.36971273546E+04 0.  0.
        2    1    3    3  502    0 -0.21125231211E+03 -0.10933228896E+04 -0.66368334765E+03  0.12963248306E+04  0.25500000920E-02 0.  1.
       -2    1    3    3    0  502  0.21125231211E+03  0.10933228896E+04  0.27087974847E+04  0.29287482469E+04  0.25500000920E-02 0. -1.
</event>
<event>
 5   0  0.2913025E-07  0.3687570E+04  0.7818609E-02  0.8070722E-01
       -2   -1    0    0    0  501  0.00000000000E+00  0.00000000000E+00  0.29191886700E+04  0.29191886700E+04  0.25500000920E-02 0.  1.
        2   -1    0    0  501    0  0.00000000000E+00  0.00000000000E+00 -0.11645506715E+04  0.11645506715E+04  0.25500000920E-02 0. -1.
    10030    2    1    2    0    0  0.00000000000E+00  0.00000000000E+00  0.17546379986E+04  0.40837393415E+04  0.36875699998E+04 0.  0.
        5    1    3    3  502    0 -0.65960728024E+03  0.17012921686E+04  0.11704109690E+04  0.21678008981E+04  0.46999998093E+01 0.  1.
       -5    1    3    3    0  502  0.65960728024E+03 -0.17012921686E+04  0.58422702954E+03  0.19159384435E+04  0.46999998093E+01 0. -1.
</event>
<event>
 5   0  0.2897133E-07  0.3748346E+04  0.7818609E-02  0.8057331E-01
        2   -1    0    0  501    0  0.00000000000E+00  0.00000000000E+00  0.12281822259E+04  0.12281822259E+04  0.25500000920E-02 0. -1.
       -2   -1    0    0    0  501  0.00000000000E+00  0.00000000000E+00 -0.28599373271E+04  0.28599373271E+04  0.25500000920E-02 0.  1.
    10030    2    1    2    0    0  0.00000000000E+00  0.00000000000E+00 -0.16317551012E+04  0.40881195529E+04  0.37483458710E+04 0.  0.
        4    1    3    3  502    0  0.13592243652E+04  0.10344947437E+04  0.25301626683E+02  0.17083067742E+04  0.12699999809E+01 0.  1.
       -4    1    3    3    0  502 -0.13592243652E+04 -0.10344947437E+04 -0.16570567279E+04  0.23798127787E+04  0.12699999809E+01 0. -1.
</event>
<event>
 5   0  0.9418945E-08  0.3686182E+04  0.7818609E-02  0.8071031E-01
       -1   -1    0    0    0  501  0.00000000000E+00  0.00000000000E+00  0.21318430589E+04  0.21318430589E+04  0.50400001928E-02 0. -1.
        1   -1    0    0  501    0  0.00000000000E+00  0.00000000000E+00 -0.15934497585E+04  0.15934497585E+04  0.50400001928E-02 0.  1.
    10030    2    1    2    0    0  0.00000000000E+00  0.00000000000E+00  0.53839330041E+03  0.37252928174E+04  0.36861822025E+04 0.  0.
        5    1    3    3  502    0  0.18285667067E+04 -0.10286448107E+03  0.60302267112E+02  0.18324562084E+04  0.46999998093E+01 0.  1.
       -5    1    3    3    0  502 -0.18285667067E+04  0.10286448107E+03  0.47809103330E+03  0.18928366090E+04  0.46999998093E+01 0. -1.
</event>
<event>
 5   0  0.9646615E-08  0.3690638E+04  0.7818609E-02  0.8070040E-01
       -1   -1    0    0    0  501  0.00000000000E+00  0.00000000000E+00  0.13320744620E+04  0.13320744620E+04  0.50400001928E-02 0. -1.
        1   -1    0    0  501    0  0.00000000000E+00  0.00000000000E+00 -0.25563151464E+04  0.25563151464E+04  0.50400001928E-02 0.  1.
    10030    2    1    2    0    0  0.00000000000E+00  0.00000000000E+00 -0.12242406844E+04  0.38883896085E+04  0.36906379522E+04 0.  0.
        2    1    3    3  502    0  0.13733840858E+04  0.10919648943E+04 -0.99810125234E+01  0.17546141451E+04  0.25500000920E-02 0. -1.
       -2    1    3    3    0  502 -0.13733840858E+04 -0.10919648943E+04 -0.12142596719E+04  0.21337754634E+04  0.25500000920E-02 0.  1.
</event>
<event>
 5   0  0.2897133E-07  0.3697267E+04  0.7818609E-02  0.8068568E-01
        2   -1    0    0  501    0  0.00000000000E+00  0.00000000000E+00  0.15341994417E+04  0.15341994417E+04  0.25500000920E-02 0.  1.
       -2   -1    0    0    0  501  0.00000000000E+00  0.00000000000E+00 -0.22275113006E+04  0.22275113006E+04  0.25500000920E-02 0. -1.
    10030    2    1    2    0    0  0.00000000000E+00  0.00000000000E+00 -0.69331185887E+03  0.37617107423E+04  0.36972674200E+04 0.  0.
        4    1    3    3  502    0  0.83304102474E+03  0.11286271006E+04  0.87836040695E+03  0.16550755567E+04  0.12699999809E+01 0.  1.
       -4    1    3    3    0  502 -0.83304102474E+03 -0.11286271006E+04 -0.15716722658E+04  0.21066351856E+04  0.12699999809E+01 0. -1.
</event>
<event>
 5   0  0.9341000E-08  0.3690927E+04  0.7818609E-02  0.8069976E-01
       -1   -1    0    0    0  501  0.00000000000E+00  0.00000000000E+00  0.14503545062E+04  0.14503545062E+04  0.50400001928E-02 0.  1.
        1   -1    0    0  501    0  0.00000000000E+00  0.00000000000E+00 -0.23482089300E+04  0.23482089300E+04  0.50400001928E-02 0. -1.
    10030    2    1    2    0    0  0.00000000000E+00  0.00000000000E+00 -0.89785442379E+03  0.37985634363E+04  0.36909269314E+04 0.  0.
        1    1    3    3  502    0 -0.17618256411E+04  0.74419474972E+02  0.11115615589E+03  0.17668965841E+04  0.50400001928E-02 0.  1.
       -1    1    3    3    0  502  0.17618256411E+04 -0.74419474972E+02 -0.10090105797E+04  0.20316668521E+04  0.50400001928E-02 0. -1.
</event>
<event>
 5   0  0.2996969E-07  0.3698896E+04  0.7818609E-02  0.8068206E-01
        2   -1    0    0  501    0  0.00000000000E+00  0.00000000000E+00  0.16464361915E+04  0.16464361915E+04  0.25500000920E-02 0.  1.
       -2   -1    0    0    0  501  0.00000000000E+00  0.00000000000E+00 -0.20774921094E+04  0.20774921094E+04  0.25500000920E-02 0. -1.
    10030    2    1    2    0    0  0.00000000000E+00  0.00000000000E+00 -0.43105591789E+03  0.37239283009E+04  0.36988961578E+04 0.  0.
        1    1    3    3  502    0 -0.91523914167E+03  0.18996619676E+03  0.13911127909E+04  0.16759906442E+04  0.50400001928E-02 0.  1.
       -1    1    3    3    0  502  0.91523914167E+03 -0.18996619676E+03 -0.18221687088E+04  0.20479376567E+04  0.50400001928E-02 0. -1.
</event>
<event>
 5   0  0.9341000E-08  0.3689443E+04  0.7818609E-02  0.8070305E-01
        1   -1    0    0  501    0  0.00000000000E+00  0.00000000000E+00  0.16675049058E+04  0.16675049058E+04  0.50400001928E-02 0. -1.
       -1   -1    0    0    0  501  0.00000000000E+00  0.00000000000E+00 -0.20407717676E+04  0.20407717676E+04  0.50400001928E-02 0.  1.
    10030    2    1    2    0    0  0.00000000000E+00  0.00000000000E+00 -0.37326686176E+03  0.37082766734E+04  0.36894427407E+04 0.  0.
        1    1    3    3  502    0  0.87547747739E+03  0.91162008458E+03 -0.15371760384E+04  0.19900809443E+04  0.50400001928E-02 0.  1.
       -1    1    3    3    0  502 -0.87547747739E+03 -0.91162008458E+03  0.11639091766E+04  0.17181957291E+04  0.50400001928E-02 0. -1.
</event>
<event>
 5   0  0.9341000E-08  0.3691359E+04  0.7818609E-02  0.8069879E-01
       -1   -1    0    0    0  501  0.00000000000E+00  0.00000000000E+00  0.30870290443E+04  0.30870290443E+04  0.50400001928E-02 0.  1.
        1   -1    0    0  501    0  0.00000000000E+00  0.00000000000E+00 -0.11034988246E+04  0.11034988246E+04  0.50400001928E-02 0. -1.
    10030    2    1    2    0    0  0.00000000000E+00  0.00000000000E+00  0.19835302197E+04  0.41905278689E+04  0.36913590569E+04 0.  0.
        1    1    3    3  502    0 -0.30232570538E+03  0.12062888220E+04 -0.55647687599E+03  0.13624243346E+04  0.50400001928E-02 0. -1.
       -1    1    3    3    0  502  0.30232570538E+03 -0.12062888220E+04  0.25400070957E+04  0.28281035342E+04  0.50400001928E-02 0.  1.
</event>
<event>
 5   0  0.3032442E-07  0.3691390E+04  0.7818609E-02  0.8069873E-01
       -2   -1    0    0    0  501  0.00000000000E+00  0.00000000000E+00  0.18010850215E+04  0.18010850215E+04  0.25500000920E-02 0. -1.
        2   -1    0    0  501    0  0.00000000000E+00  0.00000000000E+00 -0.18914096913E+04  0.18914096913E+04  0.25500000920E-02 0.  1.
    10030    2    1    2    0    0  0.00000000000E+00  0.00000000000E+00 -0.90324669738E+02  0.36924947128E+04  0.36913898003E+04 0.  0.
        3    1    3    3  502    0  0.10777438026E+04 -0.12846904114E+04 -0.81651473211E+03  0.18651159414E+04  0.10100000352E+00 0. -1.
       -3    1    3    3    0  502 -0.10777438026E+04  0.12846904114E+04  0.72619006237E+03  0.18273787713E+04  0.10100000352E+00 0.  1.
</event>
<event>
 5   0  0.9341000E-08  0.3687221E+04  0.7818609E-02  0.8070800E-01
       -3   -1    0    0    0  501  0.00000000000E+00  0.00000000000E+00  0.16350131950E+04  0.16350131982E+04  0.10100000352E+00 0.  1.
        3   -1    0    0  501    0  0.00000000000E+00  0.00000000000E+00 -0.20788211098E+04  0.20788211122E+04  0.10100000352E+00 0. -1.
    10030    2    1    2    0    0  0.00000000000E+00  0.00000000000E+00 -0.44380791473E+03  0.37138343104E+04  0.36872211515E+04 0.  0.
        3    1    3    3  502    0 -0.32867426668E+03 -0.15919014483E+04 -0.10980808403E+04  0.19616214050E+04  0.10100000352E+00 0. -1.
       -3    1    3    3    0  502  0.32867426668E+03  0.15919014483E+04  0.65427292553E+03  0.17522129054E+04  0.10100000352E+00 0.  1.
</event>
<event>
 5   0  0.3032442E-07  0.3445499E+04  0.7818609E-02  0.8126829E-01
        2   -1    0    0  501    0  0.00000000000E+00  0.00000000000E+00  0.25206588609E+04  0.25206588609E+04  0.25500000920E-02 0.  1.
       -2   -1    0    0    0  501  0.00000000000E+00  0.00000000000E+00 -0.11774168378E+04  0.11774168378E+04  0.25500000920E-02 0. -1.
    10030    2    1    2    0    0  0.00000000000E+00  0.00000000000E+00  0.13432420230E+04  0.36980756987E+04  0.34454992005E+04 0.  0.
        3    1    3    3  502    0 -0.14810661429E+04 -0.85003056564E+03  0.91580063470E+03  0.19377305527E+04  0.10100000352E+00 0.  1.
       -3    1    3    3    0  502  0.14810661429E+04  0.85003056564E+03  0.42744138834E+03  0.17603451460E+04  0.10100000352E+00 0. -1.
</event>
<event>
 5   0  0.2897133E-07  0.3693862E+04  0.7818609E-02  0.8069323E-01
        2   -1    0    0  501    0  0.00000000000E+00  0.00000000000E+00  0.21256850776E+04  0.21256850776E+04  0.25500000920E-02 0. -1.
       -2   -1    0    0    0  501  0.00000000000E+00  0.00000000000E+00 -0.16047316548E+04  0.16047316548E+04  0.25500000920E-02 0.  1.
    10030    2    1    2    0    0  0.00000000000E+00  0.00000000000E+00  0.52095342285E+03  0.37304167324E+04  0.36938620073E+04 0.  0.
        4    1    3    3  502    0 -0.98265056734E+02 -0.14340957237E+04  0.14316365810E+04  0.20287610700E+04  0.12699999809E+01 0. -1.
       -4    1    3    3    0  502  0.98265056734E+02  0.14340957237E+04 -0.91068315816E+03  0.17016556624E+04  0.12699999809E+01 0.  1.
</event>
<event>
 5   0  0.3032442E-07  0.3620876E+04  0.7818609E-02  0.8085726E-01
        2   -1    0    0  501    0  0.00000000000E+00  0.00000000000E+00  0.26612667676E+04  0.26612667676E+04  0.25500000920E-02 0.  1.
       -2   -1    0    0    0  501  0.00000000000E+00  0.00000000000E+00 -0.12316263832E+04  0.12316263832E+04  0.25500000920E-02 0. -1.
    10030    2    1    2    0    0  0.00000000000E+00  0.00000000000E+00  0.14296403844E+04  0.38928931507E+04  0.36208763379E+04 0.  0.
        3    1    3    3  502    0  0.13569214552E+04 -0.74804476352E+03 -0.29194632097E+03  0.15767179419E+04  0.10100000352E+00 0. -1.
       -3    1    3    3    0  502 -0.13569214552E+04  0.74804476352E+03  0.17215867054E+04  0.23161752088E+04  0.10100000352E+00 0.  1.
</event>
<event>
 5   0  0.2996969E-07  0.3653123E+04  0.7818609E-02  0.8078430E-01
        2   -1    0    0  501    0  0.00000000000E+00  0.00000000000E+00  0.25123331222E+04  0.25123331222E+04  0.25500000920E-02 0. -1.
       -2   -1    0    0    0  501  0.00000000000E+00  0.00000000000E+00 -0.13279797051E+04  0.13279797051E+04  0.25500000920E-02 0.  1.
    10030    2    1    2    0    0  0.00000000000E+00  0.00000000000E+00  0.11843534171E+04  0.38403128273E+04  0.36531232657E+04 0.  0.
        1    1    3    3  502    0 -0.14051830657E+03 -0.17216500553E+04 -0.31965769799E+02  0.17276707203E+04  0.50400001928E-02 0.  1.
       -1    1    3    3    0  502  0.14051830657E+03  0.17216500553E+04  0.12163191869E+04  0.21126421069E+04  0.50400001928E-02 0. -1.
</event>
<event>
 5   0  0.9646615E-08  0.3629508E+04  0.7818609E-02  0.8083766E-01
        1   -1    0    0  501    0  0.00000000000E+00  0.00000000000E+00  0.23495915445E+04  0.23495915445E+04  0.50400001928E-02 0. -1.
       -1   -1    0    0    0  501  0.00000000000E+00  0.00000000000E+00 -0.14016613376E+04  0.14016613377E+04  0.50400001928E-02 0.  1.
    10030    2    1    2    0    0  0.00000000000E+00  0.00000000000E+00  0.94793020685E+03  0.37512528821E+04  0.36295077502E+04 0.  0.
        2    1    3    3  502    0 -0.20697824192E+03 -0.43558720434E+03 -0.13342201696E+04  0.14187035159E+04  0.25500000920E-02 0.  1.
       -2    1    3    3    0  502  0.20697824192E+03  0.43558720434E+03  0.22821503764E+04  0.23325493662E+04  0.25500000920E-02 0. -1.
</event>
<event>
 5   0  0.9341000E-08  0.3769177E+04  0.7818609E-02  0.8052802E-01
        1   -1    0    0  501    0  0.00000000000E+00  0.00000000000E+00  0.24625526904E+04  0.24625526904E+04  0.50400001928E-02 0. -1.
       -1   -1    0    0    0  501  0.00000000000E+00  0.00000000000E+00 -0.14422731314E+04  0.14422731314E+04  0.50400001928E-02 0.  1.
    10030    2    1    2    0    0  0.00000000000E+00  0.00000000000E+00  0.10202795589E+04  0.39048258218E+04  0.37691768757E+04 0.  0.
        4    1    3    3  502    0  0.13616915680E+04  0.38199168327E+03  0.18005805970E+04  0.22895881008E+04  0.12699999809E+01 0. -1.
       -4    1    3    3    0  502 -0.13616915680E+04 -0.38199168327E+03 -0.78030103805E+03  0.16152377210E+04  0.12699999809E+01 0.  1.
</event>
<event>
 5   0  0.2913025E-07  0.3682866E+04  0.7818609E-02  0.8071769E-01
        2   -1    0    0  501    0  0.00000000000E+00  0.00000000000E+00  0.27086256480E+04  0.27086256480E+04  0.25500000920E-02 0. -1.
       -2   -1    0    0    0  501  0.00000000000E+00  0.00000000000E+00 -0.12518807156E+04  0.12518807156E+04  0.25500000920E-02 0.  1.
    10030    2    1    2    0    0  0.00000000000E+00  0.00000000000E+00  0.14567449324E+04  0.39605063636E+04  0.36828663916E+04 0.  0.
        5    1    3    3  502    0 -0.16759434158E+04  0.47570511405E+02 -0.90480014995E+02  0.16790646234E+04  0.46999998093E+01 0. -1.
       -5    1    3    3    0  502  0.16759434158E+04 -0.47570511405E+02  0.15472249474E+04  0.22814417403E+04  0.46999998093E+01 0.  1.
</event>
<event>
 5   0  0.9341000E-08  0.3729470E+04  0.7818609E-02  0.8061462E-01
        1   -1    0    0  501    0  0.00000000000E+00  0.00000000000E+00  0.16656333582E+04  0.16656333582E+04  0.50400001928E-02 0. -1.
       -1   -1    0    0    0  501  0.00000000000E+00  0.00000000000E+00 -0.20876357393E+04  0.20876357393E+04  0.50400001928E-02 0.  1.
    10030    2    1    2    0    0  0.00000000000E+00  0.00000000000E+00 -0.42200238105E+03  0.37532690975E+04  0.37294695211E+04 0.  0.
        1    1    3    3  502    0  0.24175305678E+03 -0.68459916741E+03 -0.19395519050E+04  0.20709857925E+04  0.50400001928E-02 0.  1.
       -1    1    3    3    0  502 -0.24175305678E+03  0.68459916741E+03  0.15175495240E+04  0.16822833050E+04  0.50400001928E-02 0. -1.
</event>
<event>
 5   0  0.9341000E-08  0.3695841E+04  0.7818609E-02  0.8068884E-01
        1   -1    0    0  501    0  0.00000000000E+00  0.00000000000E+00  0.14185640857E+04  0.14185640857E+04  0.50400001928E-02 0. -1.
       -1   -1    0    0    0  501  0.00000000000E+00  0.00000000000E+00 -0.24072302129E+04  0.24072302129E+04  0.50400001928E-02 0.  1.
    10030    2    1    2    0    0  0.00000000000E+00  0.00000000000E+00 -0.98866612713E+03  0.38257942986E+04  0.36958410821E+04 0.  0.
        4    1    3    3  502    0  0.20629541563E+03 -0.79524170592E+03  0.12191154149E+04  0.14701058388E+04  0.12699999809E+01 0. -1.
       -4    1    3    3    0  502 -0.20629541563E+03  0.79524170592E+03 -0.22077815421E+04  0.23556884598E+04  0.12699999809E+01 0.  1.
</event>
<event>
 5   0  0.9418945E-08  0.3613432E+04  0.7818609E-02  0.8087422E-01
        1   -1    0    0  501    0  0.00000000000E+00  0.00000000000E+00  0.26197386194E+04  0.26197386194E+04  0.50400001928E-02 0.  1.
       -1   -1    0    0    0  501  0.00000000000E+00  0.00000000000E+00 -0.12460111760E+04  0.12460111760E+04  0.50400001928E-02 0. -1.
    10030    2    1    2    0    0  0.00000000000E+00  0.00000000000E+00  0.13737274434E+04  0.38657497954E+04  0.36134324944E+04 0.  0.
        5    1    3    3  502    0 -0.13198992552E+04  0.97846296654E+03 -0.11705864077E+03  0.16471941707E+04  0.46999998093E+01 0. -1.
       -5    1    3    3    0  502  0.13198992552E+04 -0.97846296654E+03  0.14907860842E+04  0.22185556246E+04  0.46999998093E+01 0.  1.
</event>
<event>
 5   0  0.2897133E-07  0.3645348E+04  0.7818609E-02  0.8080182E-01
       -2   -1    0    0    0  501  0.00000000000E+00  0.00000000000E+00  0.30524121227E+04  0.30524121227E+04  0.25500000920E-02 0.  1.
        2   -1    0    0  501    0  0.00000000000E+00  0.00000000000E+00 -0.10883657597E+04  0.10883657597E+04  0.25500000920E-02 0. -1.
    10030    2    1    2    0    0  0.00000000000E+00  0.00000000000E+00  0.19640463630E+04  0.41407778824E+04  0.36453481803E+04 0.  0.
        4    1    3    3  502    0  0.11943958121E+04 -0.11919561837E+04  0.19931926156E+03  0.16991382171E+04  0.12699999809E+01 0. -1.
       -4    1    3    3    0  502 -0.11943958121E+04  0.11919561837E+04  0.17647271015E+04  0.24416396653E+04  0.12699999809E+01 0.  1.
</event>
<event>
 5   0  0.9341000E-08  0.3710488E+04  0.7818609E-02  0.8065642E-01
        1   -1    0    0  501    0  0.00000000000E+00  0.00000000000E+00  0.14961350108E+04  0.14961350108E+04  0.50400001928E-02 0.  1.
       -1   -1    0    0    0  501  0.00000000000E+00  0.00000000000E+00 -0.23005477728E+04  0.23005477728E+04  0.50400001928E-02 0. -1.
    10030    2    1    2    0    0  0.00000000000E+00  0.00000000000E+00 -0.80441276204E+03  0.37966827836E+04  0.37104878746E+04 0.  0.
        1    1    3    3  502    0 -0.10490205626E+04 -0.32388875707E+03 -0.19324680816E+04  0.22225617998E+04  0.50400001928E-02 0. -1.
       -1    1    3    3    0  502  0.10490205626E+04  0.32388875707E+03  0.11280553195E+04  0.15741209838E+04  0.50400001928E-02 0.  1.
</event>
<event>
 5   0  0.3008879E-07  0.3703260E+04  0.7818609E-02  0.8067240E-01
        2   -1    0    0  501    0  0.00000000000E+00  0.00000000000E+00  0.12080135160E+04  0.12080135160E+04  0.25500000920E-02 0.  1.
       -2   -1    0    0    0  501  0.00000000000E+00  0.00000000000E+00 -0.28381576120E+04  0.28381576120E+04  0.25500000920E-02 0. -1.
    10030    2    1    2    0    0  0.00000000000E+00  0.00000000000E+00 -0.16301440960E+04  0.40461711280E+04  0.37032595134E+04 0.  0.
        2    1    3    3  502    0  0.17282019875E+04 -0.22448853798E+03 -0.13147319879E+03  0.17476734292E+04  0.25500000920E-02 0.  1.
       -2    1    3    3    0  502 -0.17282019875E+04  0.22448853798E+03 -0.14986708972E+04  0.22984976988E+04  0.25500000920E-02 0. -1.
</event>
<event>
 5   0  0.2913025E-07  0.3695903E+04  0.7818609E-02  0.8068870E-01
        2   -1    0    0  501    0  0.00000000000E+00  0.00000000000E+00  0.10214678953E+04  0.10214678953E+04  0.25500000920E-02 0.  1.
       -2   -1    0    0    0  501  0.00000000000E+00  0.00000000000E+00 -0.33431537113E+04  0.33431537113E+04  0.25500000920E-02 0. -1.
    10030    2    1    2    0    0  0.00000000000E+00  0.00000000000E+00 -0.23216858161E+04  0.43646216066E+04  0.36959026963E+04 0.  0.
        5    1    3    3  502    0 -0.40084233095E+03  0.11793017037E+04 -0.27729276082E+04  0.30398316883E+04  0.46999998093E+01 0. -1.
       -5    1    3    3    0  502  0.40084233095E+03 -0.11793017037E+04  0.45124179217E+03  0.13247899183E+04  0.46999998093E+01 0.  1.
</event>
<event>
 5   0  0.9341000E-08  0.3596911E+04  0.7818609E-02  0.8091200E-01
       -1   -1    0    0    0  501  0.00000000000E+00  0.00000000000E+00  0.13456647444E+04  0.13456647444E+04  0.50400001928E-02 0. -1.
        1   -1    0    0  501    0  0.00000000000E+00  0.00000000000E+00 -0.24036015746E+04  0.24036015747E+04  0.50400001928E-02 0.  1.
    10030    2    1    2    0    0  0.00000000000E+00  0.00000000000E+00 -0.10579368303E+04  0.37492663191E+04  0.35969108405E+04 0.  0.
        3    1    3    3  502    0  0.32325255822E+03  0.62976912561E+03 -0.22522787301E+04  0.23609025512E+04  0.10100000352E+00 0.  1.
       -3    1    3    3    0  502 -0.32325255822E+03 -0.62976912561E+03  0.11943418999E+04  0.13883637679E+04  0.10100000352E+00 0. -1.
</event>
<event>
 5   0  0.9418945E-08  0.3696141E+04  0.7818609E-02  0.8068818E-01
       -1   -1    0    0    0  501  0.00000000000E+00  0.00000000000E+00  0.31121254067E+04  0.31121254067E+04  0.50400001928E-02 0. -1.
        1   -1    0    0  501    0  0.00000000000E+00  0.00000000000E+00 -0.10974376895E+04  0.10974376895E+04  0.50400001928E-02 0.  1.
    10030    2    1    2    0    0  0.00000000000E+00  0.00000000000E+00  0.20146877173E+04  0.42095630962E+04  0.36961405361E+04 0.  0.
        5    1    3    3  502    0 -0.20262859955E+03  0.50529779323E+03  0.30187198890E+04  0.30674217297E+04  0.46999998093E+01 0. -1.
       -5    1    3    3    0  502  0.20262859955E+03 -0.50529779323E+03 -0.10040321718E+04  0.11421413665E+04  0.46999998093E+01 0.  1.
</event>
<event>
 5   0  0.3008879E-07  0.3699360E+04  0.7818609E-02  0.8068104E-01
       -2   -1    0    0    0  501  0.00000000000E+00  0.00000000000E+00  0.17900168728E+04  0.17900168728E+04  0.25500000920E-02 0.  1.
        2   -1    0    0  501    0  0.00000000000E+00  0.00000000000E+00 -0.19113319511E+04  0.19113319511E+04  0.25500000920E-02 0. -1.
    10030    2    1    2    0    0  0.00000000000E+00  0.00000000000E+00 -0.12131507828E+03  0.37013488239E+04  0.36993601836E+04 0.  0.
        2    1    3    3  502    0 -0.28942171962E+03 -0.14965517118E+04  0.98770554981E+03  0.18163133570E+04  0.25500000920E-02 0.  1.
       -2    1    3    3    0  502  0.28942171962E+03  0.14965517118E+04 -0.11090206281E+04  0.18850354669E+04  0.25500000920E-02 0. -1.
</event>
<event>
 5   0  0.9341000E-08  0.3723650E+04  0.7818609E-02  0.8062741E-01
       -1   -1    0    0    0  501  0.00000000000E+00  0.00000000000E+00  0.14631612746E+04  0.14631612746E+04  0.50400001928E-02 0.  1.
        1   -1    0    0  501    0  0.00000000000E+00  0.00000000000E+00 -0.23691113012E+04  0.23691113012E+04  0.50400001928E-02 0. -1.
    10030    2    1    2    0    0  0.00000000000E+00  0.00000000000E+00 -0.90595002658E+03  0.38322725758E+04  0.37236497747E+04 0.  0.
        4    1    3    3  502    0  0.31809428420E+03  0.35434850304E+03  0.13994309600E+04  0.14782271341E+04  0.12699999809E+01 0.  1.
       -4    1    3    3    0  502 -0.31809428420E+03 -0.35434850304E+03 -0.23053809866E+04  0.23540454417E+04  0.12699999809E+01 0. -1.
</event>
<event>
 5   0  0.3032442E-07  0.3699649E+04  0.7818609E-02  0.8068040E-01
       -2   -1    0    0    0  501  0.00000000000E+00  0.00000000000E+00  0.19051197351E+04  0.19051197351E+04  0.25500000920E-02 0.  1.
        2   -1    0    0  501    0  0.00000000000E+00  0.00000000000E+00 -0.17961346625E+04  0.17961346625E+04  0.25500000920E-02 0. -1.
    10030    2    1    2    0    0  0.00000000000E+00  0.00000000000E+00  0.10898507256E+03  0.37012543976E+04  0.36996494928E+04 0.  0.
        3    1    3    3  502    0  0.91137406024E+03  0.14637392138E+04 -0.61566103447E+03  0.18308942305E+04  0.10100000352E+00 0. -1.
       -3    1    3    3    0  502 -0.91137406024E+03 -0.14637392138E+04  0.72464610703E+03  0.18703601670E+04  0.10100000352E+00 0.  1.
</event>
<event>
 5   0  0.2913025E-07  0.3689872E+04  0.7818609E-02  0.8070210E-01
       -2   -1    0    0    0  501  0.00000000000E+00  0.00000000000E+00  0.20330971372E+04  0.20330971372E+04  0.25500000920E-02 0.  1.
        2   -1    0    0  501    0  0.00000000000E+00  0.00000000000E+00 -0.16741889503E+04  0.16741889503E+04  0.25500000920E-02 0. -1.
    10030    2    1    2    0    0  0.00000000000E+00  0.00000000000E+00  0.35890818690E+03  0.37072860876E+04  0.36898719556E+04 0.  0.
        5    1    3    3  502    0  0.77565717826E+02 -0.11276659607E+04 -0.12855494082E+04  0.17118137546E+04  0.46999998093E+01 0. -1.
       -5    1    3    3    0  502 -0.77565717826E+02  0.11276659607E+04  0.16444575951E+04  0.19954723330E+04  0.46999998093E+01 0.  1.
</event>
<event>
 5   0  0.2996969E-07  0.3693464E+04  0.7818609E-02  0.8069412E-01
       -2   -1    0    0    0  501  0.00000000000E+00  0.00000000000E+00  0.22491300894E+04  0.22491300894E+04  0.25500000920E-02 0.  1.
        2   -1    0    0  501    0  0.00000000000E+00  0.00000000000E+00 -0.15163277717E+04  0.15163277717E+04  0.25500000920E-02 0. -1.
    10030    2    1    2    0    0  0.00000000000E+00  0.00000000000E+00  0.73280231770E+03  0.37654578612E+04  0.36934636410E+04 0.  0.
        1    1    3    3  502    0  0.15026483152E+03 -0.13791683774E+04  0.16090671684E+04  0.21245663287E+04  0.50400001928E-02 0.  1.
       -1    1    3    3    0  502 -0.15026483152E+03  0.13791683774E+04 -0.87626485069E+03  0.16408915325E+04  0.50400001928E-02 0. -1.
</event>
<event>
 5   0  0.9341000E-08  0.3705267E+04  0.7818609E-02  0.8066796E-01
        1   -1    0    0  501    0  0.00000000000E+00  0.00000000000E+00  0.17772792837E+04  0.17772792837E+04  0.50400001928E-02 0.  1.
       -1   -1    0    0    0  501  0.00000000000E+00  0.00000000000E+00 -0.19311826305E+04  0.19311826305E+04  0.50400001928E-02 0. -1.
    10030    2    1    2    0    0  0.00000000000E+00  0.00000000000E+00 -0.15390334684E+03  0.37084619142E+04  0.37052669983E+04 0.  0.
        1    1    3    3  502    0 -0.85066928071E+02  0.14948516402E+04  0.10150588084E+04  0.18089118809E+04  0.50400001928E-02 0.  1.
       -1    1    3    3    0  502  0.85066928071E+02 -0.14948516402E+04 -0.11689621553E+04  0.18995500333E+04  0.50400001928E-02 0. -1.
</event>
<event>
 5   0  0.2996969E-07  0.3685430E+04  0.7818609E-02  0.8071198E-01
       -2   -1    0    0    0  501  0.00000000000E+00  0.00000000000E+00  0.23267074665E+04  0.23267074665E+04  0.25500000920E-02 0.  1.
        2   -1    0    0  501    0  0.00000000000E+00  0.00000000000E+00 -0.14594008533E+04  0.14594008533E+04  0.25500000920E-02 0. -1.
    10030    2    1    2    0    0  0.00000000000E+00  0.00000000000E+00  0.86730661327E+03  0.37861083198E+04  0.36854301578E+04 0.  0.
        1    1    3    3  502    0 -0.10543909441E+04  0.64061482405E+03 -0.97248605513E+03  0.15709413558E+04  0.50400001928E-02 0. -1.
       -1    1    3    3    0  502  0.10543909441E+04 -0.64061482405E+03  0.18397926684E+04  0.22151669640E+04  0.50400001928E-02 0.  1.
</event>
<event>
 5   0  0.9341000E-08  0.3701635E+04  0.7818609E-02  0.8067600E-01
       -1   -1    0    0    0  501  0.00000000000E+00  0.00000000000E+00  0.13111231613E+04  0.13111231613E+04  0.50400001928E-02 0. -1.
        1   -1    0    0  501    0  0.00000000000E+00  0.00000000000E+00 -0.26126641679E+04  0.26126641679E+04  0.50400001928E-02 0.  1.
    10030    2    1    2    0    0  0.00000000000E+00  0.00000000000E+00 -0.13015410066E+04  0.39237873292E+04  0.37016345056E+04 0.  0.
        1    1    3    3  502    0  0.91642825039E+03 -0.14082846368E+04 -0.14735073511E+04  0.22347998277E+04  0.50400001928E-02 0.  1.
       -1    1    3    3    0  502 -0.91642825039E+03  0.14082846368E+04  0.17196634448E+03  0.16889875015E+04  0.50400001928E-02 0. -1.
</event>
<event>
 5   0  0.2897133E-07  0.3734490E+04  0.7818609E-02  0.8060361E-01
       -2   -1    0    0    0  501  0.00000000000E+00  0.00000000000E+00  0.19464004313E+04  0.19464004313E+04  0.25500000920E-02 0. -1.
        2   -1    0    0  501    0  0.00000000000E+00  0.00000000000E+00 -0.17913086009E+04  0.17913086009E+04  0.25500000920E-02 0.  1.
    10030    2    1    2    0    0  0.00000000000E+00  0.00000000000E+00  0.15509183042E+03  0.37377090323E+04  0.37344899697E+04 0.  0.
        4    1    3    3  502    0 -0.11227818623E+04  0.14612442071E+04 -0.22392540576E+03  0.18563453190E+04  0.12699999809E+01 0.  1.
       -4    1    3    3    0  502  0.11227818623E+04 -0.14612442071E+04  0.37901723618E+03  0.18813637132E+04  0.12699999809E+01 0. -1.
</event>
<event>
 5   0  0.9341000E-08  0.3730201E+04  0.7818609E-02  0.8061302E-01
        1   -1    0    0  501    0  0.00000000000E+00  0.00000000000E+00  0.19194666362E+04  0.19194666362E+04  0.50400001928E-02 0. -1.
       -1   -1    0    0    0  501  0.00000000000E+00  0.00000000000E+00 -0.18122737430E+04  0.18122737430E+04  0.50400001928E-02 0.  1.
    10030    2    1    2    0    0  0.00000000000E+00  0.00000000000E+00  0.10719289321E+03  0.37317403792E+04  0.37302005229E+04 0.  0.
        1    1    3    3  502    0 -0.41829708505E+03 -0.58791711698E+03  0.17741843277E+04  0.19152934544E+04  0.50400001928E-02 0. -1.
       -1    1    3    3    0  502  0.41829708505E+03  0.58791711698E+03 -0.16669914345E+04  0.18164469248E+04  0.50400001928E-02 0.  1.
</event>
<event>
 5   0  0.2913025E-07  0.3670545E+04  0.7818609E-02  0.8074521E-01
       -2   -1    0    0    0  501  0.00000000000E+00  0.00000000000E+00  0.21503638235E+04  0.21503638235E+04  0.25500000920E-02 0.  1.
        2   -1    0    0  501    0  0.00000000000E+00  0.00000000000E+00 -0.15663510385E+04  0.15663510385E+04  0.25500000920E-02 0. -1.
    10030    2    1    2    0    0  0.00000000000E+00  0.00000000000E+00  0.58401278498E+03  0.37167148619E+04  0.36705447051E+04 0.  0.
        5    1    3    3  502    0  0.13161836143E+04 -0.12772253889E+04  0.22364033426E+03  0.18476149733E+04  0.46999998093E+01 0.  1.
       -5    1    3    3    0  502 -0.13161836143E+04  0.12772253889E+04  0.36037245072E+03  0.18690998886E+04  0.46999998093E+01 0. -1.
</event>
<event>
 5   0  0.2913025E-07  0.3697575E+04  0.7818609E-02  0.8068499E-01
       -2   -1    0    0    0  501  0.00000000000E+00  0.00000000000E+00  0.19990771886E+04  0.19990771887E+04  0.25500000920E-02 0.  1.
        2   -1    0    0  501    0  0.00000000000E+00  0.00000000000E+00 -0.17097968423E+04  0.17097968423E+04  0.25500000920E-02 0. -1.
    10030    2    1    2    0    0  0.00000000000E+00  0.00000000000E+00  0.28928034635E+03  0.37088740310E+04  0.36975753486E+04 0.  0.
        5    1    3    3  502    0  0.88398186658E+03  0.22874406886E+03  0.17571114064E+04  0.19802046293E+04  0.46999998093E+01 0.  1.
       -5    1    3    3    0  502 -0.88398186658E+03 -0.22874406886E+03 -0.14678310600E+04  0.17286694017E+04  0.46999998093E+01 0. -1.
</event>
<event>
 5   0  0.3008879E-07  0.3721099E+04  0.7818609E-02  0.8063302E-01
        2   -1    0    0  501    0  0.00000000000E+00  0.00000000000E+00  0.27476274765E+04  0.27476274765E+04  0.25500000920E-02 0.  1.
       -2   -1    0    0    0  501  0.00000000000E+00  0.00000000000E+00 -0.12598668832E+04  0.12598668832E+04  0.25500000920E-02 0. -1.
    10030    2    1    2    0    0  0.00000000000E+00  0.00000000000E+00  0.14877605933E+04  0.40074943597E+04  0.37210992274E+04 0.  0.
        2    1    3    3  502    0 -0.62755186312E+03  0.17319864051E+04  0.46294588669E+03  0.18994518005E+04  0.25500000920E-02 0. -1.
       -2    1    3    3    0  502  0.62755186312E+03 -0.17319864051E+04  0.10248147066E+04  0.21080425592E+04  0.25500000920E-02 0.  1.
</event>
<event>
 5   0  0.3008879E-07  0.3896725E+04  0.7818609E-02  0.8025711E-01
        2   -1    0    0  501    0  0.00000000000E+00  0.00000000000E+00  0.25453634079E+04  0.25453634079E+04  0.25500000920E-02 0. -1.
       -2   -1    0    0    0  501  0.00000000000E+00  0.00000000000E+00 -0.14913852154E+04  0.14913852154E+04  0.25500000920E-02 0.  1.
    10030    2    1    2    0    0  0.00000000000E+00  0.00000000000E+00  0.10539781925E+04  0.40367486233E+04  0.38967254737E+04 0.  0.
        2    1    3    3  502    0 -0.14904551534E+04  0.39557269934E+02  0.18262893112E+04  0.23576161669E+04  0.25500000920E-02 0. -1.
       -2    1    3    3    0  502  0.14904551534E+04 -0.39557269934E+02 -0.77231111871E+03  0.16791324564E+04  0.25500000920E-02 0.  1.
</event>
<event>
 5   0  0.2996969E-07  0.3679137E+04  0.7818609E-02  0.8072601E-01
       -2   -1    0    0    0  501  0.00000000000E+00  0.00000000000E+00  0.14043744356E+04  0.14043744356E+04  0.25500000920E-02 0. -1.
        2   -1    0    0  501    0  0.00000000000E+00  0.00000000000E+00 -0.24096221114E+04  0.24096221114E+04  0.25500000920E-02 0.  1.
    10030    2    1    2    0    0  0.00000000000E+00  0.00000000000E+00 -0.10052476758E+04  0.38139965469E+04  0.36791366882E+04 0.  0.
        1    1    3    3  502    0 -0.66476670108E+03 -0.61495519027E+03 -0.21625440136E+04  0.23445002161E+04  0.50400001928E-02 0.  1.
       -1    1    3    3    0  502  0.66476670108E+03  0.61495519027E+03  0.11572963377E+04  0.14694963308E+04  0.50400001928E-02 0. -1.
</event>
<event>
 5   0  0.9418945E-08  0.3714876E+04  0.7818609E-02  0.8064673E-01
        1   -1    0    0  501    0  0.00000000000E+00  0.00000000000E+00  0.15856127585E+04  0.15856127586E+04  0.50400001928E-02 0. -1.
       -1   -1    0    0    0  501  0.00000000000E+00  0.00000000000E+00 -0.21758629242E+04  0.21758629242E+04  0.50400001928E-02 0.  1.
    10030    2    1    2    0    0  0.00000000000E+00  0.00000000000E+00 -0.59025016564E+03  0.37614756827E+04  0.37148760483E+04 0.  0.
        5    1    3    3  502    0 -0.13954956625E+04  0.99859589249E+03 -0.10149947934E+04  0.19936996818E+04  0.46999998093E+01 0.  1.
       -5    1    3    3    0  502  0.13954956625E+04 -0.99859589249E+03  0.42474462778E+03  0.17677760009E+04  0.46999998093E+01 0. -1.
</event>
<event>
 5   0  0.9341000E-08  0.3698752E+04  0.7818609E-02  0.8068238E-01
       -1   -1    0    0    0  501  0.00000000000E+00  0.00000000000E+00  0.17317829991E+04  0.17317829991E+04  0.50400001928E-02 0. -1.
        1   -1    0    0  501    0  0.00000000000E+00  0.00000000000E+00 -0.19749540940E+04  0.19749540940E+04  0.50400001928E-02 0.  1.
    10030    2    1    2    0    0  0.00000000000E+00  0.00000000000E+00 -0.24317109493E+03  0.37067370931E+04  0.36987521810E+04 0.  0.
        3    1    3    3  502    0 -0.11030543848E+04  0.13963155963E+03 -0.16026006350E+04  0.19505267888E+04  0.10100000352E+00 0.  1.
       -3    1    3    3    0  502  0.11030543848E+04 -0.13963155963E+03  0.13594295401E+04  0.17562103043E+04  0.10100000352E+00 0. -1.
</event>
<event>
 5   0  0.3032442E-07  0.3706515E+04  0.7818609E-02  0.8066519E-01
       -2   -1    0    0    0  501  0.00000000000E+00  0.00000000000E+00  0.23647920620E+04  0.23647920620E+04  0.25500000920E-02 0. -1.
        2   -1    0    0  501    0  0.00000000000E+00  0.00000000000E+00 -0.14523746670E+04  0.14523746670E+04  0.25500000920E-02 0.  1.
    10030    2    1    2    0    0  0.00000000000E+00  0.00000000000E+00  0.91241739499E+03  0.38171667290E+04  0.37065153898E+04 0.  0.
        3    1    3    3  502    0  0.72629376863E+03 -0.85202244294E+02 -0.12975082366E+04  0.14893923912E+04  0.10100000352E+00 0.  1.
       -3    1    3    3    0  502 -0.72629376863E+03  0.85202244294E+02  0.22099256315E+04  0.23277743378E+04  0.10100000352E+00 0. -1.
</event>
<event>
 5   0  0.9341000E-08  0.3697245E+04  0.7818609E-02  0.8068573E-01
       -1   -1    0    0    0  501  0.00000000000E+00  0.00000000000E+00  0.19185072537E+04  0.19185072537E+04  0.50400001928E-02 0.  1.
        1   -1    0    0  501    0  0.00000000000E+00  0.00000000000E+00 -0.17812838523E+04  0.17812838523E+04  0.50400001928E-02 0. -1.
    10030    2    1    2    0    0  0.00000000000E+00  0.00000000000E+00  0.13722340142E+03  0.36997911060E+04  0.36972454566E+04 0.  0.
        1    1    3    3  502    0 -0.13128781273E+04 -0.61597338582E+03 -0.10786216370E+04  0.18073452424E+04  0.50400001928E-02 0. -1.
       -1    1    3    3    0  502  0.13128781273E+04  0.61597338582E+03  0.12158450385E+04  0.18924458636E+04  0.50400001928E-02 0.  1.
</event>
<event>
 5   0  0.3008879E-07  0.3696502E+04  0.7818609E-02  0.8068738E-01
       -2   -1    0    0    0  501  0.00000000000E+00  0.00000000000E+00  0.28736490994E+04  0.28736490994E+04  0.25500000920E-02 0.  1.
        2   -1    0    0  501    0  0.00000000000E+00  0.00000000000E+00 -0.11887434061E+04  0.11887434061E+04  0.25500000920E-02 0. -1.
    10030    2    1    2    0    0  0.00000000000E+00  0.00000000000E+00  0.16849056933E+04  0.40623925055E+04  0.36965018157E+04 0.  0.
        2    1    3    3  502    0 -0.12844955273E+04 -0.79753154882E+03  0.20107115804E+04  0.25157397303E+04  0.25500000920E-02 0.  1.
       -2    1    3    3    0  502  0.12844955273E+04  0.79753154882E+03 -0.32580588706E+03  0.15466527752E+04  0.25500000920E-02 0. -1.
</event>
<event>
 5   0  0.9341000E-08  0.3697365E+04  0.7818609E-02  0.8068546E-01
        1   -1    0    0  501    0  0.00000000000E+00  0.00000000000E+00  0.16191728764E+04  0.16191728764E+04  0.50400001928E-02 0. -1.
       -1   -1    0    0    0  501  0.00000000000E+00  0.00000000000E+00 -0.21107243816E+04  0.21107243816E+04  0.50400001928E-02 0.  1.
    10030    2    1    2    0    0  0.00000000000E+00  0.00000000000E+00 -0.49155150519E+03  0.37298972580E+04  0.36973653691E+04 0.  0.
        4    1    3    3  502    0  0.55916919639E+03  0.95476702842E+03 -0.17398116153E+04  0.20618429471E+04  0.12699999809E+01 0. -1.
       -4    1    3    3    0  502 -0.55916919639E+03 -0.95476702842E+03  0.12482601101E+04  0.16680543109E+04  0.12699999809E+01 0.  1.
</event>
<event>
 5   0  0.9341000E-08  0.3704322E+04  0.7818609E-02  0.8067005E-01
        1   -1    0    0  501    0  0.00000000000E+00  0.00000000000E+00  0.17542893975E+04  0.17542893975E+04  0.50400001928E-02 0.  1.
       -1   -1    0    0    0  501  0.00000000000E+00  0.00000000000E+00 -0.19554932693E+04  0.19554932693E+04  0.50400001928E-02 0. -1.
    10030    2    1    2    0    0  0.00000000000E+00  0.00000000000E+00 -0.20120387180E+03  0.37097826669E+04  0.37043223992E+04 0.  0.
        1    1    3    3  502    0  0.75261121853E+03  0.70785250229E+03  0.14388764644E+04  0.17713961418E+04  0.50400001928E-02 0.  1.
       -1    1    3    3    0  502 -0.75261121853E+03 -0.70785250229E+03 -0.16400803362E+04  0.19383865251E+04  0.50400001928E-02 0. -1.
</event>
<event>
 5   0  0.9646615E-08  0.3691728E+04  0.7818609E-02  0.8069797E-01
        1   -1    0    0  501    0  0.00000000000E+00  0.00000000000E+00  0.16186302841E+04  0.16186302841E+04  0.50400001928E-02 0.  1.
       -1   -1    0    0    0  501  0.00000000000E+00  0.00000000000E+00 -0.21049983719E+04  0.21049983719E+04  0.50400001928E-02 0. -1.
    10030    2    1    2    0    0  0.00000000000E+00  0.00000000000E+00 -0.48636808780E+03  0.37236286561E+04  0.36917281118E+04 0.  0.
        2    1    3    3  502    0 -0.15771163336E+04  0.58594281644E+03  0.52271214156E+03  0.17617754956E+04  0.25500000920E-02 0.  1.
       -2    1    3    3    0  502  0.15771163336E+04 -0.58594281644E+03 -0.10090802294E+04  0.19618531605E+04  0.25500000920E-02 0. -1.
</event>
<event>
 5   0  0.9418945E-08  0.3595988E+04  0.7818609E-02  0.8091411E-01
        1   -1    0    0  501    0  0.00000000000E+00  0.00000000000E+00  0.20376220506E+04  0.20376220506E+04  0.50400001928E-02 0.  1.
       -1   -1    0    0    0  501  0.00000000000E+00  0.00000000000E+00 -0.15865470705E+04  0.15865470705E+04  0.50400001928E-02 0. -1.
    10030    2    1    2    0    0  0.00000000000E+00  0.00000000000E+00  0.45107498008E+03  0.36241691211E+04  0.35959884845E+04 0.  0.
        5    1    3    3  502    0  0.16978388532E+03  0.17896349792E+04  0.25958504990E+03  0.18163222222E+04  0.46999998093E+01 0. -1.
       -5    1    3    3    0  502 -0.16978388532E+03 -0.17896349792E+04  0.19148993018E+03  0.18078468989E+04  0.46999998093E+01 0.  1.
</event>
<event>
 5   0  0.2897133E-07  0.3705268E+04  0.7818609E-02  0.8066795E-01
        2   -1    0    0  501    0  0.00000000000E+00  0.00000000000E+00  0.19948486348E+04  0.19948486348E+04  0.25500000920E-02 0. -1.
       -2   -1    0    0    0  501  0.00000000000E+00  0.00000000000E+00 -0.17205579356E+04  0.17205579356E+04  0.25500000920E-02 0.  1.
    10030    2    1    2    0    0  0.00000000000E+00  0.00000000000E+00  0.27429069926E+03  0.37154065704E+04  0.37052679520E+04 0.  0.
        4    1    3    3  502    0 -0.22844849055E+03 -0.97354748154E+02  0.19780840447E+04  0.19936109853E+04  0.12699999809E+01 0. -1.
       -4    1    3    3    0  502  0.22844849055E+03  0.97354748154E+02 -0.17037933455E+04  0.17217955851E+04  0.12699999809E+01 0.  1.
</event>
<event>
 5   0  0.2897133E-07  0.3749134E+04  0.7818609E-02  0.8057159E-01
        2   -1    0    0  501    0  0.00000000000E+00  0.00000000000E+00  0.15566519399E+04  0.15566519399E+04  0.25500000920E-02 0.  1.
       -2   -1    0    0    0  501  0.00000000000E+00  0.00000000000E+00 -0.22574103935E+04  0.22574103935E+04  0.25500000920E-02 0. -1.
    10030    2    1    2    0    0  0.00000000000E+00  0.00000000000E+00 -0.70075845363E+03  0.38140623335E+04  0.37491344432E+04 0.  0.
        4    1    3    3  502    0  0.66042936790E+03 -0.40274228248E+03  0.13867141038E+04  0.15878746533E+04  0.12699999809E+01 0.  1.
       -4    1    3    3    0  502 -0.66042936790E+03  0.40274228248E+03 -0.20874725575E+04  0.22261876801E+04  0.12699999809E+01 0. -1.
</event>
<event>
 5   0  0.9646615E-08  0.3709145E+04  0.7818609E-02  0.8065938E-01
       -1   -1    0    0    0  501  0.00000000000E+00  0.00000000000E+00  0.21543208480E+04  0.21543208480E+04  0.50400001928E-02 0. -1.
        1   -1    0    0  501    0  0.00000000000E+00  0.00000000000E+00 -0.15965303809E+04  0.15965303809E+04  0.50400001928E-02 0.  1.
    10030    2    1    2    0    0  0.00000000000E+00  0.00000000000E+00  0.55779046714E+03  0.37508512289E+04  0.37091447446E+04 0.  0.
        2    1    3    3  502    0 -0.58658202134E+03 -0.11611991150E+04  0.16154896121E+04  0.20741910565E+04  0.25500000920E-02 0. -1.
       -2    1    3    3    0  502  0.58658202134E+03  0.11611991150E+04 -0.10576991449E+04  0.16766601723E+04  0.25500000920E-02 0.  1.
</event>
<event>
 5   0  0.2897133E-07  0.3697902E+04  0.7818609E-02  0.8068427E-01
        2   -1    0    0  501    0  0.00000000000E+00  0.00000000000E+00  0.24398156317E+04  0.24398156317E+04  0.25500000920E-02 0. -1.
       -2   -1    0    0    0  501  0.00000000000E+00  0.00000000000E+00 -0.14011795940E+04  0.14011795940E+04  0.25500000920E-02 0.  1.
    10030    2    1    2    0    0  0.00000000000E+00  0.00000000000E+00  0.10386360377E+04  0.38409952257E+04  0.36979020411E+04 0.  0.
        4    1    3    3  502    0 -0.43102797205E+03 -0.23212858218E+01  0.23868998857E+04  0.24255067879E+04  0.12699999809E+01 0. -1.
       -4    1    3    3    0  502  0.43102797205E+03  0.23212858218E+01 -0.13482638480E+04  0.14154884378E+04  0.12699999809E+01 0.  1.
</event>
<event>
 5   0  0.2996969E-07  0.3715249E+04  0.7818609E-02  0.8064591E-01
        2   -1    0    0  501    0  0.00000000000E+00  0.00000000000E+00  0.21919276645E+04  0.21919276645E+04  0.25500000920E-02 0. -1.
       -2   -1    0    0    0  501  0.00000000000E+00  0.00000000000E+00 -0.15743074214E+04  0.15743074214E+04  0.25500000920E-02 0.  1.
    10030    2    1    2    0    0  0.00000000000E+00  0.00000000000E+00  0.61762024314E+03  0.37662350859E+04  0.37152485728E+04 0.  0.
        1    1    3    3  502    0  0.51367447474E+03  0.11926323292E+04  0.16553978255E+04  0.21039427984E+04  0.50400001928E-02 0. -1.
       -1    1    3    3    0  502 -0.51367447474E+03 -0.11926323292E+04 -0.10377775823E+04  0.16622922875E+04  0.50400001928E-02 0.  1.
</event>
<event>
 5   0  0.2897133E-07  0.3666637E+04  0.7818609E-02  0.8075396E-01
        2   -1    0    0  501    0  0.00000000000E+00  0.00000000000E+00  0.24893776634E+04  0.24893776634E+04  0.25500000920E-02 0. -1.
       -2   -1    0    0    0  501  0.00000000000E+00  0.00000000000E+00 -0.13501594572E+04  0.13501594572E+04  0.25500000920E-02 0.  1.
    10030    2    1    2    0    0  0.00000000000E+00  0.00000000000E+00  0.11392182061E+04  0.38395371206E+04  0.36666370395E+04 0.  0.
        4    1    3    3  502    0  0.54442766977E+03  0.12210299989E+03  0.23983100152E+04  0.24623572389E+04  0.12699999809E+01 0. -1.
       -4    1    3    3    0  502 -0.54442766977E+03 -0.12210299989E+03 -0.12590918090E+04  0.13771798817E+04  0.12699999809E+01 0.  1.
</event>
<event>
 5   0  0.9418945E-08  0.3698825E+04  0.7818609E-02  0.8068222E-01
       -1   -1    0    0    0  501  0.00000000000E+00  0.00000000000E+00  0.10541038703E+04  0.10541038703E+04  0.50400001928E-02 0. -1.
        1   -1    0    0  501    0  0.00000000000E+00  0.00000000000E+00 -0.32447712823E+04  0.32447712823E+04  0.50400001928E-02 0.  1.
    10030    2    1    2    0    0  0.00000000000E+00  0.00000000000E+00 -0.21906674120E+04  0.42988751526E+04  0.36988246603E+04 0.  0.
        5    1    3    3  502    0  0.25441680530E+03 -0.13604211458E+04 -0.25210556948E+04  0.28759724461E+04  0.46999998093E+01 0.  1.
       -5    1    3    3    0  502 -0.25441680530E+03  0.13604211458E+04  0.33038828280E+03  0.14229027065E+04  0.46999998093E+01 0. -1.
</event>
<event>
 5   0  0.2913025E-07  0.3628467E+04  0.7818609E-02  0.8084002E-01
       -2   -1    0    0    0  501  0.00000000000E+00  0.00000000000E+00  0.13699743618E+04  0.13699743618E+04  0.25500000920E-02 0. -1.
        2   -1    0    0  501    0  0.00000000000E+00  0.00000000000E+00 -0.24025581296E+04  0.24025581296E+04  0.25500000920E-02 0.  1.
    10030    2    1    2    0    0  0.00000000000E+00  0.00000000000E+00 -0.10325837678E+04  0.37725324914E+04  0.36284669161E+04 0.  0.
        5    1    3    3  502    0  0.13546850659E+04  0.68280563494E+03 -0.15507980290E+04  0.21694219920E+04  0.46999998093E+01 0. -1.
       -5    1    3    3    0  502 -0.13546850659E+04 -0.68280563494E+03  0.51821426117E+03  0.16031104994E+04  0.46999998093E+01 0.  1.
</event>
<event>
 5   0  0.9418945E-08  0.3693431E+04  0.7818609E-02  0.8069419E-01
        1   -1    0    0  501    0  0.00000000000E+00  0.00000000000E+00  0.20299416227E+04  0.20299416227E+04  0.50400001928E-02 0. -1.
       -1   -1    0    0    0  501  0.00000000000E+00  0.00000000000E+00 -0.16800273966E+04  0.16800273966E+04  0.50400001928E-02 0.  1.
    10030    2    1    2    0    0  0.00000000000E+00  0.00000000000E+00  0.34991422618E+03  0.37099690193E+04  0.36934306760E+04 0.  0.
        5    1    3    3  502    0  0.87246203293E+03 -0.15717759744E+03  0.18022237085E+04  0.20084638860E+04  0.46999998093E+01 0. -1.
       -5    1    3    3    0  502 -0.87246203293E+03  0.15717759744E+03 -0.14523094823E+04  0.17015051333E+04  0.46999998093E+01 0.  1.
</event>
<event>
 5   0  0.9341000E-08  0.3699865E+04  0.7818609E-02  0.8067992E-01
       -1   -1    0    0    0  501  0.00000000000E+00  0.00000000000E+00  0.16533910804E+04  0.16533910804E+04  0.50400001928E-02 0. -1.
        1   -1    0    0  501    0  0.00000000000E+00  0.00000000000E+00 -0.20698374219E+04  0.20698374219E+04  0.50400001928E-02 0.  1.
    10030    2    1    2    0    0  0.00000000000E+00  0.00000000000E+00 -0.41644634148E+03  0.37232285023E+04  0.36998652577E+04 0.  0.
        3    1    3    3  502    0 -0.27352753130E+01  0.17332254340E+04  0.44252310408E+03  0.17888277152E+04  0.10100000352E+00 0. -1.
       -3    1    3    3    0  502  0.27352753130E+01 -0.17332254340E+04 -0.85896944556E+03  0.19344007872E+04  0.10100000352E+00 0.  1.
</event>
<event>
 5   0  0.3032442E-07  0.3720283E+04  0.7818609E-02  0.8063482E-01
        2   -1    0    0  501    0  0.00000000000E+00  0.00000000000E+00  0.21991723699E+04  0.21991723699E+04  0.25500000920E-02 0.  1.
       -2   -1    0    0    0  501  0.00000000000E+00  0.00000000000E+00 -0.15733762571E+04  0.15733762571E+04  0.25500000920E-02 0. -1.
    10030    2    1    2    0    0  0.00000000000E+00  0.00000000000E+00  0.62579611279E+03  0.37725486271E+04  0.37202825657E+04 0.  0.
        3    1    3    3  502    0 -0.34286706077E+02 -0.15840766855E+04  0.13010891781E+04  0.20501969621E+04  0.10100000352E+00 0.  1.
       -3    1    3    3    0  502  0.34286706077E+02  0.15840766855E+04 -0.67529306530E+03  0.17223516650E+04  0.10100000352E+00 0. -1.
</event>
<event>
 5   0  0.9341000E-08  0.3697860E+04  0.7818609E-02  0.8068436E-01
        1   -1    0    0  501    0  0.00000000000E+00  0.00000000000E+00  0.22040465385E+04  0.22040465385E+04  0.50400001928E-02 0. -1.
       -1   -1    0    0    0  501  0.00000000000E+00  0.00000000000E+00 -0.15510297067E+04  0.15510297067E+04  0.50400001928E-02 0.  1.
    10030    2    1    2    0    0  0.00000000000E+00  0.00000000000E+00  0.65301683173E+03  0.37550762452E+04  0.36978597357E+04 0.  0.
        1    1    3    3  502    0  0.10828282503E+04 -0.13422012074E+04  0.10035482943E+04  0.19952769933E+04  0.50400001928E-02 0. -1.
       -1    1    3    3    0  502 -0.10828282503E+04  0.13422012074E+04 -0.35053146262E+03  0.17597992519E+04  0.50400001928E-02 0.  1.
</event>
<event>
 5   0  0.9341000E-08  0.3677717E+04  0.7818609E-02  0.8072918E-01
       -1   -1    0    0    0  501  0.00000000000E+00  0.00000000000E+00  0.17568521388E+04  0.17568521388E+04  0.50400001928E-02 0.  1.
        1   -1    0    0  501    0  0.00000000000E+00  0.00000000000E+00 -0.19246931032E+04  0.19246931032E+04  0.50400001928E-02 0. -1.
    10030    2    1    2    0    0  0.00000000000E+00  0.00000000000E+00 -0.16784096437E+03  0.36815452420E+04  0.36777173327E+04 0.  0.
        4    1    3    3  502    0 -0.12930734906E+04  0.27951511470E+03  0.11946057378E+04  0.17824848479E+04  0.12699999809E+01 0.  1.
       -4    1    3    3    0  502  0.12930734906E+04 -0.27951511470E+03 -0.13624467021E+04  0.18990603941E+04  0.12699999809E+01 0. -1.
</event>
<event>
 5   0  0.9418945E-08  0.3713516E+04  0.7818609E-02  0.8064973E-01
        1   -1    0    0  501    0  0.00000000000E+00  0.00000000000E+00  0.23368814891E+04  0.23368814891E+04  0.50400001928E-02 0.  1.
       -1   -1    0    0    0  501  0.00000000000E+00  0.00000000000E+00 -0.14752778938E+04  0.14752778938E+04  0.50400001928E-02 0. -1.
    10030    2    1    2    0    0  0.00000000000E+00  0.00000000000E+00  0.86160359534E+03  0.38121593829E+04  0.37135156396E+04 0.  0.
        5    1    3    3  502    0  0.85279341357E+03  0.94137779105E+00  0.21239376265E+04  0.22887530718E+04  0.46999998093E+01 0.  1.
       -5    1    3    3    0  502 -0.85279341357E+03 -0.94137779105E+00 -0.12623340312E+04  0.15234063111E+04  0.46999998093E+01 0. -1.
</event>
<event>
 5   0  0.9341000E-08  0.3654833E+04  0.7818609E-02  0.8078046E-01
       -1   -1    0    0    0  501  0.00000000000E+00  0.00000000000E+00  0.11332333100E+04  0.11332333100E+04  0.50400001928E-02 0.  1.
        1   -1    0    0  501    0  0.00000000000E+00  0.00000000000E+00 -0.29468345041E+04  0.29468345041E+04  0.50400001928E-02 0. -1.
    10030    2    1    2    0    0  0.00000000000E+00  0.00000000000E+00 -0.18136011941E+04  0.40800678141E+04  0.36548329752E+04 0.  0.
        1    1    3    3  502    0  0.65559689246E+03 -0.10208802456E+04 -0.24323420720E+04  0.27181412245E+04  0.50400001928E-02 0. -1.
       -1    1    3    3    0  502 -0.65559689246E+03  0.10208802456E+04  0.61874087789E+03  0.13619265896E+04  0.50400001928E-02 0.  1.
</event>
<event>
 5   0  0.9341000E-08  0.3704558E+04  0.7818609E-02  0.8066953E-01
       -1   -1    0    0    0  501  0.00000000000E+00  0.00000000000E+00  0.22284313144E+04  0.22284313144E+04  0.50400001928E-02 0. -1.
        1   -1    0    0  501    0  0.00000000000E+00  0.00000000000E+00 -0.15396198303E+04  0.15396198303E+04  0.50400001928E-02 0.  1.
    10030    2    1    2    0    0  0.00000000000E+00  0.00000000000E+00  0.68881148407E+03  0.37680511447E+04  0.37045577561E+04 0.  0.
        1    1    3    3  502    0  0.13438226044E+04  0.10573096761E+04 -0.37996175000E+03  0.17516089389E+04  0.50400001928E-02 0.  1.
       -1    1    3    3    0  502 -0.13438226044E+04 -0.10573096761E+04  0.10687732341E+04  0.20164422058E+04  0.50400001928E-02 0. -1.
</event>
<event>
 5   0  0.2897133E-07  0.3735277E+04  0.7818609E-02  0.8060189E-01
       -2   -1    0    0    0  501  0.00000000000E+00  0.00000000000E+00  0.15146035147E+04  0.15146035147E+04  0.25500000920E-02 0. -1.
        2   -1    0    0  501    0  0.00000000000E+00  0.00000000000E+00 -0.23029611888E+04  0.23029611888E+04  0.25500000920E-02 0.  1.
    10030    2    1    2    0    0  0.00000000000E+00  0.00000000000E+00 -0.78835767411E+03  0.38175647036E+04  0.37352767560E+04 0.  0.
        4    1    3    3  502    0 -0.73231987193E+03  0.84427978827E+03  0.11351040564E+04  0.15929731911E+04  0.12699999809E+01 0. -1.
       -4    1    3    3    0  502  0.73231987193E+03 -0.84427978827E+03 -0.19234617305E+04  0.22245915125E+04  0.12699999809E+01 0.  1.
</event>
<event>
 5   0  0.9341000E-08  0.3701139E+04  0.7818609E-02  0.8067709E-01
        1   -1    0    0  501    0  0.00000000000E+00  0.00000000000E+00  0.25350085114E+04  0.25350085114E+04  0.50400001928E-02 0.  1.
       -1   -1    0    0    0  501  0.00000000000E+00  0.00000000000E+00 -0.13509255045E+04  0.13509255045E+04  0.50400001928E-02 0. -1.
    10030    2    1    2    0    0  0.00000000000E+00  0.00000000000E+00  0.11840830069E+04  0.38859340160E+04  0.37011390962E+04 0.  0.
        4    1    3    3  502    0 -0.78862412550E+03  0.33709487060E+03 -0.11296647466E+04  0.14183458731E+04  0.12699999809E+01 0. -1.
       -4    1    3    3    0  502  0.78862412550E+03 -0.33709487060E+03  0.23137477535E+04  0.24675881429E+04  0.12699999809E+01 0.  1.
</event>
<event>
 5   0  0.9341000E-08  0.3710912E+04  0.7818609E-02  0.8065548E-01
       -1   -1    0    0    0  501  0.00000000000E+00  0.00000000000E+00  0.28794555333E+04  0.28794555333E+04  0.50400001928E-02 0. -1.
        1   -1    0    0  501    0  0.00000000000E+00  0.00000000000E+00 -0.11956140753E+04  0.11956140753E+04  0.50400001928E-02 0.  1.
    10030    2    1    2    0    0  0.00000000000E+00  0.00000000000E+00  0.16838414580E+04  0.40750696086E+04  0.37109123217E+04 0.  0.
        1    1    3    3  502    0 -0.95791847090E+03  0.50063475866E+03  0.24980524839E+04  0.27218576691E+04  0.50400001928E-02 0. -1.
       -1    1    3    3    0  502  0.95791847090E+03 -0.50063475866E+03 -0.81421102593E+03  0.13532119395E+04  0.50400001928E-02 0.  1.
</event>
<event>
 5   0  0.9341000E-08  0.3693397E+04  0.7818609E-02  0.8069427E-01
       -1   -1    0    0    0  501  0.00000000000E+00  0.00000000000E+00  0.23318579925E+04  0.23318579925E+04  0.50400001928E-02 0.  1.
        1   -1    0    0  501    0  0.00000000000E+00  0.00000000000E+00 -0.14624796757E+04  0.14624796757E+04  0.50400001928E-02 0. -1.
    10030    2    1    2    0    0  0.00000000000E+00  0.00000000000E+00  0.86937831676E+03  0.37943376682E+04  0.36933967675E+04 0.  0.
        3    1    3    3  502    0  0.12793378999E+04  0.93560229838E+03 -0.53896713009E+03  0.16740796577E+04  0.10100000352E+00 0. -1.
       -3    1    3    3    0  502 -0.12793378999E+04 -0.93560229838E+03  0.14083454468E+04  0.21202580104E+04  0.10100000352E+00 0.  1.
</event>
<event>
 5   0  0.9418945E-08  0.3714815E+04  0.7818609E-02  0.8064686E-01
        1   -1    0    0  501    0  0.00000000000E+00  0.00000000000E+00  0.21073146787E+04  0.21073146787E+04  0.50400001928E-02 0.  1.
       -1   -1    0    0    0  501  0.00000000000E+00  0.00000000000E+00 -0.16371371360E+04  0.16371371360E+04  0.50400001928E-02 0. -1.
    10030    2    1    2    0    0  0.00000000000E+00  0.00000000000E+00  0.47017754277E+03  0.37444518147E+04  0.37148152674E+04 0.  0.
        5    1    3    3  502    0 -0.22911564343E+03  0.11177496942E+04  0.17124153805E+04  0.20577285735E+04  0.46999998093E+01 0.  1.
       -5    1    3    3    0  502  0.22911564343E+03 -0.11177496942E+04 -0.12422378378E+04  0.16867232412E+04  0.46999998093E+01 0. -1.
</event>
<event>
 5   0  0.2897133E-07  0.3712821E+04  0.7818609E-02  0.8065126E-01
        2   -1    0    0  501    0  0.00000000000E+00  0.00000000000E+00  0.14060166878E+04  0.14060166878E+04  0.25500000920E-02 0. -1.
       -2   -1    0    0    0  501  0.00000000000E+00  0.00000000000E+00 -0.24510806236E+04  0.24510806236E+04  0.25500000920E-02 0.  1.
    10030    2    1    2    0    0  0.00000000000E+00  0.00000000000E+00 -0.10450639357E+04  0.38570973114E+04  0.37128211699E+04 0.  0.
        4    1    3    3  502    0  0.92691266134E+03  0.38246017658E+03 -0.21455526918E+04  0.23682991439E+04  0.12699999809E+01 0.  1.
       -4    1    3    3    0  502 -0.92691266134E+03 -0.38246017658E+03  0.11004887561E+04  0.14887981675E+04  0.12699999809E+01 0. -1.
</event>
<event>
 5   0  0.9646615E-08  0.3703625E+04  0.7818609E-02  0.8067159E-01
        1   -1    0    0  501    0  0.00000000000E+00  0.00000000000E+00  0.20200741591E+04  0.20200741591E+04  0.50400001928E-02 0.  1.
       -1   -1    0    0    0  501  0.00000000000E+00  0.00000000000E+00 -0.16975657422E+04  0.16975657422E+04  0.50400001928E-02 0. -1.
    10030    2    1    2    0    0  0.00000000000E+00  0.00000000000E+00  0.32250841691E+03  0.37176399012E+04  0.37036245431E+04 0.  0.
        2    1    3    3  502    0 -0.66409006600E+03  0.13786626857E+04 -0.88551625647E+03  0.17680117243E+04  0.25500000920E-02 0. -1.
       -2    1    3    3    0  502  0.66409006600E+03 -0.13786626857E+04  0.12080246734E+04  0.19496281769E+04  0.25500000920E-02 0.  1.
</event>
<event>
 5   0  0.9341000E-08  0.3723811E+04  0.7818609E-02  0.8062705E-01
       -1   -1    0    0    0  501  0.00000000000E+00  0.00000000000E+00  0.21870959674E+04  0.21870959674E+04  0.50400001928E-02 0. -1.
        1   -1    0    0  501    0  0.00000000000E+00  0.00000000000E+00 -0.15850666041E+04  0.15850666041E+04  0.50400001928E-02 0.  1.
    10030    2    1    2    0    0  0.00000000000E+00  0.00000000000E+00  0.60202936336E+03  0.37721625715E+04  0.37238113690E+04 0.  0.
        4    1    3    3  502    0 -0.15165660063E+03 -0.42121347146E+03 -0.15297343470E+04  0.15938975182E+04  0.12699999809E+01 0.  1.
       -4    1    3    3    0  502  0.15165660063E+03  0.42121347146E+03  0.21317637104E+04  0.21782650534E+04  0.12699999809E+01 0. -1.
</event>
<event>
 5   0  0.2897133E-07  0.3694718E+04  0.7818609E-02  0.8069133E-01
        2   -1    0    0  501    0  0.00000000000E+00  0.00000000000E+00  0.18628294144E+04  0.18628294144E+04  0.25500000920E-02 0. -1.
       -2   -1    0    0    0  501  0.00000000000E+00  0.00000000000E+00 -0.18320167729E+04  0.18320167729E+04  0.25500000920E-02 0.  1.
    10030    2    1    2    0    0  0.00000000000E+00  0.00000000000E+00  0.30812641443E+02  0.36948461873E+04  0.36947177063E+04 0.  0.
        4    1    3    3  502    0  0.47195789048E+03 -0.11043325342E+04  0.14191782275E+04  0.18591296487E+04  0.12699999809E+01 0. -1.
       -4    1    3    3    0  502 -0.47195789048E+03  0.11043325342E+04 -0.13883655861E+04  0.18357165386E+04  0.12699999809E+01 0.  1.
</event>
<event>
 5   0  0.2913025E-07  0.3697096E+04  0.7818609E-02  0.8068606E-01
        2   -1    0    0  501    0  0.00000000000E+00  0.00000000000E+00  0.33852603621E+04  0.33852603621E+04  0.25500000920E-02 0.  1.
       -2   -1    0    0    0  501  0.00000000000E+00  0.00000000000E+00 -0.10094143833E+04  0.10094143833E+04  0.25500000920E-02 0. -1.
    10030    2    1    2    0    0  0.00000000000E+00  0.00000000000E+00  0.23758459788E+04  0.43946747454E+04  0.36970964287E+04 0.  0.
        5    1    3    3  502    0 -0.98152810011E+03  0.13166891186E+04  0.21965823009E+04  0.27426380623E+04  0.46999998093E+01 0.  1.
       -5    1    3    3    0  502  0.98152810011E+03 -0.13166891186E+04  0.17926367791E+03  0.16520366831E+04  0.46999998093E+01 0. -1.
</event>
<event>
 5   0  0.9341000E-08  0.3721588E+04  0.7818609E-02  0.8063194E-01
       -1   -1    0    0    0  501  0.00000000000E+00  0.00000000000E+00  0.18357917816E+04  0.18357917816E+04  0.50400001928E-02 0. -1.
        1   -1    0    0  501    0  0.00000000000E+00  0.00000000000E+00 -0.18861372318E+04  0.18861372318E+04  0.50400001928E-02 0.  1.
    10030    2    1    2    0    0  0.00000000000E+00  0.00000000000E+00 -0.50345450208E+02  0.37219290134E+04  0.37215884937E+04 0.  0.
        4    1    3    3  502    0  0.14112088261E+04  0.11713311818E+04  0.28954087519E+03  0.18567074675E+04  0.12699999809E+01 0.  1.
       -4    1    3    3    0  502 -0.14112088261E+04 -0.11713311818E+04 -0.33988632540E+03  0.18652215460E+04  0.12699999809E+01 0. -1.
</event>
<event>
 5   0  0.2897133E-07  0.3702407E+04  0.7818609E-02  0.8067429E-01
        2   -1    0    0  501    0  0.00000000000E+00  0.00000000000E+00  0.11052669678E+04  0.11052669678E+04  0.25500000920E-02 0.  1.
       -2   -1    0    0    0  501  0.00000000000E+00  0.00000000000E+00 -0.31005666335E+04  0.31005666335E+04  0.25500000920E-02 0. -1.
    10030    2    1    2    0    0  0.00000000000E+00  0.00000000000E+00 -0.19952996657E+04  0.42058336013E+04  0.37024067207E+04 0.  0.
        4    1    3    3  502    0 -0.24897046625E+03 -0.11316923136E+04  0.64234192689E+03  0.13248843533E+04  0.12699999809E+01 0.  1.
       -4    1    3    3    0  502  0.24897046625E+03  0.11316923136E+04 -0.26376415926E+04  0.28809492480E+04  0.12699999809E+01 0. -1.
</event>
<event>
 5   0  0.3032442E-07  0.3573029E+04  0.7818609E-02  0.8096698E-01
       -2   -1    0    0    0  501  0.00000000000E+00  0.00000000000E+00  0.17569611879E+04  0.17569611879E+04  0.25500000920E-02 0.  1.
        2   -1    0    0  501    0  0.00000000000E+00  0.00000000000E+00 -0.18165650833E+04  0.18165650833E+04  0.25500000920E-02 0. -1.
    10030    2    1    2    0    0  0.00000000000E+00  0.00000000000E+00 -0.59603895412E+02  0.35735262711E+04  0.35730291611E+04 0.  0.
        3    1    3    3  502    0  0.58857722113E+03  0.74010398398E+03 -0.15457493781E+04  0.18120480685E+04  0.10100000352E+00 0. -1.
       -3    1    3    3    0  502 -0.58857722113E+03 -0.74010398398E+03  0.14861454827E+04  0.17614782026E+04  0.10100000352E+00 0.  1.
</event>
<event>
 5   0  0.9418945E-08  0.3733317E+04  0.7818609E-02  0.8060618E-01
        1   -1    0    0  501    0  0.00000000000E+00  0.00000000000E+00  0.25986037253E+04  0.25986037253E+04  0.50400001928E-02 0. -1.
       -1   -1    0    0    0  501  0.00000000000E+00  0.00000000000E+00 -0.13408790026E+04  0.13408790027E+04  0.50400001928E-02 0.  1.
    10030    2    1    2    0    0  0.00000000000E+00  0.00000000000E+00  0.12577247227E+04  0.39394827280E+04  0.37333165800E+04 0.  0.
        5    1    3    3  502    0 -0.74580388679E+03  0.17040852625E+04  0.79322355445E+03  0.20222155466E+04  0.46999998093E+01 0.  1.
       -5    1    3    3    0  502  0.74580388679E+03 -0.17040852625E+04  0.46450116825E+03  0.19172671814E+04  0.46999998093E+01 0. -1.
</event>
<event>
 5   0  0.3008879E-07  0.3295737E+04  0.7818609E-02  0.8163981E-01
        2   -1    0    0  501    0  0.00000000000E+00  0.00000000000E+00  0.11873371606E+04  0.11873371606E+04  0.25500000920E-02 0. -1.
       -2   -1    0    0    0  501  0.00000000000E+00  0.00000000000E+00 -0.22870260240E+04  0.22870260240E+04  0.25500000920E-02 0.  1.
    10030    2    1    2    0    0  0.00000000000E+00  0.00000000000E+00 -0.10996888633E+04  0.34743631846E+04  0.32957372381E+04 0.  0.
        2    1    3    3  502    0 -0.13367281065E+04 -0.83928760558E+03 -0.50655539141E+02  0.15791807051E+04  0.25500000920E-02 0. -1.
       -2    1    3    3    0  502  0.13367281065E+04  0.83928760558E+03 -0.10490333242E+04  0.18951824796E+04  0.25500000920E-02 0.  1.
</event>
<event>
 5   0  0.3008879E-07  0.3765337E+04  0.7818609E-02  0.8053635E-01
        2   -1    0    0  501    0  0.00000000000E+00  0.00000000000E+00  0.21581147464E+04  0.21581147464E+04  0.25500000920E-02 0. -1.
       -2   -1    0    0    0  501  0.00000000000E+00  0.00000000000E+00 -0.16423780007E+04  0.16423780007E+04  0.25500000920E-02 0.  1.
    10030    2    1    2    0    0  0.00000000000E+00  0.00000000000E+00  0.51573674565E+03  0.38004927471E+04  0.37653367353E+04 0.  0.
        2    1    3    3  502    0  0.58060781996E+03  0.16449975338E+04  0.97251718051E+03  0.19972260746E+04  0.25500000920E-02 0. -1.
       -2    1    3    3    0  502 -0.58060781996E+03 -0.16449975338E+04 -0.45678043487E+03  0.18032666725E+04  0.25500000920E-02 0.  1.
</event>
<event>
 5   0  0.9341000E-08  0.3734454E+04  0.7818609E-02  0.8060369E-01
        1   -1    0    0  501    0  0.00000000000E+00  0.00000000000E+00  0.23248076666E+04  0.23248076666E+04  0.50400001928E-02 0.  1.
       -1   -1    0    0    0  501  0.00000000000E+00  0.00000000000E+00 -0.14997096351E+04  0.14997096352E+04  0.50400001928E-02 0. -1.
    10030    2    1    2    0    0  0.00000000000E+00  0.00000000000E+00  0.82509803149E+03  0.38245173018E+04  0.37344538865E+04 0.  0.
        3    1    3    3  502    0 -0.13862569481E+04 -0.11037618456E+04  0.10154207250E+04  0.20423216683E+04  0.10100000352E+00 0.  1.
       -3    1    3    3    0  502  0.13862569481E+04  0.11037618456E+04 -0.19032269348E+03  0.17821956335E+04  0.10100000352E+00 0. -1.
</event>
<event>
 5   0  0.3032442E-07  0.3702008E+04  0.7818609E-02  0.8067517E-01
        2   -1    0    0  501    0  0.00000000000E+00  0.00000000000E+00  0.25378224155E+04  0.25378224155E+04  0.25500000920E-02 0.  1.
       -2   -1    0    0    0  501  0.00000000000E+00  0.00000000000E+00 -0.13500615912E+04  0.13500615912E+04  0.25500000920E-02 0. -1.
    10030    2    1    2    0    0  0.00000000000E+00  0.00000000000E+00  0.11877608243E+04  0.38878840068E+04  0.37020084109E+04 0.  0.
        3    1    3    3  502    0 -0.10107995441E+03 -0.76979204332E+03  0.23585508560E+04  0.24830543888E+04  0.10100000352E+00 0.  1.
       -3    1    3    3    0  502  0.10107995441E+03  0.76979204332E+03 -0.11707900317E+04  0.14048296180E+04  0.10100000352E+00 0. -1.
</event>
<event>
 5   0  0.9341000E-08  0.3736873E+04  0.7818609E-02  0.8059839E-01
       -1   -1    0    0    0  501  0.00000000000E+00  0.00000000000E+00  0.13809810324E+04  0.13809810325E+04  0.50400001928E-02 0.  1.
        1   -1    0    0  501    0  0.00000000000E+00  0.00000000000E+00 -0.25279535377E+04  0.25279535377E+04  0.50400001928E-02 0. -1.
    10030    2    1    2    0    0  0.00000000000E+00  0.00000000000E+00 -0.11469725053E+04  0.39089345702E+04  0.37368734988E+04 0.  0.
        4    1    3    3  502    0  0.14923562990E+04  0.50426724234E+03 -0.16245609978E+04  0.22628771119E+04  0.12699999809E+01 0. -1.
       -4    1    3    3    0  502 -0.14923562990E+04 -0.50426724234E+03  0.47758849257E+03  0.16460574583E+04  0.12699999809E+01 0.  1.
</event>
<event>
 5   0  0.9341000E-08  0.3692736E+04  0.7818609E-02  0.8069573E-01
        1   -1    0    0  501    0  0.00000000000E+00  0.00000000000E+00  0.17166903555E+04  0.17166903555E+04  0.50400001928E-02 0. -1.
       -1   -1    0    0    0  501  0.00000000000E+00  0.00000000000E+00 -0.19858415800E+04  0.19858415800E+04  0.50400001928E-02 0.  1.
    10030    2    1    2    0    0  0.00000000000E+00  0.00000000000E+00 -0.26915122452E+03  0.37025319356E+04  0.36927361606E+04 0.  0.
        3    1    3    3  502    0 -0.45606781130E+03  0.15008546571E+04 -0.11110752119E+04  0.19222514630E+04  0.10100000352E+00 0.  1.
       -3    1    3    3    0  502  0.45606781130E+03 -0.15008546571E+04  0.84192398741E+03  0.17802804726E+04  0.10100000352E+00 0. -1.
</event>
<event>
 5   0  0.3008879E-07  0.3678521E+04  0.7818609E-02  0.8072739E-01
       -2   -1    0    0    0  501  0.00000000000E+00  0.00000000000E+00  0.19466575097E+04  0.19466575097E+04  0.25500000920E-02 0. -1.
        2   -1    0    0  501    0  0.00000000000E+00  0.00000000000E+00 -0.17377884636E+04  0.17377884636E+04  0.25500000920E-02 0.  1.
    10030    2    1    2    0    0  0.00000000000E+00  0.00000000000E+00  0.20886904609E+03  0.36844459733E+04  0.36785208782E+04 0.  0.
        2    1    3    3  502    0 -0.53878183848E+03 -0.17546794736E+04 -0.12771215705E+02  0.18355786632E+04  0.25500000920E-02 0.  1.
       -2    1    3    3    0  502  0.53878183848E+03  0.17546794736E+04  0.22164026179E+03  0.18488673101E+04  0.25500000920E-02 0. -1.
</event>
<event>
 5   0  0.9418945E-08  0.3645288E+04  0.7818609E-02  0.8080196E-01
        1   -1    0    0  501    0  0.00000000000E+00  0.00000000000E+00  0.15901523082E+04  0.15901523082E+04  0.50400001928E-02 0. -1.
       -1   -1    0    0    0  501  0.00000000000E+00  0.00000000000E+00 -0.20891272797E+04  0.20891272797E+04  0.50400001928E-02 0.  1.
    10030    2    1    2    0    0  0.00000000000E+00  0.00000000000E+00 -0.49897497155E+03  0.36792795879E+04  0.36452876792E+04 0.  0.
        5    1    3    3  502    0  0.18720639729E+02  0.88888574151E+03 -0.18554055872E+04  0.20574305108E+04  0.46999998093E+01 0.  1.
       -5    1    3    3    0  502 -0.18720639729E+02 -0.88888574151E+03  0.13564306157E+04  0.16218490771E+04  0.46999998093E+01 0. -1.
</event>
<event>
 5   0  0.2897133E-07  0.3712642E+04  0.7818609E-02  0.8065166E-01
        2   -1    0    0  501    0  0.00000000000E+00  0.00000000000E+00  0.20477566074E+04  0.20477566074E+04  0.25500000920E-02 0.  1.
       -2   -1    0    0    0  501  0.00000000000E+00  0.00000000000E+00 -0.16827817391E+04  0.16827817391E+04  0.25500000920E-02 0. -1.
    10030    2    1    2    0    0  0.00000000000E+00  0.00000000000E+00  0.36497486827E+03  0.37305383465E+04  0.37126418761E+04 0.  0.
        4    1    3    3  502    0 -0.15584938165E+04 -0.62490024451E+03 -0.61285983237E+03  0.17874568746E+04  0.12699999809E+01 0.  1.
       -4    1    3    3    0  502  0.15584938165E+04  0.62490024451E+03  0.97783470063E+03  0.19430814719E+04  0.12699999809E+01 0. -1.
</event>
<event>
 5   0  0.3032442E-07  0.3617730E+04  0.7818609E-02  0.8086442E-01
       -2   -1    0    0    0  501  0.00000000000E+00  0.00000000000E+00  0.13012225362E+04  0.13012225362E+04  0.25500000920E-02 0.  1.
        2   -1    0    0  501    0  0.00000000000E+00  0.00000000000E+00 -0.25145527882E+04  0.25145527882E+04  0.25500000920E-02 0. -1.
    10030    2    1    2    0    0  0.00000000000E+00  0.00000000000E+00 -0.12133302520E+04  0.38157753244E+04  0.36177300930E+04 0.  0.
        3    1    3    3  502    0 -0.29747753737E+03 -0.17810821238E+04 -0.49481099463E+03  0.18723205782E+04  0.10100000352E+00 0. -1.
       -3    1    3    3    0  502  0.29747753737E+03  0.17810821238E+04 -0.71851925742E+03  0.19434547462E+04  0.10100000352E+00 0.  1.
</event>
<event>
 5   0  0.2913025E-07  0.3680882E+04  0.7818609E-02  0.8072212E-01
        2   -1    0    0  501    0  0.00000000000E+00  0.00000000000E+00  0.27958439791E+04  0.27958439791E+04  0.25500000920E-02 0. -1.
       -2   -1    0    0    0  501  0.00000000000E+00  0.00000000000E+00 -0.12115204539E+04  0.12115204539E+04  0.25500000920E-02 0.  1.
    10030    2    1    2    0    0  0.00000000000E+00  0.00000000000E+00  0.15843235252E+04  0.40073644330E+04  0.36808815067E+04 0.  0.
        5    1    3    3  502    0  0.14036215371E+04 -0.27681926130E+03 -0.46829249033E+03  0.15053578543E+04  0.46999998093E+01 0.  1.
       -5    1    3    3    0  502 -0.14036215371E+04  0.27681926130E+03  0.20526160156E+04  0.25020065788E+04  0.46999998093E+01 0. -1.
</event>
<event>
 5   0  0.9341000E-08  0.3671585E+04  0.7818609E-02  0.8074288E-01
        1   -1    0    0  501    0  0.00000000000E+00  0.00000000000E+00  0.21907606090E+04  0.21907606090E+04  0.50400001928E-02 0. -1.
       -1   -1    0    0    0  501  0.00000000000E+00  0.00000000000E+00 -0.15383397360E+04  0.15383397360E+04  0.50400001928E-02 0.  1.
    10030    2    1    2    0    0  0.00000000000E+00  0.00000000000E+00  0.65242087305E+03  0.37291003450E+04  0.36715849967E+04 0.  0.
        4    1    3    3  502    0  0.14601181887E+04  0.94599156160E+03 -0.26887506205E+03  0.17604376079E+04  0.12699999809E+01 0.  1.
       -4    1    3    3    0  502 -0.14601181887E+04 -0.94599156160E+03  0.92129593509E+03  0.19686627371E+04  0.12699999809E+01 0. -1.
</event>
<event>
 5   0  0.9341000E-08  0.3807666E+04  0.7818609E-02  0.8044512E-01
        1   -1    0    0  501    0  0.00000000000E+00  0.00000000000E+00  0.18302585244E+04  0.18302585244E+04  0.50400001928E-02 0. -1.
       -1   -1    0    0    0  501  0.00000000000E+00  0.00000000000E+00 -0.19803653581E+04  0.19803653581E+04  0.50400001928E-02 0.  1.
    10030    2    1    2    0    0  0.00000000000E+00  0.00000000000E+00 -0.15010683363E+03  0.38106238825E+04  0.38076662554E+04 0.  0.
        3    1    3    3  502    0  0.64297684336E+03  0.10318249697E+03 -0.18654412763E+04  0.19758383067E+04  0.10100000352E+00 0.  1.
       -3    1    3    3    0  502 -0.64297684336E+03 -0.10318249697E+03  0.17153344427E+04  0.18347855758E+04  0.10100000352E+00 0. -1.
</event>
<event>
 5   0  0.9418945E-08  0.3713369E+04  0.7818609E-02  0.8065005E-01
        1   -1    0    0  501    0  0.00000000000E+00  0.00000000000E+00  0.27118214003E+04  0.27118214003E+04  0.50400001928E-02 0. -1.
       -1   -1    0    0    0  501  0.00000000000E+00  0.00000000000E+00 -0.12712039209E+04  0.12712039209E+04  0.50400001928E-02 0.  1.
    10030    2    1    2    0    0  0.00000000000E+00  0.00000000000E+00  0.14406174793E+04  0.39830253212E+04  0.37133693578E+04 0.  0.
        5    1    3    3  502    0  0.17973795272E+03 -0.15501385768E+04 -0.35873633688E+03  0.16012336458E+04  0.46999998093E+01 0.  1.
       -5    1    3    3    0  502 -0.17973795272E+03  0.15501385768E+04  0.17993538162E+04  0.23817916754E+04  0.46999998093E+01 0. -1.
</event>
<event>
 5   0  0.2897133E-07  0.3731080E+04  0.7818609E-02  0.8061109E-01
       -2   -1    0    0    0  501  0.00000000000E+00  0.00000000000E+00  0.18181195488E+04  0.18181195488E+04  0.25500000920E-02 0.  1.
        2   -1    0    0  501    0  0.00000000000E+00  0.00000000000E+00 -0.19141972290E+04  0.19141972290E+04  0.25500000920E-02 0. -1.
    10030    2    1    2    0    0  0.00000000000E+00  0.00000000000E+00 -0.96077680257E+02  0.37323167778E+04  0.37310799521E+04 0.  0.
        4    1    3    3  502    0 -0.29962481539E+03 -0.17432068738E+04 -0.64127215009E+03  0.18814294614E+04  0.12699999809E+01 0. -1.
       -4    1    3    3    0  502  0.29962481539E+03  0.17432068738E+04  0.54519446984E+03  0.18508873163E+04  0.12699999809E+01 0.  1.
</event>
<event>
 5   0  0.2996969E-07  0.3780706E+04  0.7818609E-02  0.8050308E-01
        2   -1    0    0  501    0  0.00000000000E+00  0.00000000000E+00  0.23451494008E+04  0.23451494008E+04  0.25500000920E-02 0. -1.
       -2   -1    0    0    0  501  0.00000000000E+00  0.00000000000E+00 -0.15237556903E+04  0.15237556903E+04  0.25500000920E-02 0.  1.
    10030    2    1    2    0    0  0.00000000000E+00  0.00000000000E+00  0.82139371046E+03  0.38689050911E+04  0.37807061479E+04 0.  0.
        1    1    3    3  502    0  0.28446792070E+03 -0.14883281664E+03 -0.14956525943E+04  0.15297221604E+04  0.50400001928E-02 0.  1.
       -1    1    3    3    0  502 -0.28446792070E+03  0.14883281664E+03  0.23170463047E+04  0.23391829308E+04  0.50400001928E-02 0. -1.
</event>
<event>
 5   0  0.2913025E-07  0.3863133E+04  0.7818609E-02  0.8032741E-01
       -2   -1    0    0    0  501  0.00000000000E+00  0.00000000000E+00  0.18177471102E+04  0.18177471102E+04  0.25500000920E-02 0.  1.
        2   -1    0    0  501    0  0.00000000000E+00  0.00000000000E+00 -0.20525123091E+04  0.20525123091E+04  0.25500000920E-02 0. -1.
    10030    2    1    2    0    0  0.00000000000E+00  0.00000000000E+00 -0.23476519889E+03  0.38702594193E+04  0.38631325727E+04 0.  0.
        5    1    3    3  502    0 -0.10333896752E+04 -0.15114535218E+04 -0.73377390126E+03  0.19725192515E+04  0.46999998093E+01 0. -1.
       -5    1    3    3    0  502  0.10333896752E+04  0.15114535218E+04  0.49900870237E+03  0.18977401678E+04  0.46999998093E+01 0.  1.
</event>
<event>
 5   0  0.2897133E-07  0.3511056E+04  0.7818609E-02  0.8111175E-01
       -2   -1    0    0    0  501  0.00000000000E+00  0.00000000000E+00  0.12629680155E+04  0.12629680155E+04  0.25500000920E-02 0. -1.
        2   -1    0    0  501    0  0.00000000000E+00  0.00000000000E+00 -0.24401878531E+04  0.24401878531E+04  0.25500000920E-02 0.  1.
    10030    2    1    2    0    0  0.00000000000E+00  0.00000000000E+00 -0.11772198376E+04  0.37031558686E+04  0.35110563711E+04 0.  0.
        4    1    3    3  502    0  0.77634603734E+03  0.11949178622E+04 -0.16700560770E+04  0.21953657509E+04  0.12699999809E+01 0.  1.
       -4    1    3    3    0  502 -0.77634603734E+03 -0.11949178622E+04  0.49283623943E+03  0.15077901177E+04  0.12699999809E+01 0. -1.
</event>
<event>
 5   0  0.3008879E-07  0.3714992E+04  0.7818609E-02  0.8064648E-01
       -2   -1    0    0    0  501  0.00000000000E+00  0.00000000000E+00  0.15215126150E+04  0.15215126150E+04  0.25500000920E-02 0.  1.
        2   -1    0    0  501    0  0.00000000000E+00  0.00000000000E+00 -0.22676716613E+04  0.22676716613E+04  0.25500000920E-02 0. -1.
    10030    2    1    2    0    0  0.00000000000E+00  0.00000000000E+00 -0.74615904625E+03  0.37891842763E+04  0.37149918112E+04 0.  0.
        2    1    3    3  502    0 -0.13458692009E+04  0.10884059181E+04  0.31439892255E+03  0.17592151747E+04  0.25500000920E-02 0.  1.
       -2    1    3    3    0  502  0.13458692009E+04 -0.10884059181E+04 -0.10605579688E+04  0.20299691016E+04  0.25500000920E-02 0. -1.
</event>
<event>
 5   0  0.2913025E-07  0.3705291E+04  0.7818609E-02  0.8066790E-01
       -2   -1    0    0    0  501  0.00000000000E+00  0.00000000000E+00  0.16161638949E+04  0.16161638949E+04  0.25500000920E-02 0.  1.
        2   -1    0    0  501    0  0.00000000000E+00  0.00000000000E+00 -0.21237302233E+04  0.21237302233E+04  0.25500000920E-02 0. -1.
    10030    2    1    2    0    0  0.00000000000E+00  0.00000000000E+00 -0.50756632844E+03  0.37398941182E+04  0.37052914106E+04 0.  0.
        5    1    3    3  502    0  0.97903015222E+03  0.96026046139E+03  0.10035117375E+04  0.16993110633E+04  0.46999998093E+01 0.  1.
       -5    1    3    3    0  502 -0.97903015222E+03 -0.96026046139E+03 -0.15110780659E+04  0.20405830549E+04  0.46999998093E+01 0. -1.
</event>
<event>
 5   0  0.2913025E-07  0.3411844E+04  0.7818609E-02  0.8135006E-01
       -2   -1    0    0    0  501  0.00000000000E+00  0.00000000000E+00  0.17092322346E+04  0.17092322346E+04  0.25500000920E-02 0. -1.
        2   -1    0    0  501    0  0.00000000000E+00  0.00000000000E+00 -0.17026177728E+04  0.17026177728E+04  0.25500000920E-02 0.  1.
    10030    2    1    2    0    0  0.00000000000E+00  0.00000000000E+00  0.66144618020E+01  0.34118500074E+04  0.34118435958E+04 0.  0.
        5    1    3    3  502    0  0.44461221433E+03 -0.91989443465E+03 -0.13628070809E+04  0.17032765547E+04  0.46999998093E+01 0.  1.
       -5    1    3    3    0  502 -0.44461221433E+03  0.91989443465E+03  0.13694215427E+04  0.17085734528E+04  0.46999998093E+01 0. -1.
</event>
<event>
 5   0  0.9646615E-08  0.3688317E+04  0.7818609E-02  0.8070556E-01
        1   -1    0    0  501    0  0.00000000000E+00  0.00000000000E+00  0.18144784635E+04  0.18144784635E+04  0.50400001928E-02 0. -1.
       -1   -1    0    0    0  501  0.00000000000E+00  0.00000000000E+00 -0.18743236007E+04  0.18743236007E+04  0.50400001928E-02 0.  1.
    10030    2    1    2    0    0  0.00000000000E+00  0.00000000000E+00 -0.59845137154E+02  0.36888020642E+04  0.36883165847E+04 0.  0.
        2    1    3    3  502    0  0.96655920772E+03 -0.34852996003E+03  0.15016868449E+04  0.18195530262E+04  0.25500000920E-02 0. -1.
       -2    1    3    3    0  502 -0.96655920772E+03  0.34852996003E+03 -0.15615319821E+04  0.18692490380E+04  0.25500000920E-02 0.  1.
</event>
<event>
 5   0  0.9646615E-08  0.3692678E+04  0.7818609E-02  0.8069586E-01
        1   -1    0    0  501    0  0.00000000000E+00  0.00000000000E+00  0.21127153968E+04  0.21127153969E+04  0.50400001928E-02 0. -1.
       -1   -1    0    0    0  501  0.00000000000E+00  0.00000000000E+00 -0.16135477510E+04  0.16135477510E+04  0.50400001928E-02 0.  1.
    10030    2    1    2    0    0  0.00000000000E+00  0.00000000000E+00  0.49916764584E+03  0.37262631479E+04  0.36926777152E+04 0.  0.
        2    1    3    3  502    0 -0.14118935104E+03  0.77416705697E+03 -0.14358461781E+04  0.16373525314E+04  0.25500000920E-02 0.  1.
       -2    1    3    3    0  502  0.14118935104E+03 -0.77416705697E+03  0.19350138239E+04  0.20889106165E+04  0.25500000920E-02 0. -1.
</event>
<event>
 5   0  0.9646615E-08  0.3739625E+04  0.7818609E-02  0.8059237E-01
       -1   -1    0    0    0  501  0.00000000000E+00  0.00000000000E+00  0.17325765700E+04  0.17325765700E+04  0.50400001928E-02 0. -1.
        1   -1    0    0  501    0  0.00000000000E+00  0.00000000000E+00 -0.20179189569E+04  0.20179189569E+04  0.50400001928E-02 0.  1.
    10030    2    1    2    0    0  0.00000000000E+00  0.00000000000E+00 -0.28534238684E+03  0.37504955269E+04  0.37396251710E+04 0.  0.
        2    1    3    3  502    0 -0.13093105929E+04 -0.40442752308E+03  0.11331678799E+04  0.17781803323E+04  0.25500000920E-02 0. -1.
       -2    1    3    3    0  502  0.13093105929E+04  0.40442752308E+03 -0.14185102667E+04  0.19723151946E+04  0.25500000920E-02 0.  1.
</event>
<event>
 5   0  0.9418945E-08  0.3709839E+04  0.7818609E-02  0.8065785E-01
       -1   -1    0    0    0  501  0.00000000000E+00  0.00000000000E+00  0.16025958027E+04  0.16025958027E+04  0.50400001928E-02 0.  1.
        1   -1    0    0  501    0  0.00000000000E+00  0.00000000000E+00 -0.21469708186E+04  0.21469708186E+04  0.50400001928E-02 0. -1.
    10030    2    1    2    0    0  0.00000000000E+00  0.00000000000E+00 -0.54437501591E+03  0.37495666213E+04  0.37098390383E+04 0.  0.
        5    1    3    3  502    0  0.18188638292E+04 -0.30864744662E+03 -0.46706162720E+03  0.19030758075E+04  0.46999998093E+01 0. -1.
       -5    1    3    3    0  502 -0.18188638292E+04  0.30864744662E+03 -0.77313388715E+02  0.18464908138E+04  0.46999998093E+01 0.  1.
</event>
<event>
 5   0  0.3032442E-07  0.3721653E+04  0.7818609E-02  0.8063180E-01
        2   -1    0    0  501    0  0.00000000000E+00  0.00000000000E+00  0.12664357869E+04  0.12664357869E+04  0.25500000920E-02 0.  1.
       -2   -1    0    0    0  501  0.00000000000E+00  0.00000000000E+00 -0.27341891917E+04  0.27341891917E+04  0.25500000920E-02 0. -1.
    10030    2    1    2    0    0  0.00000000000E+00  0.00000000000E+00 -0.14677534049E+04  0.40006249786E+04  0.37216528803E+04 0.  0.
        3    1    3    3  502    0 -0.16453822757E+04  0.86659046538E+03 -0.66246540423E+03  0.19741130388E+04  0.10100000352E+00 0.  1.
       -3    1    3    3    0  502  0.16453822757E+04 -0.86659046538E+03 -0.80528800062E+03  0.20265119398E+04  0.10100000352E+00 0. -1.
</event>
<event>
 5   0  0.9341000E-08  0.3702874E+04  0.7818609E-02  0.8067325E-01
       -1   -1    0    0    0  501  0.00000000000E+00  0.00000000000E+00  0.13156280039E+04  0.13156280039E+04  0.50400001928E-02 0.  1.
        1   -1    0    0  501    0  0.00000000000E+00  0.00000000000E+00 -0.26054621383E+04  0.26054621383E+04  0.50400001928E-02 0. -1.
    10030    2    1    2    0    0  0.00000000000E+00  0.00000000000E+00 -0.12898341344E+04  0.39210901422E+04  0.37028739932E+04 0.  0.
        3    1    3    3  502    0 -0.88187027855E+02  0.64582424456E+03  0.11901086834E+04  0.13569173133E+04  0.10100000352E+00 0.  1.
       -3    1    3    3    0  502  0.88187027855E+02 -0.64582424456E+03 -0.24799428178E+04  0.25641728289E+04  0.10100000352E+00 0. -1.
</event>
<event>
 5   0  0.9646615E-08  0.3706045E+04  0.7818609E-02  0.8066624E-01
        1   -1    0    0  501    0  0.00000000000E+00  0.00000000000E+00  0.11391674897E+04  0.11391674897E+04  0.50400001928E-02 0. -1.
       -1   -1    0    0    0  501  0.00000000000E+00  0.00000000000E+00 -0.30142112528E+04  0.30142112528E+04  0.50400001928E-02 0.  1.
    10030    2    1    2    0    0  0.00000000000E+00  0.00000000000E+00 -0.18750437631E+04  0.41533787425E+04  0.37060445039E+04 0.  0.
        2    1    3    3  502    0  0.15157241594E+04  0.98213953545E+03 -0.47317476463E+03  0.18670597614E+04  0.25500000920E-02 0. -1.
       -2    1    3    3    0  502 -0.15157241594E+04 -0.98213953545E+03 -0.14018689985E+04  0.22863189811E+04  0.25500000920E-02 0.  1.
</event>
<event>
 5   0  0.9418945E-08  0.3694192E+04  0.7818609E-02  0.8069250E-01
        1   -1    0    0  501    0  0.00000000000E+00  0.00000000000E+00  0.25411490043E+04  0.25411490043E+04  0.50400001928E-02 0.  1.
       -1   -1    0    0    0  501  0.00000000000E+00  0.00000000000E+00 -0.13426065183E+04  0.13426065183E+04  0.50400001928E-02 0. -1.
    10030    2    1    2    0    0  0.00000000000E+00  0.00000000000E+00  0.11985424860E+04  0.38837555225E+04  0.36941917747E+04 0.  0.
        5    1    3    3  502    0  0.18338858170E+04 -0.20319654571E+03  0.68918840986E+03  0.19696265585E+04  0.46999998093E+01 0. -1.
       -5    1    3    3    0  502 -0.18338858170E+04  0.20319654571E+03  0.50935407614E+03  0.19141289640E+04  0.46999998093E+01 0.  1.
</event>
<event>
 5   0  0.3008879E-07  0.3694384E+04  0.7818609E-02  0.8069207E-01
        2   -1    0    0  501    0  0.00000000000E+00  0.00000000000E+00  0.10827364838E+04  0.10827364838E+04  0.25500000920E-02 0. -1.
       -2   -1    0    0    0  501  0.00000000000E+00  0.00000000000E+00 -0.31513844927E+04  0.31513844927E+04  0.25500000920E-02 0.  1.
    10030    2    1    2    0    0  0.00000000000E+00  0.00000000000E+00 -0.20686480089E+04  0.42341209765E+04  0.36943843681E+04 0.  0.
        2    1    3    3  502    0 -0.11255501817E+02  0.38984776609E+03 -0.31036585935E+04  0.31280672358E+04  0.25500000920E-02 0.  1.
       -2    1    3    3    0  502  0.11255501817E+02 -0.38984776609E+03  0.10350105846E+04  0.11060537407E+04  0.25500000920E-02 0. -1.
</event>
<event>
 5   0  0.2897133E-07  0.3692058E+04  0.7818609E-02  0.8069724E-01
        2   -1    0    0  501    0  0.00000000000E+00  0.00000000000E+00  0.22335948802E+04  0.22335948802E+04  0.25500000920E-02 0.  1.
       -2   -1    0    0    0  501  0.00000000000E+00  0.00000000000E+00 -0.15257124282E+04  0.15257124282E+04  0.25500000920E-02 0. -1.
    10030    2    1    2    0    0  0.00000000000E+00  0.00000000000E+00  0.70788245204E+03  0.37593073084E+04  0.36920582164E+04 0.  0.
        4    1    3    3  502    0  0.61024884113E+03  0.45559123244E+03 -0.13583114143E+04  0.15572342567E+04  0.12699999809E+01 0. -1.
       -4    1    3    3    0  502 -0.61024884113E+03 -0.45559123244E+03  0.20661938663E+04  0.22020730518E+04  0.12699999809E+01 0.  1.
</event>
<event>
 5   0  0.9341000E-08  0.3705661E+04  0.7818609E-02  0.8066709E-01
        1   -1    0    0  501    0  0.00000000000E+00  0.00000000000E+00  0.19003026980E+04  0.19003026980E+04  0.50400001928E-02 0.  1.
       -1   -1    0    0    0  501  0.00000000000E+00  0.00000000000E+00 -0.18065437438E+04  0.18065437438E+04  0.50400001928E-02 0. -1.
    10030    2    1    2    0    0  0.00000000000E+00  0.00000000000E+00  0.93758954205E+02  0.37068464419E+04  0.37056605082E+04 0.  0.
        3    1    3    3  502    0  0.15514873718E+04  0.65607408473E+03  0.81876991544E+03  0.18729469971E+04  0.10100000352E+00 0.  1.
       -3    1    3    3    0  502 -0.15514873718E+04 -0.65607408473E+03 -0.72501096124E+03  0.18338994448E+04  0.10100000352E+00 0. -1.
</event>
<event>
 5   0  0.3008879E-07  0.3589258E+04  0.7818609E-02  0.8092957E-01
       -2   -1    0    0    0  501  0.00000000000E+00  0.00000000000E+00  0.12868641483E+04  0.12868641483E+04  0.25500000920E-02 0.  1.
        2   -1    0    0  501    0  0.00000000000E+00  0.00000000000E+00 -0.25027447069E+04  0.25027447069E+04  0.25500000920E-02 0. -1.
    10030    2    1    2    0    0  0.00000000000E+00  0.00000000000E+00 -0.12158805586E+04  0.37896088552E+04  0.35892575476E+04 0.  0.
        2    1    3    3  502    0  0.63989848927E+03  0.37110726404E+03 -0.23342948590E+04  0.24486982597E+04  0.25500000920E-02 0. -1.
       -2    1    3    3    0  502 -0.63989848927E+03 -0.37110726404E+03  0.11184143004E+04  0.13409105956E+04  0.25500000920E-02 0.  1.
</event>
<event>
 5   0  0.9418945E-08  0.3692353E+04  0.7818609E-02  0.8069659E-01
       -1   -1    0    0    0  501  0.00000000000E+00  0.00000000000E+00  0.16054214749E+04  0.16054214749E+04  0.50400001928E-02 0. -1.
        1   -1    0    0  501    0  0.00000000000E+00  0.00000000000E+00 -0.21230364534E+04  0.21230364534E+04  0.50400001928E-02 0.  1.
    10030    2    1    2    0    0  0.00000000000E+00  0.00000000000E+00 -0.51761497845E+03  0.37284579283E+04  0.36923533494E+04 0.  0.
        5    1    3    3  502    0 -0.78370942815E+03  0.16308832739E+04 -0.62895078144E+03  0.19156152788E+04  0.46999998093E+01 0. -1.
       -5    1    3    3    0  502  0.78370942815E+03 -0.16308832739E+04  0.11133580299E+03  0.18128426495E+04  0.46999998093E+01 0.  1.
</event>
<event>
 5   0  0.9341000E-08  0.3728194E+04  0.7818609E-02  0.8061742E-01
       -1   -1    0    0    0  501  0.00000000000E+00  0.00000000000E+00  0.17469101643E+04  0.17469101643E+04  0.50400001928E-02 0. -1.
        1   -1    0    0  501    0  0.00000000000E+00  0.00000000000E+00 -0.19891446873E+04  0.19891446873E+04  0.50400001928E-02 0.  1.
    10030    2    1    2    0    0  0.00000000000E+00  0.00000000000E+00 -0.24223452299E+03  0.37360548517E+04  0.37281937035E+04 0.  0.
        1    1    3    3  502    0  0.15177112500E+04  0.14040246480E+03  0.95431695947E+03  0.17982995161E+04  0.50400001928E-02 0. -1.
       -1    1    3    3    0  502 -0.15177112500E+04 -0.14040246480E+03 -0.11965514825E+04  0.19377553356E+04  0.50400001928E-02 0.  1.
</event>
<event>
 5   0  0.9341000E-08  0.3706462E+04  0.7818609E-02  0.8066531E-01
       -1   -1    0    0    0  501  0.00000000000E+00  0.00000000000E+00  0.12871045760E+04  0.12871045760E+04  0.50400001928E-02 0.  1.
        1   -1    0    0  501    0  0.00000000000E+00  0.00000000000E+00 -0.26683647507E+04  0.26683647507E+04  0.50400001928E-02 0. -1.
    10030    2    1    2    0    0  0.00000000000E+00  0.00000000000E+00 -0.13812601747E+04  0.39554693268E+04  0.37064616449E+04 0.  0.
        4    1    3    3  502    0 -0.43280977301E+03  0.14812411886E+04  0.40449999869E+03  0.15953123896E+04  0.12699999809E+01 0.  1.
       -4    1    3    3    0  502  0.43280977301E+03 -0.14812411886E+04 -0.17857601734E+04  0.23601569372E+04  0.12699999809E+01 0. -1.
</event>
<event>
 5   0  0.9418945E-08  0.3737794E+04  0.7818609E-02  0.8059637E-01
        1   -1    0    0  501    0  0.00000000000E+00  0.00000000000E+00  0.20042138394E+04  0.20042138394E+04  0.50400001928E-02 0. -1.
       -1   -1    0    0    0  501  0.00000000000E+00  0.00000000000E+00 -0.17427161183E+04  0.17427161183E+04  0.50400001928E-02 0.  1.
    10030    2    1    2    0    0  0.00000000000E+00  0.00000000000E+00  0.26149772105E+03  0.37469299577E+04  0.37377938747E+04 0.  0.
        5    1    3    3  502    0 -0.26371599096E+03  0.14600378313E+04 -0.10084694090E+04  0.17939590941E+04  0.46999998093E+01 0.  1.
       -5    1    3    3    0  502  0.26371599096E+03 -0.14600378313E+04  0.12699671300E+04  0.19529708636E+04  0.46999998093E+01 0. -1.
</event>
<event>
 5   0  0.9341000E-08  0.3630267E+04  0.7818609E-02  0.8083594E-01
       -1   -1    0    0    0  501  0.00000000000E+00  0.00000000000E+00  0.17875101948E+04  0.17875101948E+04  0.50400001928E-02 0. -1.
        1   -1    0    0  501    0  0.00000000000E+00  0.00000000000E+00 -0.18431840792E+04  0.18431840792E+04  0.50400001928E-02 0.  1.
    10030    2    1    2    0    0  0.00000000000E+00  0.00000000000E+00 -0.55673884348E+02  0.36306942740E+04  0.36302673910E+04 0.  0.
        3    1    3    3  502    0 -0.48232706701E+03 -0.17488004764E+04  0.33552816424E+02  0.18144057726E+04  0.10100000352E+00 0. -1.
       -3    1    3    3    0  502  0.48232706701E+03  0.17488004764E+04 -0.89226700772E+02  0.18162885014E+04  0.10100000352E+00 0.  1.
</event>
<event>
 5   0  0.3032442E-07  0.3599763E+04  0.7818609E-02  0.8090546E-01
       -2   -1    0    0    0  501  0.00000000000E+00  0.00000000000E+00  0.15979138436E+04  0.15979138436E+04  0.25500000920E-02 0.  1.
        2   -1    0    0  501    0  0.00000000000E+00  0.00000000000E+00 -0.20273767888E+04  0.20273767888E+04  0.25500000920E-02 0. -1.
    10030    2    1    2    0    0  0.00000000000E+00  0.00000000000E+00 -0.42946294519E+03  0.36252906324E+04  0.35997630127E+04 0.  0.
        3    1    3    3  502    0  0.35892468275E+03  0.41575378946E+03 -0.19409154243E+04  0.20171343128E+04  0.10100000352E+00 0. -1.
       -3    1    3    3    0  502 -0.35892468275E+03 -0.41575378946E+03  0.15114524791E+04  0.16081563196E+04  0.10100000352E+00 0.  1.
</event>
<event>
 5   0  0.3032442E-07  0.3715989E+04  0.7818609E-02  0.8064428E-01
       -2   -1    0    0    0  501  0.00000000000E+00  0.00000000000E+00  0.12225264264E+04  0.12225264264E+04  0.25500000920E-02 0. -1.
        2   -1    0    0  501    0  0.00000000000E+00  0.00000000000E+00 -0.28237789850E+04  0.28237789850E+04  0.25500000920E-02 0.  1.
    10030    2    1    2    0    0  0.00000000000E+00  0.00000000000E+00 -0.16012525586E+04  0.40463054114E+04  0.37159894679E+04 0.  0.
        3    1    3    3  502    0 -0.12093148681E+04  0.96552300675E+03  0.31911491951E+03  0.15800352745E+04  0.10100000352E+00 0. -1.
       -3    1    3    3    0  502  0.12093148681E+04 -0.96552300675E+03 -0.19203674781E+04  0.24662701369E+04  0.10100000352E+00 0.  1.
</event>
<event>
 5   0  0.9418945E-08  0.3686628E+04  0.7818609E-02  0.8070932E-01
       -1   -1    0    0    0  501  0.00000000000E+00  0.00000000000E+00  0.19037736564E+04  0.19037736564E+04  0.50400001928E-02 0.  1.
        1   -1    0    0  501    0  0.00000000000E+00  0.00000000000E+00 -0.17847746940E+04  0.17847746940E+04  0.50400001928E-02 0. -1.
    10030    2    1    2    0    0  0.00000000000E+00  0.00000000000E+00  0.11899896239E+03  0.36885483504E+04  0.36866282943E+04 0.  0.
        5    1    3    3  502    0  0.17738756166E+04  0.49267928882E+03  0.15129349098E+03  0.18472356090E+04  0.46999998093E+01 0.  1.
       -5    1    3    3    0  502 -0.17738756166E+04 -0.49267928882E+03 -0.32294528585E+02  0.18413127413E+04  0.46999998093E+01 0. -1.
</event>
<event>
 5   0  0.9341000E-08  0.3483735E+04  0.7818609E-02  0.8117655E-01
        1   -1    0    0  501    0  0.00000000000E+00  0.00000000000E+00  0.13267727372E+04  0.13267727372E+04  0.50400001928E-02 0. -1.
       -1   -1    0    0    0  501  0.00000000000E+00  0.00000000000E+00 -0.22868288699E+04  0.22868288699E+04  0.50400001928E-02 0.  1.
    10030    2    1    2    0    0  0.00000000000E+00  0.00000000000E+00 -0.96005613272E+03  0.36136016071E+04  0.34837348918E+04 0.  0.
        3    1    3    3  502    0 -0.15849955701E+04 -0.49084925745E+03  0.69786267525E+02  0.16607269746E+04  0.10100000352E+00 0. -1.
       -3    1    3    3    0  502  0.15849955701E+04  0.49084925745E+03 -0.10298424002E+04  0.19528746325E+04  0.10100000352E+00 0.  1.
</event>
<event>
 5   0  0.9341000E-08  0.3631530E+04  0.7818609E-02  0.8083307E-01
       -1   -1    0    0    0  501  0.00000000000E+00  0.00000000000E+00  0.17441722045E+04  0.17441722045E+04  0.50400001928E-02 0.  1.
        1   -1    0    0  501    0  0.00000000000E+00  0.00000000000E+00 -0.18902967839E+04  0.18902967839E+04  0.50400001928E-02 0. -1.
    10030    2    1    2    0    0  0.00000000000E+00  0.00000000000E+00 -0.14612457937E+03  0.36344689883E+04  0.36315303158E+04 0.  0.
        3    1    3    3  502    0  0.60360858894E+03  0.16976866471E+04 -0.29801031397E+03  0.18262785761E+04  0.10100000352E+00 0.  1.
       -3    1    3    3    0  502 -0.60360858894E+03 -0.16976866471E+04  0.15188573461E+03  0.18081904122E+04  0.10100000352E+00 0. -1.
</event>
<event>
 5   0  0.3008879E-07  0.3377219E+04  0.7818609E-02  0.8143520E-01
       -2   -1    0    0    0  501  0.00000000000E+00  0.00000000000E+00  0.22057563469E+04  0.22057563469E+04  0.25500000920E-02 0.  1.
        2   -1    0    0  501    0  0.00000000000E+00  0.00000000000E+00 -0.12927093394E+04  0.12927093394E+04  0.25500000920E-02 0. -1.
    10030    2    1    2    0    0  0.00000000000E+00  0.00000000000E+00  0.91304700756E+03  0.34984656863E+04  0.33772188736E+04 0.  0.
        2    1    3    3  502    0 -0.13696917494E+03 -0.50110185546E+03 -0.12078764281E+04  0.13148494553E+04  0.25500000920E-02 0. -1.
       -2    1    3    3    0  502  0.13696917494E+03  0.50110185546E+03  0.21209234357E+04  0.21836162310E+04  0.25500000920E-02 0.  1.
</event>
<event>
 5   0  0.3008879E-07  0.3696019E+04  0.7818609E-02  0.8068845E-01
        2   -1    0    0  501    0  0.00000000000E+00  0.00000000000E+00  0.10478745412E+04  0.10478745412E+04  0.25500000920E-02 0. -1.
       -2   -1    0    0    0  501  0.00000000000E+00  0.00000000000E+00 -0.32591104307E+04  0.32591104307E+04  0.25500000920E-02 0.  1.
    10030    2    1    2    0    0  0.00000000000E+00  0.00000000000E+00 -0.22112358894E+04  0.43069849719E+04  0.36960188568E+04 0.  0.
        2    1    3    3  502    0 -0.17905004928E+04 -0.27916326413E+03 -0.15278934191E+04  0.23702916367E+04  0.25500000920E-02 0. -1.
       -2    1    3    3    0  502  0.17905004928E+04  0.27916326413E+03 -0.68334247031E+03  0.19366933352E+04  0.25500000920E-02 0.  1.
</event>
<event>
 5   0  0.9341000E-08  0.3665172E+04  0.7818609E-02  0.8075724E-01
        1   -1    0    0  501    0  0.00000000000E+00  0.00000000000E+00  0.22585511834E+04  0.22585511835E+04  0.50400001928E-02 0. -1.
       -1   -1    0    0    0  501  0.00000000000E+00  0.00000000000E+00 -0.14869580686E+04  0.14869580686E+04  0.50400001928E-02 0.  1.
    10030    2    1    2    0    0  0.00000000000E+00  0.00000000000E+00  0.77159311489E+03  0.37455092520E+04  0.36651717043E+04 0.  0.
        4    1    3    3  502    0  0.90843874529E+02  0.13904128237E+04  0.16022104661E+04  0.21233418048E+04  0.12699999809E+01 0. -1.
       -4    1    3    3    0  502 -0.90843874529E+02 -0.13904128237E+04 -0.83061735116E+03  0.16221674472E+04  0.12699999809E+01 0.  1.
</event>
<event>
 5   0  0.2996969E-07  0.3597756E+04  0.7818609E-02  0.8091006E-01
        2   -1    0    0  501    0  0.00000000000E+00  0.00000000000E+00  0.12427653555E+04  0.12427653555E+04  0.25500000920E-02 0. -1.
       -2   -1    0    0    0  501  0.00000000000E+00  0.00000000000E+00 -0.26038397899E+04  0.26038397899E+04  0.25500000920E-02 0.  1.
    10030    2    1    2    0    0  0.00000000000E+00  0.00000000000E+00 -0.13610744344E+04  0.38466051455E+04  0.35977559018E+04 0.  0.
        1    1    3    3  502    0 -0.11958268346E+04 -0.11514568152E+04 -0.14213612344E+04  0.21854341386E+04  0.50400001928E-02 0.  1.
       -1    1    3    3    0  502  0.11958268346E+04  0.11514568152E+04  0.60286799998E+02  0.16611710068E+04  0.50400001928E-02 0. -1.
</event>
<event>
 5   0  0.2913025E-07  0.3667212E+04  0.7818609E-02  0.8075267E-01
       -2   -1    0    0    0  501  0.00000000000E+00  0.00000000000E+00  0.13572390763E+04  0.13572390763E+04  0.25500000920E-02 0.  1.
        2   -1    0    0  501    0  0.00000000000E+00  0.00000000000E+00 -0.24771698325E+04  0.24771698325E+04  0.25500000920E-02 0. -1.
    10030    2    1    2    0    0  0.00000000000E+00  0.00000000000E+00 -0.11199307562E+04  0.38344089088E+04  0.36672123992E+04 0.  0.
        5    1    3    3  502    0  0.51368633903E+03  0.72544336795E+03  0.11168816348E+04  0.14274412111E+04  0.46999998093E+01 0.  1.
       -5    1    3    3    0  502 -0.51368633903E+03 -0.72544336795E+03 -0.22368123910E+04  0.24069676977E+04  0.46999998093E+01 0. -1.
</event>
<event>
 5   0  0.2913025E-07  0.3651493E+04  0.7818609E-02  0.8078797E-01
       -2   -1    0    0    0  501  0.00000000000E+00  0.00000000000E+00  0.21124831777E+04  0.21124831777E+04  0.25500000920E-02 0. -1.
        2   -1    0    0  501    0  0.00000000000E+00  0.00000000000E+00 -0.15779295897E+04  0.15779295897E+04  0.25500000920E-02 0.  1.
    10030    2    1    2    0    0  0.00000000000E+00  0.00000000000E+00  0.53455358796E+03  0.36904127674E+04  0.36514926887E+04 0.  0.
        5    1    3    3  502    0 -0.14986134081E+04  0.35619638363E+03  0.12578303762E+04  0.19886873450E+04  0.46999998093E+01 0. -1.
       -5    1    3    3    0  502  0.14986134081E+04 -0.35619638363E+03 -0.72327678829E+03  0.17017254224E+04  0.46999998093E+01 0.  1.
</event>
<event>
 5   0  0.3008879E-07  0.3733183E+04  0.7818609E-02  0.8060648E-01
       -2   -1    0    0    0  501  0.00000000000E+00  0.00000000000E+00  0.16311007996E+04  0.16311007996E+04  0.25500000920E-02 0. -1.
        2   -1    0    0  501    0  0.00000000000E+00  0.00000000000E+00 -0.21360808866E+04  0.21360808866E+04  0.25500000920E-02 0.  1.
    10030    2    1    2    0    0  0.00000000000E+00  0.00000000000E+00 -0.50498008704E+03  0.37671816862E+04  0.37331826862E+04 0.  0.
        2    1    3    3  502    0  0.12373194386E+04 -0.21082924780E+03 -0.16466493529E+04  0.20704739690E+04  0.25500000920E-02 0.  1.
       -2    1    3    3    0  502 -0.12373194386E+04  0.21082924780E+03  0.11416692659E+04  0.16967077172E+04  0.25500000920E-02 0. -1.
</event>
<event>
 5   0  0.9341000E-08  0.3679061E+04  0.7818609E-02  0.8072618E-01
        3   -1    0    0  501    0  0.00000000000E+00  0.00000000000E+00  0.13349284409E+04  0.13349284447E+04  0.10100000352E+00 0. -1.
       -3   -1    0    0    0  501  0.00000000000E+00  0.00000000000E+00 -0.25348714757E+04  0.25348714777E+04  0.10100000352E+00 0.  1.
    10030    2    1    2    0    0  0.00000000000E+00  0.00000000000E+00 -0.11999430348E+04  0.38697999224E+04  0.36790607705E+04 0.  0.
        3    1    3    3  502    0 -0.43617279123E+03 -0.12673231461E+04  0.72531809085E+03  0.15239557092E+04  0.10100000352E+00 0. -1.
       -3    1    3    3    0  502  0.43617279123E+03  0.12673231461E+04 -0.19252611256E+04  0.23458442132E+04  0.10100000352E+00 0.  1.
</event>
<event>
 5   0  0.3032442E-07  0.3703507E+04  0.7818609E-02  0.8067185E-01
        2   -1    0    0  501    0  0.00000000000E+00  0.00000000000E+00  0.24226236372E+04  0.24226236372E+04  0.25500000920E-02 0.  1.
       -2   -1    0    0    0  501  0.00000000000E+00  0.00000000000E+00 -0.14154035741E+04  0.14154035741E+04  0.25500000920E-02 0. -1.
    10030    2    1    2    0    0  0.00000000000E+00  0.00000000000E+00  0.10072200632E+04  0.38380272113E+04  0.37035065302E+04 0.  0.
        3    1    3    3  502    0  0.27494049163E+03 -0.17921586281E+04  0.11369194913E+03  0.18166867346E+04  0.10100000352E+00 0. -1.
       -3    1    3    3    0  502 -0.27494049163E+03  0.17921586281E+04  0.89352811405E+03  0.20213404767E+04  0.10100000352E+00 0.  1.
</event>
<event>
 5   0  0.9341000E-08  0.3809922E+04  0.7818609E-02  0.8044029E-01
        1   -1    0    0  501    0  0.00000000000E+00  0.00000000000E+00  0.26059674979E+04  0.26059674979E+04  0.50400001928E-02 0.  1.
       -1   -1    0    0    0  501  0.00000000000E+00  0.00000000000E+00 -0.13925254864E+04  0.13925254864E+04  0.50400001928E-02 0. -1.
    10030    2    1    2    0    0  0.00000000000E+00  0.00000000000E+00  0.12134420115E+04  0.39984929843E+04  0.38099218667E+04 0.  0.
        3    1    3    3  502    0  0.21085470461E+03 -0.35374457764E+03  0.25586912961E+04  0.25916203602E+04  0.10100000352E+00 0.  1.
       -3    1    3    3    0  502 -0.21085470461E+03  0.35374457764E+03 -0.13452492846E+04  0.14068726241E+04  0.10100000352E+00 0. -1.
</event>
<event>
 5   0  0.2897133E-07  0.3731927E+04  0.7818609E-02  0.8060923E-01
        2   -1    0    0  501    0  0.00000000000E+00  0.00000000000E+00  0.12627757423E+04  0.12627757423E+04  0.25500000920E-02 0.  1.
       -2   -1    0    0    0  501  0.00000000000E+00  0.00000000000E+00 -0.27572749339E+04  0.27572749339E+04  0.25500000920E-02 0. -1.
    10030    2    1    2    0    0  0.00000000000E+00  0.00000000000E+00 -0.14944991916E+04  0.40200506762E+04  0.37319270633E+04 0.  0.
        4    1    3    3  502    0 -0.11444583596E+04  0.14725101377E+04 -0.81319043783E+03  0.20345395901E+04  0.12699999809E+01 0. -1.
       -4    1    3    3    0  502  0.11444583596E+04 -0.14725101377E+04 -0.68130875373E+03  0.19855110862E+04  0.12699999809E+01 0.  1.
</event>
<event>
 5   0  0.9341000E-08  0.3790904E+04  0.7818609E-02  0.8048110E-01
        1   -1    0    0  501    0  0.00000000000E+00  0.00000000000E+00  0.18655103598E+04  0.18655103598E+04  0.50400001928E-02 0.  1.
       -1   -1    0    0    0  501  0.00000000000E+00  0.00000000000E+00 -0.19258738115E+04  0.19258738115E+04  0.50400001928E-02 0. -1.
    10030    2    1    2    0    0  0.00000000000E+00  0.00000000000E+00 -0.60363451644E+02  0.37913841713E+04  0.37909036110E+04 0.  0.
        4    1    3    3  502    0 -0.78544084034E+03 -0.11291333203E+04  0.12741601856E+04  0.18749253745E+04  0.12699999809E+01 0.  1.
       -4    1    3    3    0  502  0.78544084034E+03  0.11291333203E+04 -0.13345236372E+04  0.19164587968E+04  0.12699999809E+01 0. -1.
</event>
<event>
 5   0  0.9341000E-08  0.3701001E+04  0.7818609E-02  0.8067740E-01
       -1   -1    0    0    0  501  0.00000000000E+00  0.00000000000E+00  0.14488463502E+04  0.14488463502E+04  0.50400001928E-02 0. -1.
        1   -1    0    0  501    0  0.00000000000E+00  0.00000000000E+00 -0.23635029715E+04  0.23635029715E+04  0.50400001928E-02 0.  1.
    10030    2    1    2    0    0  0.00000000000E+00  0.00000000000E+00 -0.91465662138E+03  0.38123493217E+04  0.37010012990E+04 0.  0.
        1    1    3    3  502    0 -0.11145893665E+04 -0.66203252955E+03  0.90291413798E+03  0.15798260875E+04  0.50400001928E-02 0. -1.
       -1    1    3    3    0  502  0.11145893665E+04  0.66203252955E+03 -0.18175707594E+04  0.22325232342E+04  0.50400001928E-02 0.  1.
</event>
<event>
 5   0  0.2913025E-07  0.3709927E+04  0.7818609E-02  0.8065765E-01
        2   -1    0    0  501    0  0.00000000000E+00  0.00000000000E+00  0.12492236661E+04  0.12492236661E+04  0.25500000920E-02 0. -1.
       -2   -1    0    0    0  501  0.00000000000E+00  0.00000000000E+00 -0.27544225726E+04  0.27544225726E+04  0.25500000920E-02 0.  1.
    10030    2    1    2    0    0  0.00000000000E+00  0.00000000000E+00 -0.15051989065E+04  0.40036462387E+04  0.37099271498E+04 0.  0.
        5    1    3    3  502    0  0.72579204552E+03  0.96731454882E+03  0.76531380437E+03  0.14311529754E+04  0.46999998093E+01 0. -1.
       -5    1    3    3    0  502 -0.72579204552E+03 -0.96731454882E+03 -0.22705127109E+04  0.25724932634E+04  0.46999998093E+01 0.  1.
</event>
<event>
 5   0  0.9418945E-08  0.3694737E+04  0.7818609E-02  0.8069129E-01
       -1   -1    0    0    0  501  0.00000000000E+00  0.00000000000E+00  0.14727260684E+04  0.14727260685E+04  0.50400001928E-02 0. -1.
        1   -1    0    0  501    0  0.00000000000E+00  0.00000000000E+00 -0.23173155802E+04  0.23173155803E+04  0.50400001928E-02 0.  1.
    10030    2    1    2    0    0  0.00000000000E+00  0.00000000000E+00 -0.84458951180E+03  0.37900416487E+04  0.36947373730E+04 0.  0.
        5    1    3    3  502    0  0.40935000272E+02  0.15786033628E+04  0.56112331048E+03  0.16758716272E+04  0.46999998093E+01 0. -1.
       -5    1    3    3    0  502 -0.40935000272E+02 -0.15786033628E+04 -0.14057128223E+04  0.21141700215E+04  0.46999998093E+01 0.  1.
</event>
<event>
 5   0  0.3032442E-07  0.3699742E+04  0.7818609E-02  0.8068019E-01
       -2   -1    0    0    0  501  0.00000000000E+00  0.00000000000E+00  0.15829598934E+04  0.15829598934E+04  0.25500000920E-02 0. -1.
        2   -1    0    0  501    0  0.00000000000E+00  0.00000000000E+00 -0.21617869379E+04  0.21617869379E+04  0.25500000920E-02 0.  1.
    10030    2    1    2    0    0  0.00000000000E+00  0.00000000000E+00 -0.57882704444E+03  0.37447468313E+04  0.36997416238E+04 0.  0.
        3    1    3    3  502    0 -0.89942280212E+03  0.13218291877E+04 -0.12312314167E+04  0.20179505916E+04  0.10100000352E+00 0.  1.
       -3    1    3    3    0  502  0.89942280212E+03 -0.13218291877E+04  0.65240437223E+03  0.17267962397E+04  0.10100000352E+00 0. -1.
</event>
<event>
 5   0  0.2996969E-07  0.3746035E+04  0.7818609E-02  0.8057836E-01
       -2   -1    0    0    0  501  0.00000000000E+00  0.00000000000E+00  0.15072166006E+04  0.15072166006E+04  0.25500000920E-02 0.  1.
        2   -1    0    0  501    0  0.00000000000E+00  0.00000000000E+00 -0.23275986099E+04  0.23275986099E+04  0.25500000920E-02 0. -1.
    10030    2    1    2    0    0  0.00000000000E+00  0.00000000000E+00 -0.82038200928E+03  0.38348152106E+04  0.37460353786E+04 0.  0.
        1    1    3    3  502    0  0.39877345076E+03  0.55110383972E+03 -0.21966744040E+04  0.22995899948E+04  0.50400001928E-02 0. -1.
       -1    1    3    3    0  502 -0.39877345076E+03 -0.55110383972E+03  0.13762923947E+04  0.15352252157E+04  0.50400001928E-02 0.  1.
</event>
<event>
 5   0  0.9646615E-08  0.3584084E+04  0.7818609E-02  0.8094147E-01
       -1   -1    0    0    0  501  0.00000000000E+00  0.00000000000E+00  0.19803711175E+04  0.19803711175E+04  0.50400001928E-02 0. -1.
        1   -1    0    0  501    0  0.00000000000E+00  0.00000000000E+00 -0.16216222986E+04  0.16216222986E+04  0.50400001928E-02 0.  1.
    10030    2    1    2    0    0  0.00000000000E+00  0.00000000000E+00  0.35874881888E+03  0.36019934161E+04  0.35840836841E+04 0.  0.
        2    1    3    3  502    0  0.78320694092E+02 -0.17903075047E+04  0.17044908680E+03  0.18001077700E+04  0.25500000920E-02 0.  1.
       -2    1    3    3    0  502 -0.78320694092E+02  0.17903075047E+04  0.18829973208E+03  0.18018856461E+04  0.25500000920E-02 0. -1.
</event>
<event>
 5   0  0.9646615E-08  0.3700529E+04  0.7818609E-02  0.8067845E-01
       -1   -1    0    0    0  501  0.00000000000E+00  0.00000000000E+00  0.13812190326E+04  0.13812190326E+04  0.50400001928E-02 0.  1.
        1   -1    0    0  501    0  0.00000000000E+00  0.00000000000E+00 -0.24785915398E+04  0.24785915398E+04  0.50400001928E-02 0. -1.
    10030    2    1    2    0    0  0.00000000000E+00  0.00000000000E+00 -0.10973725072E+04  0.38598105724E+04  0.37005285076E+04 0.  0.
        2    1    3    3  502    0  0.56771930401E+03 -0.12940743772E+04  0.69710374274E+03  0.15757180363E+04  0.25500000920E-02 0.  1.
       -2    1    3    3    0  502 -0.56771930401E+03  0.12940743772E+04 -0.17944762500E+04  0.22840925361E+04  0.25500000920E-02 0. -1.
</event>
<event>
 5   0  0.3032442E-07  0.3688172E+04  0.7818609E-02  0.8070588E-01
        2   -1    0    0  501    0  0.00000000000E+00  0.00000000000E+00  0.21377416456E+04  0.21377416456E+04  0.25500000920E-02 0.  1.
       -2   -1    0    0    0  501  0.00000000000E+00  0.00000000000E+00 -0.15907693661E+04  0.15907693661E+04  0.25500000920E-02 0. -1.
    10030    2    1    2    0    0  0.00000000000E+00  0.00000000000E+00  0.54697227949E+03  0.37285110116E+04  0.36881724051E+04 0.  0.
        3    1    3    3  502    0  0.18898319878E+03 -0.62302519452E+03  0.20176910431E+04  0.21201302314E+04  0.10100000352E+00 0.  1.
       -3    1    3    3    0  502 -0.18898319878E+03  0.62302519452E+03 -0.14707187636E+04  0.16083807803E+04  0.10100000352E+00 0. -1.
</event>
<event>
 5   0  0.2913025E-07  0.3663405E+04  0.7818609E-02  0.8076120E-01
       -2   -1    0    0    0  501  0.00000000000E+00  0.00000000000E+00  0.14354486896E+04  0.14354486896E+04  0.25500000920E-02 0. -1.
        2   -1    0    0  501    0  0.00000000000E+00  0.00000000000E+00 -0.23373415054E+04  0.23373415054E+04  0.25500000920E-02 0.  1.
    10030    2    1    2    0    0  0.00000000000E+00  0.00000000000E+00 -0.90189281582E+03  0.37727901951E+04  0.36634048650E+04 0.  0.
        5    1    3    3  502    0  0.17522302243E+03 -0.50465202920E+03 -0.22553271162E+04  0.23177358066E+04  0.46999998093E+01 0.  1.
       -5    1    3    3    0  502 -0.17522302243E+03  0.50465202920E+03  0.13534343003E+04  0.14550543885E+04  0.46999998093E+01 0. -1.
</event>
<event>
 5   0  0.9341000E-08  0.3638493E+04  0.7818609E-02  0.8081731E-01
        1   -1    0    0  501    0  0.00000000000E+00  0.00000000000E+00  0.18872073661E+04  0.18872073661E+04  0.50400001928E-02 0.  1.
       -1   -1    0    0    0  501  0.00000000000E+00  0.00000000000E+00 -0.17537329584E+04  0.17537329584E+04  0.50400001928E-02 0. -1.
    10030    2    1    2    0    0  0.00000000000E+00  0.00000000000E+00  0.13347440766E+03  0.36409403245E+04  0.36384929613E+04 0.  0.
        4    1    3    3  502    0  0.55499094398E+03  0.97576497224E+03 -0.13658415862E+04  0.17679527936E+04  0.12699999809E+01 0. -1.
       -4    1    3    3    0  502 -0.55499094398E+03 -0.97576497224E+03  0.14993159938E+04  0.18729875310E+04  0.12699999809E+01 0.  1.
</event>
<event>
 5   0  0.9341000E-08  0.3696701E+04  0.7818609E-02  0.8068693E-01
        1   -1    0    0  501    0  0.00000000000E+00  0.00000000000E+00  0.21431603625E+04  0.21431603625E+04  0.50400001928E-02 0. -1.
       -1   -1    0    0    0  501  0.00000000000E+00  0.00000000000E+00 -0.15940945301E+04  0.15940945301E+04  0.50400001928E-02 0.  1.
    10030    2    1    2    0    0  0.00000000000E+00  0.00000000000E+00  0.54906583238E+03  0.37372548926E+04  0.36967013463E+04 0.  0.
        4    1    3    3  502    0  0.10920381471E+04  0.92980828513E+03  0.14532165782E+04  0.20417959736E+04  0.12699999809E+01 0. -1.
       -4    1    3    3    0  502 -0.10920381471E+04 -0.92980828513E+03 -0.90415074579E+03  0.16954589190E+04  0.12699999809E+01 0.  1.
</event>
<event>
 5   0  0.9341000E-08  0.3700950E+04  0.7818609E-02  0.8067751E-01
       -1   -1    0    0    0  501  0.00000000000E+00  0.00000000000E+00  0.32919389372E+04  0.32919389372E+04  0.50400001928E-02 0. -1.
        1   -1    0    0  501    0  0.00000000000E+00  0.00000000000E+00 -0.10401946947E+04  0.10401946947E+04  0.50400001928E-02 0.  1.
    10030    2    1    2    0    0  0.00000000000E+00  0.00000000000E+00  0.22517442424E+04  0.43321336319E+04  0.37009498337E+04 0.  0.
        1    1    3    3  502    0 -0.75996761401E+03  0.10935627364E+04  0.26298430876E+04  0.29477966175E+04  0.50400001928E-02 0. -1.
       -1    1    3    3    0  502  0.75996761401E+03 -0.10935627364E+04 -0.37809884515E+03  0.13843370144E+04  0.50400001928E-02 0.  1.
</event>
<event>
 5   0  0.9341000E-08  0.3667133E+04  0.7818609E-02  0.8075285E-01
       -1   -1    0    0    0  501  0.00000000000E+00  0.00000000000E+00  0.17912098985E+04  0.17912098985E+04  0.50400001928E-02 0.  1.
        1   -1    0    0  501    0  0.00000000000E+00  0.00000000000E+00 -0.18769250429E+04  0.18769250429E+04  0.50400001928E-02 0. -1.
    10030    2    1    2    0    0  0.00000000000E+00  0.00000000000E+00 -0.85715144463E+02  0.36681349414E+04  0.36671333303E+04 0.  0.
        1    1    3    3  502    0 -0.85920374144E+03  0.10629657395E+04  0.11797035202E+04  0.18054992740E+04  0.50400001928E-02 0.  1.
       -1    1    3    3    0  502  0.85920374144E+03 -0.10629657395E+04 -0.12654186647E+04  0.18626356674E+04  0.50400001928E-02 0. -1.
</event>
<event>
 5   0  0.9646615E-08  0.3647590E+04  0.7818609E-02  0.8079677E-01
       -1   -1    0    0    0  501  0.00000000000E+00  0.00000000000E+00  0.16565700998E+04  0.16565700998E+04  0.50400001928E-02 0. -1.
        1   -1    0    0  501    0  0.00000000000E+00  0.00000000000E+00 -0.20079009208E+04  0.20079009208E+04  0.50400001928E-02 0.  1.
    10030    2    1    2    0    0  0.00000000000E+00  0.00000000000E+00 -0.35133082105E+03  0.36644710206E+04  0.36475902340E+04 0.  0.
        2    1    3    3  502    0 -0.88991489130E+03  0.15906069456E+04 -0.24115651606E+03  0.18385144640E+04  0.25500000920E-02 0.  1.
       -2    1    3    3    0  502  0.88991489130E+03 -0.15906069456E+04 -0.11017430500E+03  0.18259565566E+04  0.25500000920E-02 0. -1.
</event>
<event>
 5   0  0.9418945E-08  0.3532296E+04  0.7818609E-02  0.8106179E-01
        1   -1    0    0  501    0  0.00000000000E+00  0.00000000000E+00  0.20674569215E+04  0.20674569215E+04  0.50400001928E-02 0. -1.
       -1   -1    0    0    0  501  0.00000000000E+00  0.00000000000E+00 -0.15087512540E+04  0.15087512540E+04  0.50400001928E-02 0.  1.
    10030    2    1    2    0    0  0.00000000000E+00  0.00000000000E+00  0.55870566749E+03  0.35762081755E+04  0.35322956971E+04 0.  0.
        5    1    3    3  502    0  0.22269216162E+03  0.25693651359E+03  0.20340018395E+04  0.20622302839E+04  0.46999998093E+01 0. -1.
       -5    1    3    3    0  502 -0.22269216162E+03 -0.25693651359E+03 -0.14752961720E+04  0.15139778915E+04  0.46999998093E+01 0.  1.
</event>
<event>
 5   0  0.9646615E-08  0.3706753E+04  0.7818609E-02  0.8066467E-01
        1   -1    0    0  501    0  0.00000000000E+00  0.00000000000E+00  0.20343738445E+04  0.20343738445E+04  0.50400001928E-02 0. -1.
       -1   -1    0    0    0  501  0.00000000000E+00  0.00000000000E+00 -0.16884824309E+04  0.16884824310E+04  0.50400001928E-02 0.  1.
    10030    2    1    2    0    0  0.00000000000E+00  0.00000000000E+00  0.34589141354E+03  0.37228562755E+04  0.37067530236E+04 0.  0.
        2    1    3    3  502    0  0.69444946301E+03  0.16983305037E+04 -0.89758852342E+02  0.18370201981E+04  0.25500000920E-02 0.  1.
       -2    1    3    3    0  502 -0.69444946301E+03 -0.16983305037E+04  0.43565026588E+03  0.18858360774E+04  0.25500000920E-02 0. -1.
</event>
<event>
 5   0  0.2996969E-07  0.3702273E+04  0.7818609E-02  0.8067458E-01
       -2   -1    0    0    0  501  0.00000000000E+00  0.00000000000E+00  0.18271909109E+04  0.18271909109E+04  0.25500000920E-02 0.  1.
        2   -1    0    0  501    0  0.00000000000E+00  0.00000000000E+00 -0.18753955410E+04  0.18753955410E+04  0.25500000920E-02 0. -1.
    10030    2    1    2    0    0  0.00000000000E+00  0.00000000000E+00 -0.48204630151E+02  0.37025864519E+04  0.37022726463E+04 0.  0.
        1    1    3    3  502    0 -0.57571503484E+03  0.11525810688E+04  0.13052261956E+04  0.18339864621E+04  0.50400001928E-02 0.  1.
       -1    1    3    3    0  502  0.57571503484E+03 -0.11525810688E+04 -0.13534308258E+04  0.18685999898E+04  0.50400001928E-02 0. -1.
</event>
<event>
 5   0  0.2996969E-07  0.3715794E+04  0.7818609E-02  0.8064471E-01
        2   -1    0    0  501    0  0.00000000000E+00  0.00000000000E+00  0.20349270929E+04  0.20349270929E+04  0.25500000920E-02 0.  1.
       -2   -1    0    0    0  501  0.00000000000E+00  0.00000000000E+00 -0.16962679662E+04  0.16962679662E+04  0.25500000920E-02 0. -1.
    10030    2    1    2    0    0  0.00000000000E+00  0.00000000000E+00  0.33865912667E+03  0.37311950591E+04  0.37157942038E+04 0.  0.
        1    1    3    3  502    0 -0.82667596088E+03 -0.81395513849E+03 -0.12878451243E+04  0.17333381598E+04  0.50400001928E-02 0. -1.
       -1    1    3    3    0  502  0.82667596088E+03  0.81395513849E+03  0.16265042510E+04  0.19978568994E+04  0.50400001928E-02 0.  1.
</event>
<event>
 5   0  0.3008879E-07  0.3706494E+04  0.7818609E-02  0.8066524E-01
       -2   -1    0    0    0  501  0.00000000000E+00  0.00000000000E+00  0.26177821844E+04  0.26177821844E+04  0.25500000920E-02 0.  1.
        2   -1    0    0  501    0  0.00000000000E+00  0.00000000000E+00 -0.13119978439E+04  0.13119978439E+04  0.25500000920E-02 0. -1.
    10030    2    1    2    0    0  0.00000000000E+00  0.00000000000E+00  0.13057843405E+04  0.39297800284E+04  0.37064940749E+04 0.  0.
        2    1    3    3  502    0 -0.57503805581E+03 -0.15706951165E+04  0.14989443287E+04  0.22460155865E+04  0.25500000920E-02 0.  1.
       -2    1    3    3    0  502  0.57503805581E+03  0.15706951165E+04 -0.19315998816E+03  0.16837644418E+04  0.25500000920E-02 0. -1.
</event>
<event>
 5   0  0.9341000E-08  0.3725569E+04  0.7818609E-02  0.8062319E-01
        1   -1    0    0  501    0  0.00000000000E+00  0.00000000000E+00  0.23335028208E+04  0.23335028208E+04  0.50400001928E-02 0. -1.
       -1   -1    0    0    0  501  0.00000000000E+00  0.00000000000E+00 -0.14870199275E+04  0.14870199275E+04  0.50400001928E-02 0.  1.
    10030    2    1    2    0    0  0.00000000000E+00  0.00000000000E+00  0.84648289325E+03  0.38205227483E+04  0.37255685179E+04 0.  0.
        4    1    3    3  502    0 -0.32804331194E+03  0.15513660851E+04  0.14257119117E+04  0.21323707962E+04  0.12699999809E+01 0. -1.
       -4    1    3    3    0  502  0.32804331194E+03 -0.15513660851E+04 -0.57922901849E+03  0.16881519520E+04  0.12699999809E+01 0.  1.
</event>
<event>
 5   0  0.9341000E-08  0.3686919E+04  0.7818609E-02  0.8070867E-01
        1   -1    0    0  501    0  0.00000000000E+00  0.00000000000E+00  0.19441816828E+04  0.19441816828E+04  0.50400001928E-02 0. -1.
       -1   -1    0    0    0  501  0.00000000000E+00  0.00000000000E+00 -0.17479558332E+04  0.17479558332E+04  0.50400001928E-02 0.  1.
    10030    2    1    2    0    0  0.00000000000E+00  0.00000000000E+00  0.19622584958E+03  0.36921375160E+04  0.36869194259E+04 0.  0.
        4    1    3    3  502    0  0.14054279515E+04 -0.11589949373E+04 -0.18485576238E+03  0.18310298352E+04  0.12699999809E+01 0. -1.
       -4    1    3    3    0  502 -0.14054279515E+04  0.11589949373E+04  0.38108161195E+03  0.18611076808E+04  0.12699999809E+01 0.  1.
</event>
<event>
 5   0  0.9341000E-08  0.3388093E+04  0.7818609E-02  0.8140835E-01
       -1   -1    0    0    0  501  0.00000000000E+00  0.00000000000E+00  0.14274868997E+04  0.14274868997E+04  0.50400001928E-02 0. -1.
        1   -1    0    0  501    0  0.00000000000E+00  0.00000000000E+00 -0.20103815261E+04  0.20103815261E+04  0.50400001928E-02 0.  1.
    10030    2    1    2    0    0  0.00000000000E+00  0.00000000000E+00 -0.58289462633E+03  0.34378684258E+04  0.33880928511E+04 0.  0.
        1    1    3    3  502    0 -0.78743581652E+03 -0.83610271833E+03 -0.15550009790E+04  0.19331712199E+04  0.50400001928E-02 0.  1.
       -1    1    3    3    0  502  0.78743581652E+03  0.83610271833E+03  0.97210635263E+03  0.15046972059E+04  0.50400001928E-02 0. -1.
</event>
<event>
 5   0  0.9646615E-08  0.3692141E+04  0.7818609E-02  0.8069706E-01
       -1   -1    0    0    0  501  0.00000000000E+00  0.00000000000E+00  0.23842626185E+04  0.23842626185E+04  0.50400001928E-02 0. -1.
        1   -1    0    0  501    0  0.00000000000E+00  0.00000000000E+00 -0.14293629743E+04  0.14293629743E+04  0.50400001928E-02 0.  1.
    10030    2    1    2    0    0  0.00000000000E+00  0.00000000000E+00  0.95489964422E+03  0.38136255929E+04  0.36921412259E+04 0.  0.
        2    1    3    3  502    0 -0.11986843018E+04 -0.31867585249E+03 -0.93486521896E+03  0.15531810365E+04  0.25500000920E-02 0.  1.
       -2    1    3    3    0  502  0.11986843018E+04  0.31867585249E+03  0.18897648632E+04  0.22604445564E+04  0.25500000920E-02 0. -1.
</event>
<event>
 5   0  0.9646615E-08  0.3765835E+04  0.7818609E-02  0.8053526E-01
       -1   -1    0    0    0  501  0.00000000000E+00  0.00000000000E+00  0.23770045022E+04  0.23770045022E+04  0.50400001928E-02 0.  1.
        1   -1    0    0  501    0  0.00000000000E+00  0.00000000000E+00 -0.14915323859E+04  0.14915323859E+04  0.50400001928E-02 0. -1.
    10030    2    1    2    0    0  0.00000000000E+00  0.00000000000E+00  0.88547211626E+03  0.38685368881E+04  0.37658354698E+04 0.  0.
        2    1    3    3  502    0 -0.17935617641E+04 -0.46435948118E+03  0.78788361416E+03  0.20132695097E+04  0.25500000920E-02 0.  1.
       -2    1    3    3    0  502  0.17935617641E+04  0.46435948118E+03  0.97588502103E+02  0.18552673783E+04  0.25500000920E-02 0. -1.
</event>
<event>
 5   0  0.3032442E-07  0.3692985E+04  0.7818609E-02  0.8069518E-01
        2   -1    0    0  501    0  0.00000000000E+00  0.00000000000E+00  0.20168445092E+04  0.20168445092E+04  0.25500000920E-02 0.  1.
       -2   -1    0    0    0  501  0.00000000000E+00  0.00000000000E+00 -0.16905293930E+04  0.16905293930E+04  0.25500000920E-02 0. -1.
    10030    2    1    2    0    0  0.00000000000E+00  0.00000000000E+00  0.32631511615E+03  0.37073739022E+04  0.36929852011E+04 0.  0.
        3    1    3    3  502    0  0.12582017688E+04  0.12930358025E+04  0.55778153614E+03  0.18884209090E+04  0.10100000352E+00 0.  1.
       -3    1    3    3    0  502 -0.12582017688E+04 -0.12930358025E+04 -0.23146641999E+03  0.18189529931E+04  0.10100000352E+00 0. -1.
</event>
<event>
 5   0  0.2996969E-07  0.3714419E+04  0.7818609E-02  0.8064774E-01
        2   -1    0    0  501    0  0.00000000000E+00  0.00000000000E+00  0.13592624703E+04  0.13592624703E+04  0.25500000920E-02 0. -1.
       -2   -1    0    0    0  501  0.00000000000E+00  0.00000000000E+00 -0.25375719889E+04  0.25375719889E+04  0.25500000920E-02 0.  1.
    10030    2    1    2    0    0  0.00000000000E+00  0.00000000000E+00 -0.11783095185E+04  0.38968344592E+04  0.37144185926E+04 0.  0.
        1    1    3    3  502    0 -0.73790664772E+03  0.16421467521E+04 -0.11060156097E+03  0.18037141906E+04  0.50400001928E-02 0. -1.
       -1    1    3    3    0  502  0.73790664772E+03 -0.16421467521E+04 -0.10677079576E+04  0.20931202686E+04  0.50400001928E-02 0.  1.
</event>
<event>
 5   0  0.3032442E-07  0.3696706E+04  0.7818609E-02  0.8068692E-01
        2   -1    0    0  501    0  0.00000000000E+00  0.00000000000E+00  0.25095506726E+04  0.25095506726E+04  0.25500000920E-02 0. -1.
       -2   -1    0    0    0  501  0.00000000000E+00  0.00000000000E+00 -0.13613628791E+04  0.13613628791E+04  0.25500000920E-02 0.  1.
    10030    2    1    2    0    0  0.00000000000E+00  0.00000000000E+00  0.11481877935E+04  0.38709135516E+04  0.36967061710E+04 0.  0.
        3    1    3    3  502    0 -0.66135402028E+03 -0.43343958550E+03  0.23234979820E+04  0.24543638477E+04  0.10100000352E+00 0. -1.
       -3    1    3    3    0  502  0.66135402028E+03  0.43343958550E+03 -0.11753101885E+04  0.14165497039E+04  0.10100000352E+00 0.  1.
</event>
<event>
 5   0  0.9341000E-08  0.3391420E+04  0.7818609E-02  0.8140015E-01
       -1   -1    0    0    0  501  0.00000000000E+00  0.00000000000E+00  0.18310445958E+04  0.18310445958E+04  0.50400001928E-02 0. -1.
        1   -1    0    0  501    0  0.00000000000E+00  0.00000000000E+00 -0.15703784304E+04  0.15703784304E+04  0.50400001928E-02 0.  1.
    10030    2    1    2    0    0  0.00000000000E+00  0.00000000000E+00  0.26066616542E+03  0.34014230262E+04  0.33914203150E+04 0.  0.
        1    1    3    3  502    0  0.13038239155E+04 -0.73562771601E+03  0.92912924697E+03  0.17619268137E+04  0.50400001928E-02 0. -1.
       -1    1    3    3    0  502 -0.13038239155E+04  0.73562771601E+03 -0.66846308155E+03  0.16394962125E+04  0.50400001928E-02 0.  1.
</event>
<event>
 5   0  0.3008879E-07  0.3700558E+04  0.7818609E-02  0.8067838E-01
       -2   -1    0    0    0  501  0.00000000000E+00  0.00000000000E+00  0.16991700194E+04  0.16991700194E+04  0.25500000920E-02 0.  1.
        2   -1    0    0  501    0  0.00000000000E+00  0.00000000000E+00 -0.20148258934E+04  0.20148258934E+04  0.25500000920E-02 0. -1.
    10030    2    1    2    0    0  0.00000000000E+00  0.00000000000E+00 -0.31565587403E+03  0.37139959128E+04  0.37005576620E+04 0.  0.
        2    1    3    3  502    0 -0.63167387326E+03  0.15509823110E+04  0.63177791488E+03  0.17898886404E+04  0.25500000920E-02 0.  1.
       -2    1    3    3    0  502  0.63167387326E+03 -0.15509823110E+04 -0.94743378891E+03  0.19241072724E+04  0.25500000920E-02 0. -1.
</event>
<event>
 5   0  0.3008879E-07  0.3700494E+04  0.7818609E-02  0.8067852E-01
       -2   -1    0    0    0  501  0.00000000000E+00  0.00000000000E+00  0.20268775335E+04  0.20268775335E+04  0.25500000920E-02 0.  1.
        2   -1    0    0  501    0  0.00000000000E+00  0.00000000000E+00 -0.16890087744E+04  0.16890087744E+04  0.25500000920E-02 0. -1.
    10030    2    1    2    0    0  0.00000000000E+00  0.00000000000E+00  0.33786875910E+03  0.37158863079E+04  0.37004939879E+04 0.  0.
        2    1    3    3  502    0 -0.65956397518E+03  0.10671713980E+04 -0.11966984047E+04  0.17337723328E+04  0.25500000920E-02 0. -1.
       -2    1    3    3    0  502  0.65956397518E+03 -0.10671713980E+04  0.15345671638E+04  0.19821139751E+04  0.25500000920E-02 0.  1.
</event>
<event>
 5   0  0.9341000E-08  0.3664460E+04  0.7818609E-02  0.8075884E-01
       -1   -1    0    0    0  501  0.00000000000E+00  0.00000000000E+00  0.14121716285E+04  0.14121716285E+04  0.50400001928E-02 0.  1.
        1   -1    0    0  501    0  0.00000000000E+00  0.00000000000E+00 -0.23772375256E+04  0.23772375256E+04  0.50400001928E-02 0. -1.
    10030    2    1    2    0    0  0.00000000000E+00  0.00000000000E+00 -0.96506589709E+03  0.37894091541E+04  0.36644603357E+04 0.  0.
        1    1    3    3  502    0 -0.92010756295E+02  0.16613813549E+04  0.31070366678E+03  0.16926874354E+04  0.50400001928E-02 0.  1.
       -1    1    3    3    0  502  0.92010756295E+02 -0.16613813549E+04 -0.12757695639E+04  0.20967217187E+04  0.50400001928E-02 0. -1.
</event>
<event>
 5   0  0.9341000E-08  0.3728463E+04  0.7818609E-02  0.8061683E-01
        1   -1    0    0  501    0  0.00000000000E+00  0.00000000000E+00  0.17625328530E+04  0.17625328530E+04  0.50400001928E-02 0.  1.
       -1   -1    0    0    0  501  0.00000000000E+00  0.00000000000E+00 -0.19717980503E+04  0.19717980503E+04  0.50400001928E-02 0. -1.
    10030    2    1    2    0    0  0.00000000000E+00  0.00000000000E+00 -0.20926519732E+03  0.37343309033E+04  0.37284628699E+04 0.  0.
        4    1    3    3  502    0 -0.16627072900E+04 -0.18773922134E+03 -0.92782375125E+03  0.19132956055E+04  0.12699999809E+01 0. -1.
       -4    1    3    3    0  502  0.16627072900E+04  0.18773922134E+03  0.71855855393E+03  0.18210352978E+04  0.12699999809E+01 0.  1.
</event>
<event>
 5   0  0.9418945E-08  0.3639686E+04  0.7818609E-02  0.8081461E-01
        1   -1    0    0  501    0  0.00000000000E+00  0.00000000000E+00  0.31759818447E+04  0.31759818447E+04  0.50400001928E-02 0.  1.
       -1   -1    0    0    0  501  0.00000000000E+00  0.00000000000E+00 -0.10427732212E+04  0.10427732212E+04  0.50400001928E-02 0. -1.
    10030    2    1    2    0    0  0.00000000000E+00  0.00000000000E+00  0.21332086235E+04  0.42187550659E+04  0.36396861506E+04 0.  0.
        5    1    3    3  502    0  0.58264241548E+03 -0.66073099198E+03 -0.77915568084E+03  0.11760711259E+04  0.46999998093E+01 0. -1.
       -5    1    3    3    0  502 -0.58264241548E+03  0.66073099198E+03  0.29123643043E+04  0.30426839401E+04  0.46999998093E+01 0.  1.
</event>
<event>
 5   0  0.2897133E-07  0.3693505E+04  0.7818609E-02  0.8069403E-01
        2   -1    0    0  501    0  0.00000000000E+00  0.00000000000E+00  0.21594242707E+04  0.21594242707E+04  0.25500000920E-02 0. -1.
       -2   -1    0    0    0  501  0.00000000000E+00  0.00000000000E+00 -0.15793534418E+04  0.15793534418E+04  0.25500000920E-02 0.  1.
    10030    2    1    2    0    0  0.00000000000E+00  0.00000000000E+00  0.58007082883E+03  0.37387777125E+04  0.36935046524E+04 0.  0.
        4    1    3    3  502    0 -0.15654170543E+04  0.69436066664E+03  0.98975743810E+03  0.19779506284E+04  0.12699999809E+01 0. -1.
       -4    1    3    3    0  502  0.15654170543E+04 -0.69436066664E+03 -0.40968660927E+03  0.17608270841E+04  0.12699999809E+01 0.  1.
</event>
<event>
 5   0  0.9418945E-08  0.3703152E+04  0.7818609E-02  0.8067264E-01
        1   -1    0    0  501    0  0.00000000000E+00  0.00000000000E+00  0.12386721454E+04  0.12386721454E+04  0.50400001928E-02 0.  1.
       -1   -1    0    0    0  501  0.00000000000E+00  0.00000000000E+00 -0.27677489547E+04  0.27677489547E+04  0.50400001928E-02 0. -1.
    10030    2    1    2    0    0  0.00000000000E+00  0.00000000000E+00 -0.15290768093E+04  0.40064211001E+04  0.37031519199E+04 0.  0.
        5    1    3    3  502    0  0.18282152182E+04 -0.12599987022E+03 -0.10509129222E+04  0.21125072571E+04  0.46999998093E+01 0. -1.
       -5    1    3    3    0  502 -0.18282152182E+04  0.12599987022E+03 -0.47816388712E+03  0.18939138429E+04  0.46999998093E+01 0.  1.
</event>
<event>
 5   0  0.2996969E-07  0.3711837E+04  0.7818609E-02  0.8065344E-01
       -2   -1    0    0    0  501  0.00000000000E+00  0.00000000000E+00  0.26248294754E+04  0.26248294754E+04  0.25500000920E-02 0. -1.
        2   -1    0    0  501    0  0.00000000000E+00  0.00000000000E+00 -0.13122507243E+04  0.13122507243E+04  0.25500000920E-02 0.  1.
    10030    2    1    2    0    0  0.00000000000E+00  0.00000000000E+00  0.13125787511E+04  0.39370801997E+04  0.37118374858E+04 0.  0.
        1    1    3    3  502    0  0.12425970006E+04 -0.13652861032E+04  0.85860163951E+03  0.20359887586E+04  0.50400001928E-02 0. -1.
       -1    1    3    3    0  502 -0.12425970006E+04  0.13652861032E+04  0.45397711158E+03  0.19010914411E+04  0.50400001928E-02 0.  1.
</event>
<event>
 5   0  0.9418945E-08  0.3772047E+04  0.7818609E-02  0.8052180E-01
       -1   -1    0    0    0  501  0.00000000000E+00  0.00000000000E+00  0.16788089481E+04  0.16788089481E+04  0.50400001928E-02 0.  1.
        1   -1    0    0  501    0  0.00000000000E+00  0.00000000000E+00 -0.21188148085E+04  0.21188148085E+04  0.50400001928E-02 0. -1.
    10030    2    1    2    0    0  0.00000000000E+00  0.00000000000E+00 -0.44000586044E+03  0.37976237566E+04  0.37720473273E+04 0.  0.
        5    1    3    3  502    0  0.22247840340E+03  0.18664127494E+04 -0.63805941736E+02  0.18807143534E+04  0.46999998093E+01 0. -1.
       -5    1    3    3    0  502 -0.22247840340E+03 -0.18664127494E+04 -0.37619991870E+03  0.19169094031E+04  0.46999998093E+01 0.  1.
</event>
<event>
 5   0  0.9341000E-08  0.3737709E+04  0.7818609E-02  0.8059656E-01
       -1   -1    0    0    0  501  0.00000000000E+00  0.00000000000E+00  0.14693343260E+04  0.14693343260E+04  0.50400001928E-02 0. -1.
        1   -1    0    0  501    0  0.00000000000E+00  0.00000000000E+00 -0.23770059489E+04  0.23770059489E+04  0.50400001928E-02 0.  1.
    10030    2    1    2    0    0  0.00000000000E+00  0.00000000000E+00 -0.90767162285E+03  0.38463402749E+04  0.37377086210E+04 0.  0.
        3    1    3    3  502    0  0.92434398340E+03  0.14637628155E+04  0.27061556650E+03  0.17522117950E+04  0.10100000352E+00 0.  1.
       -3    1    3    3    0  502 -0.92434398340E+03 -0.14637628155E+04 -0.11782871893E+04  0.20941284799E+04  0.10100000352E+00 0. -1.
</event>
<event>
 5   0  0.9341000E-08  0.3832607E+04  0.7818609E-02  0.8039193E-01
        1   -1    0    0  501    0  0.00000000000E+00  0.00000000000E+00  0.24848731205E+04  0.24848731205E+04  0.50400001928E-02 0.  1.
       -1   -1    0    0    0  501  0.00000000000E+00  0.00000000000E+00 -0.14778298064E+04  0.14778298064E+04  0.50400001928E-02 0. -1.
    10030    2    1    2    0    0  0.00000000000E+00  0.00000000000E+00  0.10070433141E+04  0.39627029269E+04  0.38326072393E+04 0.  0.
        3    1    3    3  502    0 -0.73500667998E+03 -0.81524361792E+03 -0.11205817848E+04  0.15686173921E+04  0.10100000352E+00 0. -1.
       -3    1    3    3    0  502  0.73500667998E+03  0.81524361792E+03  0.21276250989E+04  0.23940855348E+04  0.10100000352E+00 0.  1.
</event>
<event>
 5   0  0.9341000E-08  0.3708892E+04  0.7818609E-02  0.8065994E-01
        3   -1    0    0  501    0  0.00000000000E+00  0.00000000000E+00  0.15778196386E+04  0.15778196419E+04  0.10100000352E+00 0.  1.
       -3   -1    0    0    0  501  0.00000000000E+00  0.00000000000E+00 -0.21795710703E+04  0.21795710726E+04  0.10100000352E+00 0. -1.
    10030    2    1    2    0    0  0.00000000000E+00  0.00000000000E+00 -0.60175143165E+03  0.37573907145E+04  0.37088920443E+04 0.  0.
        1    1    3    3  502    0  0.19974776985E+03  0.73501312238E+03  0.14120403061E+04  0.16043694362E+04  0.50400001928E-02 0.  1.
       -1    1    3    3    0  502 -0.19974776985E+03 -0.73501312238E+03 -0.20137917378E+04  0.21530212783E+04  0.50400001928E-02 0. -1.
</event>
<event>
 5   0  0.2897133E-07  0.3845923E+04  0.7818609E-02  0.8036371E-01
       -2   -1    0    0    0  501  0.00000000000E+00  0.00000000000E+00  0.30680482281E+04  0.30680482281E+04  0.25500000920E-02 0.  1.
        2   -1    0    0  501    0  0.00000000000E+00  0.00000000000E+00 -0.12052554010E+04  0.12052554010E+04  0.25500000920E-02 0. -1.
    10030    2    1    2    0    0  0.00000000000E+00  0.00000000000E+00  0.18627928271E+04  0.42733036290E+04  0.38459233988E+04 0.  0.
        4    1    3    3  502    0 -0.28825019837E+03  0.89847591294E+03 -0.93033838937E+03  0.13250955719E+04  0.12699999809E+01 0. -1.
       -4    1    3    3    0  502  0.28825019837E+03 -0.89847591294E+03  0.27931312164E+04  0.29482080571E+04  0.12699999809E+01 0.  1.
</event>
<event>
 5   0  0.3032442E-07  0.3896826E+04  0.7818609E-02  0.8025690E-01
       -2   -1    0    0    0  501  0.00000000000E+00  0.00000000000E+00  0.19189056250E+04  0.19189056250E+04  0.25500000920E-02 0.  1.
        2   -1    0    0  501    0  0.00000000000E+00  0.00000000000E+00 -0.19783745163E+04  0.19783745163E+04  0.25500000920E-02 0. -1.
    10030    2    1    2    0    0  0.00000000000E+00  0.00000000000E+00 -0.59468891262E+02  0.38972801413E+04  0.38968263947E+04 0.  0.
        3    1    3    3  502    0  0.73369271514E+01  0.36664691896E+03 -0.19435481776E+04  0.19778430985E+04  0.10100000352E+00 0. -1.
       -3    1    3    3    0  502 -0.73369271514E+01 -0.36664691896E+03  0.18840792863E+04  0.19194370427E+04  0.10100000352E+00 0.  1.
</event>
<event>
 5   0  0.3008879E-07  0.3709873E+04  0.7818609E-02  0.8065777E-01
       -2   -1    0    0    0  501  0.00000000000E+00  0.00000000000E+00  0.19610605820E+04  0.19610605820E+04  0.25500000920E-02 0. -1.
        2   -1    0    0  501    0  0.00000000000E+00  0.00000000000E+00 -0.17545550847E+04  0.17545550847E+04  0.25500000920E-02 0.  1.
    10030    2    1    2    0    0  0.00000000000E+00  0.00000000000E+00  0.20650549725E+03  0.37156156667E+04  0.37098726747E+04 0.  0.
        2    1    3    3  502    0 -0.96993302991E+03 -0.15348541928E+04  0.48363185586E+03  0.18789484420E+04  0.25500000920E-02 0. -1.
       -2    1    3    3    0  502  0.96993302991E+03  0.15348541928E+04 -0.27712635861E+03  0.18366672247E+04  0.25500000920E-02 0.  1.
</event>
<event>
 5   0  0.2996969E-07  0.3596559E+04  0.7818609E-02  0.8091280E-01
        2   -1    0    0  501    0  0.00000000000E+00  0.00000000000E+00  0.17494939072E+04  0.17494939072E+04  0.25500000920E-02 0. -1.
       -2   -1    0    0    0  501  0.00000000000E+00  0.00000000000E+00 -0.18484256761E+04  0.18484256761E+04  0.25500000920E-02 0.  1.
    10030    2    1    2    0    0  0.00000000000E+00  0.00000000000E+00 -0.98931768886E+02  0.35979195834E+04  0.35965591659E+04 0.  0.
        1    1    3    3  502    0  0.16515857612E+04 -0.81246163174E+02 -0.75646724296E+03  0.18184001637E+04  0.50400001928E-02 0.  1.
       -1    1    3    3    0  502 -0.16515857612E+04  0.81246163174E+02  0.65753547408E+03  0.17795194197E+04  0.50400001928E-02 0. -1.
</event>
<event>
 5   0  0.2913025E-07  0.3847706E+04  0.7818609E-02  0.8035994E-01
       -2   -1    0    0    0  501  0.00000000000E+00  0.00000000000E+00  0.20286712164E+04  0.20286712164E+04  0.25500000920E-02 0. -1.
        2   -1    0    0  501    0  0.00000000000E+00  0.00000000000E+00 -0.18244503050E+04  0.18244503050E+04  0.25500000920E-02 0.  1.
    10030    2    1    2    0    0  0.00000000000E+00  0.00000000000E+00  0.20422091136E+03  0.38531215215E+04  0.38477057162E+04 0.  0.
        5    1    3    3  502    0 -0.89848344845E+03 -0.13752000043E+03 -0.15958596680E+04  0.18365659334E+04  0.46999998093E+01 0.  1.
       -5    1    3    3    0  502  0.89848344845E+03  0.13752000043E+03  0.18000805794E+04  0.20165555881E+04  0.46999998093E+01 0. -1.
</event>
<event>
 5   0  0.3032442E-07  0.3692739E+04  0.7818609E-02  0.8069573E-01
       -2   -1    0    0    0  501  0.00000000000E+00  0.00000000000E+00  0.17545597778E+04  0.17545597778E+04  0.25500000920E-02 0. -1.
        2   -1    0    0  501    0  0.00000000000E+00  0.00000000000E+00 -0.19429837074E+04  0.19429837074E+04  0.25500000920E-02 0.  1.
    10030    2    1    2    0    0  0.00000000000E+00  0.00000000000E+00 -0.18842392961E+03  0.36975434852E+04  0.36927393962E+04 0.  0.
        3    1    3    3  502    0  0.91882352450E+03  0.36396449760E+03  0.14674240890E+04  0.17691919884E+04  0.10100000352E+00 0. -1.
       -3    1    3    3    0  502 -0.91882352450E+03 -0.36396449760E+03 -0.16558480186E+04  0.19283514969E+04  0.10100000352E+00 0.  1.
</event>
<event>
 5   0  0.9341000E-08  0.3583568E+04  0.7818609E-02  0.8094266E-01
       -1   -1    0    0    0  501  0.00000000000E+00  0.00000000000E+00  0.11514635513E+04  0.11514635513E+04  0.50400001928E-02 0. -1.
        1   -1    0    0  501    0  0.00000000000E+00  0.00000000000E+00 -0.27881818308E+04  0.27881818308E+04  0.50400001928E-02 0.  1.
    10030    2    1    2    0    0  0.00000000000E+00  0.00000000000E+00 -0.16367182795E+04  0.39396453821E+04  0.35835679162E+04 0.  0.
        3    1    3    3  502    0 -0.63847068368E+02 -0.65814700389E+03 -0.26491403988E+04  0.27304173289E+04  0.10100000352E+00 0.  1.
       -3    1    3    3    0  502  0.63847068368E+02  0.65814700389E+03  0.10124221193E+04  0.12092280532E+04  0.10100000352E+00 0. -1.
</event>
<event>
 5   0  0.9341000E-08  0.3707672E+04  0.7818609E-02  0.8066264E-01
        1   -1    0    0  501    0  0.00000000000E+00  0.00000000000E+00  0.19378428191E+04  0.19378428191E+04  0.50400001928E-02 0.  1.
       -1   -1    0    0    0  501  0.00000000000E+00  0.00000000000E+00 -0.17734705144E+04  0.17734705144E+04  0.50400001928E-02 0. -1.
    10030    2    1    2    0    0  0.00000000000E+00  0.00000000000E+00  0.16437230471E+03  0.37113133336E+04  0.37076715611E+04 0.  0.
        3    1    3    3  502    0 -0.31674655796E+03 -0.73623039729E+03  0.17554570696E+04  0.19297650409E+04  0.10100000352E+00 0.  1.
       -3    1    3    3    0  502  0.31674655796E+03  0.73623039729E+03 -0.15910847648E+04  0.17815482926E+04  0.10100000352E+00 0. -1.
</event>
<event>
 5   0  0.9418945E-08  0.3645515E+04  0.7818609E-02  0.8080145E-01
       -1   -1    0    0    0  501  0.00000000000E+00  0.00000000000E+00  0.10984080471E+04  0.10984080471E+04  0.50400001928E-02 0. -1.
        1   -1    0    0  501    0  0.00000000000E+00  0.00000000000E+00 -0.30247822557E+04  0.30247822557E+04  0.50400001928E-02 0.  1.
    10030    2    1    2    0    0  0.00000000000E+00  0.00000000000E+00 -0.19263742086E+04  0.41231903028E+04  0.36455151462E+04 0.  0.
        5    1    3    3  502    0  0.12775994776E+04  0.69604878748E+03 -0.22050975342E+04  0.26418216377E+04  0.46999998093E+01 0.  1.
       -5    1    3    3    0  502 -0.12775994776E+04 -0.69604878748E+03  0.27872332559E+03  0.14813686651E+04  0.46999998093E+01 0. -1.
</event>
<event>
 5   0  0.9341000E-08  0.3699003E+04  0.7818609E-02  0.8068183E-01
        1   -1    0    0  501    0  0.00000000000E+00  0.00000000000E+00  0.22687912876E+04  0.22687912877E+04  0.50400001928E-02 0.  1.
       -1   -1    0    0    0  501  0.00000000000E+00  0.00000000000E+00 -0.15076999358E+04  0.15076999359E+04  0.50400001928E-02 0. -1.
    10030    2    1    2    0    0  0.00000000000E+00  0.00000000000E+00  0.76109135180E+03  0.37764912235E+04  0.36990033679E+04 0.  0.
        3    1    3    3  502    0  0.10242485924E+04 -0.19405147927E+03 -0.11791730983E+04  0.15739092609E+04  0.10100000352E+00 0. -1.
       -3    1    3    3    0  502 -0.10242485924E+04  0.19405147927E+03  0.19402644501E+04  0.22025819626E+04  0.10100000352E+00 0.  1.
</event>
<event>
 5   0  0.3008879E-07  0.3773771E+04  0.7818609E-02  0.8051807E-01
       -2   -1    0    0    0  501  0.00000000000E+00  0.00000000000E+00  0.29996695029E+04  0.29996695029E+04  0.25500000920E-02 0. -1.
        2   -1    0    0  501    0  0.00000000000E+00  0.00000000000E+00 -0.11869095299E+04  0.11869095299E+04  0.25500000920E-02 0.  1.
    10030    2    1    2    0    0  0.00000000000E+00  0.00000000000E+00  0.18127599730E+04  0.41865790328E+04  0.37737706975E+04 0.  0.
        2    1    3    3  502    0  0.50594216316E+03  0.66122810053E+03 -0.97210596570E+03  0.12799179981E+04  0.25500000920E-02 0.  1.
       -2    1    3    3    0  502 -0.50594216316E+03 -0.66122810053E+03  0.27848659387E+04  0.29066610346E+04  0.25500000920E-02 0. -1.
</event>
<event>
 5   0  0.3032442E-07  0.3707920E+04  0.7818609E-02  0.8066209E-01
        2   -1    0    0  501    0  0.00000000000E+00  0.00000000000E+00  0.18215893942E+04  0.18215893942E+04  0.25500000920E-02 0.  1.
       -2   -1    0    0    0  501  0.00000000000E+00  0.00000000000E+00 -0.18869060322E+04  0.18869060323E+04  0.25500000920E-02 0. -1.
    10030    2    1    2    0    0  0.00000000000E+00  0.00000000000E+00 -0.65316638043E+02  0.37084954265E+04  0.37079201805E+04 0.  0.
        3    1    3    3  502    0  0.39042313989E+02  0.31500760467E+03 -0.18595270100E+04  0.18864238136E+04  0.10100000352E+00 0. -1.
       -3    1    3    3    0  502 -0.39042313989E+02 -0.31500760467E+03  0.17942103720E+04  0.18220716129E+04  0.10100000352E+00 0.  1.
</event>
<event>
 5   0  0.9341000E-08  0.3668985E+04  0.7818609E-02  0.8074870E-01
       -1   -1    0    0    0  501  0.00000000000E+00  0.00000000000E+00  0.13002847842E+04  0.13002847842E+04  0.50400001928E-02 0.  1.
        1   -1    0    0  501    0  0.00000000000E+00  0.00000000000E+00 -0.25881737475E+04  0.25881737475E+04  0.50400001928E-02 0. -1.
    10030    2    1    2    0    0  0.00000000000E+00  0.00000000000E+00 -0.12878889633E+04  0.38884585317E+04  0.36689851145E+04 0.  0.
        3    1    3    3  502    0  0.15084881337E+04  0.93338129130E+03 -0.14840042071E+03  0.17801010588E+04  0.10100000352E+00 0.  1.
       -3    1    3    3    0  502 -0.15084881337E+04 -0.93338129130E+03 -0.11394885426E+04  0.21083574729E+04  0.10100000352E+00 0. -1.
</event>
<event>
 5   0  0.9646615E-08  0.3647979E+04  0.7818609E-02  0.8079589E-01
       -1   -1    0    0    0  501  0.00000000000E+00  0.00000000000E+00  0.17259209235E+04  0.17259209235E+04  0.50400001928E-02 0.  1.
        1   -1    0    0  501    0  0.00000000000E+00  0.00000000000E+00 -0.19276303518E+04  0.19276303518E+04  0.50400001928E-02 0. -1.
    10030    2    1    2    0    0  0.00000000000E+00  0.00000000000E+00 -0.20170942828E+03  0.36535512754E+04  0.36479789238E+04 0.  0.
        2    1    3    3  502    0  0.11937043414E+04  0.34813486001E+03  0.12356535023E+04  0.17529881668E+04  0.25500000920E-02 0.  1.
       -2    1    3    3    0  502 -0.11937043414E+04 -0.34813486001E+03 -0.14373629305E+04  0.19005631085E+04  0.25500000920E-02 0. -1.
</event>
<event>
 5   0  0.3008879E-07  0.3681005E+04  0.7818609E-02  0.8072184E-01
        2   -1    0    0  501    0  0.00000000000E+00  0.00000000000E+00  0.23625427684E+04  0.23625427684E+04  0.25500000920E-02 0. -1.
       -2   -1    0    0    0  501  0.00000000000E+00  0.00000000000E+00 -0.14338148255E+04  0.14338148255E+04  0.25500000920E-02 0.  1.
    10030    2    1    2    0    0  0.00000000000E+00  0.00000000000E+00  0.92872794294E+03  0.37963575939E+04  0.36810046711E+04 0.  0.
        2    1    3    3  502    0  0.11542846790E+04 -0.57195073985E+03  0.18200717545E+04  0.22298345141E+04  0.25500000920E-02 0. -1.
       -2    1    3    3    0  502 -0.11542846790E+04  0.57195073985E+03 -0.89134381154E+03  0.15665230797E+04  0.25500000920E-02 0.  1.
</event>
<event>
 5   0  0.9341000E-08  0.3680457E+04  0.7818609E-02  0.8072307E-01
        1   -1    0    0  501    0  0.00000000000E+00  0.00000000000E+00  0.24700047398E+04  0.24700047398E+04  0.50400001928E-02 0. -1.
       -1   -1    0    0    0  501  0.00000000000E+00  0.00000000000E+00 -0.13710260500E+04  0.13710260500E+04  0.50400001928E-02 0.  1.
    10030    2    1    2    0    0  0.00000000000E+00  0.00000000000E+00  0.10989786898E+04  0.38410307898E+04  0.36804569509E+04 0.  0.
        4    1    3    3  502    0  0.81400739470E+03  0.77992341203E+03  0.20674403749E+04  0.23548248096E+04  0.12699999809E+01 0. -1.
       -4    1    3    3    0  502 -0.81400739470E+03 -0.77992341203E+03 -0.96846168507E+03  0.14862059802E+04  0.12699999809E+01 0.  1.
</event>
<event>
 5   0  0.2996969E-07  0.3711297E+04  0.7818609E-02  0.8065463E-01
       -2   -1    0    0    0  501  0.00000000000E+00  0.00000000000E+00  0.23687200835E+04  0.23687200835E+04  0.25500000920E-02 0. -1.
        2   -1    0    0  501    0  0.00000000000E+00  0.00000000000E+00 -0.14537099088E+04  0.14537099088E+04  0.25500000920E-02 0.  1.
    10030    2    1    2    0    0  0.00000000000E+00  0.00000000000E+00  0.91501017464E+03  0.38224299923E+04  0.37112972700E+04 0.  0.
        1    1    3    3  502    0 -0.69557621369E+03 -0.13630162946E+04  0.15385995387E+04  0.21700065044E+04  0.50400001928E-02 0. -1.
       -1    1    3    3    0  502  0.69557621369E+03  0.13630162946E+04 -0.62358936406E+03  0.16524234879E+04  0.50400001928E-02 0.  1.
</event>
<event>
 5   0  0.9341000E-08  0.3704383E+04  0.7818609E-02  0.8066991E-01
        1   -1    0    0  501    0  0.00000000000E+00  0.00000000000E+00  0.17364185351E+04  0.17364185352E+04  0.50400001928E-02 0.  1.
       -1   -1    0    0    0  501  0.00000000000E+00  0.00000000000E+00 -0.19756835471E+04  0.19756835471E+04  0.50400001928E-02 0. -1.
    10030    2    1    2    0    0  0.00000000000E+00  0.00000000000E+00 -0.23926501197E+03  0.37121020823E+04  0.37043830962E+04 0.  0.
        4    1    3    3  502    0 -0.70067313587E+03 -0.16838818822E+04  0.20385726402E+03  0.18352003797E+04  0.12699999809E+01 0.  1.
       -4    1    3    3    0  502  0.70067313587E+03  0.16838818822E+04 -0.44312227599E+03  0.18769017026E+04  0.12699999809E+01 0. -1.
</event>
<event>
 5   0  0.9341000E-08  0.3527232E+04  0.7818609E-02  0.8107367E-01
        1   -1    0    0  501    0  0.00000000000E+00  0.00000000000E+00  0.23736149759E+04  0.23736149759E+04  0.50400001928E-02 0.  1.
       -1   -1    0    0    0  501  0.00000000000E+00  0.00000000000E+00 -0.13103814829E+04  0.13103814829E+04  0.50400001928E-02 0. -1.
    10030    2    1    2    0    0  0.00000000000E+00  0.00000000000E+00  0.10632334931E+04  0.36839964588E+04  0.35272318392E+04 0.  0.
        3    1    3    3  502    0  0.58500593905E+03 -0.43252786378E+03  0.22095768222E+04  0.23262721348E+04  0.10100000352E+00 0.  1.
       -3    1    3    3    0  502 -0.58500593905E+03  0.43252786378E+03 -0.11463433291E+04  0.13577243240E+04  0.10100000352E+00 0. -1.
</event>
<event>
 5   0  0.9646615E-08  0.3747412E+04  0.7818609E-02  0.8057535E-01
       -1   -1    0    0    0  501  0.00000000000E+00  0.00000000000E+00  0.17257646762E+04  0.17257646762E+04  0.50400001928E-02 0. -1.
        1   -1    0    0  501    0  0.00000000000E+00  0.00000000000E+00 -0.20343299013E+04  0.20343299013E+04  0.50400001928E-02 0.  1.
    10030    2    1    2    0    0  0.00000000000E+00  0.00000000000E+00 -0.30856522512E+03  0.37600945776E+04  0.37474122717E+04 0.  0.
        2    1    3    3  502    0 -0.10550539352E+04  0.14239985578E+04 -0.76450525227E+03  0.19301240840E+04  0.25500000920E-02 0.  1.
       -2    1    3    3    0  502  0.10550539352E+04 -0.14239985578E+04  0.45594002715E+03  0.18299704936E+04  0.25500000920E-02 0. -1.
</event>
<event>
 5   0  0.2996969E-07  0.3662936E+04  0.7818609E-02  0.8076226E-01
        2   -1    0    0  501    0  0.00000000000E+00  0.00000000000E+00  0.20521121112E+04  0.20521121112E+04  0.25500000920E-02 0. -1.
       -2   -1    0    0    0  501  0.00000000000E+00  0.00000000000E+00 -0.16345474398E+04  0.16345474398E+04  0.25500000920E-02 0.  1.
    10030    2    1    2    0    0  0.00000000000E+00  0.00000000000E+00  0.41756467147E+03  0.36866595510E+04  0.36629357611E+04 0.  0.
        1    1    3    3  502    0 -0.31018941996E+03  0.16012542417E+04  0.10472698502E+04  0.19382999670E+04  0.50400001928E-02 0. -1.
       -1    1    3    3    0  502  0.31018941996E+03 -0.16012542417E+04 -0.62970517869E+03  0.17483595840E+04  0.50400001928E-02 0.  1.
</event>
<event>
 5   0  0.2913025E-07  0.3654183E+04  0.7818609E-02  0.8078192E-01
        2   -1    0    0  501    0  0.00000000000E+00  0.00000000000E+00  0.32692250779E+04  0.32692250779E+04  0.25500000920E-02 0. -1.
       -2   -1    0    0    0  501  0.00000000000E+00  0.00000000000E+00 -0.10211173806E+04  0.10211173806E+04  0.25500000920E-02 0.  1.
    10030    2    1    2    0    0  0.00000000000E+00  0.00000000000E+00  0.22481076972E+04  0.42903424585E+04  0.36541825615E+04 0.  0.
        5    1    3    3  502    0  0.12524459063E+04  0.29925457199E+03  0.26458796508E+04  0.29425966872E+04  0.46999998093E+01 0. -1.
       -5    1    3    3    0  502 -0.12524459063E+04 -0.29925457199E+03 -0.39777195362E+03  0.13477457713E+04  0.46999998093E+01 0.  1.
</event>
<event>
 5   0  0.9418945E-08  0.3780481E+04  0.7818609E-02  0.8050357E-01
        1   -1    0    0  501    0  0.00000000000E+00  0.00000000000E+00  0.29143109104E+04  0.29143109105E+04  0.50400001928E-02 0. -1.
       -1   -1    0    0    0  501  0.00000000000E+00  0.00000000000E+00 -0.12260219063E+04  0.12260219063E+04  0.50400001928E-02 0.  1.
    10030    2    1    2    0    0  0.00000000000E+00  0.00000000000E+00  0.16882890041E+04  0.41403328168E+04  0.37804809313E+04 0.  0.
        5    1    3    3  502    0 -0.40032686942E+02  0.16219021130E+04 -0.21814031638E+03  0.16370022504E+04  0.46999998093E+01 0.  1.
       -5    1    3    3    0  502  0.40032686942E+02 -0.16219021130E+04  0.19064293205E+04  0.25033305663E+04  0.46999998093E+01 0. -1.
</event>
<event>
 5   0  0.2897133E-07  0.3606817E+04  0.7818609E-02  0.8088932E-01
        2   -1    0    0  501    0  0.00000000000E+00  0.00000000000E+00  0.10325466365E+04  0.10325466365E+04  0.25500000920E-02 0. -1.
       -2   -1    0    0    0  501  0.00000000000E+00  0.00000000000E+00 -0.31497673305E+04  0.31497673305E+04  0.25500000920E-02 0.  1.
    10030    2    1    2    0    0  0.00000000000E+00  0.00000000000E+00 -0.21172206940E+04  0.41823139670E+04  0.36068166922E+04 0.  0.
        4    1    3    3  502    0  0.12654742340E+04  0.48604706215E+03  0.32053940183E+03  0.13929874029E+04  0.12699999809E+01 0. -1.
       -4    1    3    3    0  502 -0.12654742340E+04 -0.48604706215E+03 -0.24377600958E+04  0.27893265641E+04  0.12699999809E+01 0.  1.
</event>
<event>
 5   0  0.9341000E-08  0.3733095E+04  0.7818609E-02  0.8060667E-01
       -1   -1    0    0    0  501  0.00000000000E+00  0.00000000000E+00  0.21348390323E+04  0.21348390323E+04  0.50400001928E-02 0. -1.
        1   -1    0    0  501    0  0.00000000000E+00  0.00000000000E+00 -0.16319731862E+04  0.16319731862E+04  0.50400001928E-02 0.  1.
    10030    2    1    2    0    0  0.00000000000E+00  0.00000000000E+00  0.50286584610E+03  0.37668122185E+04  0.37330952614E+04 0.  0.
        1    1    3    3  502    0 -0.71887514216E+03 -0.15620153243E+04  0.98416429221E+03  0.19812250497E+04  0.50400001928E-02 0. -1.
       -1    1    3    3    0  502  0.71887514216E+03  0.15620153243E+04 -0.48129844611E+03  0.17855871689E+04  0.50400001928E-02 0.  1.
</event>
<event>
 5   0  0.9418945E-08  0.3638005E+04  0.7818609E-02  0.8081841E-01
       -1   -1    0    0    0  501  0.00000000000E+00  0.00000000000E+00  0.20218255850E+04  0.20218255850E+04  0.50400001928E-02 0. -1.
        1   -1    0    0  501    0  0.00000000000E+00  0.00000000000E+00 -0.16365255467E+04  0.16365255467E+04  0.50400001928E-02 0.  1.
    10030    2    1    2    0    0  0.00000000000E+00  0.00000000000E+00  0.38530003830E+03  0.36583511317E+04  0.36380045195E+04 0.  0.
        5    1    3    3  502    0 -0.41130885529E+03  0.14691980583E+03 -0.15830078237E+04  0.16421620698E+04  0.46999998093E+01 0.  1.
       -5    1    3    3    0  502  0.41130885529E+03 -0.14691980583E+03  0.19683078620E+04  0.20161890619E+04  0.46999998093E+01 0. -1.
</event>
<event>
 5   0  0.9646615E-08  0.3450833E+04  0.7818609E-02  0.8125542E-01
       -1   -1    0    0    0  501  0.00000000000E+00  0.00000000000E+00  0.17299449944E+04  0.17299449944E+04  0.50400001928E-02 0. -1.
        1   -1    0    0  501    0  0.00000000000E+00  0.00000000000E+00 -0.17208997751E+04  0.17208997751E+04  0.50400001928E-02 0.  1.
    10030    2    1    2    0    0  0.00000000000E+00  0.00000000000E+00  0.90452192801E+01  0.34508447696E+04  0.34508329150E+04 0.  0.
        2    1    3    3  502    0 -0.16076625798E+04  0.60286778828E+03  0.17491512879E+03  0.17258690110E+04  0.25500000920E-02 0.  1.
       -2    1    3    3    0  502  0.16076625798E+04 -0.60286778828E+03 -0.16586990951E+03  0.17249757586E+04  0.25500000920E-02 0. -1.
</event>
<event>
 5   0  0.9646615E-08  0.3648764E+04  0.7818609E-02  0.8079412E-01
       -1   -1    0    0    0  501  0.00000000000E+00  0.00000000000E+00  0.21448664969E+04  0.21448664969E+04  0.50400001928E-02 0.  1.
        1   -1    0    0  501    0  0.00000000000E+00  0.00000000000E+00 -0.15517840914E+04  0.15517840914E+04  0.50400001928E-02 0. -1.
    10030    2    1    2    0    0  0.00000000000E+00  0.00000000000E+00  0.59308240551E+03  0.36966505884E+04  0.36487640144E+04 0.  0.
        2    1    3    3  502    0 -0.11908099880E+04 -0.94019329124E+03  0.13229403043E+04  0.20129984851E+04  0.25500000920E-02 0.  1.
       -2    1    3    3    0  502  0.11908099880E+04  0.94019329124E+03 -0.72985789877E+03  0.16836521033E+04  0.25500000920E-02 0. -1.
</event>
<event>
 5   0  0.9341000E-08  0.3701407E+04  0.7818609E-02  0.8067650E-01
       -3   -1    0    0    0  501  0.00000000000E+00  0.00000000000E+00  0.15219867903E+04  0.15219867936E+04  0.10100000352E+00 0.  1.
        3   -1    0    0  501    0  0.00000000000E+00  0.00000000000E+00 -0.22504155248E+04  0.22504155270E+04  0.10100000352E+00 0. -1.
    10030    2    1    2    0    0  0.00000000000E+00  0.00000000000E+00 -0.72842873449E+03  0.37724023207E+04  0.37014066040E+04 0.  0.
        1    1    3    3  502    0  0.14483411717E+04  0.22480358586E+02  0.80979390007E+03  0.16595070584E+04  0.50400001928E-02 0.  1.
       -1    1    3    3    0  502 -0.14483411717E+04 -0.22480358586E+02 -0.15382226346E+04  0.21128952623E+04  0.50400001928E-02 0. -1.
</event>
<event>
 5   0  0.9341000E-08  0.3703446E+04  0.7818609E-02  0.8067199E-01
        3   -1    0    0  501    0  0.00000000000E+00  0.00000000000E+00  0.28011433620E+04  0.28011433638E+04  0.10100000352E+00 0.  1.
       -3   -1    0    0    0  501  0.00000000000E+00  0.00000000000E+00 -0.12240993161E+04  0.12240993203E+04  0.10100000352E+00 0. -1.
    10030    2    1    2    0    0  0.00000000000E+00  0.00000000000E+00  0.15770440459E+04  0.40252426841E+04  0.37034457932E+04 0.  0.
        4    1    3    3  502    0  0.12221388839E+04 -0.62716748966E+03  0.21381562735E+04  0.25413926053E+04  0.12699999809E+01 0.  1.
       -4    1    3    3    0  502 -0.12221388839E+04  0.62716748966E+03 -0.56111222762E+03  0.14838500788E+04  0.12699999809E+01 0. -1.
</event>
<event>
 5   0  0.9646615E-08  0.3702288E+04  0.7818609E-02  0.8067455E-01
        1   -1    0    0  501    0  0.00000000000E+00  0.00000000000E+00  0.21765229655E+04  0.21765229655E+04  0.50400001928E-02 0. -1.
       -1   -1    0    0    0  501  0.00000000000E+00  0.00000000000E+00 -0.15744073195E+04  0.15744073195E+04  0.50400001928E-02 0.  1.
    10030    2    1    2    0    0  0.00000000000E+00  0.00000000000E+00  0.60211564604E+03  0.37509302850E+04  0.37022877727E+04 0.  0.
        2    1    3    3  502    0  0.14239025518E+04 -0.77278977422E+03 -0.60627045140E+03  0.17298168610E+04  0.25500000920E-02 0.  1.
       -2    1    3    3    0  502 -0.14239025518E+04  0.77278977422E+03  0.12083860974E+04  0.20211134240E+04  0.25500000920E-02 0. -1.
</event>
<event>
 5   0  0.9646615E-08  0.3709452E+04  0.7818609E-02  0.8065870E-01
        1   -1    0    0  501    0  0.00000000000E+00  0.00000000000E+00  0.26829827445E+04  0.26829827445E+04  0.50400001928E-02 0. -1.
       -1   -1    0    0    0  501  0.00000000000E+00  0.00000000000E+00 -0.12821583030E+04  0.12821583030E+04  0.50400001928E-02 0.  1.
    10030    2    1    2    0    0  0.00000000000E+00  0.00000000000E+00  0.14008244415E+04  0.39651410476E+04  0.37094520365E+04 0.  0.
        2    1    3    3  502    0 -0.77538477296E+03 -0.68544773716E+03  0.23456424717E+04  0.25638055214E+04  0.25500000920E-02 0. -1.
       -2    1    3    3    0  502  0.77538477296E+03  0.68544773716E+03 -0.94481803025E+03  0.14013355261E+04  0.25500000920E-02 0.  1.
</event>
<event>
 5   0  0.9646615E-08  0.3703975E+04  0.7818609E-02  0.8067082E-01
       -1   -1    0    0    0  501  0.00000000000E+00  0.00000000000E+00  0.12712128608E+04  0.12712128608E+04  0.50400001928E-02 0. -1.
        1   -1    0    0  501    0  0.00000000000E+00  0.00000000000E+00 -0.26980981833E+04  0.26980981833E+04  0.50400001928E-02 0.  1.
    10030    2    1    2    0    0  0.00000000000E+00  0.00000000000E+00 -0.14268853225E+04  0.39693110441E+04  0.37039746815E+04 0.  0.
        2    1    3    3  502    0  0.13090839389E+04 -0.95159852811E+03 -0.16782817008E+04  0.23314952252E+04  0.25500000920E-02 0.  1.
       -2    1    3    3    0  502 -0.13090839389E+04  0.95159852811E+03  0.25139637827E+03  0.16378158190E+04  0.25500000920E-02 0. -1.
</event>
<event>
 5   0  0.2996969E-07  0.3408927E+04  0.7818609E-02  0.8135719E-01
       -2   -1    0    0    0  501  0.00000000000E+00  0.00000000000E+00  0.11965501118E+04  0.11965501118E+04  0.25500000920E-02 0. -1.
        2   -1    0    0  501    0  0.00000000000E+00  0.00000000000E+00 -0.24279766820E+04  0.24279766820E+04  0.25500000920E-02 0.  1.
    10030    2    1    2    0    0  0.00000000000E+00  0.00000000000E+00 -0.12314265702E+04  0.36245267938E+04  0.34089269692E+04 0.  0.
        1    1    3    3  502    0 -0.63500825731E+03  0.13196792468E+04  0.31145093058E+03  0.14972609938E+04  0.50400001928E-02 0. -1.
       -1    1    3    3    0  502  0.63500825731E+03 -0.13196792468E+04 -0.15428775008E+04  0.21272658000E+04  0.50400001928E-02 0.  1.
</event>
<event>
 5   0  0.9418945E-08  0.3703223E+04  0.7818609E-02  0.8067248E-01
       -1   -1    0    0    0  501  0.00000000000E+00  0.00000000000E+00  0.13591941109E+04  0.13591941109E+04  0.50400001928E-02 0. -1.
        1   -1    0    0  501    0  0.00000000000E+00  0.00000000000E+00 -0.25224249216E+04  0.25224249216E+04  0.50400001928E-02 0.  1.
    10030    2    1    2    0    0  0.00000000000E+00  0.00000000000E+00 -0.11632308107E+04  0.38816190325E+04  0.37032229740E+04 0.  0.
        5    1    3    3  502    0  0.67559787683E+03 -0.15833556316E+04 -0.12963707371E+04  0.21550050406E+04  0.46999998093E+01 0.  1.
       -5    1    3    3    0  502 -0.67559787683E+03  0.15833556316E+04  0.13313992635E+03  0.17266139919E+04  0.46999998093E+01 0. -1.
</event>
<event>
 5   0  0.9646615E-08  0.3667100E+04  0.7818609E-02  0.8075292E-01
        1   -1    0    0  501    0  0.00000000000E+00  0.00000000000E+00  0.32218351364E+04  0.32218351364E+04  0.50400001928E-02 0. -1.
       -1   -1    0    0    0  501  0.00000000000E+00  0.00000000000E+00 -0.10434750899E+04  0.10434750899E+04  0.50400001928E-02 0.  1.
    10030    2    1    2    0    0  0.00000000000E+00  0.00000000000E+00  0.21783600464E+04  0.42653102263E+04  0.36670995125E+04 0.  0.
        2    1    3    3  502    0  0.46577184270E+03 -0.17705120456E+04  0.12069286547E+04  0.21927911644E+04  0.25500000920E-02 0.  1.
       -2    1    3    3    0  502 -0.46577184270E+03  0.17705120456E+04  0.97143139169E+03  0.20725190619E+04  0.25500000920E-02 0. -1.
</event>
<event>
 5   0  0.9341000E-08  0.3435875E+04  0.7818609E-02  0.8129157E-01
       -1   -1    0    0    0  501  0.00000000000E+00  0.00000000000E+00  0.14713166201E+04  0.14713166201E+04  0.50400001928E-02 0.  1.
        1   -1    0    0  501    0  0.00000000000E+00  0.00000000000E+00 -0.20058965496E+04  0.20058965496E+04  0.50400001928E-02 0. -1.
    10030    2    1    2    0    0  0.00000000000E+00  0.00000000000E+00 -0.53457992950E+03  0.34772131698E+04  0.34358748125E+04 0.  0.
        1    1    3    3  502    0  0.41320179579E+03 -0.12591134747E+04  0.83911840121E+03  0.15685095338E+04  0.50400001928E-02 0.  1.
       -1    1    3    3    0  502 -0.41320179579E+03  0.12591134747E+04 -0.13736983307E+04  0.19087036360E+04  0.50400001928E-02 0. -1.
</event>
<event>
 5   0  0.2913025E-07  0.3707194E+04  0.7818609E-02  0.8066369E-01
        2   -1    0    0  501    0  0.00000000000E+00  0.00000000000E+00  0.19221583681E+04  0.19221583681E+04  0.25500000920E-02 0.  1.
       -2   -1    0    0    0  501  0.00000000000E+00  0.00000000000E+00 -0.17874808853E+04  0.17874808853E+04  0.25500000920E-02 0. -1.
    10030    2    1    2    0    0  0.00000000000E+00  0.00000000000E+00  0.13467748281E+03  0.37096392533E+04  0.37071937318E+04 0.  0.
        5    1    3    3  502    0  0.17135110402E+04 -0.65920479661E+03  0.32270936805E+03  0.18640907905E+04  0.46999998093E+01 0. -1.
       -5    1    3    3    0  502 -0.17135110402E+04  0.65920479661E+03 -0.18803188524E+03  0.18455484629E+04  0.46999998093E+01 0.  1.
</event>
<event>
 5   0  0.2913025E-07  0.3675767E+04  0.7818609E-02  0.8073353E-01
        2   -1    0    0  501    0  0.00000000000E+00  0.00000000000E+00  0.28022142370E+04  0.28022142370E+04  0.25500000920E-02 0.  1.
       -2   -1    0    0    0  501  0.00000000000E+00  0.00000000000E+00 -0.12054095551E+04  0.12054095551E+04  0.25500000920E-02 0. -1.
    10030    2    1    2    0    0  0.00000000000E+00  0.00000000000E+00  0.15968046819E+04  0.40076237920E+04  0.36757670310E+04 0.  0.
        5    1    3    3  502    0 -0.12482670722E+04 -0.10566752791E+04 -0.11578517378E+03  0.16395614126E+04  0.46999998093E+01 0. -1.
       -5    1    3    3    0  502  0.12482670722E+04  0.10566752791E+04  0.17125898557E+04  0.23680623795E+04  0.46999998093E+01 0.  1.
</event>
<event>
 5   0  0.2897133E-07  0.3650643E+04  0.7818609E-02  0.8078989E-01
        2   -1    0    0  501    0  0.00000000000E+00  0.00000000000E+00  0.23003384658E+04  0.23003384658E+04  0.25500000920E-02 0.  1.
       -2   -1    0    0    0  501  0.00000000000E+00  0.00000000000E+00 -0.14483953127E+04  0.14483953127E+04  0.25500000920E-02 0. -1.
    10030    2    1    2    0    0  0.00000000000E+00  0.00000000000E+00  0.85194315303E+03  0.37487337785E+04  0.36506434783E+04 0.  0.
        4    1    3    3  502    0  0.13990744224E+04  0.55356923992E+03  0.14871552896E+04  0.21155331741E+04  0.12699999809E+01 0.  1.
       -4    1    3    3    0  502 -0.13990744224E+04 -0.55356923992E+03 -0.63521213653E+03  0.16332006043E+04  0.12699999809E+01 0. -1.
</event>
<event>
 5   0  0.9418945E-08  0.3712957E+04  0.7818609E-02  0.8065096E-01
        1   -1    0    0  501    0  0.00000000000E+00  0.00000000000E+00  0.20178012864E+04  0.20178012864E+04  0.50400001928E-02 0.  1.
       -1   -1    0    0    0  501  0.00000000000E+00  0.00000000000E+00 -0.17080535172E+04  0.17080535172E+04  0.50400001928E-02 0. -1.
    10030    2    1    2    0    0  0.00000000000E+00  0.00000000000E+00  0.30974776923E+03  0.37258548036E+04  0.37129570879E+04 0.  0.
        5    1    3    3  502    0  0.35062503989E+03  0.17206216821E+04 -0.44972514529E+03  0.18126642513E+04  0.46999998093E+01 0. -1.
       -5    1    3    3    0  502 -0.35062503989E+03 -0.17206216821E+04  0.75947291452E+03  0.19131905523E+04  0.46999998093E+01 0.  1.
</event>
<event>
 5   0  0.3008879E-07  0.3675251E+04  0.7818609E-02  0.8073469E-01
       -2   -1    0    0    0  501  0.00000000000E+00  0.00000000000E+00  0.18998220410E+04  0.18998220410E+04  0.25500000920E-02 0. -1.
        2   -1    0    0  501    0  0.00000000000E+00  0.00000000000E+00 -0.17774655118E+04  0.17774655118E+04  0.25500000920E-02 0.  1.
    10030    2    1    2    0    0  0.00000000000E+00  0.00000000000E+00  0.12235652921E+03  0.36772875528E+04  0.36752513690E+04 0.  0.
        2    1    3    3  502    0  0.12058139473E+03 -0.10606867336E+04 -0.14354017152E+04  0.17888471996E+04  0.25500000920E-02 0.  1.
       -2    1    3    3    0  502 -0.12058139473E+03  0.10606867336E+04  0.15577582444E+04  0.18884403532E+04  0.25500000920E-02 0. -1.
</event>
<event>
 5   0  0.9646615E-08  0.3693023E+04  0.7818609E-02  0.8069510E-01
        1   -1    0    0  501    0  0.00000000000E+00  0.00000000000E+00  0.23311420457E+04  0.23311420457E+04  0.50400001928E-02 0. -1.
       -1   -1    0    0    0  501  0.00000000000E+00  0.00000000000E+00 -0.14626323744E+04  0.14626323745E+04  0.50400001928E-02 0.  1.
    10030    2    1    2    0    0  0.00000000000E+00  0.00000000000E+00  0.86850967122E+03  0.37937744201E+04  0.36930225157E+04 0.  0.
        2    1    3    3  502    0  0.14967295376E+04 -0.10799866518E+04  0.37767643047E+03  0.18839347025E+04  0.25500000920E-02 0. -1.
       -2    1    3    3    0  502 -0.14967295376E+04  0.10799866518E+04  0.49083324075E+03  0.19098397177E+04  0.25500000920E-02 0.  1.
</event>
<event>
 5   0  0.3008879E-07  0.3706942E+04  0.7818609E-02  0.8066425E-01
       -2   -1    0    0    0  501  0.00000000000E+00  0.00000000000E+00  0.22597353165E+04  0.22597353165E+04  0.25500000920E-02 0.  1.
        2   -1    0    0  501    0  0.00000000000E+00  0.00000000000E+00 -0.15202462116E+04  0.15202462116E+04  0.25500000920E-02 0. -1.
    10030    2    1    2    0    0  0.00000000000E+00  0.00000000000E+00  0.73948910488E+03  0.37799815281E+04  0.37069416258E+04 0.  0.
        2    1    3    3  502    0  0.13799575061E+04 -0.64832799455E+02  0.16297565583E+04  0.21364906857E+04  0.25500000920E-02 0.  1.
       -2    1    3    3    0  502 -0.13799575061E+04  0.64832799455E+02 -0.89026745343E+03  0.16434908425E+04  0.25500000920E-02 0. -1.
</event>
<event>
 5   0  0.9418945E-08  0.3726234E+04  0.7818609E-02  0.8062173E-01
       -1   -1    0    0    0  501  0.00000000000E+00  0.00000000000E+00  0.18923019214E+04  0.18923019215E+04  0.50400001928E-02 0.  1.
        1   -1    0    0  501    0  0.00000000000E+00  0.00000000000E+00 -0.18343820630E+04  0.18343820630E+04  0.50400001928E-02 0. -1.
    10030    2    1    2    0    0  0.00000000000E+00  0.00000000000E+00  0.57919858446E+02  0.37266839845E+04  0.37262338641E+04 0.  0.
        5    1    3    3  502    0  0.91395077658E+03  0.26627711978E+02  0.16524759403E+04  0.18885745630E+04  0.46999998093E+01 0.  1.
       -5    1    3    3    0  502 -0.91395077658E+03 -0.26627711978E+02 -0.15945560818E+04  0.18381094214E+04  0.46999998093E+01 0. -1.
</event>
<event>
 5   0  0.2897133E-07  0.3492841E+04  0.7818609E-02  0.8115489E-01
       -2   -1    0    0    0  501  0.00000000000E+00  0.00000000000E+00  0.25857870015E+04  0.25857870015E+04  0.25500000920E-02 0. -1.
        2   -1    0    0  501    0  0.00000000000E+00  0.00000000000E+00 -0.11795186723E+04  0.11795186723E+04  0.25500000920E-02 0.  1.
    10030    2    1    2    0    0  0.00000000000E+00  0.00000000000E+00  0.14062683292E+04  0.37653056739E+04  0.34928407069E+04 0.  0.
        4    1    3    3  502    0 -0.78581325339E+03  0.12358850462E+04  0.17286965719E+04  0.22656804203E+04  0.12699999809E+01 0. -1.
       -4    1    3    3    0  502  0.78581325339E+03 -0.12358850462E+04 -0.32242824263E+03  0.14996252535E+04  0.12699999809E+01 0.  1.
</event>
<event>
 5   0  0.9341000E-08  0.3694319E+04  0.7818609E-02  0.8069222E-01
        1   -1    0    0  501    0  0.00000000000E+00  0.00000000000E+00  0.28281540802E+04  0.28281540802E+04  0.50400001928E-02 0.  1.
       -1   -1    0    0    0  501  0.00000000000E+00  0.00000000000E+00 -0.12064400436E+04  0.12064400436E+04  0.50400001928E-02 0. -1.
    10030    2    1    2    0    0  0.00000000000E+00  0.00000000000E+00  0.16217140366E+04  0.40345941238E+04  0.36943190613E+04 0.  0.
        1    1    3    3  502    0  0.11769881194E+04 -0.79885526080E+03 -0.47603677038E+03  0.15000272556E+04  0.50400001928E-02 0. -1.
       -1    1    3    3    0  502 -0.11769881194E+04  0.79885526080E+03  0.20977508069E+04  0.25345668681E+04  0.50400001928E-02 0.  1.
</event>
<event>
 5   0  0.9418945E-08  0.3745599E+04  0.7818609E-02  0.8057931E-01
        1   -1    0    0  501    0  0.00000000000E+00  0.00000000000E+00  0.28998559170E+04  0.28998559170E+04  0.50400001928E-02 0. -1.
       -1   -1    0    0    0  501  0.00000000000E+00  0.00000000000E+00 -0.12095005303E+04  0.12095005303E+04  0.50400001928E-02 0.  1.
    10030    2    1    2    0    0  0.00000000000E+00  0.00000000000E+00  0.16903553867E+04  0.41093564473E+04  0.37455986275E+04 0.  0.
        5    1    3    3  502    0 -0.12469389952E+04  0.13318889094E+04  0.38156305964E+03  0.18639735468E+04  0.46999998093E+01 0.  1.
       -5    1    3    3    0  502  0.12469389952E+04 -0.13318889094E+04  0.13087923271E+04  0.22453829005E+04  0.46999998093E+01 0. -1.
</event>
<event>
 5   0  0.9341000E-08  0.3889429E+04  0.7818609E-02  0.8027231E-01
        1   -1    0    0  501    0  0.00000000000E+00  0.00000000000E+00  0.17685388009E+04  0.17685388009E+04  0.50400001928E-02 0.  1.
       -1   -1    0    0    0  501  0.00000000000E+00  0.00000000000E+00 -0.21384402269E+04  0.21384402269E+04  0.50400001928E-02 0. -1.
    10030    2    1    2    0    0  0.00000000000E+00  0.00000000000E+00 -0.36990142594E+03  0.39069790278E+04  0.38894290145E+04 0.  0.
        1    1    3    3  502    0  0.98060937916E+03  0.12497633869E+04  0.94190036425E+03  0.18468025270E+04  0.50400001928E-02 0.  1.
       -1    1    3    3    0  502 -0.98060937916E+03 -0.12497633869E+04 -0.13118017902E+04  0.20601765008E+04  0.50400001928E-02 0. -1.
</event>
<event>
 5   0  0.3008879E-07  0.3575228E+04  0.7818609E-02  0.8096190E-01
       -2   -1    0    0    0  501  0.00000000000E+00  0.00000000000E+00  0.18952583359E+04  0.18952583359E+04  0.25500000920E-02 0. -1.
        2   -1    0    0  501    0  0.00000000000E+00  0.00000000000E+00 -0.16860838635E+04  0.16860838635E+04  0.25500000920E-02 0.  1.
    10030    2    1    2    0    0  0.00000000000E+00  0.00000000000E+00  0.20917447242E+03  0.35813421994E+04  0.35752283828E+04 0.  0.
        2    1    3    3  502    0  0.25947776462E+03  0.10225663246E+04  0.15501745442E+04  0.18751031214E+04  0.25500000920E-02 0. -1.
       -2    1    3    3    0  502 -0.25947776462E+03 -0.10225663246E+04 -0.13410000718E+04  0.17062390779E+04  0.25500000920E-02 0.  1.
</event>
<event>
 5   0  0.3032442E-07  0.3707366E+04  0.7818609E-02  0.8066332E-01
        2   -1    0    0  501    0  0.00000000000E+00  0.00000000000E+00  0.30340432622E+04  0.30340432622E+04  0.25500000920E-02 0. -1.
       -2   -1    0    0    0  501  0.00000000000E+00  0.00000000000E+00 -0.11325282613E+04  0.11325282613E+04  0.25500000920E-02 0.  1.
    10030    2    1    2    0    0  0.00000000000E+00  0.00000000000E+00  0.19015150008E+04  0.41665715235E+04  0.37073655015E+04 0.  0.
        3    1    3    3  502    0 -0.89702609149E+02 -0.60619786741E+03  0.29169134085E+04  0.29805882399E+04  0.10100000352E+00 0. -1.
       -3    1    3    3    0  502  0.89702609149E+02  0.60619786741E+03 -0.10153984077E+04  0.11859832836E+04  0.10100000352E+00 0.  1.
</event>
<event>
 5   0  0.9418945E-08  0.3648968E+04  0.7818609E-02  0.8079366E-01
       -1   -1    0    0    0  501  0.00000000000E+00  0.00000000000E+00  0.16736119089E+04  0.16736119089E+04  0.50400001928E-02 0.  1.
        1   -1    0    0  501    0  0.00000000000E+00  0.00000000000E+00 -0.19889569839E+04  0.19889569839E+04  0.50400001928E-02 0. -1.
    10030    2    1    2    0    0  0.00000000000E+00  0.00000000000E+00 -0.31534507505E+03  0.36625688928E+04  0.36489681251E+04 0.  0.
        5    1    3    3  502    0 -0.17699297779E+03  0.17269464869E+03  0.16567071956E+04  0.16750673950E+04  0.46999998093E+01 0.  1.
       -5    1    3    3    0  502  0.17699297779E+03 -0.17269464869E+03 -0.19720522706E+04  0.19875014978E+04  0.46999998093E+01 0. -1.
</event>
<event>
 5   0  0.2913025E-07  0.3719591E+04  0.7818609E-02  0.8063634E-01
        2   -1    0    0  501    0  0.00000000000E+00  0.00000000000E+00  0.12066630210E+04  0.12066630210E+04  0.25500000920E-02 0.  1.
       -2   -1    0    0    0  501  0.00000000000E+00  0.00000000000E+00 -0.28664496529E+04  0.28664496529E+04  0.25500000920E-02 0. -1.
    10030    2    1    2    0    0  0.00000000000E+00  0.00000000000E+00 -0.16597866320E+04  0.40731126739E+04  0.37195907289E+04 0.  0.
        5    1    3    3  502    0 -0.11770031694E+04  0.14074468085E+04 -0.11630704168E+04  0.21723254507E+04  0.46999998093E+01 0.  1.
       -5    1    3    3    0  502  0.11770031694E+04 -0.14074468085E+04 -0.49671621515E+03  0.19007872232E+04  0.46999998093E+01 0. -1.
</event>
<event>
 5   0  0.2913025E-07  0.3672232E+04  0.7818609E-02  0.8074143E-01
       -2   -1    0    0    0  501  0.00000000000E+00  0.00000000000E+00  0.18392776697E+04  0.18392776697E+04  0.25500000920E-02 0. -1.
        2   -1    0    0  501    0  0.00000000000E+00  0.00000000000E+00 -0.18329601277E+04  0.18329601277E+04  0.25500000920E-02 0.  1.
    10030    2    1    2    0    0  0.00000000000E+00  0.00000000000E+00  0.63175420603E+01  0.36722377974E+04  0.36722323632E+04 0.  0.
        5    1    3    3  502    0  0.18359409300E+03  0.16155113341E+04 -0.84990572508E+03  0.18346513274E+04  0.46999998093E+01 0.  1.
       -5    1    3    3    0  502 -0.18359409300E+03 -0.16155113341E+04  0.85622326714E+03  0.18375864700E+04  0.46999998093E+01 0. -1.
</event>
<event>
 5   0  0.2913025E-07  0.3634675E+04  0.7818609E-02  0.8082595E-01
       -2   -1    0    0    0  501  0.00000000000E+00  0.00000000000E+00  0.13048216996E+04  0.13048216996E+04  0.25500000920E-02 0. -1.
        2   -1    0    0  501    0  0.00000000000E+00  0.00000000000E+00 -0.25311629465E+04  0.25311629465E+04  0.25500000920E-02 0.  1.
    10030    2    1    2    0    0  0.00000000000E+00  0.00000000000E+00 -0.12263412469E+04  0.38359846461E+04  0.36346754121E+04 0.  0.
        5    1    3    3  502    0 -0.11712692903E+03  0.49953899675E+02  0.13001014528E+04  0.13063307342E+04  0.46999998093E+01 0. -1.
       -5    1    3    3    0  502  0.11712692903E+03 -0.49953899675E+02 -0.25264426996E+04  0.25296539119E+04  0.46999998093E+01 0.  1.
</event>
<event>
 5   0  0.9341000E-08  0.3698537E+04  0.7818609E-02  0.8068286E-01
       -1   -1    0    0    0  501  0.00000000000E+00  0.00000000000E+00  0.24386696038E+04  0.24386696038E+04  0.50400001928E-02 0. -1.
        1   -1    0    0  501    0  0.00000000000E+00  0.00000000000E+00 -0.14023198013E+04  0.14023198013E+04  0.50400001928E-02 0.  1.
    10030    2    1    2    0    0  0.00000000000E+00  0.00000000000E+00  0.10363498025E+04  0.38409894051E+04  0.36985373727E+04 0.  0.
        1    1    3    3  502    0 -0.91701573405E+03  0.10884457600E+04 -0.70804911808E+03  0.15896432249E+04  0.50400001928E-02 0.  1.
       -1    1    3    3    0  502  0.91701573405E+03 -0.10884457600E+04  0.17443989205E+04  0.22513461802E+04  0.50400001928E-02 0. -1.
</event>
<event>
 5   0  0.2897133E-07  0.3689176E+04  0.7818609E-02  0.8070365E-01
       -2   -1    0    0    0  501  0.00000000000E+00  0.00000000000E+00  0.17068911397E+04  0.17068911397E+04  0.25500000920E-02 0. -1.
        2   -1    0    0  501    0  0.00000000000E+00  0.00000000000E+00 -0.19933932500E+04  0.19933932500E+04  0.25500000920E-02 0.  1.
    10030    2    1    2    0    0  0.00000000000E+00  0.00000000000E+00 -0.28650211037E+03  0.37002843897E+04  0.36891762096E+04 0.  0.
        4    1    3    3  502    0 -0.11819272595E+04  0.10867718983E+04  0.76749093548E+03  0.17796261277E+04  0.12699999809E+01 0. -1.
       -4    1    3    3    0  502  0.11819272595E+04 -0.10867718983E+04 -0.10539930459E+04  0.19206582620E+04  0.12699999809E+01 0.  1.
</event>
<event>
 5   0  0.9341000E-08  0.3563641E+04  0.7818609E-02  0.8098871E-01
       -1   -1    0    0    0  501  0.00000000000E+00  0.00000000000E+00  0.21166924068E+04  0.21166924068E+04  0.50400001928E-02 0. -1.
        1   -1    0    0  501    0  0.00000000000E+00  0.00000000000E+00 -0.14999267064E+04  0.14999267064E+04  0.50400001928E-02 0.  1.
    10030    2    1    2    0    0  0.00000000000E+00  0.00000000000E+00  0.61676570036E+03  0.36166191132E+04  0.35636405375E+04 0.  0.
        1    1    3    3  502    0  0.85787646141E+03  0.11628950956E+04  0.13662838333E+04  0.19887203271E+04  0.50400001928E-02 0. -1.
       -1    1    3    3    0  502 -0.85787646141E+03 -0.11628950956E+04 -0.74951813289E+03  0.16278987861E+04  0.50400001928E-02 0.  1.
</event>
<event>
 5   0  0.9341000E-08  0.3743418E+04  0.7818609E-02  0.8058408E-01
        1   -1    0    0  501    0  0.00000000000E+00  0.00000000000E+00  0.24996092662E+04  0.24996092662E+04  0.50400001928E-02 0. -1.
       -1   -1    0    0    0  501  0.00000000000E+00  0.00000000000E+00 -0.14015365437E+04  0.14015365437E+04  0.50400001928E-02 0.  1.
    10030    2    1    2    0    0  0.00000000000E+00  0.00000000000E+00  0.10980727225E+04  0.39011458099E+04  0.37434175463E+04 0.  0.
        3    1    3    3  502    0 -0.12268778559E+04 -0.64235688584E+03  0.18612335456E+04  0.23199228357E+04  0.10100000352E+00 0. -1.
       -3    1    3    3    0  502  0.12268778559E+04  0.64235688584E+03 -0.76316082304E+03  0.15812229742E+04  0.10100000352E+00 0.  1.
</event>
<event>
 5   0  0.9341000E-08  0.3698176E+04  0.7818609E-02  0.8068366E-01
       -1   -1    0    0    0  501  0.00000000000E+00  0.00000000000E+00  0.16369724993E+04  0.16369724993E+04  0.50400001928E-02 0.  1.
        1   -1    0    0  501    0  0.00000000000E+00  0.00000000000E+00 -0.20886893734E+04  0.20886893735E+04  0.50400001928E-02 0. -1.
    10030    2    1    2    0    0  0.00000000000E+00  0.00000000000E+00 -0.45171687418E+03  0.37256618727E+04  0.36981763419E+04 0.  0.
        4    1    3    3  502    0  0.28132008600E+03 -0.13673041201E+04 -0.14474977650E+04  0.20109482689E+04  0.12699999809E+01 0. -1.
       -4    1    3    3    0  502 -0.28132008600E+03  0.13673041201E+04  0.99578089080E+03  0.17147136038E+04  0.12699999809E+01 0.  1.
</event>
<event>
 5   0  0.2897133E-07  0.3686715E+04  0.7818609E-02  0.8070912E-01
       -2   -1    0    0    0  501  0.00000000000E+00  0.00000000000E+00  0.18841361308E+04  0.18841361308E+04  0.25500000920E-02 0.  1.
        2   -1    0    0  501    0  0.00000000000E+00  0.00000000000E+00 -0.18034613968E+04  0.18034613968E+04  0.25500000920E-02 0. -1.
    10030    2    1    2    0    0  0.00000000000E+00  0.00000000000E+00  0.80674733950E+02  0.36875975276E+04  0.36867149487E+04 0.  0.
        4    1    3    3  502    0  0.97763913626E+03 -0.14689920094E+04 -0.49294067731E+03  0.18321320719E+04  0.12699999809E+01 0. -1.
       -4    1    3    3    0  502 -0.97763913626E+03  0.14689920094E+04  0.57361541126E+03  0.18554654557E+04  0.12699999809E+01 0.  1.
</event>
<event>
 5   0  0.9341000E-08  0.3698098E+04  0.7818609E-02  0.8068384E-01
       -1   -1    0    0    0  501  0.00000000000E+00  0.00000000000E+00  0.14653265804E+04  0.14653265804E+04  0.50400001928E-02 0.  1.
        1   -1    0    0  501    0  0.00000000000E+00  0.00000000000E+00 -0.23332554853E+04  0.23332554854E+04  0.50400001928E-02 0. -1.
    10030    2    1    2    0    0  0.00000000000E+00  0.00000000000E+00 -0.86792890497E+03  0.37985820657E+04  0.36980975009E+04 0.  0.
        4    1    3    3  502    0  0.51674220761E+03 -0.11097112549E+02  0.13896155676E+04  0.14826256081E+04  0.12699999809E+01 0.  1.
       -4    1    3    3    0  502 -0.51674220761E+03  0.11097112549E+02 -0.22575444726E+04  0.23159564577E+04  0.12699999809E+01 0. -1.
</event>
<event>
 5   0  0.9341000E-08  0.3697015E+04  0.7818609E-02  0.8068624E-01
       -1   -1    0    0    0  501  0.00000000000E+00  0.00000000000E+00  0.13525266331E+04  0.13525266331E+04  0.50400001928E-02 0. -1.
        1   -1    0    0  501    0  0.00000000000E+00  0.00000000000E+00 -0.25263680212E+04  0.25263680212E+04  0.50400001928E-02 0.  1.
    10030    2    1    2    0    0  0.00000000000E+00  0.00000000000E+00 -0.11738413881E+04  0.38788946542E+04  0.36970150303E+04 0.  0.
        3    1    3    3  502    0 -0.17316128890E+04  0.36752290950E+03 -0.11454871855E+04  0.21084822002E+04  0.10100000352E+00 0.  1.
       -3    1    3    3    0  502  0.17316128890E+04 -0.36752290950E+03 -0.28354202537E+02  0.17704124540E+04  0.10100000352E+00 0. -1.
</event>
<event>
 5   0  0.2996969E-07  0.3689441E+04  0.7818609E-02  0.8070306E-01
        2   -1    0    0  501    0  0.00000000000E+00  0.00000000000E+00  0.18490251187E+04  0.18490251187E+04  0.25500000920E-02 0.  1.
       -2   -1    0    0    0  501  0.00000000000E+00  0.00000000000E+00 -0.18404258706E+04  0.18404258706E+04  0.25500000920E-02 0. -1.
    10030    2    1    2    0    0  0.00000000000E+00  0.00000000000E+00  0.85992481271E+01  0.36894509893E+04  0.36894409679E+04 0.  0.
        1    1    3    3  502    0  0.74654832454E+03 -0.15059400991E+04 -0.75583642937E+03  0.18429537951E+04  0.50400001928E-02 0. -1.
       -1    1    3    3    0  502 -0.74654832454E+03  0.15059400991E+04  0.76443567750E+03  0.18464971942E+04  0.50400001928E-02 0.  1.
</event>
<event>
 5   0  0.2913025E-07  0.3704290E+04  0.7818609E-02  0.8067012E-01
        2   -1    0    0  501    0  0.00000000000E+00  0.00000000000E+00  0.28122076048E+04  0.28122076048E+04  0.25500000920E-02 0.  1.
       -2   -1    0    0    0  501  0.00000000000E+00  0.00000000000E+00 -0.12198393184E+04  0.12198393184E+04  0.25500000920E-02 0. -1.
    10030    2    1    2    0    0  0.00000000000E+00  0.00000000000E+00  0.15923682864E+04  0.40320469233E+04  0.37042901657E+04 0.  0.
        5    1    3    3  502    0  0.16469668471E+04 -0.62109252727E+03  0.16885336540E+03  0.17682729630E+04  0.46999998093E+01 0.  1.
       -5    1    3    3    0  502 -0.16469668471E+04  0.62109252727E+03  0.14235149210E+04  0.22637739603E+04  0.46999998093E+01 0. -1.
</event>
<event>
 5   0  0.9341000E-08  0.3685042E+04  0.7818609E-02  0.8071285E-01
       -1   -1    0    0    0  501  0.00000000000E+00  0.00000000000E+00  0.15239991266E+04  0.15239991266E+04  0.50400001928E-02 0.  1.
        1   -1    0    0  501    0  0.00000000000E+00  0.00000000000E+00 -0.22276156536E+04  0.22276156536E+04  0.50400001928E-02 0. -1.
    10030    2    1    2    0    0  0.00000000000E+00  0.00000000000E+00 -0.70361652707E+03  0.37516147802E+04  0.36850423664E+04 0.  0.
        4    1    3    3  502    0 -0.11742466665E+04 -0.13986085399E+04 -0.10259708931E+03  0.18290677563E+04  0.12699999809E+01 0.  1.
       -4    1    3    3    0  502  0.11742466665E+04  0.13986085399E+04 -0.60101943775E+03  0.19225470239E+04  0.12699999809E+01 0. -1.
</event>
<event>
 5   0  0.2897133E-07  0.3764545E+04  0.7818609E-02  0.8053806E-01
        2   -1    0    0  501    0  0.00000000000E+00  0.00000000000E+00  0.20880010247E+04  0.20880010247E+04  0.25500000920E-02 0.  1.
       -2   -1    0    0    0  501  0.00000000000E+00  0.00000000000E+00 -0.16968143574E+04  0.16968143574E+04  0.25500000920E-02 0. -1.
    10030    2    1    2    0    0  0.00000000000E+00  0.00000000000E+00  0.39118666732E+03  0.37848153822E+04  0.37645451875E+04 0.  0.
        4    1    3    3  502    0 -0.13258024412E+04  0.68735783334E+03 -0.95632268340E+03  0.17733492583E+04  0.12699999809E+01 0. -1.
       -4    1    3    3    0  502  0.13258024412E+04 -0.68735783334E+03  0.13475093507E+04  0.20114661239E+04  0.12699999809E+01 0.  1.
</event>
<event>
 5   0  0.3008879E-07  0.3704661E+04  0.7818609E-02  0.8066930E-01
       -2   -1    0    0    0  501  0.00000000000E+00  0.00000000000E+00  0.15545365729E+04  0.15545365729E+04  0.25500000920E-02 0. -1.
        2   -1    0    0  501    0  0.00000000000E+00  0.00000000000E+00 -0.22071706080E+04  0.22071706080E+04  0.25500000920E-02 0.  1.
    10030    2    1    2    0    0  0.00000000000E+00  0.00000000000E+00 -0.65263403507E+03  0.37617071809E+04  0.37046605419E+04 0.  0.
        2    1    3    3  502    0  0.11146832960E+04  0.69039149104E+03  0.10022528843E+04  0.16503545393E+04  0.25500000920E-02 0. -1.
       -2    1    3    3    0  502 -0.11146832960E+04 -0.69039149104E+03 -0.16548869193E+04  0.21113526416E+04  0.25500000920E-02 0.  1.
</event>
<event>
 5   0  0.9341000E-08  0.3701700E+04  0.7818609E-02  0.8067585E-01
       -1   -1    0    0    0  501  0.00000000000E+00  0.00000000000E+00  0.13575925977E+04  0.13575925977E+04  0.50400001928E-02 0.  1.
        1   -1    0    0  501    0  0.00000000000E+00  0.00000000000E+00 -0.25233237647E+04  0.25233237648E+04  0.50400001928E-02 0. -1.
    10030    2    1    2    0    0  0.00000000000E+00  0.00000000000E+00 -0.11657311671E+04  0.38809163624E+04  0.37016999687E+04 0.  0.
        1    1    3    3  502    0 -0.17879343276E+04 -0.12691269273E+03 -0.99195576671E+02  0.17951756889E+04  0.50400001928E-02 0. -1.
       -1    1    3    3    0  502  0.17879343276E+04  0.12691269273E+03 -0.10665355904E+04  0.20857406735E+04  0.50400001928E-02 0.  1.
</event>
<event>
 5   0  0.3008879E-07  0.3745336E+04  0.7818609E-02  0.8057988E-01
       -2   -1    0    0    0  501  0.00000000000E+00  0.00000000000E+00  0.13833200240E+04  0.13833200240E+04  0.25500000920E-02 0.  1.
        2   -1    0    0  501    0  0.00000000000E+00  0.00000000000E+00 -0.25351226841E+04  0.25351226841E+04  0.25500000920E-02 0. -1.
    10030    2    1    2    0    0  0.00000000000E+00  0.00000000000E+00 -0.11518026601E+04  0.39184427080E+04  0.37453362851E+04 0.  0.
        2    1    3    3  502    0 -0.37911579386E+03  0.14399572306E+04 -0.17640306860E+04  0.23084648302E+04  0.25500000920E-02 0. -1.
       -2    1    3    3    0  502  0.37911579386E+03 -0.14399572306E+04  0.61222802598E+03  0.16099778778E+04  0.25500000920E-02 0.  1.
</event>
<event>
 5   0  0.9646615E-08  0.3701984E+04  0.7818609E-02  0.8067522E-01
       -1   -1    0    0    0  501  0.00000000000E+00  0.00000000000E+00  0.18109858542E+04  0.18109858542E+04  0.50400001928E-02 0.  1.
        1   -1    0    0  501    0  0.00000000000E+00  0.00000000000E+00 -0.18918821544E+04  0.18918821544E+04  0.50400001928E-02 0. -1.
    10030    2    1    2    0    0  0.00000000000E+00  0.00000000000E+00 -0.80896300161E+02  0.37028680086E+04  0.37019842352E+04 0.  0.
        2    1    3    3  502    0  0.11049066031E+04  0.62503176947E+03 -0.13878734906E+04  0.18808711121E+04  0.25500000920E-02 0. -1.
       -2    1    3    3    0  502 -0.11049066031E+04 -0.62503176947E+03  0.13069771904E+04  0.18219968965E+04  0.25500000920E-02 0.  1.
</event>
<event>
 5   0  0.9341000E-08  0.3329932E+04  0.7818609E-02  0.8155321E-01
       -1   -1    0    0    0  501  0.00000000000E+00  0.00000000000E+00  0.10619749291E+04  0.10619749291E+04  0.50400001928E-02 0. -1.
        1   -1    0    0  501    0  0.00000000000E+00  0.00000000000E+00 -0.26103357881E+04  0.26103357881E+04  0.50400001928E-02 0.  1.
    10030    2    1    2    0    0  0.00000000000E+00  0.00000000000E+00 -0.15483608591E+04  0.36723107172E+04  0.33299316290E+04 0.  0.
        1    1    3    3  502    0 -0.77461059029E+01  0.11831023200E+04 -0.20660890902E+04  0.23808643872E+04  0.50400001928E-02 0.  1.
       -1    1    3    3    0  502  0.77461059029E+01 -0.11831023200E+04  0.51772823110E+03  0.12914463300E+04  0.50400001928E-02 0. -1.
</event>
<event>
 5   0  0.2996969E-07  0.3706219E+04  0.7818609E-02  0.8066585E-01
        2   -1    0    0  501    0  0.00000000000E+00  0.00000000000E+00  0.22241827935E+04  0.22241827935E+04  0.25500000920E-02 0. -1.
       -2   -1    0    0    0  501  0.00000000000E+00  0.00000000000E+00 -0.15439443074E+04  0.15439443074E+04  0.25500000920E-02 0.  1.
    10030    2    1    2    0    0  0.00000000000E+00  0.00000000000E+00  0.68023848610E+03  0.37681271009E+04  0.37062187537E+04 0.  0.
        1    1    3    3  502    0 -0.46398443650E+03 -0.25859492084E+03 -0.14648842838E+04  0.15582165624E+04  0.50400001928E-02 0.  1.
       -1    1    3    3    0  502  0.46398443650E+03  0.25859492084E+03  0.21451227699E+04  0.22099105385E+04  0.50400001928E-02 0. -1.
</event>
<event>
 5   0  0.3008879E-07  0.3567051E+04  0.7818609E-02  0.8098081E-01
        2   -1    0    0  501    0  0.00000000000E+00  0.00000000000E+00  0.13419962665E+04  0.13419962665E+04  0.25500000920E-02 0. -1.
       -2   -1    0    0    0  501  0.00000000000E+00  0.00000000000E+00 -0.23703218503E+04  0.23703218503E+04  0.25500000920E-02 0.  1.
    10030    2    1    2    0    0  0.00000000000E+00  0.00000000000E+00 -0.10283255838E+04  0.37123181169E+04  0.35670509240E+04 0.  0.
        2    1    3    3  502    0  0.12948636805E+04  0.79693854090E+02  0.75958394999E+03  0.15033265907E+04  0.25500000920E-02 0. -1.
       -2    1    3    3    0  502 -0.12948636805E+04 -0.79693854090E+02 -0.17879095338E+04  0.22089915261E+04  0.25500000920E-02 0.  1.
</event>
<event>
 5   0  0.9341000E-08  0.3739837E+04  0.7818609E-02  0.8059190E-01
       -1   -1    0    0    0  501  0.00000000000E+00  0.00000000000E+00  0.12674394708E+04  0.12674394708E+04  0.50400001928E-02 0.  1.
        1   -1    0    0  501    0  0.00000000000E+00  0.00000000000E+00 -0.27587864441E+04  0.27587864441E+04  0.50400001928E-02 0. -1.
    10030    2    1    2    0    0  0.00000000000E+00  0.00000000000E+00 -0.14913469733E+04  0.40262259150E+04  0.37398368044E+04 0.  0.
        1    1    3    3  502    0 -0.18235344177E+04 -0.36358683974E+03 -0.53273499586E+03  0.19342388008E+04  0.50400001928E-02 0.  1.
       -1    1    3    3    0  502  0.18235344177E+04  0.36358683974E+03 -0.95861197741E+03  0.20919871142E+04  0.50400001928E-02 0. -1.
</event>
<event>
 5   0  0.9646615E-08  0.3681528E+04  0.7818609E-02  0.8072068E-01
        1   -1    0    0  501    0  0.00000000000E+00  0.00000000000E+00  0.13121782681E+04  0.13121782681E+04  0.50400001928E-02 0. -1.
       -1   -1    0    0    0  501  0.00000000000E+00  0.00000000000E+00 -0.25822807062E+04  0.25822807062E+04  0.50400001928E-02 0.  1.
    10030    2    1    2    0    0  0.00000000000E+00  0.00000000000E+00 -0.12701024381E+04  0.38944589743E+04  0.36815282831E+04 0.  0.
        2    1    3    3  502    0  0.97437096174E+03 -0.48444822141E+03 -0.22056190010E+04  0.24594397793E+04  0.25500000920E-02 0.  1.
       -2    1    3    3    0  502 -0.97437096174E+03  0.48444822141E+03  0.93551656297E+03  0.14350191950E+04  0.25500000920E-02 0. -1.
</event>
<event>
 5   0  0.2996969E-07  0.3693421E+04  0.7818609E-02  0.8069421E-01
       -2   -1    0    0    0  501  0.00000000000E+00  0.00000000000E+00  0.19542972341E+04  0.19542972341E+04  0.25500000920E-02 0. -1.
        2   -1    0    0  501    0  0.00000000000E+00  0.00000000000E+00 -0.17450466518E+04  0.17450466518E+04  0.25500000920E-02 0.  1.
    10030    2    1    2    0    0  0.00000000000E+00  0.00000000000E+00  0.20925058231E+03  0.36993438860E+04  0.36934210944E+04 0.  0.
        1    1    3    3  502    0  0.32444315790E+03  0.14569914326E+04  0.11936832427E+04  0.19112736804E+04  0.50400001928E-02 0. -1.
       -1    1    3    3    0  502 -0.32444315790E+03 -0.14569914326E+04 -0.98443266040E+03  0.17880702056E+04  0.50400001928E-02 0.  1.
</event>
<event>
 5   0  0.9646615E-08  0.3708493E+04  0.7818609E-02  0.8066082E-01
        1   -1    0    0  501    0  0.00000000000E+00  0.00000000000E+00  0.15241102756E+04  0.15241102756E+04  0.50400001928E-02 0.  1.
       -1   -1    0    0    0  501  0.00000000000E+00  0.00000000000E+00 -0.22558934688E+04  0.22558934688E+04  0.50400001928E-02 0. -1.
    10030    2    1    2    0    0  0.00000000000E+00  0.00000000000E+00 -0.73178319314E+03  0.37800037444E+04  0.37084931800E+04 0.  0.
        2    1    3    3  502    0  0.15887563169E+04  0.54058166414E+03 -0.11696756703E+04  0.20456090398E+04  0.25500000920E-02 0. -1.
       -2    1    3    3    0  502 -0.15887563169E+04 -0.54058166414E+03  0.43789247712E+03  0.17343947046E+04  0.25500000920E-02 0.  1.
</event>
<event>
 5   0  0.9341000E-08  0.3684952E+04  0.7818609E-02  0.8071305E-01
        1   -1    0    0  501    0  0.00000000000E+00  0.00000000000E+00  0.27216849957E+04  0.27216849957E+04  0.50400001928E-02 0.  1.
       -1   -1    0    0    0  501  0.00000000000E+00  0.00000000000E+00 -0.12472856625E+04  0.12472856625E+04  0.50400001928E-02 0. -1.
    10030    2    1    2    0    0  0.00000000000E+00  0.00000000000E+00  0.14743993332E+04  0.39689706583E+04  0.36849524681E+04 0.  0.
        3    1    3    3  502    0  0.11346138334E+04  0.83805874982E+03 -0.53949908141E+03  0.15102153118E+04  0.10100000352E+00 0. -1.
       -3    1    3    3    0  502 -0.11346138334E+04 -0.83805874982E+03  0.20138984146E+04  0.24587553464E+04  0.10100000352E+00 0.  1.
</event>
<event>
 5   0  0.2897133E-07  0.3694566E+04  0.7818609E-02  0.8069167E-01
        2   -1    0    0  501    0  0.00000000000E+00  0.00000000000E+00  0.18727849284E+04  0.18727849284E+04  0.25500000920E-02 0. -1.
       -2   -1    0    0    0  501  0.00000000000E+00  0.00000000000E+00 -0.18221282243E+04  0.18221282243E+04  0.25500000920E-02 0.  1.
    10030    2    1    2    0    0  0.00000000000E+00  0.00000000000E+00  0.50656704111E+02  0.36949131528E+04  0.36945658885E+04 0.  0.
        4    1    3    3  502    0 -0.29506905807E+03  0.40475892798E+03  0.18035722843E+04  0.18718360335E+04  0.12699999809E+01 0. -1.
       -4    1    3    3    0  502  0.29506905807E+03 -0.40475892798E+03 -0.17529155801E+04  0.18230771193E+04  0.12699999809E+01 0.  1.
</event>
<event>
 5   0  0.2897133E-07  0.3508184E+04  0.7818609E-02  0.8111853E-01
       -2   -1    0    0    0  501  0.00000000000E+00  0.00000000000E+00  0.10768641231E+04  0.10768641231E+04  0.25500000920E-02 0.  1.
        2   -1    0    0  501    0  0.00000000000E+00  0.00000000000E+00 -0.28572202108E+04  0.28572202108E+04  0.25500000920E-02 0. -1.
    10030    2    1    2    0    0  0.00000000000E+00  0.00000000000E+00 -0.17803560878E+04  0.39340843339E+04  0.35081835395E+04 0.  0.
        4    1    3    3  502    0 -0.12189480522E+04  0.10449586562E+04 -0.16823860175E+04  0.23255531110E+04  0.12699999809E+01 0. -1.
       -4    1    3    3    0  502  0.12189480522E+04 -0.10449586562E+04 -0.97970070229E+02  0.16085312228E+04  0.12699999809E+01 0.  1.
</event>
<event>
 5   0  0.2897133E-07  0.3332929E+04  0.7818609E-02  0.8154567E-01
        2   -1    0    0  501    0  0.00000000000E+00  0.00000000000E+00  0.20815105044E+04  0.20815105044E+04  0.25500000920E-02 0. -1.
       -2   -1    0    0    0  501  0.00000000000E+00  0.00000000000E+00 -0.13341772588E+04  0.13341772588E+04  0.25500000920E-02 0.  1.
    10030    2    1    2    0    0  0.00000000000E+00  0.00000000000E+00  0.74733324563E+03  0.34156877632E+04  0.33329290295E+04 0.  0.
        4    1    3    3  502    0 -0.14076740156E+04  0.89113638542E+03  0.41245039389E+03  0.17163295523E+04  0.12699999809E+01 0.  1.
       -4    1    3    3    0  502  0.14076740156E+04 -0.89113638542E+03  0.33488285174E+03  0.16993582109E+04  0.12699999809E+01 0. -1.
</event>
<event>
 5   0  0.3032442E-07  0.3683449E+04  0.7818609E-02  0.8071640E-01
       -2   -1    0    0    0  501  0.00000000000E+00  0.00000000000E+00  0.12367212192E+04  0.12367212192E+04  0.25500000920E-02 0.  1.
        2   -1    0    0  501    0  0.00000000000E+00  0.00000000000E+00 -0.27426955697E+04  0.27426955697E+04  0.25500000920E-02 0. -1.
    10030    2    1    2    0    0  0.00000000000E+00  0.00000000000E+00 -0.15059743505E+04  0.39794167890E+04  0.36834493666E+04 0.  0.
        3    1    3    3  502    0 -0.12982643372E+04  0.90625885641E+03 -0.17694096011E+04  0.23743642835E+04  0.10100000352E+00 0. -1.
       -3    1    3    3    0  502  0.12982643372E+04 -0.90625885641E+03  0.26343525059E+03  0.16050525055E+04  0.10100000352E+00 0.  1.
</event>
<event>
 5   0  0.9341000E-08  0.3712850E+04  0.7818609E-02  0.8065120E-01
        1   -1    0    0  501    0  0.00000000000E+00  0.00000000000E+00  0.10966714804E+04  0.10966714804E+04  0.50400001928E-02 0. -1.
       -1   -1    0    0    0  501  0.00000000000E+00  0.00000000000E+00 -0.31425216946E+04  0.31425216946E+04  0.50400001928E-02 0.  1.
    10030    2    1    2    0    0  0.00000000000E+00  0.00000000000E+00 -0.20458502142E+04  0.42391931750E+04  0.37128500745E+04 0.  0.
        1    1    3    3  502    0 -0.17428420031E+04 -0.39410181834E+03 -0.15977880138E+04  0.23970275401E+04  0.50400001928E-02 0.  1.
       -1    1    3    3    0  502  0.17428420031E+04  0.39410181834E+03 -0.44806220040E+03  0.18421656349E+04  0.50400001928E-02 0. -1.
</event>
<event>
 5   0  0.3008879E-07  0.3527325E+04  0.7818609E-02  0.8107345E-01
        2   -1    0    0  501    0  0.00000000000E+00  0.00000000000E+00  0.24251311614E+04  0.24251311614E+04  0.25500000920E-02 0. -1.
       -2   -1    0    0    0  501  0.00000000000E+00  0.00000000000E+00 -0.12826132018E+04  0.12826132018E+04  0.25500000920E-02 0.  1.
    10030    2    1    2    0    0  0.00000000000E+00  0.00000000000E+00  0.11425179596E+04  0.37077443632E+04  0.35273249035E+04 0.  0.
        2    1    3    3  502    0 -0.72722520085E+03 -0.22232769344E+03 -0.11014291038E+04  0.13384439349E+04  0.25500000920E-02 0.  1.
       -2    1    3    3    0  502  0.72722520085E+03  0.22232769344E+03  0.22439470635E+04  0.23693004283E+04  0.25500000920E-02 0. -1.
</event>
<event>
 5   0  0.2996969E-07  0.3709572E+04  0.7818609E-02  0.8065844E-01
       -2   -1    0    0    0  501  0.00000000000E+00  0.00000000000E+00  0.11084769640E+04  0.11084769640E+04  0.25500000920E-02 0. -1.
        2   -1    0    0  501    0  0.00000000000E+00  0.00000000000E+00 -0.31035660102E+04  0.31035660102E+04  0.25500000920E-02 0.  1.
    10030    2    1    2    0    0  0.00000000000E+00  0.00000000000E+00 -0.19950890461E+04  0.42120429742E+04  0.37095721741E+04 0.  0.
        1    1    3    3  502    0 -0.88788554199E+03 -0.88184771722E+03 -0.25520097970E+04  0.28423142219E+04  0.50400001928E-02 0.  1.
       -1    1    3    3    0  502  0.88788554199E+03  0.88184771722E+03  0.55692075089E+03  0.13697287523E+04  0.50400001928E-02 0. -1.
</event>
<event>
 5   0  0.9646615E-08  0.3735406E+04  0.7818609E-02  0.8060160E-01
        1   -1    0    0  501    0  0.00000000000E+00  0.00000000000E+00  0.21140426773E+04  0.21140426773E+04  0.50400001928E-02 0.  1.
       -1   -1    0    0    0  501  0.00000000000E+00  0.00000000000E+00 -0.16500685877E+04  0.16500685877E+04  0.50400001928E-02 0. -1.
    10030    2    1    2    0    0  0.00000000000E+00  0.00000000000E+00  0.46397408963E+03  0.37641112650E+04  0.37354064919E+04 0.  0.
        2    1    3    3  502    0 -0.32769880304E+03 -0.10079599513E+04 -0.13176684662E+04  0.16910410864E+04  0.25500000920E-02 0. -1.
       -2    1    3    3    0  502  0.32769880304E+03  0.10079599513E+04  0.17816425558E+04  0.20730701787E+04  0.25500000920E-02 0.  1.
</event>
<event>
 5   0  0.9646615E-08  0.3617354E+04  0.7818609E-02  0.8086528E-01
       -1   -1    0    0    0  501  0.00000000000E+00  0.00000000000E+00  0.15196230960E+04  0.15196230960E+04  0.50400001928E-02 0. -1.
        1   -1    0    0  501    0  0.00000000000E+00  0.00000000000E+00 -0.21527132373E+04  0.21527132373E+04  0.50400001928E-02 0.  1.
    10030    2    1    2    0    0  0.00000000000E+00  0.00000000000E+00 -0.63309014135E+03  0.36723363333E+04  0.36173541461E+04 0.  0.
        2    1    3    3  502    0  0.14011210854E+04  0.86534113561E+03 -0.10758146991E+04  0.19670619827E+04  0.25500000920E-02 0.  1.
       -2    1    3    3    0  502 -0.14011210854E+04 -0.86534113561E+03  0.44272455778E+03  0.17052743506E+04  0.25500000920E-02 0. -1.
</event>
<event>
 5   0  0.2996969E-07  0.3660067E+04  0.7818609E-02  0.8076869E-01
        2   -1    0    0  501    0  0.00000000000E+00  0.00000000000E+00  0.15146245064E+04  0.15146245064E+04  0.25500000920E-02 0.  1.
       -2   -1    0    0    0  501  0.00000000000E+00  0.00000000000E+00 -0.22111242935E+04  0.22111242935E+04  0.25500000920E-02 0. -1.
    10030    2    1    2    0    0  0.00000000000E+00  0.00000000000E+00 -0.69649978705E+03  0.37257487999E+04  0.36600672353E+04 0.  0.
        1    1    3    3  502    0  0.15075533223E+04  0.10297648342E+04 -0.21993057792E+03  0.18388861010E+04  0.50400001928E-02 0. -1.
       -1    1    3    3    0  502 -0.15075533223E+04 -0.10297648342E+04 -0.47656920913E+03  0.18868626989E+04  0.50400001928E-02 0.  1.
</event>
<event>
 5   0  0.2897133E-07  0.3704615E+04  0.7818609E-02  0.8066940E-01
       -2   -1    0    0    0  501  0.00000000000E+00  0.00000000000E+00  0.14844839296E+04  0.14844839296E+04  0.25500000920E-02 0. -1.
        2   -1    0    0  501    0  0.00000000000E+00  0.00000000000E+00 -0.23112699423E+04  0.23112699423E+04  0.25500000920E-02 0.  1.
    10030    2    1    2    0    0  0.00000000000E+00  0.00000000000E+00 -0.82678601267E+03  0.37957538719E+04  0.37046150063E+04 0.  0.
        4    1    3    3  502    0  0.14047803690E+03  0.13751487045E+03 -0.23005511732E+04  0.23089351944E+04  0.12699999809E+01 0.  1.
       -4    1    3    3    0  502 -0.14047803690E+03 -0.13751487045E+03  0.14737651605E+04  0.14868186775E+04  0.12699999809E+01 0. -1.
</event>
<event>
 5   0  0.2897133E-07  0.3699689E+04  0.7818609E-02  0.8068031E-01
        2   -1    0    0  501    0  0.00000000000E+00  0.00000000000E+00  0.21847208693E+04  0.21847208693E+04  0.25500000920E-02 0.  1.
       -2   -1    0    0    0  501  0.00000000000E+00  0.00000000000E+00 -0.15662982652E+04  0.15662982652E+04  0.25500000920E-02 0. -1.
    10030    2    1    2    0    0  0.00000000000E+00  0.00000000000E+00  0.61842260407E+03  0.37510191345E+04  0.36996889099E+04 0.  0.
        4    1    3    3  502    0  0.88458957560E+03 -0.15672836335E+04  0.74298620171E+03  0.19470251190E+04  0.12699999809E+01 0.  1.
       -4    1    3    3    0  502 -0.88458957560E+03  0.15672836335E+04 -0.12456359764E+03  0.18039940155E+04  0.12699999809E+01 0. -1.
</event>
<event>
 5   0  0.9341000E-08  0.3720769E+04  0.7818609E-02  0.8063375E-01
       -1   -1    0    0    0  501  0.00000000000E+00  0.00000000000E+00  0.15134620145E+04  0.15134620145E+04  0.50400001928E-02 0. -1.
        1   -1    0    0  501    0  0.00000000000E+00  0.00000000000E+00 -0.22868298653E+04  0.22868298653E+04  0.50400001928E-02 0.  1.
    10030    2    1    2    0    0  0.00000000000E+00  0.00000000000E+00 -0.77336785079E+03  0.38002918798E+04  0.37207688102E+04 0.  0.
        3    1    3    3  502    0 -0.13018223080E+04  0.11400781648E+04  0.31092980064E+03  0.17581799949E+04  0.10100000352E+00 0. -1.
       -3    1    3    3    0  502  0.13018223080E+04 -0.11400781648E+04 -0.10842976514E+04  0.20421118849E+04  0.10100000352E+00 0.  1.
</event>
<event>
 5   0  0.9418945E-08  0.3676181E+04  0.7818609E-02  0.8073261E-01
        1   -1    0    0  501    0  0.00000000000E+00  0.00000000000E+00  0.15175423234E+04  0.15175423234E+04  0.50400001928E-02 0.  1.
       -1   -1    0    0    0  501  0.00000000000E+00  0.00000000000E+00 -0.22263470120E+04  0.22263470120E+04  0.50400001928E-02 0. -1.
    10030    2    1    2    0    0  0.00000000000E+00  0.00000000000E+00 -0.70880468858E+03  0.37438893355E+04  0.36761805273E+04 0.  0.
        5    1    3    3  502    0 -0.12184553792E+04  0.10106149942E+04  0.59692107970E+03  0.16918371798E+04  0.46999998093E+01 0.  1.
       -5    1    3    3    0  502  0.12184553792E+04 -0.10106149942E+04 -0.13057257683E+04  0.20520521557E+04  0.46999998093E+01 0. -1.
</event>
<event>
 5   0  0.3008879E-07  0.3689671E+04  0.7818609E-02  0.8070255E-01
       -2   -1    0    0    0  501  0.00000000000E+00  0.00000000000E+00  0.20710778213E+04  0.20710778213E+04  0.25500000920E-02 0. -1.
        2   -1    0    0  501    0  0.00000000000E+00  0.00000000000E+00 -0.16433079795E+04  0.16433079795E+04  0.25500000920E-02 0.  1.
    10030    2    1    2    0    0  0.00000000000E+00  0.00000000000E+00  0.42776984171E+03  0.37143858008E+04  0.36896713729E+04 0.  0.
        2    1    3    3  502    0  0.91192206886E+03  0.38993880979E+03  0.17798637304E+04  0.20375399466E+04  0.25500000920E-02 0. -1.
       -2    1    3    3    0  502 -0.91192206886E+03 -0.38993880979E+03 -0.13520938887E+04  0.16768458542E+04  0.25500000920E-02 0.  1.
</event>
<event>
 5   0  0.9646615E-08  0.3845649E+04  0.7818609E-02  0.8036429E-01
       -1   -1    0    0    0  501  0.00000000000E+00  0.00000000000E+00  0.15489175978E+04  0.15489175978E+04  0.50400001928E-02 0.  1.
        1   -1    0    0  501    0  0.00000000000E+00  0.00000000000E+00 -0.23869920659E+04  0.23869920659E+04  0.50400001928E-02 0. -1.
    10030    2    1    2    0    0  0.00000000000E+00  0.00000000000E+00 -0.83807446808E+03  0.39359096637E+04  0.38456489786E+04 0.  0.
        2    1    3    3  502    0  0.14003713407E+04 -0.24832360882E+03 -0.17434534145E+04  0.22499631808E+04  0.25500000920E-02 0. -1.
       -2    1    3    3    0  502 -0.14003713407E+04  0.24832360882E+03  0.90537894639E+03  0.16859464829E+04  0.25500000920E-02 0.  1.
</event>
<event>
 5   0  0.9646615E-08  0.3700021E+04  0.7818609E-02  0.8067957E-01
       -1   -1    0    0    0  501  0.00000000000E+00  0.00000000000E+00  0.15545758872E+04  0.15545758872E+04  0.50400001928E-02 0. -1.
        1   -1    0    0  501    0  0.00000000000E+00  0.00000000000E+00 -0.22015900676E+04  0.22015900676E+04  0.50400001928E-02 0.  1.
    10030    2    1    2    0    0  0.00000000000E+00  0.00000000000E+00 -0.64701418041E+03  0.37561659548E+04  0.37000209905E+04 0.  0.
        2    1    3    3  502    0 -0.15956168122E+04  0.34152608426E+03 -0.12084605896E+04  0.20305196562E+04  0.25500000920E-02 0.  1.
       -2    1    3    3    0  502  0.15956168122E+04 -0.34152608426E+03  0.56144640921E+03  0.17256462986E+04  0.25500000920E-02 0. -1.
</event>
<event>
 5   0  0.9341000E-08  0.3681264E+04  0.7818609E-02  0.8072127E-01
       -1   -1    0    0    0  501  0.00000000000E+00  0.00000000000E+00  0.17343243459E+04  0.17343243459E+04  0.50400001928E-02 0.  1.
        1   -1    0    0  501    0  0.00000000000E+00  0.00000000000E+00 -0.19534555691E+04  0.19534555691E+04  0.50400001928E-02 0. -1.
    10030    2    1    2    0    0  0.00000000000E+00  0.00000000000E+00 -0.21913122321E+03  0.36877799151E+04  0.36812636701E+04 0.  0.
        1    1    3    3  502    0 -0.11198541626E+04  0.37984616389E+03 -0.15225832507E+04  0.19278527457E+04  0.50400001928E-02 0. -1.
       -1    1    3    3    0  502  0.11198541626E+04 -0.37984616389E+03  0.13034520275E+04  0.17599271694E+04  0.50400001928E-02 0.  1.
</event>
<event>
 5   0  0.3008879E-07  0.3669846E+04  0.7818609E-02  0.8074677E-01
        2   -1    0    0  501    0  0.00000000000E+00  0.00000000000E+00  0.17925175959E+04  0.17925175959E+04  0.25500000920E-02 0.  1.
       -2   -1    0    0    0  501  0.00000000000E+00  0.00000000000E+00 -0.18783311000E+04  0.18783311000E+04  0.25500000920E-02 0. -1.
    10030    2    1    2    0    0  0.00000000000E+00  0.00000000000E+00 -0.85813504161E+02  0.36708486959E+04  0.36698455268E+04 0.  0.
        2    1    3    3  502    0  0.37596924781E+03 -0.46976032371E+03 -0.17768493547E+04  0.18759587592E+04  0.25500000920E-02 0. -1.
       -2    1    3    3    0  502 -0.37596924781E+03  0.46976032371E+03  0.16910358505E+04  0.17948899367E+04  0.25500000920E-02 0.  1.
</event>
<event>
 5   0  0.2897133E-07  0.3672930E+04  0.7818609E-02  0.8073987E-01
        2   -1    0    0  501    0  0.00000000000E+00  0.00000000000E+00  0.24500669095E+04  0.24500669095E+04  0.25500000920E-02 0. -1.
       -2   -1    0    0    0  501  0.00000000000E+00  0.00000000000E+00 -0.13765355592E+04  0.13765355592E+04  0.25500000920E-02 0.  1.
    10030    2    1    2    0    0  0.00000000000E+00  0.00000000000E+00  0.10735313504E+04  0.38266024687E+04  0.36729302870E+04 0.  0.
        4    1    3    3  502    0  0.48179856903E+03 -0.30342711885E+03 -0.12822522365E+04  0.14029862040E+04  0.12699999809E+01 0.  1.
       -4    1    3    3    0  502 -0.48179856903E+03  0.30342711885E+03  0.23557835869E+04  0.24236162647E+04  0.12699999809E+01 0. -1.
</event>
<event>
 5   0  0.9341000E-08  0.3430750E+04  0.7818609E-02  0.8130400E-01
        1   -1    0    0  501    0  0.00000000000E+00  0.00000000000E+00  0.17817160532E+04  0.17817160532E+04  0.50400001928E-02 0. -1.
       -1   -1    0    0    0  501  0.00000000000E+00  0.00000000000E+00 -0.16515045075E+04  0.16515045075E+04  0.50400001928E-02 0.  1.
    10030    2    1    2    0    0  0.00000000000E+00  0.00000000000E+00  0.13021154566E+03  0.34332205607E+04  0.34307504094E+04 0.  0.
        3    1    3    3  502    0  0.94684306596E+02 -0.14079624551E+04  0.10410970128E+04  0.17536266402E+04  0.10100000352E+00 0. -1.
       -3    1    3    3    0  502 -0.94684306596E+02  0.14079624551E+04 -0.91088546717E+03  0.16795939204E+04  0.10100000352E+00 0.  1.
</event>
<event>
 5   0  0.2996969E-07  0.3722033E+04  0.7818609E-02  0.8063096E-01
       -2   -1    0    0    0  501  0.00000000000E+00  0.00000000000E+00  0.17141471716E+04  0.17141471716E+04  0.25500000920E-02 0. -1.
        2   -1    0    0  501    0  0.00000000000E+00  0.00000000000E+00 -0.20204701893E+04  0.20204701893E+04  0.25500000920E-02 0.  1.
    10030    2    1    2    0    0  0.00000000000E+00  0.00000000000E+00 -0.30632301775E+03  0.37346173609E+04  0.37220334551E+04 0.  0.
        1    1    3    3  502    0 -0.57878632103E+03 -0.45677759265E+03 -0.18676643856E+04  0.20079366603E+04  0.50400001928E-02 0.  1.
       -1    1    3    3    0  502  0.57878632103E+03  0.45677759265E+03  0.15613413679E+04  0.17266807006E+04  0.50400001928E-02 0. -1.
</event>
<event>
 5   0  0.9646615E-08  0.3709585E+04  0.7818609E-02  0.8065841E-01
        1   -1    0    0  501    0  0.00000000000E+00  0.00000000000E+00  0.26773076983E+04  0.26773076983E+04  0.50400001928E-02 0.  1.
       -1   -1    0    0    0  501  0.00000000000E+00  0.00000000000E+00 -0.12849680992E+04  0.12849680992E+04  0.50400001928E-02 0. -1.
    10030    2    1    2    0    0  0.00000000000E+00  0.00000000000E+00  0.13923395992E+04  0.39622757975E+04  0.37095848738E+04 0.  0.
        2    1    3    3  502    0 -0.10665092245E+04  0.47290802143E+03 -0.84398545048E+03  0.14399289438E+04  0.25500000920E-02 0. -1.
       -2    1    3    3    0  502  0.10665092245E+04 -0.47290802143E+03  0.22363250497E+04  0.25223468537E+04  0.25500000920E-02 0.  1.
</event>
<event>
 5   0  0.9341000E-08  0.3685304E+04  0.7818609E-02  0.8071226E-01
        1   -1    0    0  501    0  0.00000000000E+00  0.00000000000E+00  0.14154610734E+04  0.14154610734E+04  0.50400001928E-02 0.  1.
       -1   -1    0    0    0  501  0.00000000000E+00  0.00000000000E+00 -0.23987704751E+04  0.23987704751E+04  0.50400001928E-02 0. -1.
    10030    2    1    2    0    0  0.00000000000E+00  0.00000000000E+00 -0.98330940168E+03  0.38142315486E+04  0.36853039124E+04 0.  0.
        1    1    3    3  502    0 -0.43559450241E+03 -0.71504143815E+02 -0.23432385997E+04  0.23844543502E+04  0.50400001928E-02 0. -1.
       -1    1    3    3    0  502  0.43559450241E+03  0.71504143815E+02  0.13599291980E+04  0.14297771983E+04  0.50400001928E-02 0.  1.
</event>
<event>
 5   0  0.9341000E-08  0.3694402E+04  0.7818609E-02  0.8069204E-01
       -1   -1    0    0    0  501  0.00000000000E+00  0.00000000000E+00  0.17253220481E+04  0.17253220481E+04  0.50400001928E-02 0.  1.
        1   -1    0    0  501    0  0.00000000000E+00  0.00000000000E+00 -0.19776891335E+04  0.19776891335E+04  0.50400001928E-02 0. -1.
    10030    2    1    2    0    0  0.00000000000E+00  0.00000000000E+00 -0.25236708544E+03  0.37030111816E+04  0.36944015301E+04 0.  0.
        3    1    3    3  502    0 -0.99488613838E+03  0.90497740602E+03  0.11430091132E+04  0.17650077555E+04  0.10100000352E+00 0.  1.
       -3    1    3    3    0  502  0.99488613838E+03 -0.90497740602E+03 -0.13953761987E+04  0.19380034262E+04  0.10100000352E+00 0. -1.
</event>
<event>
 5   0  0.9341000E-08  0.3698764E+04  0.7818609E-02  0.8068236E-01
        1   -1    0    0  501    0  0.00000000000E+00  0.00000000000E+00  0.15209431649E+04  0.15209431649E+04  0.50400001928E-02 0. -1.
       -1   -1    0    0    0  501  0.00000000000E+00  0.00000000000E+00 -0.22487447498E+04  0.22487447498E+04  0.50400001928E-02 0.  1.
    10030    2    1    2    0    0  0.00000000000E+00  0.00000000000E+00 -0.72780158495E+03  0.37696879147E+04  0.36987635538E+04 0.  0.
        1    1    3    3  502    0 -0.14327901272E+04 -0.79447130616E+03  0.51053768198E+03  0.17160189188E+04  0.50400001928E-02 0. -1.
       -1    1    3    3    0  502  0.14327901272E+04  0.79447130616E+03 -0.12383392669E+04  0.20536689959E+04  0.50400001928E-02 0.  1.
</event>
<event>
 5   0  0.9341000E-08  0.3700641E+04  0.7818609E-02  0.8067820E-01
        1   -1    0    0  501    0  0.00000000000E+00  0.00000000000E+00  0.21765407563E+04  0.21765407563E+04  0.50400001928E-02 0. -1.
       -1   -1    0    0    0  501  0.00000000000E+00  0.00000000000E+00 -0.15729942015E+04  0.15729942015E+04  0.50400001928E-02 0.  1.
    10030    2    1    2    0    0  0.00000000000E+00  0.00000000000E+00  0.60354655480E+03  0.37495349578E+04  0.37006410196E+04 0.  0.
        1    1    3    3  502    0  0.10757679505E+04 -0.82864475512E+03 -0.97171695084E+03  0.16697792208E+04  0.50400001928E-02 0.  1.
       -1    1    3    3    0  502 -0.10757679505E+04  0.82864475512E+03  0.15752635056E+04  0.20797557370E+04  0.50400001928E-02 0. -1.
</event>
<event>
 5   0  0.9646615E-08  0.3672741E+04  0.7818609E-02  0.8074030E-01
       -1   -1    0    0    0  501  0.00000000000E+00  0.00000000000E+00  0.17025561215E+04  0.17025561215E+04  0.50400001928E-02 0. -1.
        1   -1    0    0  501    0  0.00000000000E+00  0.00000000000E+00 -0.19807016420E+04  0.19807016420E+04  0.50400001928E-02 0.  1.
    10030    2    1    2    0    0  0.00000000000E+00  0.00000000000E+00 -0.27814552052E+03  0.36832577635E+04  0.36727405057E+04 0.  0.
        2    1    3    3  502    0 -0.29057632948E+03 -0.40215220088E+03 -0.19122123799E+04  0.19755295952E+04  0.25500000920E-02 0.  1.
       -2    1    3    3    0  502  0.29057632948E+03  0.40215220088E+03  0.16340668593E+04  0.17077281683E+04  0.25500000920E-02 0. -1.
</event>
<event>
 5   0  0.9341000E-08  0.3703462E+04  0.7818609E-02  0.8067195E-01
        1   -1    0    0  501    0  0.00000000000E+00  0.00000000000E+00  0.10885689171E+04  0.10885689171E+04  0.50400001928E-02 0.  1.
       -1   -1    0    0    0  501  0.00000000000E+00  0.00000000000E+00 -0.31499217845E+04  0.31499217845E+04  0.50400001928E-02 0. -1.
    10030    2    1    2    0    0  0.00000000000E+00  0.00000000000E+00 -0.20613528674E+04  0.42384907016E+04  0.37034615948E+04 0.  0.
        1    1    3    3  502    0  0.15890148622E+04 -0.90315833082E+03 -0.13706501558E+04  0.22845885959E+04  0.50400001928E-02 0. -1.
       -1    1    3    3    0  502 -0.15890148622E+04  0.90315833082E+03 -0.69070271156E+03  0.19539021057E+04  0.50400001928E-02 0.  1.
</event>
<event>
 5   0  0.3008879E-07  0.3692222E+04  0.7818609E-02  0.8069688E-01
        2   -1    0    0  501    0  0.00000000000E+00  0.00000000000E+00  0.26155265806E+04  0.26155265806E+04  0.25500000920E-02 0. -1.
       -2   -1    0    0    0  501  0.00000000000E+00  0.00000000000E+00 -0.13030364031E+04  0.13030364031E+04  0.25500000920E-02 0.  1.
    10030    2    1    2    0    0  0.00000000000E+00  0.00000000000E+00  0.13124901775E+04  0.39185629838E+04  0.36922222836E+04 0.  0.
        2    1    3    3  502    0  0.49982151007E+03  0.14553638782E+04 -0.42618973775E+03  0.15967289226E+04  0.25500000920E-02 0.  1.
       -2    1    3    3    0  502 -0.49982151007E+03 -0.14553638782E+04  0.17386799152E+04  0.23218340611E+04  0.25500000920E-02 0. -1.
</event>
<event>
 5   0  0.9646615E-08  0.3674495E+04  0.7818609E-02  0.8073638E-01
       -1   -1    0    0    0  501  0.00000000000E+00  0.00000000000E+00  0.19103203074E+04  0.19103203074E+04  0.50400001928E-02 0.  1.
        1   -1    0    0  501    0  0.00000000000E+00  0.00000000000E+00 -0.17669701639E+04  0.17669701639E+04  0.50400001928E-02 0. -1.
    10030    2    1    2    0    0  0.00000000000E+00  0.00000000000E+00  0.14335014349E+03  0.36772904712E+04  0.36744953322E+04 0.  0.
        2    1    3    3  502    0 -0.63780282484E+03  0.48245410270E+03 -0.15836462043E+04  0.17741165985E+04  0.25500000920E-02 0. -1.
       -2    1    3    3    0  502  0.63780282484E+03 -0.48245410270E+03  0.17269963478E+04  0.19031738727E+04  0.25500000920E-02 0.  1.
</event>
<event>
 5   0  0.9418945E-08  0.3694763E+04  0.7818609E-02  0.8069123E-01
       -1   -1    0    0    0  501  0.00000000000E+00  0.00000000000E+00  0.20969326566E+04  0.20969326566E+04  0.50400001928E-02 0.  1.
        1   -1    0    0  501    0  0.00000000000E+00  0.00000000000E+00 -0.16275284624E+04  0.16275284624E+04  0.50400001928E-02 0. -1.
    10030    2    1    2    0    0  0.00000000000E+00  0.00000000000E+00  0.46940419415E+03  0.37244611190E+04  0.36947625539E+04 0.  0.
        5    1    3    3  502    0  0.66684074633E+03  0.11709589112E+04  0.15085742772E+04  0.20227802136E+04  0.46999998093E+01 0.  1.
       -5    1    3    3    0  502 -0.66684074633E+03 -0.11709589112E+04 -0.10391700830E+04  0.17016809055E+04  0.46999998093E+01 0. -1.
</event>
<event>
 5   0  0.2996969E-07  0.3697566E+04  0.7818609E-02  0.8068501E-01
       -2   -1    0    0    0  501  0.00000000000E+00  0.00000000000E+00  0.15631615758E+04  0.15631615758E+04  0.25500000920E-02 0. -1.
        2   -1    0    0  501    0  0.00000000000E+00  0.00000000000E+00 -0.21865935171E+04  0.21865935171E+04  0.25500000920E-02 0.  1.
    10030    2    1    2    0    0  0.00000000000E+00  0.00000000000E+00 -0.62343194130E+03  0.37497550930E+04  0.36975662092E+04 0.  0.
        1    1    3    3  502    0 -0.13210744820E+04  0.11539601241E+04 -0.90402928188E+03  0.19733551879E+04  0.50400001928E-02 0.  1.
       -1    1    3    3    0  502  0.13210744820E+04 -0.11539601241E+04  0.28059734058E+03  0.17763999051E+04  0.50400001928E-02 0. -1.
</event>
<event>
 5   0  0.2996969E-07  0.3695958E+04  0.7818609E-02  0.8068858E-01
        2   -1    0    0  501    0  0.00000000000E+00  0.00000000000E+00  0.24265874164E+04  0.24265874164E+04  0.25500000920E-02 0.  1.
       -2   -1    0    0    0  501  0.00000000000E+00  0.00000000000E+00 -0.14073371265E+04  0.14073371265E+04  0.25500000920E-02 0. -1.
    10030    2    1    2    0    0  0.00000000000E+00  0.00000000000E+00  0.10192502900E+04  0.38339245429E+04  0.36959580959E+04 0.  0.
        1    1    3    3  502    0 -0.21227624067E+03 -0.12799570920E+04  0.18746788603E+04  0.22798623180E+04  0.50400001928E-02 0. -1.
       -1    1    3    3    0  502  0.21227624067E+03  0.12799570920E+04 -0.85542857035E+03  0.15540622249E+04  0.50400001928E-02 0.  1.
</event>
<event>
 5   0  0.3008879E-07  0.3709181E+04  0.7818609E-02  0.8065930E-01
        2   -1    0    0  501    0  0.00000000000E+00  0.00000000000E+00  0.11901396338E+04  0.11901396338E+04  0.25500000920E-02 0.  1.
       -2   -1    0    0    0  501  0.00000000000E+00  0.00000000000E+00 -0.28900019091E+04  0.28900019091E+04  0.25500000920E-02 0. -1.
    10030    2    1    2    0    0  0.00000000000E+00  0.00000000000E+00 -0.16998622753E+04  0.40801415429E+04  0.37091809413E+04 0.  0.
        2    1    3    3  502    0  0.12681428380E+04  0.13217214386E+04 -0.53041237265E+03  0.19069533565E+04  0.25500000920E-02 0.  1.
       -2    1    3    3    0  502 -0.12681428380E+04 -0.13217214386E+04 -0.11694499026E+04  0.21731881864E+04  0.25500000920E-02 0. -1.
</event>
<event>
 5   0  0.2913025E-07  0.3717308E+04  0.7818609E-02  0.8064137E-01
        2   -1    0    0  501    0  0.00000000000E+00  0.00000000000E+00  0.16945289400E+04  0.16945289400E+04  0.25500000920E-02 0.  1.
       -2   -1    0    0    0  501  0.00000000000E+00  0.00000000000E+00 -0.20386758899E+04  0.20386758899E+04  0.25500000920E-02 0. -1.
    10030    2    1    2    0    0  0.00000000000E+00  0.00000000000E+00 -0.34414694990E+03  0.37332048299E+04  0.37173083244E+04 0.  0.
        5    1    3    3  502    0 -0.11248300475E+04 -0.56182282642E+03 -0.15467534416E+04  0.19933278263E+04  0.46999998093E+01 0. -1.
       -5    1    3    3    0  502  0.11248300475E+04  0.56182282642E+03  0.12026064917E+04  0.17398770036E+04  0.46999998093E+01 0.  1.
</event>
<event>
 5   0  0.9341000E-08  0.3702231E+04  0.7818609E-02  0.8067468E-01
       -1   -1    0    0    0  501  0.00000000000E+00  0.00000000000E+00  0.11276052569E+04  0.11276052569E+04  0.50400001928E-02 0.  1.
        1   -1    0    0  501    0  0.00000000000E+00  0.00000000000E+00 -0.30388553809E+04  0.30388553809E+04  0.50400001928E-02 0. -1.
    10030    2    1    2    0    0  0.00000000000E+00  0.00000000000E+00 -0.19112501240E+04  0.41664606378E+04  0.37022313826E+04 0.  0.
        4    1    3    3  502    0  0.11677835760E+04  0.14565869473E+03 -0.25636727320E+04  0.28208783074E+04  0.12699999809E+01 0. -1.
       -4    1    3    3    0  502 -0.11677835760E+04 -0.14565869473E+03  0.65242260797E+03  0.13455823304E+04  0.12699999809E+01 0.  1.
</event>
<event>
 5   0  0.2996969E-07  0.3675361E+04  0.7818609E-02  0.8073444E-01
        2   -1    0    0  501    0  0.00000000000E+00  0.00000000000E+00  0.20560950322E+04  0.20560950322E+04  0.25500000920E-02 0. -1.
       -2   -1    0    0    0  501  0.00000000000E+00  0.00000000000E+00 -0.16424674006E+04  0.16424674006E+04  0.25500000920E-02 0.  1.
    10030    2    1    2    0    0  0.00000000000E+00  0.00000000000E+00  0.41362763163E+03  0.36985624328E+04  0.36753606968E+04 0.  0.
        1    1    3    3  502    0  0.73018412438E+03 -0.12190122574E+04 -0.96583608845E+03  0.17181382625E+04  0.50400001928E-02 0.  1.
       -1    1    3    3    0  502 -0.73018412438E+03  0.12190122574E+04  0.13794637201E+04  0.19804241703E+04  0.50400001928E-02 0. -1.
</event>
<event>
 5   0  0.9341000E-08  0.3698078E+04  0.7818609E-02  0.8068388E-01
       -1   -1    0    0    0  501  0.00000000000E+00  0.00000000000E+00  0.15660216739E+04  0.15660216739E+04  0.50400001928E-02 0.  1.
        1   -1    0    0  501    0  0.00000000000E+00  0.00000000000E+00 -0.21832039270E+04  0.21832039270E+04  0.50400001928E-02 0. -1.
    10030    2    1    2    0    0  0.00000000000E+00  0.00000000000E+00 -0.61718225314E+03  0.37492256009E+04  0.36980776997E+04 0.  0.
        1    1    3    3  502    0  0.30405433090E+02  0.15635535746E+04 -0.13088063364E+04  0.20392641558E+04  0.50400001928E-02 0. -1.
       -1    1    3    3    0  502 -0.30405433090E+02 -0.15635535746E+04  0.69162408328E+03  0.17099614451E+04  0.50400001928E-02 0.  1.
</event>
<event>
 5   0  0.9646615E-08  0.3701047E+04  0.7818609E-02  0.8067730E-01
       -1   -1    0    0    0  501  0.00000000000E+00  0.00000000000E+00  0.17026571457E+04  0.17026571457E+04  0.50400001928E-02 0.  1.
        1   -1    0    0  501    0  0.00000000000E+00  0.00000000000E+00 -0.20112316091E+04  0.20112316091E+04  0.50400001928E-02 0. -1.
    10030    2    1    2    0    0  0.00000000000E+00  0.00000000000E+00 -0.30857446336E+03  0.37138887548E+04  0.37010473496E+04 0.  0.
        2    1    3    3  502    0  0.34436027678E+03  0.62731685769E+03 -0.18667626648E+04  0.19992281728E+04  0.25500000920E-02 0. -1.
       -2    1    3    3    0  502 -0.34436027678E+03 -0.62731685769E+03  0.15581882015E+04  0.17146605820E+04  0.25500000920E-02 0.  1.
</event>
<event>
 5   0  0.9341000E-08  0.3594742E+04  0.7818609E-02  0.8091697E-01
        1   -1    0    0  501    0  0.00000000000E+00  0.00000000000E+00  0.21594942286E+04  0.21594942286E+04  0.50400001928E-02 0.  1.
       -1   -1    0    0    0  501  0.00000000000E+00  0.00000000000E+00 -0.14959718477E+04  0.14959718477E+04  0.50400001928E-02 0. -1.
    10030    2    1    2    0    0  0.00000000000E+00  0.00000000000E+00  0.66352238085E+03  0.36554660763E+04  0.35947420331E+04 0.  0.
        3    1    3    3  502    0 -0.11115022244E+04  0.12461236514E+04 -0.34451527376E+03  0.17049786314E+04  0.10100000352E+00 0.  1.
       -3    1    3    3    0  502  0.11115022244E+04 -0.12461236514E+04  0.10080376546E+04  0.19504874449E+04  0.10100000352E+00 0. -1.
</event>
<event>
 5   0  0.9418945E-08  0.3590073E+04  0.7818609E-02  0.8092769E-01
        1   -1    0    0  501    0  0.00000000000E+00  0.00000000000E+00  0.24345732442E+04  0.24345732443E+04  0.50400001928E-02 0. -1.
       -1   -1    0    0    0  501  0.00000000000E+00  0.00000000000E+00 -0.13234989689E+04  0.13234989690E+04  0.50400001928E-02 0.  1.
    10030    2    1    2    0    0  0.00000000000E+00  0.00000000000E+00  0.11110742753E+04  0.37580722132E+04  0.35900725222E+04 0.  0.
        5    1    3    3  502    0 -0.30942319405E+03  0.48420681267E+03  0.23356850868E+04  0.24053369546E+04  0.46999998093E+01 0. -1.
       -5    1    3    3    0  502  0.30942319405E+03 -0.48420681267E+03 -0.12246108115E+04  0.13527352586E+04  0.46999998093E+01 0.  1.
</event>
<event>
 5   0  0.9646615E-08  0.3697235E+04  0.7818609E-02  0.8068575E-01
        1   -1    0    0  501    0  0.00000000000E+00  0.00000000000E+00  0.20500529520E+04  0.20500529520E+04  0.50400001928E-02 0. -1.
       -1   -1    0    0    0  501  0.00000000000E+00  0.00000000000E+00 -0.16669746654E+04  0.16669746654E+04  0.50400001928E-02 0.  1.
    10030    2    1    2    0    0  0.00000000000E+00  0.00000000000E+00  0.38307828658E+03  0.37170276174E+04  0.36972348228E+04 0.  0.
        2    1    3    3  502    0  0.70833962331E+03 -0.14156744052E+04  0.11513791029E+04  0.19574352817E+04  0.25500000920E-02 0. -1.
       -2    1    3    3    0  502 -0.70833962331E+03  0.14156744052E+04 -0.76830081632E+03  0.17595923357E+04  0.25500000920E-02 0.  1.
</event>
<event>
 5   0  0.2996969E-07  0.3679528E+04  0.7818609E-02  0.8072514E-01
       -2   -1    0    0    0  501  0.00000000000E+00  0.00000000000E+00  0.22790697724E+04  0.22790697724E+04  0.25500000920E-02 0. -1.
        2   -1    0    0  501    0  0.00000000000E+00  0.00000000000E+00 -0.14851373848E+04  0.14851373848E+04  0.25500000920E-02 0.  1.
    10030    2    1    2    0    0  0.00000000000E+00  0.00000000000E+00  0.79393238763E+03  0.37642071572E+04  0.36795280793E+04 0.  0.
        1    1    3    3  502    0 -0.12939086978E+04 -0.10961285830E+04  0.11268518802E+04  0.20360483169E+04  0.50400001928E-02 0. -1.
       -1    1    3    3    0  502  0.12939086978E+04  0.10961285830E+04 -0.33291949257E+03  0.17281588403E+04  0.50400001928E-02 0.  1.
</event>
<event>
 5   0  0.3032442E-07  0.3639909E+04  0.7818609E-02  0.8081411E-01
        2   -1    0    0  501    0  0.00000000000E+00  0.00000000000E+00  0.12151323351E+04  0.12151323351E+04  0.25500000920E-02 0. -1.
       -2   -1    0    0    0  501  0.00000000000E+00  0.00000000000E+00 -0.27258216886E+04  0.27258216886E+04  0.25500000920E-02 0.  1.
    10030    2    1    2    0    0  0.00000000000E+00  0.00000000000E+00 -0.15106893534E+04  0.39409540237E+04  0.36399088305E+04 0.  0.
        3    1    3    3  502    0  0.39811991864E+03  0.99135546971E+03  0.83993071363E+03  0.13589587009E+04  0.10100000352E+00 0. -1.
       -3    1    3    3    0  502 -0.39811991864E+03 -0.99135546971E+03 -0.23506200670E+04  0.25819953228E+04  0.10100000352E+00 0.  1.
</event>
<event>
 5   0  0.9341000E-08  0.3257101E+04  0.7818609E-02  0.8173898E-01
       -1   -1    0    0    0  501  0.00000000000E+00  0.00000000000E+00  0.12874297490E+04  0.12874297490E+04  0.50400001928E-02 0.  1.
        1   -1    0    0  501    0  0.00000000000E+00  0.00000000000E+00 -0.20600560263E+04  0.20600560263E+04  0.50400001928E-02 0. -1.
    10030    2    1    2    0    0  0.00000000000E+00  0.00000000000E+00 -0.77262627723E+03  0.33474857753E+04  0.32571014187E+04 0.  0.
        1    1    3    3  502    0  0.31244320186E+03 -0.15854682645E+04 -0.59402808965E+03  0.17216851464E+04  0.50400001928E-02 0. -1.
       -1    1    3    3    0  502 -0.31244320186E+03  0.15854682645E+04 -0.17859818759E+03  0.16258006289E+04  0.50400001928E-02 0.  1.
</event>
<event>
 5   0  0.9646615E-08  0.3720580E+04  0.7818609E-02  0.8063416E-01
        1   -1    0    0  501    0  0.00000000000E+00  0.00000000000E+00  0.24131159903E+04  0.24131159903E+04  0.50400001928E-02 0. -1.
       -1   -1    0    0    0  501  0.00000000000E+00  0.00000000000E+00 -0.14341118689E+04  0.14341118689E+04  0.50400001928E-02 0.  1.
    10030    2    1    2    0    0  0.00000000000E+00  0.00000000000E+00  0.97900412141E+03  0.38472278593E+04  0.37205796768E+04 0.  0.
        2    1    3    3  502    0  0.10804001360E+04 -0.78471033202E+03 -0.84982653619E+03  0.15827949648E+04  0.25500000920E-02 0.  1.
       -2    1    3    3    0  502 -0.10804001360E+04  0.78471033202E+03  0.18288306576E+04  0.22644328944E+04  0.25500000920E-02 0. -1.
</event>
<event>
 5   0  0.9341000E-08  0.3633930E+04  0.7818609E-02  0.8082764E-01
       -1   -1    0    0    0  501  0.00000000000E+00  0.00000000000E+00  0.28366342398E+04  0.28366342398E+04  0.50400001928E-02 0. -1.
        1   -1    0    0  501    0  0.00000000000E+00  0.00000000000E+00 -0.11638305015E+04  0.11638305015E+04  0.50400001928E-02 0.  1.
    10030    2    1    2    0    0  0.00000000000E+00  0.00000000000E+00  0.16728037383E+04  0.40004647414E+04  0.36339298012E+04 0.  0.
        1    1    3    3  502    0 -0.59305648792E+03 -0.16846268274E+04  0.12042914956E+04  0.21540662830E+04  0.50400001928E-02 0. -1.
       -1    1    3    3    0  502  0.59305648792E+03  0.16846268274E+04  0.46851224275E+03  0.18463984584E+04  0.50400001928E-02 0.  1.
</event>
<event>
 5   0  0.9341000E-08  0.3693281E+04  0.7818609E-02  0.8069453E-01
        1   -1    0    0  501    0  0.00000000000E+00  0.00000000000E+00  0.23272183006E+04  0.23272183006E+04  0.50400001928E-02 0.  1.
       -1   -1    0    0    0  501  0.00000000000E+00  0.00000000000E+00 -0.14653031668E+04  0.14653031668E+04  0.50400001928E-02 0. -1.
    10030    2    1    2    0    0  0.00000000000E+00  0.00000000000E+00  0.86191513379E+03  0.37925214674E+04  0.36932805719E+04 0.  0.
        4    1    3    3  502    0 -0.65501129690E+03  0.11918310198E+04 -0.85184095897E+03  0.16047229079E+04  0.12699999809E+01 0. -1.
       -4    1    3    3    0  502  0.65501129690E+03 -0.11918310198E+04  0.17137560928E+04  0.21877985595E+04  0.12699999809E+01 0.  1.
</event>
<event>
 5   0  0.9418945E-08  0.3698578E+04  0.7818609E-02  0.8068277E-01
        1   -1    0    0  501    0  0.00000000000E+00  0.00000000000E+00  0.16058482988E+04  0.16058482988E+04  0.50400001928E-02 0.  1.
       -1   -1    0    0    0  501  0.00000000000E+00  0.00000000000E+00 -0.21296345836E+04  0.21296345836E+04  0.50400001928E-02 0. -1.
    10030    2    1    2    0    0  0.00000000000E+00  0.00000000000E+00 -0.52378628477E+03  0.37354828824E+04  0.36985781448E+04 0.  0.
        5    1    3    3  502    0  0.56603698241E+02 -0.18482129797E+04 -0.23418242495E+03  0.18638558676E+04  0.46999998093E+01 0.  1.
       -5    1    3    3    0  502 -0.56603698241E+02  0.18482129797E+04 -0.28960385981E+03  0.18716270148E+04  0.46999998093E+01 0. -1.
</event>
<event>
 5   0  0.2996969E-07  0.3707130E+04  0.7818609E-02  0.8066384E-01
       -2   -1    0    0    0  501  0.00000000000E+00  0.00000000000E+00  0.17609579012E+04  0.17609579012E+04  0.25500000920E-02 0. -1.
        2   -1    0    0  501    0  0.00000000000E+00  0.00000000000E+00 -0.19510418658E+04  0.19510418658E+04  0.25500000920E-02 0.  1.
    10030    2    1    2    0    0  0.00000000000E+00  0.00000000000E+00 -0.19008396459E+03  0.37119997670E+04  0.37071296654E+04 0.  0.
        1    1    3    3  502    0  0.13912898923E+04  0.60154107733E+03  0.97320693971E+03  0.18012970271E+04  0.50400001928E-02 0. -1.
       -1    1    3    3    0  502 -0.13912898923E+04 -0.60154107733E+03 -0.11632909043E+04  0.19107027399E+04  0.50400001928E-02 0.  1.
</event>
<event>
 5   0  0.9418945E-08  0.3678414E+04  0.7818609E-02  0.8072762E-01
       -1   -1    0    0    0  501  0.00000000000E+00  0.00000000000E+00  0.16106943301E+04  0.16106943301E+04  0.50400001928E-02 0.  1.
        1   -1    0    0  501    0  0.00000000000E+00  0.00000000000E+00 -0.21001394283E+04  0.21001394283E+04  0.50400001928E-02 0. -1.
    10030    2    1    2    0    0  0.00000000000E+00  0.00000000000E+00 -0.48944509824E+03  0.37108337584E+04  0.36784141527E+04 0.  0.
        5    1    3    3  502    0 -0.79288723580E+03 -0.58634549274E+03  0.13214386404E+04  0.16488460741E+04  0.46999998093E+01 0.  1.
       -5    1    3    3    0  502  0.79288723580E+03  0.58634549274E+03 -0.18108837387E+04  0.20619876844E+04  0.46999998093E+01 0. -1.
</event>
<event>
 5   0  0.3008879E-07  0.3692170E+04  0.7818609E-02  0.8069699E-01
        2   -1    0    0  501    0  0.00000000000E+00  0.00000000000E+00  0.22254818937E+04  0.22254818937E+04  0.25500000920E-02 0. -1.
       -2   -1    0    0    0  501  0.00000000000E+00  0.00000000000E+00 -0.15313673052E+04  0.15313673052E+04  0.25500000920E-02 0.  1.
    10030    2    1    2    0    0  0.00000000000E+00  0.00000000000E+00  0.69411458844E+03  0.37568491989E+04  0.36921702075E+04 0.  0.
        2    1    3    3  502    0 -0.64231638261E+03  0.37846408222E+03 -0.13713809363E+04  0.15609263497E+04  0.25500000920E-02 0.  1.
       -2    1    3    3    0  502  0.64231638261E+03 -0.37846408222E+03  0.20654955247E+04  0.21959228492E+04  0.25500000920E-02 0. -1.
</event>
<event>
 5   0  0.9341000E-08  0.3709808E+04  0.7818609E-02  0.8065792E-01
       -1   -1    0    0    0  501  0.00000000000E+00  0.00000000000E+00  0.22159465792E+04  0.22159465792E+04  0.50400001928E-02 0.  1.
        1   -1    0    0  501    0  0.00000000000E+00  0.00000000000E+00 -0.15526855492E+04  0.15526855492E+04  0.50400001928E-02 0. -1.
    10030    2    1    2    0    0  0.00000000000E+00  0.00000000000E+00  0.66326103004E+03  0.37686321284E+04  0.37098076669E+04 0.  0.
        4    1    3    3  502    0  0.71732051025E+03 -0.38550743208E+03 -0.13613795345E+04  0.15863544826E+04  0.12699999809E+01 0. -1.
       -4    1    3    3    0  502 -0.71732051025E+03  0.38550743208E+03  0.20246405646E+04  0.21822776458E+04  0.12699999809E+01 0.  1.
</event>
<event>
 5   0  0.3032442E-07  0.3723502E+04  0.7818609E-02  0.8062773E-01
       -2   -1    0    0    0  501  0.00000000000E+00  0.00000000000E+00  0.12801933555E+04  0.12801933555E+04  0.25500000920E-02 0.  1.
        2   -1    0    0  501    0  0.00000000000E+00  0.00000000000E+00 -0.27074950599E+04  0.27074950599E+04  0.25500000920E-02 0. -1.
    10030    2    1    2    0    0  0.00000000000E+00  0.00000000000E+00 -0.14273017044E+04  0.39876884154E+04  0.37235022147E+04 0.  0.
        3    1    3    3  502    0 -0.10304028710E+04  0.56377938952E+03  0.83332290714E+03  0.14401403940E+04  0.10100000352E+00 0.  1.
       -3    1    3    3    0  502  0.10304028710E+04 -0.56377938952E+03 -0.22606246116E+04  0.25475480214E+04  0.10100000352E+00 0. -1.
</event>
<event>
 5   0  0.9341000E-08  0.3676921E+04  0.7818609E-02  0.8073096E-01
       -1   -1    0    0    0  501  0.00000000000E+00  0.00000000000E+00  0.13622958608E+04  0.13622958608E+04  0.50400001928E-02 0.  1.
        1   -1    0    0  501    0  0.00000000000E+00  0.00000000000E+00 -0.24810599896E+04  0.24810599897E+04  0.50400001928E-02 0. -1.
    10030    2    1    2    0    0  0.00000000000E+00  0.00000000000E+00 -0.11187641288E+04  0.38433558505E+04  0.36769214049E+04 0.  0.
        1    1    3    3  502    0  0.11263838515E+04  0.11856420467E+04  0.31854695197E+03  0.16661211854E+04  0.50400001928E-02 0.  1.
       -1    1    3    3    0  502 -0.11263838515E+04 -0.11856420467E+04 -0.14373110808E+04  0.21772346651E+04  0.50400001928E-02 0. -1.
</event>
<event>
 5   0  0.3032442E-07  0.3660488E+04  0.7818609E-02  0.8076775E-01
        2   -1    0    0  501    0  0.00000000000E+00  0.00000000000E+00  0.19319994416E+04  0.19319994416E+04  0.25500000920E-02 0.  1.
       -2   -1    0    0    0  501  0.00000000000E+00  0.00000000000E+00 -0.17338475005E+04  0.17338475005E+04  0.25500000920E-02 0. -1.
    10030    2    1    2    0    0  0.00000000000E+00  0.00000000000E+00  0.19815194111E+03  0.36658469422E+04  0.36604876194E+04 0.  0.
        3    1    3    3  502    0  0.86464490649E+03  0.10106288134E+04 -0.11600679060E+04  0.17648623089E+04  0.10100000352E+00 0. -1.
       -3    1    3    3    0  502 -0.86464490649E+03 -0.10106288134E+04  0.13582198471E+04  0.19009846333E+04  0.10100000352E+00 0.  1.
</event>
<event>
 5   0  0.9418945E-08  0.3673180E+04  0.7818609E-02  0.8073932E-01
        1   -1    0    0  501    0  0.00000000000E+00  0.00000000000E+00  0.16541828374E+04  0.16541828374E+04  0.50400001928E-02 0. -1.
       -1   -1    0    0    0  501  0.00000000000E+00  0.00000000000E+00 -0.20391111036E+04  0.20391111037E+04  0.50400001928E-02 0.  1.
    10030    2    1    2    0    0  0.00000000000E+00  0.00000000000E+00 -0.38492826622E+03  0.36932939411E+04  0.36731798711E+04 0.  0.
        5    1    3    3  502    0 -0.95426131202E+02 -0.47529696696E+02  0.16510631034E+04  0.16545079872E+04  0.46999998093E+01 0. -1.
       -5    1    3    3    0  502  0.95426131202E+02  0.47529696696E+02 -0.20359913696E+04  0.20387859538E+04  0.46999998093E+01 0.  1.
</event>
<event>
 5   0  0.9418945E-08  0.3701102E+04  0.7818609E-02  0.8067718E-01
       -1   -1    0    0    0  501  0.00000000000E+00  0.00000000000E+00  0.17189783339E+04  0.17189783340E+04  0.50400001928E-02 0. -1.
        1   -1    0    0  501    0  0.00000000000E+00  0.00000000000E+00 -0.19921940639E+04  0.19921940639E+04  0.50400001928E-02 0.  1.
    10030    2    1    2    0    0  0.00000000000E+00  0.00000000000E+00 -0.27321572994E+03  0.37111723979E+04  0.37011016916E+04 0.  0.
        5    1    3    3  502    0 -0.23364288622E+03  0.70364435259E+03 -0.18367484457E+04  0.19807501902E+04  0.46999998093E+01 0.  1.
       -5    1    3    3    0  502  0.23364288622E+03 -0.70364435259E+03  0.15635327158E+04  0.17304222076E+04  0.46999998093E+01 0. -1.
</event>
<event>
 5   0  0.9341000E-08  0.3839975E+04  0.7818609E-02  0.8037630E-01
        1   -1    0    0  501    0  0.00000000000E+00  0.00000000000E+00  0.28408481504E+04  0.28408481504E+04  0.50400001928E-02 0.  1.
       -1   -1    0    0    0  501  0.00000000000E+00  0.00000000000E+00 -0.12976238782E+04  0.12976238782E+04  0.50400001928E-02 0. -1.
    10030    2    1    2    0    0  0.00000000000E+00  0.00000000000E+00  0.15432242722E+04  0.41384720286E+04  0.38399752053E+04 0.  0.
        3    1    3    3  502    0 -0.15501270273E+04 -0.39221450886E+03  0.19170697243E+04  0.24963738421E+04  0.10100000352E+00 0.  1.
       -3    1    3    3    0  502  0.15501270273E+04  0.39221450886E+03 -0.37384545211E+03  0.16420981865E+04  0.10100000352E+00 0. -1.
</event>
<event>
 5   0  0.2913025E-07  0.3684894E+04  0.7818609E-02  0.8071318E-01
       -2   -1    0    0    0  501  0.00000000000E+00  0.00000000000E+00  0.18785765800E+04  0.18785765800E+04  0.25500000920E-02 0.  1.
        2   -1    0    0  501    0  0.00000000000E+00  0.00000000000E+00 -0.18070126289E+04  0.18070126289E+04  0.25500000920E-02 0. -1.
    10030    2    1    2    0    0  0.00000000000E+00  0.00000000000E+00  0.71563951103E+02  0.36855892089E+04  0.36848943564E+04 0.  0.
        5    1    3    3  502    0 -0.18709833573E+03 -0.13502978059E+04  0.12754831504E+04  0.18668661733E+04  0.46999998093E+01 0.  1.
       -5    1    3    3    0  502  0.18709833573E+03  0.13502978059E+04 -0.12039191993E+04  0.18187230356E+04  0.46999998093E+01 0. -1.
</event>
<event>
 5   0  0.2996969E-07  0.3709319E+04  0.7818609E-02  0.8065900E-01
        2   -1    0    0  501    0  0.00000000000E+00  0.00000000000E+00  0.21602956968E+04  0.21602956968E+04  0.25500000920E-02 0. -1.
       -2   -1    0    0    0  501  0.00000000000E+00  0.00000000000E+00 -0.15922642909E+04  0.15922642909E+04  0.25500000920E-02 0.  1.
    10030    2    1    2    0    0  0.00000000000E+00  0.00000000000E+00  0.56803140592E+03  0.37525599877E+04  0.37093189110E+04 0.  0.
        1    1    3    3  502    0 -0.60071857522E+03 -0.12483341999E+04  0.15315007208E+04  0.20651139288E+04  0.50400001928E-02 0. -1.
       -1    1    3    3    0  502  0.60071857522E+03  0.12483341999E+04 -0.96346931483E+03  0.16874460589E+04  0.50400001928E-02 0.  1.
</event>
<event>
 5   0  0.2996969E-07  0.3699921E+04  0.7818609E-02  0.8067979E-01
        2   -1    0    0  501    0  0.00000000000E+00  0.00000000000E+00  0.22406439787E+04  0.22406439787E+04  0.25500000920E-02 0. -1.
       -2   -1    0    0    0  501  0.00000000000E+00  0.00000000000E+00 -0.15273971826E+04  0.15273971826E+04  0.25500000920E-02 0.  1.
    10030    2    1    2    0    0  0.00000000000E+00  0.00000000000E+00  0.71324679606E+03  0.37680411613E+04  0.36999207020E+04 0.  0.
        1    1    3    3  502    0 -0.18251984474E+04  0.17157918693E+03  0.10393317527E+03  0.18361892317E+04  0.50400001928E-02 0.  1.
       -1    1    3    3    0  502  0.18251984474E+04 -0.17157918693E+03  0.60931362079E+03  0.19318519297E+04  0.50400001928E-02 0. -1.
</event>
<event>
 5   0  0.9646615E-08  0.3707861E+04  0.7818609E-02  0.8066222E-01
        1   -1    0    0  501    0  0.00000000000E+00  0.00000000000E+00  0.26198048907E+04  0.26198048907E+04  0.50400001928E-02 0. -1.
       -1   -1    0    0    0  501  0.00000000000E+00  0.00000000000E+00 -0.13119523609E+04  0.13119523609E+04  0.50400001928E-02 0.  1.
    10030    2    1    2    0    0  0.00000000000E+00  0.00000000000E+00  0.13078525298E+04  0.39317572516E+04  0.37078614923E+04 0.  0.
        2    1    3    3  502    0  0.12951844671E+04  0.12824254643E+04  0.29442426188E+03  0.18462945381E+04  0.25500000920E-02 0.  1.
       -2    1    3    3    0  502 -0.12951844671E+04 -0.12824254643E+04  0.10134282680E+04  0.20854627136E+04  0.25500000920E-02 0. -1.
</event>
<event>
 5   0  0.9646615E-08  0.3625101E+04  0.7818609E-02  0.8084766E-01
        1   -1    0    0  501    0  0.00000000000E+00  0.00000000000E+00  0.17136419169E+04  0.17136419170E+04  0.50400001928E-02 0. -1.
       -1   -1    0    0    0  501  0.00000000000E+00  0.00000000000E+00 -0.19171679438E+04  0.19171679438E+04  0.50400001928E-02 0.  1.
    10030    2    1    2    0    0  0.00000000000E+00  0.00000000000E+00 -0.20352602688E+03  0.36308098608E+04  0.36251010195E+04 0.  0.
        2    1    3    3  502    0 -0.11346693231E+04 -0.24227083100E+03 -0.14964967424E+04  0.18935871061E+04  0.25500000920E-02 0.  1.
       -2    1    3    3    0  502  0.11346693231E+04  0.24227083100E+03  0.12929707155E+04  0.17372227547E+04  0.25500000920E-02 0. -1.
</event>
<event>
 5   0  0.3008879E-07  0.3695095E+04  0.7818609E-02  0.8069050E-01
       -2   -1    0    0    0  501  0.00000000000E+00  0.00000000000E+00  0.22574346786E+04  0.22574346786E+04  0.25500000920E-02 0. -1.
        2   -1    0    0  501    0  0.00000000000E+00  0.00000000000E+00 -0.15120843602E+04  0.15120843602E+04  0.25500000920E-02 0.  1.
    10030    2    1    2    0    0  0.00000000000E+00  0.00000000000E+00  0.74535031846E+03  0.37695190388E+04  0.36950949496E+04 0.  0.
        2    1    3    3  502    0 -0.14184629813E+04 -0.11638527330E+04  0.15188759208E+03  0.18411029994E+04  0.25500000920E-02 0. -1.
       -2    1    3    3    0  502  0.14184629813E+04  0.11638527330E+04  0.59346272638E+03  0.19284160394E+04  0.25500000920E-02 0.  1.
</event>
<event>
 5   0  0.9418945E-08  0.3682300E+04  0.7818609E-02  0.8071896E-01
       -1   -1    0    0    0  501  0.00000000000E+00  0.00000000000E+00  0.17351912649E+04  0.17351912649E+04  0.50400001928E-02 0. -1.
        1   -1    0    0  501    0  0.00000000000E+00  0.00000000000E+00 -0.19535787167E+04  0.19535787168E+04  0.50400001928E-02 0.  1.
    10030    2    1    2    0    0  0.00000000000E+00  0.00000000000E+00 -0.21838745181E+03  0.36887699817E+04  0.36822996753E+04 0.  0.
        5    1    3    3  502    0  0.13733435346E+04 -0.86272790348E+03  0.76379536699E+03  0.17927011330E+04  0.46999998093E+01 0. -1.
       -5    1    3    3    0  502 -0.13733435346E+04  0.86272790348E+03 -0.98218281880E+03  0.18960688487E+04  0.46999998093E+01 0.  1.
</event>
<event>
 5   0  0.9341000E-08  0.3670381E+04  0.7818609E-02  0.8074558E-01
       -1   -1    0    0    0  501  0.00000000000E+00  0.00000000000E+00  0.20548542696E+04  0.20548542696E+04  0.50400001928E-02 0.  1.
        1   -1    0    0  501    0  0.00000000000E+00  0.00000000000E+00 -0.16390087583E+04  0.16390087583E+04  0.50400001928E-02 0. -1.
    10030    2    1    2    0    0  0.00000000000E+00  0.00000000000E+00  0.41584551135E+03  0.36938630279E+04  0.36703809856E+04 0.  0.
        4    1    3    3  502    0  0.95170658152E+03  0.30194715569E+03  0.17575808127E+04  0.20213879955E+04  0.12699999809E+01 0.  1.
       -4    1    3    3    0  502 -0.95170658152E+03 -0.30194715569E+03 -0.13417353014E+04  0.16724750324E+04  0.12699999809E+01 0. -1.
</event>
<event>
 5   0  0.9341000E-08  0.3716197E+04  0.7818609E-02  0.8064382E-01
       -1   -1    0    0    0  501  0.00000000000E+00  0.00000000000E+00  0.14678404434E+04  0.14678404434E+04  0.50400001928E-02 0. -1.
        1   -1    0    0  501    0  0.00000000000E+00  0.00000000000E+00 -0.23521151878E+04  0.23521151878E+04  0.50400001928E-02 0.  1.
    10030    2    1    2    0    0  0.00000000000E+00  0.00000000000E+00 -0.88427474433E+03  0.38199556312E+04  0.37161968733E+04 0.  0.
        3    1    3    3  502    0 -0.66049044213E+02 -0.14436813053E+04  0.75835411620E+03  0.16320781732E+04  0.10100000352E+00 0. -1.
       -3    1    3    3    0  502  0.66049044213E+02  0.14436813053E+04 -0.16426288605E+04  0.21878774580E+04  0.10100000352E+00 0.  1.
</event>
<event>
 5   0  0.9418945E-08  0.3723127E+04  0.7818609E-02  0.8062856E-01
       -1   -1    0    0    0  501  0.00000000000E+00  0.00000000000E+00  0.29694810264E+04  0.29694810264E+04  0.50400001928E-02 0.  1.
        1   -1    0    0  501    0  0.00000000000E+00  0.00000000000E+00 -0.11670118314E+04  0.11670118314E+04  0.50400001928E-02 0. -1.
    10030    2    1    2    0    0  0.00000000000E+00  0.00000000000E+00  0.18024691950E+04  0.41364928578E+04  0.37231274439E+04 0.  0.
        5    1    3    3  502    0 -0.26290210701E+03  0.85409111356E+03  0.27155812655E+04  0.28588446701E+04  0.46999998093E+01 0.  1.
       -5    1    3    3    0  502  0.26290210701E+03 -0.85409111356E+03 -0.91311207049E+03  0.12776481877E+04  0.46999998093E+01 0. -1.
</event>
<event>
 5   0  0.3008879E-07  0.3720997E+04  0.7818609E-02  0.8063324E-01
       -2   -1    0    0    0  501  0.00000000000E+00  0.00000000000E+00  0.27906778695E+04  0.27906778695E+04  0.25500000920E-02 0.  1.
        2   -1    0    0  501    0  0.00000000000E+00  0.00000000000E+00 -0.12403635650E+04  0.12403635650E+04  0.25500000920E-02 0. -1.
    10030    2    1    2    0    0  0.00000000000E+00  0.00000000000E+00  0.15503143044E+04  0.40310414345E+04  0.37209972594E+04 0.  0.
        2    1    3    3  502    0  0.16127130074E+04  0.50789137110E+03 -0.65837955655E+02  0.16920790541E+04  0.25500000920E-02 0. -1.
       -2    1    3    3    0  502 -0.16127130074E+04 -0.50789137110E+03  0.16161522601E+04  0.23389623804E+04  0.25500000920E-02 0.  1.
</event>
<event>
 5   0  0.3008879E-07  0.3677739E+04  0.7818609E-02  0.8072913E-01
       -2   -1    0    0    0  501  0.00000000000E+00  0.00000000000E+00  0.24596569257E+04  0.24596569257E+04  0.25500000920E-02 0.  1.
        2   -1    0    0  501    0  0.00000000000E+00  0.00000000000E+00 -0.13747616154E+04  0.13747616154E+04  0.25500000920E-02 0. -1.
    10030    2    1    2    0    0  0.00000000000E+00  0.00000000000E+00  0.10848953103E+04  0.38344185411E+04  0.36777394843E+04 0.  0.
        2    1    3    3  502    0 -0.16659288080E+04  0.77815542281E+03  0.51696732559E+03  0.19099999663E+04  0.25500000920E-02 0.  1.
       -2    1    3    3    0  502  0.16659288080E+04 -0.77815542281E+03  0.56792798467E+03  0.19244185748E+04  0.25500000920E-02 0. -1.
</event>
<event>
 5   0  0.9341000E-08  0.3705511E+04  0.7818609E-02  0.8066742E-01
        1   -1    0    0  501    0  0.00000000000E+00  0.00000000000E+00  0.20920216043E+04  0.20920216043E+04  0.50400001928E-02 0. -1.
       -1   -1    0    0    0  501  0.00000000000E+00  0.00000000000E+00 -0.16408544931E+04  0.16408544931E+04  0.50400001928E-02 0.  1.
    10030    2    1    2    0    0  0.00000000000E+00  0.00000000000E+00  0.45116711115E+03  0.37328760974E+04  0.37055110574E+04 0.  0.
        4    1    3    3  502    0  0.12488302450E+04 -0.12324193534E+04  0.82518242696E+03  0.19389074486E+04  0.12699999809E+01 0.  1.
       -4    1    3    3    0  502 -0.12488302450E+04  0.12324193534E+04 -0.37401531581E+03  0.17939686488E+04  0.12699999809E+01 0. -1.
</event>
<event>
 5   0  0.9341000E-08  0.3647065E+04  0.7818609E-02  0.8079795E-01
       -1   -1    0    0    0  501  0.00000000000E+00  0.00000000000E+00  0.23399729894E+04  0.23399729894E+04  0.50400001928E-02 0.  1.
        1   -1    0    0  501    0  0.00000000000E+00  0.00000000000E+00 -0.14210722025E+04  0.14210722025E+04  0.50400001928E-02 0. -1.
    10030    2    1    2    0    0  0.00000000000E+00  0.00000000000E+00  0.91890078690E+03  0.37610451920E+04  0.36470648856E+04 0.  0.
        3    1    3    3  502    0 -0.10232157531E+04  0.12687295755E+04  0.13027006460E+04  0.20865459967E+04  0.10100000352E+00 0.  1.
       -3    1    3    3    0  502  0.10232157531E+04 -0.12687295755E+04 -0.38379985909E+03  0.16744991953E+04  0.10100000352E+00 0. -1.
</event>
<event>
 5   0  0.9341000E-08  0.3699820E+04  0.7818609E-02  0.8068002E-01
       -1   -1    0    0    0  501  0.00000000000E+00  0.00000000000E+00  0.13200895650E+04  0.13200895650E+04  0.50400001928E-02 0.  1.
        1   -1    0    0  501    0  0.00000000000E+00  0.00000000000E+00 -0.25923751289E+04  0.25923751289E+04  0.50400001928E-02 0. -1.
    10030    2    1    2    0    0  0.00000000000E+00  0.00000000000E+00 -0.12722855639E+04  0.39124646939E+04  0.36998201882E+04 0.  0.
        1    1    3    3  502    0 -0.13311642666E+03  0.26760635214E+03 -0.25666732900E+04  0.25840172059E+04  0.50400001928E-02 0. -1.
       -1    1    3    3    0  502  0.13311642666E+03 -0.26760635214E+03  0.12943877261E+04  0.13284474880E+04  0.50400001928E-02 0.  1.
</event>
<event>
 5   0  0.9418945E-08  0.3803157E+04  0.7818609E-02  0.8045478E-01
        1   -1    0    0  501    0  0.00000000000E+00  0.00000000000E+00  0.13128442562E+04  0.13128442563E+04  0.50400001928E-02 0.  1.
       -1   -1    0    0    0  501  0.00000000000E+00  0.00000000000E+00 -0.27543251446E+04  0.27543251446E+04  0.50400001928E-02 0. -1.
    10030    2    1    2    0    0  0.00000000000E+00  0.00000000000E+00 -0.14414808884E+04  0.40671694009E+04  0.38031565553E+04 0.  0.
        5    1    3    3  502    0 -0.56349542931E+03 -0.27766167707E+03  0.11986677085E+04  0.13533105598E+04  0.46999998093E+01 0.  1.
       -5    1    3    3    0  502  0.56349542931E+03  0.27766167707E+03 -0.26401485969E+04  0.27138588411E+04  0.46999998093E+01 0. -1.
</event>
<event>
 5   0  0.2897133E-07  0.3667066E+04  0.7818609E-02  0.8075300E-01
       -2   -1    0    0    0  501  0.00000000000E+00  0.00000000000E+00  0.24907675219E+04  0.24907675219E+04  0.25500000920E-02 0.  1.
        2   -1    0    0  501    0  0.00000000000E+00  0.00000000000E+00 -0.13497215444E+04  0.13497215444E+04  0.25500000920E-02 0. -1.
    10030    2    1    2    0    0  0.00000000000E+00  0.00000000000E+00  0.11410459775E+04  0.38404890663E+04  0.36670656314E+04 0.  0.
        4    1    3    3  502    0  0.62800378509E+03 -0.93284755229E+03 -0.94615264562E+03  0.14696257182E+04  0.12699999809E+01 0. -1.
       -4    1    3    3    0  502 -0.62800378509E+03  0.93284755229E+03  0.20871986231E+04  0.23708633481E+04  0.12699999809E+01 0.  1.
</event>
<event>
 5   0  0.3032442E-07  0.3676916E+04  0.7818609E-02  0.8073097E-01
       -2   -1    0    0    0  501  0.00000000000E+00  0.00000000000E+00  0.19574497922E+04  0.19574497922E+04  0.25500000920E-02 0. -1.
        2   -1    0    0  501    0  0.00000000000E+00  0.00000000000E+00 -0.17267000221E+04  0.17267000221E+04  0.25500000920E-02 0.  1.
    10030    2    1    2    0    0  0.00000000000E+00  0.00000000000E+00  0.23074977013E+03  0.36841498144E+04  0.36769164252E+04 0.  0.
        3    1    3    3  502    0  0.25805632924E+03 -0.17617483263E+03  0.19306502935E+04  0.19557712562E+04  0.10100000352E+00 0. -1.
       -3    1    3    3    0  502 -0.25805632924E+03  0.17617483263E+03 -0.16999005234E+04  0.17283785581E+04  0.10100000352E+00 0.  1.
</event>
<event>
 5   0  0.2996969E-07  0.3706443E+04  0.7818609E-02  0.8066535E-01
       -2   -1    0    0    0  501  0.00000000000E+00  0.00000000000E+00  0.25814058748E+04  0.25814058748E+04  0.25500000920E-02 0.  1.
        2   -1    0    0  501    0  0.00000000000E+00  0.00000000000E+00 -0.13304495174E+04  0.13304495174E+04  0.25500000920E-02 0. -1.
    10030    2    1    2    0    0  0.00000000000E+00  0.00000000000E+00  0.12509563573E+04  0.39118553922E+04  0.37064431470E+04 0.  0.
        1    1    3    3  502    0  0.11170055724E+04 -0.12248268431E+04  0.14999676048E+04  0.22355771201E+04  0.50400001928E-02 0.  1.
       -1    1    3    3    0  502 -0.11170055724E+04  0.12248268431E+04 -0.24901124744E+03  0.16762782722E+04  0.50400001928E-02 0. -1.
</event>
<event>
 5   0  0.3032442E-07  0.3683189E+04  0.7818609E-02  0.8071698E-01
       -2   -1    0    0    0  501  0.00000000000E+00  0.00000000000E+00  0.13192126656E+04  0.13192126656E+04  0.25500000920E-02 0. -1.
        2   -1    0    0  501    0  0.00000000000E+00  0.00000000000E+00 -0.25708293820E+04  0.25708293820E+04  0.25500000920E-02 0.  1.
    10030    2    1    2    0    0  0.00000000000E+00  0.00000000000E+00 -0.12516167165E+04  0.38900420476E+04  0.36831892060E+04 0.  0.
        3    1    3    3  502    0  0.52949277758E+03  0.12633859124E+04 -0.19257726953E+04  0.23632831082E+04  0.10100000352E+00 0.  1.
       -3    1    3    3    0  502 -0.52949277758E+03 -0.12633859124E+04  0.67415597886E+03  0.15267589394E+04  0.10100000352E+00 0. -1.
</event>
<event>
 5   0  0.2913025E-07  0.3706877E+04  0.7818609E-02  0.8066440E-01
       -2   -1    0    0    0  501  0.00000000000E+00  0.00000000000E+00  0.13946009958E+04  0.13946009958E+04  0.25500000920E-02 0.  1.
        2   -1    0    0  501    0  0.00000000000E+00  0.00000000000E+00 -0.24632378746E+04  0.24632378746E+04  0.25500000920E-02 0. -1.
    10030    2    1    2    0    0  0.00000000000E+00  0.00000000000E+00 -0.10686368788E+04  0.38578388704E+04  0.37068768486E+04 0.  0.
        5    1    3    3  502    0 -0.56771484244E+02 -0.19360084598E+03  0.13831327624E+04  0.13977777425E+04  0.46999998093E+01 0.  1.
       -5    1    3    3    0  502  0.56771484244E+02  0.19360084598E+03 -0.24517696412E+04  0.24600611278E+04  0.46999998093E+01 0. -1.
</event>
<event>
 5   0  0.9646615E-08  0.3696257E+04  0.7818609E-02  0.8068792E-01
       -1   -1    0    0    0  501  0.00000000000E+00  0.00000000000E+00  0.16200419827E+04  0.16200419827E+04  0.50400001928E-02 0. -1.
        1   -1    0    0  501    0  0.00000000000E+00  0.00000000000E+00 -0.21083279022E+04  0.21083279022E+04  0.50400001928E-02 0.  1.
    10030    2    1    2    0    0  0.00000000000E+00  0.00000000000E+00 -0.48828591949E+03  0.37283698849E+04  0.36962574125E+04 0.  0.
        2    1    3    3  502    0  0.13404791874E+04  0.69612670668E+03  0.83005174684E+03  0.17235030450E+04  0.25500000920E-02 0. -1.
       -2    1    3    3    0  502 -0.13404791874E+04 -0.69612670668E+03 -0.13183376663E+04  0.20048668400E+04  0.25500000920E-02 0.  1.
</event>
<event>
 5   0  0.9341000E-08  0.3702261E+04  0.7818609E-02  0.8067461E-01
       -1   -1    0    0    0  501  0.00000000000E+00  0.00000000000E+00  0.20835194622E+04  0.20835194622E+04  0.50400001928E-02 0. -1.
        1   -1    0    0  501    0  0.00000000000E+00  0.00000000000E+00 -0.16446614773E+04  0.16446614773E+04  0.50400001928E-02 0.  1.
    10030    2    1    2    0    0  0.00000000000E+00  0.00000000000E+00  0.43885798491E+03  0.37281809394E+04  0.37022610370E+04 0.  0.
        3    1    3    3  502    0 -0.10626433563E+04 -0.15091283896E+04  0.77000487639E+02  0.18473246830E+04  0.10100000352E+00 0. -1.
       -3    1    3    3    0  502  0.10626433563E+04  0.15091283896E+04  0.36185749727E+03  0.18808562565E+04  0.10100000352E+00 0.  1.
</event>
<event>
 5   0  0.2996969E-07  0.3652367E+04  0.7818609E-02  0.8078601E-01
        2   -1    0    0  501    0  0.00000000000E+00  0.00000000000E+00  0.33521912775E+04  0.33521912775E+04  0.25500000920E-02 0.  1.
       -2   -1    0    0    0  501  0.00000000000E+00  0.00000000000E+00 -0.99485566220E+03  0.99485566221E+03  0.25500000920E-02 0. -1.
    10030    2    1    2    0    0  0.00000000000E+00  0.00000000000E+00  0.23573356153E+04  0.43470469397E+04  0.36523671629E+04 0.  0.
        1    1    3    3  502    0  0.14845907435E+04  0.81574614048E+03  0.19907078127E+04  0.26138800732E+04  0.50400001928E-02 0. -1.
       -1    1    3    3    0  502 -0.14845907435E+04 -0.81574614048E+03  0.36662780259E+03  0.17331668665E+04  0.50400001928E-02 0.  1.
</event>
<event>
 5   0  0.9341000E-08  0.3690456E+04  0.7818609E-02  0.8070080E-01
       -1   -1    0    0    0  501  0.00000000000E+00  0.00000000000E+00  0.29751975920E+04  0.29751975920E+04  0.50400001928E-02 0. -1.
        1   -1    0    0  501    0  0.00000000000E+00  0.00000000000E+00 -0.11444169294E+04  0.11444169294E+04  0.50400001928E-02 0.  1.
    10030    2    1    2    0    0  0.00000000000E+00  0.00000000000E+00  0.18307806626E+04  0.41196145214E+04  0.36904560654E+04 0.  0.
        3    1    3    3  502    0  0.24664376879E+03  0.11481784181E+04 -0.67339862269E+03  0.13537402054E+04  0.10100000352E+00 0.  1.
       -3    1    3    3    0  502 -0.24664376879E+03 -0.11481784181E+04  0.25041792853E+04  0.27658743160E+04  0.10100000352E+00 0. -1.
</event>
<event>
 5   0  0.9646615E-08  0.3697829E+04  0.7818609E-02  0.8068443E-01
        1   -1    0    0  501    0  0.00000000000E+00  0.00000000000E+00  0.17219883254E+04  0.17219883254E+04  0.50400001928E-02 0.  1.
       -1   -1    0    0    0  501  0.00000000000E+00  0.00000000000E+00 -0.19851962158E+04  0.19851962158E+04  0.50400001928E-02 0. -1.
    10030    2    1    2    0    0  0.00000000000E+00  0.00000000000E+00 -0.26320789044E+03  0.37071845412E+04  0.36978289345E+04 0.  0.
        2    1    3    3  502    0  0.64854576128E+03 -0.41573405455E+00  0.16042133026E+04  0.17303502817E+04  0.25500000920E-02 0.  1.
       -2    1    3    3    0  502 -0.64854576128E+03  0.41573405455E+00 -0.18674211930E+04  0.19768342595E+04  0.25500000920E-02 0. -1.
</event>
<event>
 5   0  0.9341000E-08  0.3712971E+04  0.7818609E-02  0.8065093E-01
       -1   -1    0    0    0  501  0.00000000000E+00  0.00000000000E+00  0.21154328530E+04  0.21154328530E+04  0.50400001928E-02 0.  1.
        1   -1    0    0  501    0  0.00000000000E+00  0.00000000000E+00 -0.16292351538E+04  0.16292351538E+04  0.50400001928E-02 0. -1.
    10030    2    1    2    0    0  0.00000000000E+00  0.00000000000E+00  0.48619769919E+03  0.37446680069E+04  0.37129705465E+04 0.  0.
        4    1    3    3  502    0 -0.15995765086E+04  0.73185783580E+03  0.84169340679E+03  0.19500539230E+04  0.12699999809E+01 0.  1.
       -4    1    3    3    0  502  0.15995765086E+04 -0.73185783580E+03 -0.35549570759E+03  0.17946140838E+04  0.12699999809E+01 0. -1.
</event>
<event>
 5   0  0.2897133E-07  0.3722308E+04  0.7818609E-02  0.8063036E-01
       -2   -1    0    0    0  501  0.00000000000E+00  0.00000000000E+00  0.17609909880E+04  0.17609909880E+04  0.25500000920E-02 0. -1.
        2   -1    0    0  501    0  0.00000000000E+00  0.00000000000E+00 -0.19670139881E+04  0.19670139881E+04  0.25500000920E-02 0.  1.
    10030    2    1    2    0    0  0.00000000000E+00  0.00000000000E+00 -0.20602300013E+03  0.37280049761E+04  0.37223078359E+04 0.  0.
        4    1    3    3  502    0 -0.26783738966E+03 -0.17978933323E+04 -0.50329181145E+03  0.18861234217E+04  0.12699999809E+01 0.  1.
       -4    1    3    3    0  502  0.26783738966E+03  0.17978933323E+04  0.29726881133E+03  0.18418815544E+04  0.12699999809E+01 0. -1.
</event>
<event>
 5   0  0.9341000E-08  0.3494183E+04  0.7818609E-02  0.8115170E-01
       -3   -1    0    0    0  501  0.00000000000E+00  0.00000000000E+00  0.16971518267E+04  0.16971518297E+04  0.10100000352E+00 0. -1.
        3   -1    0    0  501    0  0.00000000000E+00  0.00000000000E+00 -0.17985008989E+04  0.17985009017E+04  0.10100000352E+00 0.  1.
    10030    2    1    2    0    0  0.00000000000E+00  0.00000000000E+00 -0.10134907222E+03  0.34956527314E+04  0.34941832213E+04 0.  0.
        3    1    3    3  502    0  0.47669387501E+03 -0.49674089260E+03 -0.16570710206E+04  0.17944004409E+04  0.10100000352E+00 0.  1.
       -3    1    3    3    0  502 -0.47669387501E+03  0.49674089260E+03  0.15557219484E+04  0.17012522905E+04  0.10100000352E+00 0. -1.
</event>
<event>
 5   0  0.9418945E-08  0.3698505E+04  0.7818609E-02  0.8068293E-01
       -1   -1    0    0    0  501  0.00000000000E+00  0.00000000000E+00  0.12798292750E+04  0.12798292750E+04  0.50400001928E-02 0. -1.
        1   -1    0    0  501    0  0.00000000000E+00  0.00000000000E+00 -0.26720249120E+04  0.26720249120E+04  0.50400001928E-02 0.  1.
    10030    2    1    2    0    0  0.00000000000E+00  0.00000000000E+00 -0.13921956369E+04  0.39518541870E+04  0.36985054852E+04 0.  0.
        5    1    3    3  502    0 -0.57780691848E+03 -0.21673581959E+03  0.11665523816E+04  0.13197355037E+04  0.46999998093E+01 0. -1.
       -5    1    3    3    0  502  0.57780691848E+03  0.21673581959E+03 -0.25587480186E+04  0.26321186833E+04  0.46999998093E+01 0.  1.
</event>
<event>
 5   0  0.9418945E-08  0.3698809E+04  0.7818609E-02  0.8068226E-01
       -1   -1    0    0    0  501  0.00000000000E+00  0.00000000000E+00  0.16393678186E+04  0.16393678186E+04  0.50400001928E-02 0.  1.
        1   -1    0    0  501    0  0.00000000000E+00  0.00000000000E+00 -0.20863511011E+04  0.20863511011E+04  0.50400001928E-02 0. -1.
    10030    2    1    2    0    0  0.00000000000E+00  0.00000000000E+00 -0.44698328249E+03  0.37257189196E+04  0.36988089182E+04 0.  0.
        5    1    3    3  502    0 -0.11900854557E+04 -0.13773207295E+04  0.10593355766E+03  0.18233375421E+04  0.46999998093E+01 0.  1.
       -5    1    3    3    0  502  0.11900854557E+04  0.13773207295E+04 -0.55291684015E+03  0.19023813776E+04  0.46999998093E+01 0. -1.
</event>
<event>
 5   0  0.2913025E-07  0.3389533E+04  0.7818609E-02  0.8140480E-01
       -2   -1    0    0    0  501  0.00000000000E+00  0.00000000000E+00  0.11444297509E+04  0.11444297509E+04  0.25500000920E-02 0. -1.
        2   -1    0    0  501    0  0.00000000000E+00  0.00000000000E+00 -0.25097512055E+04  0.25097512055E+04  0.25500000920E-02 0.  1.
    10030    2    1    2    0    0  0.00000000000E+00  0.00000000000E+00 -0.13653214546E+04  0.36541809563E+04  0.33895332698E+04 0.  0.
        5    1    3    3  502    0  0.30577235201E+03  0.10219931880E+04 -0.21023894890E+04  0.23575475522E+04  0.46999998093E+01 0.  1.
       -5    1    3    3    0  502 -0.30577235201E+03 -0.10219931880E+04  0.73706803435E+03  0.12966334042E+04  0.46999998093E+01 0. -1.
</event>
<event>
 5   0  0.2996969E-07  0.3237865E+04  0.7818609E-02  0.8178888E-01
        2   -1    0    0  501    0  0.00000000000E+00  0.00000000000E+00  0.19862659986E+04  0.19862659986E+04  0.25500000920E-02 0. -1.
       -2   -1    0    0    0  501  0.00000000000E+00  0.00000000000E+00 -0.13195324598E+04  0.13195324598E+04  0.25500000920E-02 0.  1.
    10030    2    1    2    0    0  0.00000000000E+00  0.00000000000E+00  0.66673353878E+03  0.33057984584E+04  0.32378650119E+04 0.  0.
        1    1    3    3  502    0  0.27017157194E+03  0.15720976842E+04  0.51053720401E+02  0.15959606164E+04  0.50400001928E-02 0.  1.
       -1    1    3    3    0  502 -0.27017157194E+03 -0.15720976842E+04  0.61567981837E+03  0.17098378419E+04  0.50400001928E-02 0. -1.
</event>
<event>
 5   0  0.9646615E-08  0.3683757E+04  0.7818609E-02  0.8071571E-01
       -1   -1    0    0    0  501  0.00000000000E+00  0.00000000000E+00  0.26519799315E+04  0.26519799315E+04  0.50400001928E-02 0. -1.
        1   -1    0    0  501    0  0.00000000000E+00  0.00000000000E+00 -0.12792388274E+04  0.12792388274E+04  0.50400001928E-02 0.  1.
    10030    2    1    2    0    0  0.00000000000E+00  0.00000000000E+00  0.13727411042E+04  0.39312187589E+04  0.36837566140E+04 0.  0.
        2    1    3    3  502    0  0.85150187258E+03  0.45506118219E+03  0.23603007331E+04  0.25501285594E+04  0.25500000920E-02 0. -1.
       -2    1    3    3    0  502 -0.85150187258E+03 -0.45506118219E+03 -0.98755962893E+03  0.13810901995E+04  0.25500000920E-02 0.  1.
</event>
<event>
 5   0  0.9341000E-08  0.3687608E+04  0.7818609E-02  0.8070714E-01
       -4   -1    0    0    0  501  0.00000000000E+00  0.00000000000E+00  0.20592646737E+04  0.20592650653E+04  0.12699999809E+01 0. -1.
        4   -1    0    0  501    0  0.00000000000E+00  0.00000000000E+00 -0.16508860781E+04  0.16508865666E+04  0.12699999809E+01 0.  1.
    10030    2    1    2    0    0  0.00000000000E+00  0.00000000000E+00  0.40837859559E+03  0.37101516319E+04  0.36876079041E+04 0.  0.
        5    1    3    3  502    0  0.14488877434E+03 -0.18133968667E+04  0.50634169502E+03  0.18883339099E+04  0.46999998093E+01 0.  1.
       -5    1    3    3    0  502 -0.14488877434E+03  0.18133968667E+04 -0.97963099434E+02  0.18218177220E+04  0.46999998093E+01 0. -1.
</event>
<event>
 5   0  0.2996969E-07  0.3702170E+04  0.7818609E-02  0.8067481E-01
        2   -1    0    0  501    0  0.00000000000E+00  0.00000000000E+00  0.19760851644E+04  0.19760851645E+04  0.25500000920E-02 0. -1.
       -2   -1    0    0    0  501  0.00000000000E+00  0.00000000000E+00 -0.17339918393E+04  0.17339918393E+04  0.25500000920E-02 0.  1.
    10030    2    1    2    0    0  0.00000000000E+00  0.00000000000E+00  0.24209332512E+03  0.37100770038E+04  0.37021699307E+04 0.  0.
        1    1    3    3  502    0  0.15602956392E+04 -0.61016822879E+03 -0.66783715510E+03  0.18035615362E+04  0.50400001928E-02 0.  1.
       -1    1    3    3    0  502 -0.15602956392E+04  0.61016822879E+03  0.90993048022E+03  0.19065154676E+04  0.50400001928E-02 0. -1.
</event>
<event>
 5   0  0.2996969E-07  0.3702838E+04  0.7818609E-02  0.8067333E-01
        2   -1    0    0  501    0  0.00000000000E+00  0.00000000000E+00  0.16995322719E+04  0.16995322719E+04  0.25500000920E-02 0.  1.
       -2   -1    0    0    0  501  0.00000000000E+00  0.00000000000E+00 -0.20168797464E+04  0.20168797464E+04  0.25500000920E-02 0. -1.
    10030    2    1    2    0    0  0.00000000000E+00  0.00000000000E+00 -0.31734747449E+03  0.37164120183E+04  0.37028379482E+04 0.  0.
        1    1    3    3  502    0  0.52991089687E+02  0.97732105005E+03 -0.17359906645E+04  0.19928943970E+04  0.50400001928E-02 0. -1.
       -1    1    3    3    0  502 -0.52991089687E+02 -0.97732105005E+03  0.14186431900E+04  0.17235176213E+04  0.50400001928E-02 0.  1.
</event>
<event>
 5   0  0.3032442E-07  0.3700063E+04  0.7818609E-02  0.8067948E-01
        2   -1    0    0  501    0  0.00000000000E+00  0.00000000000E+00  0.17078101348E+04  0.17078101348E+04  0.25500000920E-02 0. -1.
       -2   -1    0    0    0  501  0.00000000000E+00  0.00000000000E+00 -0.20040965587E+04  0.20040965587E+04  0.25500000920E-02 0.  1.
    10030    2    1    2    0    0  0.00000000000E+00  0.00000000000E+00 -0.29628642386E+03  0.37119066935E+04  0.37000629260E+04 0.  0.
        3    1    3    3  502    0 -0.34764718125E+03 -0.80200567403E+03  0.14875804172E+04  0.17253889914E+04  0.10100000352E+00 0. -1.
       -3    1    3    3    0  502  0.34764718125E+03  0.80200567403E+03 -0.17838668411E+04  0.19865177021E+04  0.10100000352E+00 0.  1.
</event>
<event>
 5   0  0.9341000E-08  0.3708458E+04  0.7818609E-02  0.8066090E-01
       -1   -1    0    0    0  501  0.00000000000E+00  0.00000000000E+00  0.27742429702E+04  0.27742429702E+04  0.50400001928E-02 0. -1.
        1   -1    0    0  501    0  0.00000000000E+00  0.00000000000E+00 -0.12393168671E+04  0.12393168671E+04  0.50400001928E-02 0.  1.
    10030    2    1    2    0    0  0.00000000000E+00  0.00000000000E+00  0.15349261031E+04  0.40135598373E+04  0.37084584972E+04 0.  0.
        4    1    3    3  502    0 -0.49452428367E+03  0.14200656926E+04 -0.40670136480E+03  0.15577382487E+04  0.12699999809E+01 0. -1.
       -4    1    3    3    0  502  0.49452428367E+03 -0.14200656926E+04  0.19416274679E+04  0.24558215886E+04  0.12699999809E+01 0.  1.
</event>
<event>
 5   0  0.9341000E-08  0.3698372E+04  0.7818609E-02  0.8068323E-01
        1   -1    0    0  501    0  0.00000000000E+00  0.00000000000E+00  0.22063647739E+04  0.22063647739E+04  0.50400001928E-02 0. -1.
       -1   -1    0    0    0  501  0.00000000000E+00  0.00000000000E+00 -0.15498290106E+04  0.15498290106E+04  0.50400001928E-02 0.  1.
    10030    2    1    2    0    0  0.00000000000E+00  0.00000000000E+00  0.65653576328E+03  0.37561937845E+04  0.36983716063E+04 0.  0.
        4    1    3    3  502    0 -0.11179742221E+04 -0.14722941026E+04  0.37334919155E+03  0.18859765422E+04  0.12699999809E+01 0. -1.
       -4    1    3    3    0  502  0.11179742221E+04  0.14722941026E+04  0.28318657173E+03  0.18702172423E+04  0.12699999809E+01 0.  1.
</event>
<event>
 5   0  0.9341000E-08  0.3673938E+04  0.7818609E-02  0.8073762E-01
       -1   -1    0    0    0  501  0.00000000000E+00  0.00000000000E+00  0.19524990264E+04  0.19524990264E+04  0.50400001928E-02 0.  1.
        1   -1    0    0  501    0  0.00000000000E+00  0.00000000000E+00 -0.17282749646E+04  0.17282749646E+04  0.50400001928E-02 0. -1.
    10030    2    1    2    0    0  0.00000000000E+00  0.00000000000E+00  0.22422406174E+03  0.36807739910E+04  0.36739380429E+04 0.  0.
        3    1    3    3  502    0 -0.13398199697E+04  0.99416911222E+02  0.13672214981E+04  0.19168453011E+04  0.10100000352E+00 0.  1.
       -3    1    3    3    0  502  0.13398199697E+04 -0.99416911222E+02 -0.11429974363E+04  0.17639286899E+04  0.10100000352E+00 0. -1.
</event>
<event>
 5   0  0.2913025E-07  0.3682937E+04  0.7818609E-02  0.8071754E-01
       -2   -1    0    0    0  501  0.00000000000E+00  0.00000000000E+00  0.22830862883E+04  0.22830862883E+04  0.25500000920E-02 0.  1.
        2   -1    0    0  501    0  0.00000000000E+00  0.00000000000E+00 -0.14852728786E+04  0.14852728786E+04  0.25500000920E-02 0. -1.
    10030    2    1    2    0    0  0.00000000000E+00  0.00000000000E+00  0.79781340974E+03  0.37683591669E+04  0.36829369495E+04 0.  0.
        5    1    3    3  502    0 -0.12232575975E+04  0.13293240785E+04  0.33521262387E+02  0.18068224652E+04  0.46999998093E+01 0. -1.
       -5    1    3    3    0  502  0.12232575975E+04 -0.13293240785E+04  0.76429214735E+03  0.19615367017E+04  0.46999998093E+01 0.  1.
</event>
<event>
 5   0  0.9341000E-08  0.3699772E+04  0.7818609E-02  0.8068012E-01
       -1   -1    0    0    0  501  0.00000000000E+00  0.00000000000E+00  0.12001635187E+04  0.12001635187E+04  0.50400001928E-02 0. -1.
        1   -1    0    0  501    0  0.00000000000E+00  0.00000000000E+00 -0.28513430717E+04  0.28513430717E+04  0.50400001928E-02 0.  1.
    10030    2    1    2    0    0  0.00000000000E+00  0.00000000000E+00 -0.16511795529E+04  0.40515065904E+04  0.36997718492E+04 0.  0.
        3    1    3    3  502    0  0.49049072726E+03 -0.62859062386E+03  0.10023464735E+04  0.12807832717E+04  0.10100000352E+00 0. -1.
       -3    1    3    3    0  502 -0.49049072726E+03  0.62859062386E+03 -0.26535260264E+04  0.27707233187E+04  0.10100000352E+00 0.  1.
</event>
<event>
 5   0  0.2913025E-07  0.3711248E+04  0.7818609E-02  0.8065474E-01
       -2   -1    0    0    0  501  0.00000000000E+00  0.00000000000E+00  0.16164171426E+04  0.16164171426E+04  0.25500000920E-02 0. -1.
        2   -1    0    0  501    0  0.00000000000E+00  0.00000000000E+00 -0.21302295573E+04  0.21302295573E+04  0.25500000920E-02 0.  1.
    10030    2    1    2    0    0  0.00000000000E+00  0.00000000000E+00 -0.51381241470E+03  0.37466466998E+04  0.37112475390E+04 0.  0.
        5    1    3    3  502    0 -0.10036852627E+04  0.32254752060E+03 -0.17985266205E+04  0.20847400568E+04  0.46999998093E+01 0.  1.
       -5    1    3    3    0  502  0.10036852627E+04 -0.32254752060E+03  0.12847142058E+04  0.16619066430E+04  0.46999998093E+01 0. -1.
</event>
<event>
 5   0  0.2996969E-07  0.3722653E+04  0.7818609E-02  0.8062960E-01
       -2   -1    0    0    0  501  0.00000000000E+00  0.00000000000E+00  0.16698368576E+04  0.16698368576E+04  0.25500000920E-02 0. -1.
        2   -1    0    0  501    0  0.00000000000E+00  0.00000000000E+00 -0.20747751759E+04  0.20747751759E+04  0.25500000920E-02 0.  1.
    10030    2    1    2    0    0  0.00000000000E+00  0.00000000000E+00 -0.40493831838E+03  0.37446120335E+04  0.37226528498E+04 0.  0.
        1    1    3    3  502    0  0.12515097253E+04 -0.59398091976E+03  0.10480237292E+04  0.17370790606E+04  0.50400001928E-02 0. -1.
       -1    1    3    3    0  502 -0.12515097253E+04  0.59398091976E+03 -0.14529620476E+04  0.20075329729E+04  0.50400001928E-02 0.  1.
</event>
<event>
 5   0  0.2897133E-07  0.3700775E+04  0.7818609E-02  0.8067790E-01
       -2   -1    0    0    0  501  0.00000000000E+00  0.00000000000E+00  0.14508531956E+04  0.14508531956E+04  0.25500000920E-02 0. -1.
        2   -1    0    0  501    0  0.00000000000E+00  0.00000000000E+00 -0.23599457306E+04  0.23599457306E+04  0.25500000920E-02 0.  1.
    10030    2    1    2    0    0  0.00000000000E+00  0.00000000000E+00 -0.90909253492E+03  0.38107989262E+04  0.37007754888E+04 0.  0.
        4    1    3    3  502    0  0.26298495061E+03  0.34484889902E+03 -0.23068729217E+04  0.23472848436E+04  0.12699999809E+01 0.  1.
       -4    1    3    3    0  502 -0.26298495061E+03 -0.34484889902E+03  0.13977803868E+04  0.14635140826E+04  0.12699999809E+01 0. -1.
</event>
<event>
 5   0  0.2913025E-07  0.3672612E+04  0.7818609E-02  0.8074058E-01
        2   -1    0    0  501    0  0.00000000000E+00  0.00000000000E+00  0.21630062901E+04  0.21630062901E+04  0.25500000920E-02 0. -1.
       -2   -1    0    0    0  501  0.00000000000E+00  0.00000000000E+00 -0.15589508600E+04  0.15589508600E+04  0.25500000920E-02 0.  1.
    10030    2    1    2    0    0  0.00000000000E+00  0.00000000000E+00  0.60405543013E+03  0.37219571501E+04  0.36726124304E+04 0.  0.
        5    1    3    3  502    0 -0.77119350664E+02 -0.50022228026E+03 -0.14868598940E+04  0.15706508709E+04  0.46999998093E+01 0.  1.
       -5    1    3    3    0  502  0.77119350664E+02  0.50022228026E+03  0.20909153241E+04  0.21513062791E+04  0.46999998093E+01 0. -1.
</event>
<event>
 5   0  0.9341000E-08  0.3720214E+04  0.7818609E-02  0.8063497E-01
        1   -1    0    0  501    0  0.00000000000E+00  0.00000000000E+00  0.23476652520E+04  0.23476652520E+04  0.50400001928E-02 0.  1.
       -1   -1    0    0    0  501  0.00000000000E+00  0.00000000000E+00 -0.14738038729E+04  0.14738038729E+04  0.50400001928E-02 0. -1.
    10030    2    1    2    0    0  0.00000000000E+00  0.00000000000E+00  0.87386137907E+03  0.38214691249E+04  0.37202140480E+04 0.  0.
        4    1    3    3  502    0  0.26915425183E+03  0.61109623073E+03  0.22203039786E+04  0.23185413485E+04  0.12699999809E+01 0.  1.
       -4    1    3    3    0  502 -0.26915425183E+03 -0.61109623073E+03 -0.13464425995E+04  0.15029277764E+04  0.12699999809E+01 0. -1.
</event>
<event>
 5   0  0.2996969E-07  0.3860790E+04  0.7818609E-02  0.8033234E-01
       -2   -1    0    0    0  501  0.00000000000E+00  0.00000000000E+00  0.13891404350E+04  0.13891404350E+04  0.25500000920E-02 0. -1.
        2   -1    0    0  501    0  0.00000000000E+00  0.00000000000E+00 -0.26825402798E+04  0.26825402798E+04  0.25500000920E-02 0.  1.
    10030    2    1    2    0    0  0.00000000000E+00  0.00000000000E+00 -0.12933998448E+04  0.40716807148E+04  0.38607901633E+04 0.  0.
        1    1    3    3  502    0 -0.14331672641E+04 -0.99079931708E+03  0.22982717002E+03  0.17574049680E+04  0.50400001928E-02 0. -1.
       -1    1    3    3    0  502  0.14331672641E+04  0.99079931708E+03 -0.15232270148E+04  0.23142757468E+04  0.50400001928E-02 0.  1.
</event>
<event>
 5   0  0.9341000E-08  0.3710756E+04  0.7818609E-02  0.8065582E-01
       -1   -1    0    0    0  501  0.00000000000E+00  0.00000000000E+00  0.20332159296E+04  0.20332159296E+04  0.50400001928E-02 0. -1.
        1   -1    0    0  501    0  0.00000000000E+00  0.00000000000E+00 -0.16930945329E+04  0.16930945329E+04  0.50400001928E-02 0.  1.
    10030    2    1    2    0    0  0.00000000000E+00  0.00000000000E+00  0.34012139663E+03  0.37263104625E+04  0.37107555967E+04 0.  0.
        1    1    3    3  502    0  0.34507058094E+03 -0.11634875165E+04 -0.12392644458E+04  0.17345181675E+04  0.50400001928E-02 0.  1.
       -1    1    3    3    0  502 -0.34507058094E+03  0.11634875165E+04  0.15793858424E+04  0.19917922949E+04  0.50400001928E-02 0. -1.
</event>
<event>
 5   0  0.9646615E-08  0.3682385E+04  0.7818609E-02  0.8071877E-01
       -1   -1    0    0    0  501  0.00000000000E+00  0.00000000000E+00  0.33075795124E+04  0.33075795124E+04  0.50400001928E-02 0.  1.
        1   -1    0    0  501    0  0.00000000000E+00  0.00000000000E+00 -0.10249153406E+04  0.10249153407E+04  0.50400001928E-02 0. -1.
    10030    2    1    2    0    0  0.00000000000E+00  0.00000000000E+00  0.22826641718E+04  0.43324948531E+04  0.36823845441E+04 0.  0.
        2    1    3    3  502    0  0.16183730055E+04  0.17684663160E+03  0.12951409797E+03  0.16331502740E+04  0.25500000920E-02 0. -1.
       -2    1    3    3    0  502 -0.16183730055E+04 -0.17684663160E+03  0.21531500738E+04  0.26993445791E+04  0.25500000920E-02 0.  1.
</event>
<event>
 5   0  0.9646615E-08  0.3684000E+04  0.7818609E-02  0.8071517E-01
       -1   -1    0    0    0  501  0.00000000000E+00  0.00000000000E+00  0.13711088691E+04  0.13711088691E+04  0.50400001928E-02 0. -1.
        1   -1    0    0  501    0  0.00000000000E+00  0.00000000000E+00 -0.24746136918E+04  0.24746136918E+04  0.50400001928E-02 0.  1.
    10030    2    1    2    0    0  0.00000000000E+00  0.00000000000E+00 -0.11035048228E+04  0.38457225609E+04  0.36840004237E+04 0.  0.
        2    1    3    3  502    0  0.94252784444E+03 -0.88449691522E+03  0.81821127203E+03  0.15297592020E+04  0.25500000920E-02 0. -1.
       -2    1    3    3    0  502 -0.94252784444E+03  0.88449691522E+03 -0.19217160948E+04  0.23159633589E+04  0.25500000920E-02 0.  1.
</event>
<event>
 5   0  0.9341000E-08  0.3727926E+04  0.7818609E-02  0.8061801E-01
        1   -1    0    0  501    0  0.00000000000E+00  0.00000000000E+00  0.13095666697E+04  0.13095666697E+04  0.50400001928E-02 0. -1.
       -1   -1    0    0    0  501  0.00000000000E+00  0.00000000000E+00 -0.26530599471E+04  0.26530599471E+04  0.50400001928E-02 0.  1.
    10030    2    1    2    0    0  0.00000000000E+00  0.00000000000E+00 -0.13434932775E+04  0.39626266168E+04  0.37279264367E+04 0.  0.
        1    1    3    3  502    0 -0.11903748946E+04  0.14637374721E+02 -0.21963224838E+04  0.24982071763E+04  0.50400001928E-02 0.  1.
       -1    1    3    3    0  502  0.11903748946E+04 -0.14637374721E+02  0.85282920639E+03  0.14644194405E+04  0.50400001928E-02 0. -1.
</event>
<event>
 5   0  0.9341000E-08  0.3707003E+04  0.7818609E-02  0.8066412E-01
        1   -1    0    0  501    0  0.00000000000E+00  0.00000000000E+00  0.10191551118E+04  0.10191551119E+04  0.50400001928E-02 0. -1.
       -1   -1    0    0    0  501  0.00000000000E+00  0.00000000000E+00 -0.33708971598E+04  0.33708971598E+04  0.50400001928E-02 0.  1.
    10030    2    1    2    0    0  0.00000000000E+00  0.00000000000E+00 -0.23517420480E+04  0.43900522717E+04  0.37070026016E+04 0.  0.
        4    1    3    3  502    0 -0.14190017208E+04  0.13683302027E+03 -0.25786941634E+04  0.29465156304E+04  0.12699999809E+01 0. -1.
       -4    1    3    3    0  502  0.14190017208E+04 -0.13683302027E+03  0.22695211538E+03  0.14435366413E+04  0.12699999809E+01 0.  1.
</event>
<event>
 5   0  0.2897133E-07  0.3710648E+04  0.7818609E-02  0.8065606E-01
       -2   -1    0    0    0  501  0.00000000000E+00  0.00000000000E+00  0.22446610041E+04  0.22446610041E+04  0.25500000920E-02 0. -1.
        2   -1    0    0  501    0  0.00000000000E+00  0.00000000000E+00 -0.15335174510E+04  0.15335174510E+04  0.25500000920E-02 0.  1.
    10030    2    1    2    0    0  0.00000000000E+00  0.00000000000E+00  0.71114355303E+03  0.37781784551E+04  0.37106478256E+04 0.  0.
        4    1    3    3  502    0 -0.53002641506E+03  0.36557297618E+03 -0.14161104258E+04  0.15556162614E+04  0.12699999809E+01 0.  1.
       -4    1    3    3    0  502  0.53002641506E+03 -0.36557297618E+03  0.21272539788E+04  0.22225621937E+04  0.12699999809E+01 0. -1.
</event>
<event>
 5   0  0.2897133E-07  0.3575657E+04  0.7818609E-02  0.8096091E-01
       -2   -1    0    0    0  501  0.00000000000E+00  0.00000000000E+00  0.21248146213E+04  0.21248146213E+04  0.25500000920E-02 0. -1.
        2   -1    0    0  501    0  0.00000000000E+00  0.00000000000E+00 -0.15042872127E+04  0.15042872127E+04  0.25500000920E-02 0.  1.
    10030    2    1    2    0    0  0.00000000000E+00  0.00000000000E+00  0.62052740863E+03  0.36291018340E+04  0.35756574021E+04 0.  0.
        4    1    3    3  502    0 -0.12951993559E+04 -0.11192073685E+04  0.83388509289E+03  0.19040831038E+04  0.12699999809E+01 0. -1.
       -4    1    3    3    0  502  0.12951993559E+04  0.11192073685E+04 -0.21335768426E+03  0.17250187302E+04  0.12699999809E+01 0.  1.
</event>
<event>
 5   0  0.9418945E-08  0.3700609E+04  0.7818609E-02  0.8067827E-01
       -1   -1    0    0    0  501  0.00000000000E+00  0.00000000000E+00  0.19487485623E+04  0.19487485623E+04  0.50400001928E-02 0. -1.
        1   -1    0    0  501    0  0.00000000000E+00  0.00000000000E+00 -0.17568338692E+04  0.17568338692E+04  0.50400001928E-02 0.  1.
    10030    2    1    2    0    0  0.00000000000E+00  0.00000000000E+00  0.19191469314E+03  0.37055824315E+04  0.37006093967E+04 0.  0.
        5    1    3    3  502    0  0.14623703908E+04  0.10451475583E+04 -0.34365975244E+03  0.18300231402E+04  0.46999998093E+01 0.  1.
       -5    1    3    3    0  502 -0.14623703908E+04 -0.10451475583E+04  0.53557444558E+03  0.18755592913E+04  0.46999998093E+01 0. -1.
</event>
<event>
 5   0  0.3008879E-07  0.3415295E+04  0.7818609E-02  0.8134163E-01
        2   -1    0    0  501    0  0.00000000000E+00  0.00000000000E+00  0.18124500507E+04  0.18124500507E+04  0.25500000920E-02 0.  1.
       -2   -1    0    0    0  501  0.00000000000E+00  0.00000000000E+00 -0.16089046321E+04  0.16089046321E+04  0.25500000920E-02 0. -1.
    10030    2    1    2    0    0  0.00000000000E+00  0.00000000000E+00  0.20354541852E+03  0.34213546828E+04  0.34152945888E+04 0.  0.
        2    1    3    3  502    0 -0.57752527433E+03  0.25831607291E+03 -0.14871680131E+04  0.16161470649E+04  0.25500000920E-02 0. -1.
       -2    1    3    3    0  502  0.57752527433E+03 -0.25831607291E+03  0.16907134316E+04  0.18052076180E+04  0.25500000920E-02 0.  1.
</event>
<event>
 5   0  0.9341000E-08  0.3643506E+04  0.7818609E-02  0.8080598E-01
        3   -1    0    0  501    0  0.00000000000E+00  0.00000000000E+00  0.12076922721E+04  0.12076922763E+04  0.10100000352E+00 0.  1.
       -3   -1    0    0    0  501  0.00000000000E+00  0.00000000000E+00 -0.27480383667E+04  0.27480383686E+04  0.10100000352E+00 0. -1.
    10030    2    1    2    0    0  0.00000000000E+00  0.00000000000E+00 -0.15403460946E+04  0.39557306449E+04  0.36435063941E+04 0.  0.
        1    1    3    3  502    0  0.14183987711E+04 -0.73657057995E+03  0.17904425319E+03  0.16082438055E+04  0.50400001928E-02 0.  1.
       -1    1    3    3    0  502 -0.14183987711E+04  0.73657057995E+03 -0.17193903478E+04  0.23474868394E+04  0.50400001928E-02 0. -1.
</event>
<event>
 5   0  0.2996969E-07  0.3599893E+04  0.7818609E-02  0.8090516E-01
        2   -1    0    0  501    0  0.00000000000E+00  0.00000000000E+00  0.16134686317E+04  0.16134686317E+04  0.25500000920E-02 0.  1.
       -2   -1    0    0    0  501  0.00000000000E+00  0.00000000000E+00 -0.20079766844E+04  0.20079766844E+04  0.25500000920E-02 0. -1.
    10030    2    1    2    0    0  0.00000000000E+00  0.00000000000E+00 -0.39450805264E+03  0.36214453161E+04  0.35998929948E+04 0.  0.
        1    1    3    3  502    0  0.10551154576E+04 -0.12410921470E+04  0.57298586414E+03  0.17268153192E+04  0.50400001928E-02 0.  1.
       -1    1    3    3    0  502 -0.10551154576E+04  0.12410921470E+04 -0.96749391678E+03  0.18946299969E+04  0.50400001928E-02 0. -1.
</event>
<event>
 5   0  0.2897133E-07  0.3676853E+04  0.7818609E-02  0.8073111E-01
        2   -1    0    0  501    0  0.00000000000E+00  0.00000000000E+00  0.14881737698E+04  0.14881737698E+04  0.25500000920E-02 0. -1.
       -2   -1    0    0    0  501  0.00000000000E+00  0.00000000000E+00 -0.22711135221E+04  0.22711135221E+04  0.25500000920E-02 0.  1.
    10030    2    1    2    0    0  0.00000000000E+00  0.00000000000E+00 -0.78293975229E+03  0.37592872920E+04  0.36768527694E+04 0.  0.
        4    1    3    3  502    0  0.15138705617E+03  0.61137629304E+03  0.13744214751E+04  0.15118647481E+04  0.12699999809E+01 0. -1.
       -4    1    3    3    0  502 -0.15138705617E+03 -0.61137629304E+03 -0.21573612274E+04  0.22474225439E+04  0.12699999809E+01 0.  1.
</event>
<event>
 5   0  0.9418945E-08  0.3706142E+04  0.7818609E-02  0.8066602E-01
        1   -1    0    0  501    0  0.00000000000E+00  0.00000000000E+00  0.12975297991E+04  0.12975297991E+04  0.50400001928E-02 0. -1.
       -1   -1    0    0    0  501  0.00000000000E+00  0.00000000000E+00 -0.26464683319E+04  0.26464683319E+04  0.50400001928E-02 0.  1.
    10030    2    1    2    0    0  0.00000000000E+00  0.00000000000E+00 -0.13489385329E+04  0.39439981310E+04  0.37061416719E+04 0.  0.
        5    1    3    3  502    0 -0.53570719484E+03 -0.29603760827E+03  0.11868491537E+04  0.13353851383E+04  0.46999998093E+01 0. -1.
       -5    1    3    3    0  502  0.53570719484E+03  0.29603760827E+03 -0.25357876866E+04  0.26086129927E+04  0.46999998093E+01 0.  1.
</event>
<event>
 5   0  0.2897133E-07  0.3406769E+04  0.7818609E-02  0.8136247E-01
       -2   -1    0    0    0  501  0.00000000000E+00  0.00000000000E+00  0.16401880986E+04  0.16401880986E+04  0.25500000920E-02 0. -1.
        2   -1    0    0  501    0  0.00000000000E+00  0.00000000000E+00 -0.17690157808E+04  0.17690157808E+04  0.25500000920E-02 0.  1.
    10030    2    1    2    0    0  0.00000000000E+00  0.00000000000E+00 -0.12882768220E+03  0.34092038795E+04  0.34067689267E+04 0.  0.
        4    1    3    3  502    0 -0.20030317182E+03 -0.10042129640E+04  0.12977908727E+04  0.16531266739E+04  0.12699999809E+01 0. -1.
       -4    1    3    3    0  502  0.20030317182E+03  0.10042129640E+04 -0.14266185549E+04  0.17560772056E+04  0.12699999809E+01 0.  1.
</event>
<event>
 5   0  0.2913025E-07  0.3694294E+04  0.7818609E-02  0.8069228E-01
        2   -1    0    0  501    0  0.00000000000E+00  0.00000000000E+00  0.30365946715E+04  0.30365946715E+04  0.25500000920E-02 0. -1.
       -2   -1    0    0    0  501  0.00000000000E+00  0.00000000000E+00 -0.11236111898E+04  0.11236111898E+04  0.25500000920E-02 0.  1.
    10030    2    1    2    0    0  0.00000000000E+00  0.00000000000E+00  0.19129834817E+04  0.41602058613E+04  0.36942938442E+04 0.  0.
        5    1    3    3  502    0 -0.17490095481E+04  0.35172387231E+03  0.14956012966E+04  0.23280011620E+04  0.46999998093E+01 0. -1.
       -5    1    3    3    0  502  0.17490095481E+04 -0.35172387231E+03  0.41738218512E+03  0.18322046993E+04  0.46999998093E+01 0.  1.
</event>
<event>
 5   0  0.2996969E-07  0.3622448E+04  0.7818609E-02  0.8085369E-01
        2   -1    0    0  501    0  0.00000000000E+00  0.00000000000E+00  0.26402600798E+04  0.26402600799E+04  0.25500000920E-02 0. -1.
       -2   -1    0    0    0  501  0.00000000000E+00  0.00000000000E+00 -0.12425037902E+04  0.12425037902E+04  0.25500000920E-02 0.  1.
    10030    2    1    2    0    0  0.00000000000E+00  0.00000000000E+00  0.13977562896E+04  0.38827638701E+04  0.36224484296E+04 0.  0.
        1    1    3    3  502    0  0.84432226069E+03  0.43529408323E+03  0.23518307894E+04  0.25364284104E+04  0.50400001928E-02 0. -1.
       -1    1    3    3    0  502 -0.84432226069E+03 -0.43529408323E+03 -0.95407449980E+03  0.13463354597E+04  0.50400001928E-02 0.  1.
</event>
<event>
 5   0  0.9341000E-08  0.3711603E+04  0.7818609E-02  0.8065395E-01
        1   -1    0    0  501    0  0.00000000000E+00  0.00000000000E+00  0.17249963462E+04  0.17249963463E+04  0.50400001928E-02 0. -1.
       -1   -1    0    0    0  501  0.00000000000E+00  0.00000000000E+00 -0.19965253982E+04  0.19965253982E+04  0.50400001928E-02 0.  1.
    10030    2    1    2    0    0  0.00000000000E+00  0.00000000000E+00 -0.27152905199E+03  0.37215217445E+04  0.37116028975E+04 0.  0.
        4    1    3    3  502    0  0.11310176348E+04  0.12312201758E+04 -0.94345643386E+03  0.19196915552E+04  0.12699999809E+01 0.  1.
       -4    1    3    3    0  502 -0.11310176348E+04 -0.12312201758E+04  0.67192738187E+03  0.18018301893E+04  0.12699999809E+01 0. -1.
</event>
<event>
 5   0  0.2996969E-07  0.3738344E+04  0.7818609E-02  0.8059517E-01
        2   -1    0    0  501    0  0.00000000000E+00  0.00000000000E+00  0.24877570889E+04  0.24877570889E+04  0.25500000920E-02 0.  1.
       -2   -1    0    0    0  501  0.00000000000E+00  0.00000000000E+00 -0.14043990811E+04  0.14043990811E+04  0.25500000920E-02 0. -1.
    10030    2    1    2    0    0  0.00000000000E+00  0.00000000000E+00  0.10833580078E+04  0.38921561700E+04  0.37383438952E+04 0.  0.
        1    1    3    3  502    0  0.18004785227E+04  0.43058937377E+03  0.81051543629E+03  0.20209070716E+04  0.50400001928E-02 0.  1.
       -1    1    3    3    0  502 -0.18004785227E+04 -0.43058937377E+03  0.27284257156E+03  0.18712490984E+04  0.50400001928E-02 0. -1.
</event>
<event>
 5   0  0.9341000E-08  0.3725209E+04  0.7818609E-02  0.8062398E-01
       -1   -1    0    0    0  501  0.00000000000E+00  0.00000000000E+00  0.31015421343E+04  0.31015421343E+04  0.50400001928E-02 0.  1.
        1   -1    0    0  501    0  0.00000000000E+00  0.00000000000E+00 -0.11185714311E+04  0.11185714311E+04  0.50400001928E-02 0. -1.
    10030    2    1    2    0    0  0.00000000000E+00  0.00000000000E+00  0.19829707032E+04  0.42201135654E+04  0.37252094834E+04 0.  0.
        4    1    3    3  502    0 -0.59279628214E+03 -0.27813006624E+03 -0.98388330900E+03  0.11818594436E+04  0.12699999809E+01 0. -1.
       -4    1    3    3    0  502  0.59279628214E+03  0.27813006624E+03  0.29668540122E+04  0.30382541218E+04  0.12699999809E+01 0.  1.
</event>
<event>
 5   0  0.3032442E-07  0.3718688E+04  0.7818609E-02  0.8063833E-01
       -2   -1    0    0    0  501  0.00000000000E+00  0.00000000000E+00  0.13928180602E+04  0.13928180602E+04  0.25500000920E-02 0. -1.
        2   -1    0    0  501    0  0.00000000000E+00  0.00000000000E+00 -0.24821330799E+04  0.24821330799E+04  0.25500000920E-02 0.  1.
    10030    2    1    2    0    0  0.00000000000E+00  0.00000000000E+00 -0.10893150197E+04  0.38749511401E+04  0.37186878232E+04 0.  0.
        3    1    3    3  502    0  0.17817499365E+04  0.29935373736E+03 -0.86980927660E+02  0.18088148574E+04  0.10100000352E+00 0. -1.
       -3    1    3    3    0  502 -0.17817499365E+04 -0.29935373736E+03 -0.10023340920E+04  0.20661362827E+04  0.10100000352E+00 0.  1.
</event>
<event>
 5   0  0.9341000E-08  0.3720979E+04  0.7818609E-02  0.8063328E-01
       -1   -1    0    0    0  501  0.00000000000E+00  0.00000000000E+00  0.14261346541E+04  0.14261346541E+04  0.50400001928E-02 0.  1.
        1   -1    0    0  501    0  0.00000000000E+00  0.00000000000E+00 -0.24271351136E+04  0.24271351136E+04  0.50400001928E-02 0. -1.
    10030    2    1    2    0    0  0.00000000000E+00  0.00000000000E+00 -0.10010004596E+04  0.38532697677E+04  0.37209791699E+04 0.  0.
        4    1    3    3  502    0  0.22513696108E+03  0.18435352219E+04 -0.61446333550E+03  0.19562401615E+04  0.12699999809E+01 0. -1.
       -4    1    3    3    0  502 -0.22513696108E+03 -0.18435352219E+04 -0.38653712407E+03  0.18970296062E+04  0.12699999809E+01 0.  1.
</event>
<event>
 5   0  0.9341000E-08  0.3638279E+04  0.7818609E-02  0.8081779E-01
       -1   -1    0    0    0  501  0.00000000000E+00  0.00000000000E+00  0.16628018236E+04  0.16628018236E+04  0.50400001928E-02 0. -1.
        1   -1    0    0  501    0  0.00000000000E+00  0.00000000000E+00 -0.19901763469E+04  0.19901763469E+04  0.50400001928E-02 0.  1.
    10030    2    1    2    0    0  0.00000000000E+00  0.00000000000E+00 -0.32737452330E+03  0.36529781704E+04  0.36382791860E+04 0.  0.
        1    1    3    3  502    0 -0.17347710398E+04 -0.53139844914E+03 -0.29633454870E+03  0.18383767397E+04  0.50400001928E-02 0. -1.
       -1    1    3    3    0  502  0.17347710398E+04  0.53139844914E+03 -0.31039974597E+02  0.18146014307E+04  0.50400001928E-02 0.  1.
</event>
<event>
 5   0  0.2996969E-07  0.3700893E+04  0.7818609E-02  0.8067764E-01
       -2   -1    0    0    0  501  0.00000000000E+00  0.00000000000E+00  0.19803941952E+04  0.19803941952E+04  0.25500000920E-02 0.  1.
        2   -1    0    0  501    0  0.00000000000E+00  0.00000000000E+00 -0.17290259918E+04  0.17290259918E+04  0.25500000920E-02 0. -1.
    10030    2    1    2    0    0  0.00000000000E+00  0.00000000000E+00  0.25136820337E+03  0.37094201871E+04  0.37008934260E+04 0.  0.
        1    1    3    3  502    0  0.31806107149E+03  0.80596130316E+03  0.17645098168E+04  0.19657648285E+04  0.50400001928E-02 0.  1.
       -1    1    3    3    0  502 -0.31806107149E+03 -0.80596130316E+03 -0.15131416134E+04  0.17436553586E+04  0.50400001928E-02 0. -1.
</event>
<event>
 5   0  0.2897133E-07  0.3691290E+04  0.7818609E-02  0.8069895E-01
        2   -1    0    0  501    0  0.00000000000E+00  0.00000000000E+00  0.18386004399E+04  0.18386004399E+04  0.25500000920E-02 0. -1.
       -2   -1    0    0    0  501  0.00000000000E+00  0.00000000000E+00 -0.18527163887E+04  0.18527163887E+04  0.25500000920E-02 0.  1.
    10030    2    1    2    0    0  0.00000000000E+00  0.00000000000E+00 -0.14115948796E+02  0.36913168287E+04  0.36912898382E+04 0.  0.
        4    1    3    3  502    0  0.14264611815E+04  0.84958695061E+03  0.79905837481E+03  0.18425757483E+04  0.12699999809E+01 0.  1.
       -4    1    3    3    0  502 -0.14264611815E+04 -0.84958695061E+03 -0.81317432360E+03  0.18487410804E+04  0.12699999809E+01 0. -1.
</event>
<event>
 5   0  0.9341000E-08  0.3755445E+04  0.7818609E-02  0.8055784E-01
       -3   -1    0    0    0  501  0.00000000000E+00  0.00000000000E+00  0.16828984216E+04  0.16828984246E+04  0.10100000352E+00 0.  1.
        3   -1    0    0  501    0  0.00000000000E+00  0.00000000000E+00 -0.20951007689E+04  0.20951007714E+04  0.10100000352E+00 0. -1.
    10030    2    1    2    0    0  0.00000000000E+00  0.00000000000E+00 -0.41220234735E+03  0.37779991960E+04  0.37554450002E+04 0.  0.
        1    1    3    3  502    0  0.17109539451E+04  0.74301457020E+03 -0.42281949826E+03  0.19126448656E+04  0.50400001928E-02 0.  1.
       -1    1    3    3    0  502 -0.17109539451E+04 -0.74301457020E+03  0.10617150909E+02  0.18653543304E+04  0.50400001928E-02 0. -1.
</event>
<event>
 5   0  0.2996969E-07  0.3668281E+04  0.7818609E-02  0.8075028E-01
       -2   -1    0    0    0  501  0.00000000000E+00  0.00000000000E+00  0.17895411804E+04  0.17895411804E+04  0.25500000920E-02 0.  1.
        2   -1    0    0  501    0  0.00000000000E+00  0.00000000000E+00 -0.18798510828E+04  0.18798510828E+04  0.25500000920E-02 0. -1.
    10030    2    1    2    0    0  0.00000000000E+00  0.00000000000E+00 -0.90309902366E+02  0.36693922632E+04  0.36682807557E+04 0.  0.
        1    1    3    3  502    0 -0.97018036014E+03 -0.10797123593E+04  0.10763637118E+04  0.18070936749E+04  0.50400001928E-02 0. -1.
       -1    1    3    3    0  502  0.97018036014E+03  0.10797123593E+04 -0.11666736141E+04  0.18622985883E+04  0.50400001928E-02 0.  1.
</event>
<event>
 5   0  0.3032442E-07  0.3670806E+04  0.7818609E-02  0.8074463E-01
       -2   -1    0    0    0  501  0.00000000000E+00  0.00000000000E+00  0.15992754075E+04  0.15992754075E+04  0.25500000920E-02 0.  1.
        2   -1    0    0  501    0  0.00000000000E+00  0.00000000000E+00 -0.21063941592E+04  0.21063941592E+04  0.25500000920E-02 0. -1.
    10030    2    1    2    0    0  0.00000000000E+00  0.00000000000E+00 -0.50711875172E+03  0.37056695667E+04  0.36708061116E+04 0.  0.
        3    1    3    3  502    0 -0.59443342139E+02 -0.16106922715E+04  0.63275485350E+03  0.17315431901E+04  0.10100000352E+00 0. -1.
       -3    1    3    3    0  502  0.59443342139E+02  0.16106922715E+04 -0.11398736052E+04  0.19741263765E+04  0.10100000352E+00 0.  1.
</event>
<event>
 5   0  0.9341000E-08  0.3710247E+04  0.7818609E-02  0.8065695E-01
        1   -1    0    0  501    0  0.00000000000E+00  0.00000000000E+00  0.18406985888E+04  0.18406985888E+04  0.50400001928E-02 0.  1.
       -1   -1    0    0    0  501  0.00000000000E+00  0.00000000000E+00 -0.18696616234E+04  0.18696616234E+04  0.50400001928E-02 0. -1.
    10030    2    1    2    0    0  0.00000000000E+00  0.00000000000E+00 -0.28963034612E+02  0.37103602122E+04  0.37102471679E+04 0.  0.
        1    1    3    3  502    0  0.12439610999E+04 -0.73517125387E+03 -0.11779461724E+04  0.18642620995E+04  0.50400001928E-02 0. -1.
       -1    1    3    3    0  502 -0.12439610999E+04  0.73517125387E+03  0.11489831378E+04  0.18460981127E+04  0.50400001928E-02 0.  1.
</event>
<event>
 5   0  0.9341000E-08  0.3646841E+04  0.7818609E-02  0.8079846E-01
       -1   -1    0    0    0  501  0.00000000000E+00  0.00000000000E+00  0.15182883832E+04  0.15182883832E+04  0.50400001928E-02 0. -1.
        1   -1    0    0  501    0  0.00000000000E+00  0.00000000000E+00 -0.21898755115E+04  0.21898755115E+04  0.50400001928E-02 0.  1.
    10030    2    1    2    0    0  0.00000000000E+00  0.00000000000E+00 -0.67158712831E+03  0.37081638947E+04  0.36468411261E+04 0.  0.
        1    1    3    3  502    0  0.17327599179E+04 -0.35212664338E+03  0.11713168332E+03  0.17720524646E+04  0.50400001928E-02 0. -1.
       -1    1    3    3    0  502 -0.17327599179E+04  0.35212664338E+03 -0.78871881164E+03  0.19361114301E+04  0.50400001928E-02 0.  1.
</event>
<event>
 5   0  0.9341000E-08  0.3689253E+04  0.7818609E-02  0.8070348E-01
        1   -1    0    0  501    0  0.00000000000E+00  0.00000000000E+00  0.13389538167E+04  0.13389538167E+04  0.50400001928E-02 0. -1.
       -1   -1    0    0    0  501  0.00000000000E+00  0.00000000000E+00 -0.25412726086E+04  0.25412726086E+04  0.50400001928E-02 0.  1.
    10030    2    1    2    0    0  0.00000000000E+00  0.00000000000E+00 -0.12023187919E+04  0.38802264253E+04  0.36892528559E+04 0.  0.
        3    1    3    3  502    0  0.56033810464E+03 -0.14615640820E+04  0.42532121260E+03  0.16220500922E+04  0.10100000352E+00 0.  1.
       -3    1    3    3    0  502 -0.56033810464E+03  0.14615640820E+04 -0.16276400045E+04  0.22581763332E+04  0.10100000352E+00 0. -1.
</event>
<event>
 5   0  0.9418945E-08  0.3679183E+04  0.7818609E-02  0.8072591E-01
        1   -1    0    0  501    0  0.00000000000E+00  0.00000000000E+00  0.17000022047E+04  0.17000022047E+04  0.50400001928E-02 0.  1.
       -1   -1    0    0    0  501  0.00000000000E+00  0.00000000000E+00 -0.19906431591E+04  0.19906431591E+04  0.50400001928E-02 0. -1.
    10030    2    1    2    0    0  0.00000000000E+00  0.00000000000E+00 -0.29064095440E+03  0.36906453638E+04  0.36791834742E+04 0.  0.
        5    1    3    3  502    0 -0.14031194913E+04 -0.11838752266E+04 -0.27605799615E+02  0.18360525671E+04  0.46999998093E+01 0. -1.
       -5    1    3    3    0  502  0.14031194913E+04  0.11838752266E+04 -0.26303515478E+03  0.18545927967E+04  0.46999998093E+01 0.  1.
</event>
<event>
 5   0  0.9418945E-08  0.3699734E+04  0.7818609E-02  0.8068021E-01
       -1   -1    0    0    0  501  0.00000000000E+00  0.00000000000E+00  0.20213035747E+04  0.20213035747E+04  0.50400001928E-02 0. -1.
        1   -1    0    0  501    0  0.00000000000E+00  0.00000000000E+00 -0.16929709441E+04  0.16929709442E+04  0.50400001928E-02 0.  1.
    10030    2    1    2    0    0  0.00000000000E+00  0.00000000000E+00  0.32833263051E+03  0.37142745188E+04  0.36997341641E+04 0.  0.
        5    1    3    3  502    0 -0.36931531052E+03 -0.64790673586E+00  0.19839102871E+04  0.20179981010E+04  0.46999998093E+01 0. -1.
       -5    1    3    3    0  502  0.36931531052E+03  0.64790673586E+00 -0.16555776566E+04  0.16962764178E+04  0.46999998093E+01 0.  1.
</event>
<event>
 5   0  0.2897133E-07  0.3710387E+04  0.7818609E-02  0.8065664E-01
        2   -1    0    0  501    0  0.00000000000E+00  0.00000000000E+00  0.17478257892E+04  0.17478257892E+04  0.25500000920E-02 0. -1.
       -2   -1    0    0    0  501  0.00000000000E+00  0.00000000000E+00 -0.19691569439E+04  0.19691569439E+04  0.25500000920E-02 0.  1.
    10030    2    1    2    0    0  0.00000000000E+00  0.00000000000E+00 -0.22133115470E+03  0.37169827330E+04  0.37103871978E+04 0.  0.
        4    1    3    3  502    0 -0.17571731095E+04  0.53715097999E+03  0.14582306641E+03  0.18432185144E+04  0.12699999809E+01 0. -1.
       -4    1    3    3    0  502  0.17571731095E+04 -0.53715097999E+03 -0.36715422111E+03  0.18737642187E+04  0.12699999809E+01 0.  1.
</event>
<event>
 5   0  0.2996969E-07  0.3701072E+04  0.7818609E-02  0.8067724E-01
       -2   -1    0    0    0  501  0.00000000000E+00  0.00000000000E+00  0.18775530532E+04  0.18775530532E+04  0.25500000920E-02 0.  1.
        2   -1    0    0  501    0  0.00000000000E+00  0.00000000000E+00 -0.18239080409E+04  0.18239080409E+04  0.25500000920E-02 0. -1.
    10030    2    1    2    0    0  0.00000000000E+00  0.00000000000E+00  0.53645012333E+02  0.37014610940E+04  0.37010723370E+04 0.  0.
        1    1    3    3  502    0 -0.14911520925E+04  0.44135409247E+03 -0.97635618940E+03  0.18361915496E+04  0.50400001928E-02 0. -1.
       -1    1    3    3    0  502  0.14911520925E+04 -0.44135409247E+03  0.10300012017E+04  0.18652695445E+04  0.50400001928E-02 0.  1.
</event>
<event>
 5   0  0.9341000E-08  0.3712216E+04  0.7818609E-02  0.8065260E-01
       -1   -1    0    0    0  501  0.00000000000E+00  0.00000000000E+00  0.17854728797E+04  0.17854728797E+04  0.50400001928E-02 0. -1.
        1   -1    0    0  501    0  0.00000000000E+00  0.00000000000E+00 -0.19295373012E+04  0.19295373012E+04  0.50400001928E-02 0.  1.
    10030    2    1    2    0    0  0.00000000000E+00  0.00000000000E+00 -0.14406442153E+03  0.37150101809E+04  0.37122157921E+04 0.  0.
        4    1    3    3  502    0  0.76836907167E+03 -0.16755503799E+04 -0.28962357665E+03  0.18659430685E+04  0.12699999809E+01 0. -1.
       -4    1    3    3    0  502 -0.76836907167E+03  0.16755503799E+04  0.14555915511E+03  0.18490671124E+04  0.12699999809E+01 0.  1.
</event>
<event>
 5   0  0.2913025E-07  0.3720173E+04  0.7818609E-02  0.8063506E-01
       -2   -1    0    0    0  501  0.00000000000E+00  0.00000000000E+00  0.13648163928E+04  0.13648163928E+04  0.25500000920E-02 0. -1.
        2   -1    0    0  501    0  0.00000000000E+00  0.00000000000E+00 -0.25350815845E+04  0.25350815845E+04  0.25500000920E-02 0.  1.
    10030    2    1    2    0    0  0.00000000000E+00  0.00000000000E+00 -0.11702651917E+04  0.38998979773E+04  0.37201725249E+04 0.  0.
        5    1    3    3  502    0  0.17782216051E+04 -0.18897941763E+01 -0.11572292431E+04  0.21216213751E+04  0.46999998093E+01 0.  1.
       -5    1    3    3    0  502 -0.17782216051E+04  0.18897941763E+01 -0.13035948606E+02  0.17782766022E+04  0.46999998093E+01 0. -1.
</event>
<event>
 5   0  0.9646615E-08  0.3718668E+04  0.7818609E-02  0.8063837E-01
       -1   -1    0    0    0  501  0.00000000000E+00  0.00000000000E+00  0.12308925751E+04  0.12308925751E+04  0.50400001928E-02 0.  1.
        1   -1    0    0  501    0  0.00000000000E+00  0.00000000000E+00 -0.28086316536E+04  0.28086316536E+04  0.50400001928E-02 0. -1.
    10030    2    1    2    0    0  0.00000000000E+00  0.00000000000E+00 -0.15777390784E+04  0.40395242287E+04  0.37186684975E+04 0.  0.
        2    1    3    3  502    0  0.10321821531E+04 -0.11473786164E+04 -0.19152800730E+04  0.24597104392E+04  0.25500000920E-02 0. -1.
       -2    1    3    3    0  502 -0.10321821531E+04  0.11473786164E+04  0.33754099455E+03  0.15798137895E+04  0.25500000920E-02 0.  1.
</event>
<event>
 5   0  0.3008879E-07  0.3665217E+04  0.7818609E-02  0.8075714E-01
        2   -1    0    0  501    0  0.00000000000E+00  0.00000000000E+00  0.13821628247E+04  0.13821628247E+04  0.25500000920E-02 0.  1.
       -2   -1    0    0    0  501  0.00000000000E+00  0.00000000000E+00 -0.24298542401E+04  0.24298542401E+04  0.25500000920E-02 0. -1.
    10030    2    1    2    0    0  0.00000000000E+00  0.00000000000E+00 -0.10476914155E+04  0.38120170648E+04  0.36652171559E+04 0.  0.
        2    1    3    3  502    0 -0.16738807466E+04  0.74056474682E+03 -0.61768874468E+03  0.19318002701E+04  0.25500000920E-02 0. -1.
       -2    1    3    3    0  502  0.16738807466E+04 -0.74056474682E+03 -0.43000267080E+03  0.18802167947E+04  0.25500000920E-02 0.  1.
</event>
<event>
 5   0  0.3032442E-07  0.3797445E+04  0.7818609E-02  0.8046703E-01
        2   -1    0    0  501    0  0.00000000000E+00  0.00000000000E+00  0.15586344371E+04  0.15586344371E+04  0.25500000920E-02 0. -1.
       -2   -1    0    0    0  501  0.00000000000E+00  0.00000000000E+00 -0.23130169846E+04  0.23130169846E+04  0.25500000920E-02 0.  1.
    10030    2    1    2    0    0  0.00000000000E+00  0.00000000000E+00 -0.75438254756E+03  0.38716514217E+04  0.37974454180E+04 0.  0.
        3    1    3    3  502    0 -0.35034588446E+03  0.52213814689E+03 -0.22037858706E+04  0.22917335484E+04  0.10100000352E+00 0.  1.
       -3    1    3    3    0  502  0.35034588446E+03 -0.52213814689E+03  0.14494033231E+04  0.15799178733E+04  0.10100000352E+00 0. -1.
</event>
<event>
 5   0  0.2996969E-07  0.3699771E+04  0.7818609E-02  0.8068013E-01
       -2   -1    0    0    0  501  0.00000000000E+00  0.00000000000E+00  0.15327003710E+04  0.15327003710E+04  0.25500000920E-02 0. -1.
        2   -1    0    0  501    0  0.00000000000E+00  0.00000000000E+00 -0.22327104243E+04  0.22327104243E+04  0.25500000920E-02 0.  1.
    10030    2    1    2    0    0  0.00000000000E+00  0.00000000000E+00 -0.70001005332E+03  0.37654107953E+04  0.36997708554E+04 0.  0.
        1    1    3    3  502    0 -0.90035024448E+03  0.12896957966E+04  0.64099016185E+03  0.16984740793E+04  0.50400001928E-02 0. -1.
       -1    1    3    3    0  502  0.90035024448E+03 -0.12896957966E+04 -0.13410002152E+04  0.20669367159E+04  0.50400001928E-02 0.  1.
</event>
<event>
 5   0  0.2897133E-07  0.3733267E+04  0.7818609E-02  0.8060629E-01
        2   -1    0    0  501    0  0.00000000000E+00  0.00000000000E+00  0.28146673130E+04  0.28146673130E+04  0.25500000920E-02 0. -1.
       -2   -1    0    0    0  501  0.00000000000E+00  0.00000000000E+00 -0.12379157382E+04  0.12379157382E+04  0.25500000920E-02 0.  1.
    10030    2    1    2    0    0  0.00000000000E+00  0.00000000000E+00  0.15767515748E+04  0.40525830512E+04  0.37332671828E+04 0.  0.
        4    1    3    3  502    0  0.26799979980E+03  0.18097299539E+04  0.11907160250E+04  0.21828313411E+04  0.12699999809E+01 0.  1.
       -4    1    3    3    0  502 -0.26799979980E+03 -0.18097299539E+04  0.38603554980E+03  0.18697517101E+04  0.12699999809E+01 0. -1.
</event>
<event>
 5   0  0.9418945E-08  0.3690021E+04  0.7818609E-02  0.8070177E-01
       -1   -1    0    0    0  501  0.00000000000E+00  0.00000000000E+00  0.11867125811E+04  0.11867125811E+04  0.50400001928E-02 0. -1.
        1   -1    0    0  501    0  0.00000000000E+00  0.00000000000E+00 -0.28684816263E+04  0.28684816263E+04  0.50400001928E-02 0.  1.
    10030    2    1    2    0    0  0.00000000000E+00  0.00000000000E+00 -0.16817690452E+04  0.40551942074E+04  0.36900207233E+04 0.  0.
        5    1    3    3  502    0 -0.28110809221E+03  0.90373145329E+02 -0.28423398664E+04  0.28576401227E+04  0.46999998093E+01 0.  1.
       -5    1    3    3    0  502  0.28110809221E+03 -0.90373145329E+02  0.11605708212E+04  0.11975540847E+04  0.46999998093E+01 0. -1.
</event>
<event>
 5   0  0.9341000E-08  0.3702353E+04  0.7818609E-02  0.8067441E-01
        1   -1    0    0  501    0  0.00000000000E+00  0.00000000000E+00  0.26261784975E+04  0.26261784975E+04  0.50400001928E-02 0. -1.
       -1   -1    0    0    0  501  0.00000000000E+00  0.00000000000E+00 -0.13048824423E+04  0.13048824423E+04  0.50400001928E-02 0.  1.
    10030    2    1    2    0    0  0.00000000000E+00  0.00000000000E+00  0.13212960552E+04  0.39310609398E+04  0.37023528799E+04 0.  0.
        4    1    3    3  502    0  0.29312934059E+03  0.60942602983E+03  0.24903302017E+04  0.25805175881E+04  0.12699999809E+01 0. -1.
       -4    1    3    3    0  502 -0.29312934059E+03 -0.60942602983E+03 -0.11690341465E+04  0.13505433517E+04  0.12699999809E+01 0.  1.
</event>
<event>
 5   0  0.9341000E-08  0.3717556E+04  0.7818609E-02  0.8064082E-01
       -3   -1    0    0    0  501  0.00000000000E+00  0.00000000000E+00  0.17847962977E+04  0.17847963005E+04  0.10100000352E+00 0. -1.
        3   -1    0    0  501    0  0.00000000000E+00  0.00000000000E+00 -0.19358261871E+04  0.19358261897E+04  0.10100000352E+00 0.  1.
    10030    2    1    2    0    0  0.00000000000E+00  0.00000000000E+00 -0.15102988938E+03  0.37206224902E+04  0.37175558755E+04 0.  0.
        5    1    3    3  502    0  0.14295955786E+03  0.56970828754E+03  0.16894670410E+04  0.17886659667E+04  0.46999998093E+01 0. -1.
       -5    1    3    3    0  502 -0.14295955786E+03 -0.56970828754E+03 -0.18404969303E+04  0.19319565235E+04  0.46999998093E+01 0.  1.
</event>
<event>
 5   0  0.3032442E-07  0.3870219E+04  0.7818609E-02  0.8031252E-01
        2   -1    0    0  501    0  0.00000000000E+00  0.00000000000E+00  0.21515215366E+04  0.21515215366E+04  0.25500000920E-02 0. -1.
       -2   -1    0    0    0  501  0.00000000000E+00  0.00000000000E+00 -0.17404651157E+04  0.17404651157E+04  0.25500000920E-02 0.  1.
    10030    2    1    2    0    0  0.00000000000E+00  0.00000000000E+00  0.41105642096E+03  0.38919866523E+04  0.38702186916E+04 0.  0.
        3    1    3    3  502    0  0.92993458508E+03  0.85623626805E+03  0.16789411418E+04  0.21016094421E+04  0.10100000352E+00 0. -1.
       -3    1    3    3    0  502 -0.92993458508E+03 -0.85623626805E+03 -0.12678847209E+04  0.17903772102E+04  0.10100000352E+00 0.  1.
</event>
<event>
 5   0  0.3008879E-07  0.3682001E+04  0.7818609E-02  0.8071962E-01
       -2   -1    0    0    0  501  0.00000000000E+00  0.00000000000E+00  0.30824489348E+04  0.30824489348E+04  0.25500000920E-02 0.  1.
        2   -1    0    0  501    0  0.00000000000E+00  0.00000000000E+00 -0.10995421097E+04  0.10995421097E+04  0.25500000920E-02 0. -1.
    10030    2    1    2    0    0  0.00000000000E+00  0.00000000000E+00  0.19829068251E+04  0.41819910446E+04  0.36820007632E+04 0.  0.
        2    1    3    3  502    0  0.33045164457E+03 -0.68350710297E+03 -0.91346569133E+03  0.11877709453E+04  0.25500000920E-02 0. -1.
       -2    1    3    3    0  502 -0.33045164457E+03  0.68350710297E+03  0.28963725164E+04  0.29942200993E+04  0.25500000920E-02 0.  1.
</event>
<event>
 5   0  0.2913025E-07  0.3699008E+04  0.7818609E-02  0.8068182E-01
        2   -1    0    0  501    0  0.00000000000E+00  0.00000000000E+00  0.20593093461E+04  0.20593093461E+04  0.25500000920E-02 0. -1.
       -2   -1    0    0    0  501  0.00000000000E+00  0.00000000000E+00 -0.16610740427E+04  0.16610740427E+04  0.25500000920E-02 0.  1.
    10030    2    1    2    0    0  0.00000000000E+00  0.00000000000E+00  0.39823530339E+03  0.37203833889E+04  0.36990081378E+04 0.  0.
        5    1    3    3  502    0 -0.10084465262E+04  0.39295401074E+03 -0.13093042003E+04  0.16987280034E+04  0.46999998093E+01 0.  1.
       -5    1    3    3    0  502  0.10084465262E+04 -0.39295401074E+03  0.17075395037E+04  0.20216553854E+04  0.46999998093E+01 0. -1.
</event>
<event>
 5   0  0.9341000E-08  0.3676494E+04  0.7818609E-02  0.8073191E-01
       -1   -1    0    0    0  501  0.00000000000E+00  0.00000000000E+00  0.23138066407E+04  0.23138066407E+04  0.50400001928E-02 0.  1.
        1   -1    0    0  501    0  0.00000000000E+00  0.00000000000E+00 -0.14604294728E+04  0.14604294728E+04  0.50400001928E-02 0. -1.
    10030    2    1    2    0    0  0.00000000000E+00  0.00000000000E+00  0.85337716788E+03  0.37742361134E+04  0.36764936624E+04 0.  0.
        4    1    3    3  502    0  0.11894630301E+04 -0.13925735340E+04  0.58922163102E+03  0.19238677425E+04  0.12699999809E+01 0. -1.
       -4    1    3    3    0  502 -0.11894630301E+04  0.13925735340E+04  0.26415553686E+03  0.18503683709E+04  0.12699999809E+01 0.  1.
</event>
<event>
 5   0  0.9341000E-08  0.3712347E+04  0.7818609E-02  0.8065231E-01
       -1   -1    0    0    0  501  0.00000000000E+00  0.00000000000E+00  0.10878493611E+04  0.10878493611E+04  0.50400001928E-02 0. -1.
        1   -1    0    0  501    0  0.00000000000E+00  0.00000000000E+00 -0.31671474937E+04  0.31671474937E+04  0.50400001928E-02 0.  1.
    10030    2    1    2    0    0  0.00000000000E+00  0.00000000000E+00 -0.20792981326E+04  0.42549968547E+04  0.37123466311E+04 0.  0.
        3    1    3    3  502    0 -0.71925607408E+02  0.11003830597E+04 -0.27510081185E+04  0.29637918027E+04  0.10100000352E+00 0.  1.
       -3    1    3    3    0  502  0.71925607408E+02 -0.11003830597E+04  0.67170998593E+03  0.12912050521E+04  0.10100000352E+00 0. -1.
</event>
<event>
 5   0  0.3008879E-07  0.3705852E+04  0.7818609E-02  0.8066666E-01
       -2   -1    0    0    0  501  0.00000000000E+00  0.00000000000E+00  0.19617674601E+04  0.19617674601E+04  0.25500000920E-02 0.  1.
        2   -1    0    0  501    0  0.00000000000E+00  0.00000000000E+00 -0.17501234796E+04  0.17501234796E+04  0.25500000920E-02 0. -1.
    10030    2    1    2    0    0  0.00000000000E+00  0.00000000000E+00  0.21164398055E+03  0.37118909397E+04  0.37058522871E+04 0.  0.
        2    1    3    3  502    0  0.28634401569E+03 -0.15572390567E+04  0.10698605436E+04  0.19109128598E+04  0.25500000920E-02 0.  1.
       -2    1    3    3    0  502 -0.28634401569E+03  0.15572390567E+04 -0.85821656300E+03  0.18009780799E+04  0.25500000920E-02 0. -1.
</event>
<event>
 5   0  0.9341000E-08  0.3677856E+04  0.7818609E-02  0.8072887E-01
       -1   -1    0    0    0  501  0.00000000000E+00  0.00000000000E+00  0.32850409589E+04  0.32850409589E+04  0.50400001928E-02 0. -1.
        1   -1    0    0  501    0  0.00000000000E+00  0.00000000000E+00 -0.10294104316E+04  0.10294104316E+04  0.50400001928E-02 0.  1.
    10030    2    1    2    0    0  0.00000000000E+00  0.00000000000E+00  0.22556305273E+04  0.43144513905E+04  0.36778555879E+04 0.  0.
        4    1    3    3  502    0 -0.99557128055E+03  0.12934867594E+04  0.21214039646E+04  0.26766820067E+04  0.12699999809E+01 0. -1.
       -4    1    3    3    0  502  0.99557128055E+03 -0.12934867594E+04  0.13422656278E+03  0.16377693838E+04  0.12699999809E+01 0.  1.
</event>
<event>
 5   0  0.2897133E-07  0.3675109E+04  0.7818609E-02  0.8073500E-01
        2   -1    0    0  501    0  0.00000000000E+00  0.00000000000E+00  0.25458657521E+04  0.25458657521E+04  0.25500000920E-02 0.  1.
       -2   -1    0    0    0  501  0.00000000000E+00  0.00000000000E+00 -0.13263100327E+04  0.13263100327E+04  0.25500000920E-02 0. -1.
    10030    2    1    2    0    0  0.00000000000E+00  0.00000000000E+00  0.12195557194E+04  0.38721757847E+04  0.36751094072E+04 0.  0.
        4    1    3    3  502    0  0.67589990244E+03  0.17071106282E+04  0.68818815025E+03  0.19607834960E+04  0.12699999809E+01 0. -1.
       -4    1    3    3    0  502 -0.67589990244E+03 -0.17071106282E+04  0.53136756916E+03  0.19113922888E+04  0.12699999809E+01 0.  1.
</event>
<event>
 5   0  0.9418945E-08  0.3680190E+04  0.7818609E-02  0.8072366E-01
        1   -1    0    0  501    0  0.00000000000E+00  0.00000000000E+00  0.26531130981E+04  0.26531130981E+04  0.50400001928E-02 0.  1.
       -1   -1    0    0    0  501  0.00000000000E+00  0.00000000000E+00 -0.12762178285E+04  0.12762178285E+04  0.50400001928E-02 0. -1.
    10030    2    1    2    0    0  0.00000000000E+00  0.00000000000E+00  0.13768952696E+04  0.39293309266E+04  0.36801903412E+04 0.  0.
        5    1    3    3  502    0 -0.10984481858E+04  0.12076259508E+04  0.15950351230E+04  0.22823470349E+04  0.46999998093E+01 0.  1.
       -5    1    3    3    0  502  0.10984481858E+04 -0.12076259508E+04 -0.21813985343E+03  0.16469838917E+04  0.46999998093E+01 0. -1.
</event>
<event>
 5   0  0.2913025E-07  0.3694612E+04  0.7818609E-02  0.8069157E-01
       -2   -1    0    0    0  501  0.00000000000E+00  0.00000000000E+00  0.16294342590E+04  0.16294342590E+04  0.25500000920E-02 0. -1.
        2   -1    0    0  501    0  0.00000000000E+00  0.00000000000E+00 -0.20943094213E+04  0.20943094213E+04  0.25500000920E-02 0.  1.
    10030    2    1    2    0    0  0.00000000000E+00  0.00000000000E+00 -0.46487516236E+03  0.37237436803E+04  0.36946120338E+04 0.  0.
        5    1    3    3  502    0 -0.15048494700E+04 -0.95403081396E+03  0.25902461245E+03  0.18005173038E+04  0.46999998093E+01 0. -1.
       -5    1    3    3    0  502  0.15048494700E+04  0.95403081396E+03 -0.72389977480E+03  0.19232263765E+04  0.46999998093E+01 0.  1.
</event>
<event>
 5   0  0.2996969E-07  0.3692264E+04  0.7818609E-02  0.8069678E-01
        2   -1    0    0  501    0  0.00000000000E+00  0.00000000000E+00  0.19106007299E+04  0.19106007299E+04  0.25500000920E-02 0.  1.
       -2   -1    0    0    0  501  0.00000000000E+00  0.00000000000E+00 -0.17838388181E+04  0.17838388181E+04  0.25500000920E-02 0. -1.
    10030    2    1    2    0    0  0.00000000000E+00  0.00000000000E+00  0.12676191186E+03  0.36944395480E+04  0.36922642093E+04 0.  0.
        1    1    3    3  502    0  0.10941136952E+03  0.11133514301E+04  0.15328106098E+04  0.18976381689E+04  0.50400001928E-02 0.  1.
       -1    1    3    3    0  502 -0.10941136952E+03 -0.11133514301E+04 -0.14060486979E+04  0.17968013790E+04  0.50400001928E-02 0. -1.
</event>
<event>
 5   0  0.9341000E-08  0.3286997E+04  0.7818609E-02  0.8166212E-01
        1   -1    0    0  501    0  0.00000000000E+00  0.00000000000E+00  0.14787559211E+04  0.14787559211E+04  0.50400001928E-02 0. -1.
       -1   -1    0    0    0  501  0.00000000000E+00  0.00000000000E+00 -0.18265942991E+04  0.18265942991E+04  0.50400001928E-02 0.  1.
    10030    2    1    2    0    0  0.00000000000E+00  0.00000000000E+00 -0.34783837800E+03  0.33053502201E+04  0.32869968878E+04 0.  0.
        3    1    3    3  502    0  0.83813220830E+03 -0.13857122735E+04 -0.45552393800E+03  0.16823097728E+04  0.10100000352E+00 0. -1.
       -3    1    3    3    0  502 -0.83813220830E+03  0.13857122735E+04  0.10768556000E+03  0.16230404473E+04  0.10100000352E+00 0.  1.
</event>
<event>
 5   0  0.9341000E-08  0.3664905E+04  0.7818609E-02  0.8075784E-01
        1   -1    0    0  501    0  0.00000000000E+00  0.00000000000E+00  0.24761655718E+04  0.24761655718E+04  0.50400001928E-02 0.  1.
       -1   -1    0    0    0  501  0.00000000000E+00  0.00000000000E+00 -0.13560816569E+04  0.13560816569E+04  0.50400001928E-02 0. -1.
    10030    2    1    2    0    0  0.00000000000E+00  0.00000000000E+00  0.11200839149E+04  0.38322472287E+04  0.36649052983E+04 0.  0.
        4    1    3    3  502    0 -0.90445859752E+03  0.28941568021E+03 -0.10787035459E+04  0.14371533472E+04  0.12699999809E+01 0. -1.
       -4    1    3    3    0  502  0.90445859752E+03 -0.28941568021E+03  0.21987874608E+04  0.23950938815E+04  0.12699999809E+01 0.  1.
</event>
<event>
 5   0  0.9341000E-08  0.3693784E+04  0.7818609E-02  0.8069341E-01
        1   -1    0    0  501    0  0.00000000000E+00  0.00000000000E+00  0.17553761993E+04  0.17553761993E+04  0.50400001928E-02 0.  1.
       -1   -1    0    0    0  501  0.00000000000E+00  0.00000000000E+00 -0.19431789525E+04  0.19431789525E+04  0.50400001928E-02 0. -1.
    10030    2    1    2    0    0  0.00000000000E+00  0.00000000000E+00 -0.18780275324E+03  0.36985551518E+04  0.36937840133E+04 0.  0.
        4    1    3    3  502    0 -0.26990173756E+03  0.78813124035E+03 -0.17443662051E+04  0.19330837722E+04  0.12699999809E+01 0. -1.
       -4    1    3    3    0  502  0.26990173756E+03 -0.78813124035E+03  0.15565634518E+04  0.17654713796E+04  0.12699999809E+01 0.  1.
</event>
<event>
 5   0  0.9341000E-08  0.3714099E+04  0.7818609E-02  0.8064845E-01
       -1   -1    0    0    0  501  0.00000000000E+00  0.00000000000E+00  0.29949282377E+04  0.29949282377E+04  0.50400001928E-02 0. -1.
        1   -1    0    0  501    0  0.00000000000E+00  0.00000000000E+00 -0.11514906741E+04  0.11514906741E+04  0.50400001928E-02 0.  1.
    10030    2    1    2    0    0  0.00000000000E+00  0.00000000000E+00  0.18434375637E+04  0.41464189118E+04  0.37140985099E+04 0.  0.
        4    1    3    3  502    0  0.91566562143E+03  0.30658976561E+02  0.27250576344E+04  0.28749476911E+04  0.12699999809E+01 0. -1.
       -4    1    3    3    0  502 -0.91566562143E+03 -0.30658976561E+02 -0.88162007069E+03  0.12714712207E+04  0.12699999809E+01 0.  1.
</event>
<event>
 5   0  0.9341000E-08  0.3700691E+04  0.7818609E-02  0.8067809E-01
       -1   -1    0    0    0  501  0.00000000000E+00  0.00000000000E+00  0.16800222830E+04  0.16800222830E+04  0.50400001928E-02 0.  1.
        1   -1    0    0  501    0  0.00000000000E+00  0.00000000000E+00 -0.20379365559E+04  0.20379365559E+04  0.50400001928E-02 0. -1.
    10030    2    1    2    0    0  0.00000000000E+00  0.00000000000E+00 -0.35791427297E+03  0.37179588389E+04  0.37006911924E+04 0.  0.
        3    1    3    3  502    0 -0.17470474924E+04 -0.17738359214E+02 -0.79113539820E+03  0.19179115774E+04  0.10100000352E+00 0.  1.
       -3    1    3    3    0  502  0.17470474924E+04  0.17738359214E+02  0.43322112523E+03  0.18000472615E+04  0.10100000352E+00 0. -1.
</event>
<event>
 5   0  0.2913025E-07  0.3698669E+04  0.7818609E-02  0.8068257E-01
       -2   -1    0    0    0  501  0.00000000000E+00  0.00000000000E+00  0.20001234345E+04  0.20001234345E+04  0.25500000920E-02 0.  1.
        2   -1    0    0  501    0  0.00000000000E+00  0.00000000000E+00 -0.17099135658E+04  0.17099135658E+04  0.25500000920E-02 0. -1.
    10030    2    1    2    0    0  0.00000000000E+00  0.00000000000E+00  0.29020986872E+03  0.37100370004E+04  0.36986690547E+04 0.  0.
        5    1    3    3  502    0 -0.49592733063E+03  0.38569733360E+03  0.18897926006E+04  0.19914930363E+04  0.46999998093E+01 0.  1.
       -5    1    3    3    0  502  0.49592733063E+03 -0.38569733360E+03 -0.15995827318E+04  0.17185439641E+04  0.46999998093E+01 0. -1.
</event>
<event>
 5   0  0.3008879E-07  0.3586967E+04  0.7818609E-02  0.8093484E-01
        2   -1    0    0  501    0  0.00000000000E+00  0.00000000000E+00  0.23981579785E+04  0.23981579785E+04  0.25500000920E-02 0. -1.
       -2   -1    0    0    0  501  0.00000000000E+00  0.00000000000E+00 -0.13412726694E+04  0.13412726694E+04  0.25500000920E-02 0.  1.
    10030    2    1    2    0    0  0.00000000000E+00  0.00000000000E+00  0.10568853091E+04  0.37394306478E+04  0.35869673839E+04 0.  0.
        2    1    3    3  502    0 -0.26620565260E+03  0.16743134116E+04 -0.81572231200E+02  0.16973051814E+04  0.25500000920E-02 0.  1.
       -2    1    3    3    0  502  0.26620565260E+03 -0.16743134116E+04  0.11384575403E+04  0.20421254665E+04  0.25500000920E-02 0. -1.
</event>
<event>
 5   0  0.9646615E-08  0.3708409E+04  0.7818609E-02  0.8066101E-01
        1   -1    0    0  501    0  0.00000000000E+00  0.00000000000E+00  0.18030657484E+04  0.18030657484E+04  0.50400001928E-02 0.  1.
       -1   -1    0    0    0  501  0.00000000000E+00  0.00000000000E+00 -0.19067931785E+04  0.19067931786E+04  0.50400001928E-02 0. -1.
    10030    2    1    2    0    0  0.00000000000E+00  0.00000000000E+00 -0.10372743017E+03  0.37098589269E+04  0.37084085371E+04 0.  0.
        2    1    3    3  502    0 -0.12944432614E+03 -0.44143288664E+03  0.17450722669E+04  0.18046872426E+04  0.25500000920E-02 0.  1.
       -2    1    3    3    0  502  0.12944432614E+03  0.44143288664E+03 -0.18487996970E+04  0.19051716843E+04  0.25500000920E-02 0. -1.
</event>
<event>
 5   0  0.9341000E-08  0.3740346E+04  0.7818609E-02  0.8059079E-01
        1   -1    0    0  501    0  0.00000000000E+00  0.00000000000E+00  0.18977355074E+04  0.18977355074E+04  0.50400001928E-02 0.  1.
       -1   -1    0    0    0  501  0.00000000000E+00  0.00000000000E+00 -0.18430105453E+04  0.18430105453E+04  0.50400001928E-02 0. -1.
    10030    2    1    2    0    0  0.00000000000E+00  0.00000000000E+00  0.54724962153E+02  0.37407460527E+04  0.37403457339E+04 0.  0.
        1    1    3    3  502    0 -0.14851074289E+04  0.90075054455E+03 -0.66600165438E+03  0.18602295080E+04  0.50400001928E-02 0. -1.
       -1    1    3    3    0  502  0.14851074289E+04 -0.90075054455E+03  0.72072661653E+03  0.18805165446E+04  0.50400001928E-02 0.  1.
</event>
<event>
 5   0  0.9341000E-08  0.3729300E+04  0.7818609E-02  0.8061499E-01
        1   -1    0    0  501    0  0.00000000000E+00  0.00000000000E+00  0.25402532345E+04  0.25402532345E+04  0.50400001928E-02 0.  1.
       -1   -1    0    0    0  501  0.00000000000E+00  0.00000000000E+00 -0.13687298239E+04  0.13687298239E+04  0.50400001928E-02 0. -1.
    10030    2    1    2    0    0  0.00000000000E+00  0.00000000000E+00  0.11715234106E+04  0.39089830583E+04  0.37293003967E+04 0.  0.
        3    1    3    3  502    0 -0.22540630499E+03 -0.18483021787E+04  0.48151425840E+03  0.19232485376E+04  0.10100000352E+00 0. -1.
       -3    1    3    3    0  502  0.22540630499E+03  0.18483021787E+04  0.69000915220E+03  0.19857345207E+04  0.10100000352E+00 0.  1.
</event>
<event>
 5   0  0.9341000E-08  0.3608876E+04  0.7818609E-02  0.8088462E-01
       -1   -1    0    0    0  501  0.00000000000E+00  0.00000000000E+00  0.31357802108E+04  0.31357802108E+04  0.50400001928E-02 0.  1.
        1   -1    0    0  501    0  0.00000000000E+00  0.00000000000E+00 -0.10383368741E+04  0.10383368742E+04  0.50400001928E-02 0. -1.
    10030    2    1    2    0    0  0.00000000000E+00  0.00000000000E+00  0.20974433367E+04  0.41741170850E+04  0.36088758483E+04 0.  0.
        1    1    3    3  502    0 -0.41547519349E+03 -0.16603818412E+04  0.17096282581E+04  0.24191561082E+04  0.50400001928E-02 0.  1.
       -1    1    3    3    0  502  0.41547519349E+03  0.16603818412E+04  0.38781507854E+03  0.17549609768E+04  0.50400001928E-02 0. -1.
</event>
<event>
 5   0  0.9341000E-08  0.3703225E+04  0.7818609E-02  0.8067247E-01
        1   -1    0    0  501    0  0.00000000000E+00  0.00000000000E+00  0.17550586335E+04  0.17550586335E+04  0.50400001928E-02 0. -1.
       -1   -1    0    0    0  501  0.00000000000E+00  0.00000000000E+00 -0.19534787233E+04  0.19534787233E+04  0.50400001928E-02 0.  1.
    10030    2    1    2    0    0  0.00000000000E+00  0.00000000000E+00 -0.19842008975E+03  0.37085373568E+04  0.37032254583E+04 0.  0.
        4    1    3    3  502    0  0.32710942007E+03 -0.13089219118E+04 -0.13691737538E+04  0.19222163054E+04  0.12699999809E+01 0.  1.
       -4    1    3    3    0  502 -0.32710942007E+03  0.13089219118E+04  0.11707536641E+04  0.17863210514E+04  0.12699999809E+01 0. -1.
</event>
<event>
 5   0  0.9341000E-08  0.3711040E+04  0.7818609E-02  0.8065520E-01
       -1   -1    0    0    0  501  0.00000000000E+00  0.00000000000E+00  0.13245434089E+04  0.13245434089E+04  0.50400001928E-02 0. -1.
        1   -1    0    0  501    0  0.00000000000E+00  0.00000000000E+00 -0.25993525064E+04  0.25993525064E+04  0.50400001928E-02 0.  1.
    10030    2    1    2    0    0  0.00000000000E+00  0.00000000000E+00 -0.12748090975E+04  0.39238959153E+04  0.37110404092E+04 0.  0.
        4    1    3    3  502    0 -0.13054068648E+04 -0.12212219925E+04 -0.11139356341E+03  0.17910556598E+04  0.12699999809E+01 0. -1.
       -4    1    3    3    0  502  0.13054068648E+04  0.12212219925E+04 -0.11634155341E+04  0.21328402555E+04  0.12699999809E+01 0.  1.
</event>
<event>
 5   0  0.9341000E-08  0.3717021E+04  0.7818609E-02  0.8064200E-01
        1   -1    0    0  501    0  0.00000000000E+00  0.00000000000E+00  0.16926945931E+04  0.16926945931E+04  0.50400001928E-02 0.  1.
       -1   -1    0    0    0  501  0.00000000000E+00  0.00000000000E+00 -0.20405694696E+04  0.20405694696E+04  0.50400001928E-02 0. -1.
    10030    2    1    2    0    0  0.00000000000E+00  0.00000000000E+00 -0.34787487651E+03  0.37332640628E+04  0.37170208007E+04 0.  0.
        3    1    3    3  502    0  0.92751545909E+02  0.17967372318E+04  0.29413923518E+03  0.18230154770E+04  0.10100000352E+00 0.  1.
       -3    1    3    3    0  502 -0.92751545909E+02 -0.17967372318E+04 -0.64201411170E+03  0.19102485858E+04  0.10100000352E+00 0. -1.
</event>
<event>
 5   0  0.3008879E-07  0.3478420E+04  0.7818609E-02  0.8118923E-01
        2   -1    0    0  501    0  0.00000000000E+00  0.00000000000E+00  0.26957016057E+04  0.26957016057E+04  0.25500000920E-02 0. -1.
       -2   -1    0    0    0  501  0.00000000000E+00  0.00000000000E+00 -0.11221018442E+04  0.11221018442E+04  0.25500000920E-02 0.  1.
    10030    2    1    2    0    0  0.00000000000E+00  0.00000000000E+00  0.15735997615E+04  0.38178034499E+04  0.34784201835E+04 0.  0.
        2    1    3    3  502    0 -0.51057678295E+03 -0.13993273241E+04  0.17721974186E+04  0.23150570839E+04  0.25500000920E-02 0. -1.
       -2    1    3    3    0  502  0.51057678295E+03  0.13993273241E+04 -0.19859765709E+03  0.15027463660E+04  0.25500000920E-02 0.  1.
</event>
<event>
 5   0  0.9341000E-08  0.3713994E+04  0.7818609E-02  0.8064868E-01
        3   -1    0    0  501    0  0.00000000000E+00  0.00000000000E+00  0.24726219050E+04  0.24726219070E+04  0.10100000352E+00 0.  1.
       -3   -1    0    0    0  501  0.00000000000E+00  0.00000000000E+00 -0.13946485909E+04  0.13946485946E+04  0.10100000352E+00 0. -1.
    10030    2    1    2    0    0  0.00000000000E+00  0.00000000000E+00  0.10779733141E+04  0.38672705016E+04  0.37139944354E+04 0.  0.
        3    1    3    3  502    0 -0.20869716680E+02  0.81702021222E+03 -0.11973073818E+04  0.14496560105E+04  0.10100000352E+00 0. -1.
       -3    1    3    3    0  502  0.20869716680E+02 -0.81702021222E+03  0.22752806958E+04  0.24176144910E+04  0.10100000352E+00 0.  1.
</event>
<event>
 5   0  0.2996969E-07  0.3708971E+04  0.7818609E-02  0.8065977E-01
        2   -1    0    0  501    0  0.00000000000E+00  0.00000000000E+00  0.17996844960E+04  0.17996844960E+04  0.25500000920E-02 0. -1.
       -2   -1    0    0    0  501  0.00000000000E+00  0.00000000000E+00 -0.19109550027E+04  0.19109550027E+04  0.25500000920E-02 0.  1.
    10030    2    1    2    0    0  0.00000000000E+00  0.00000000000E+00 -0.11127050674E+03  0.37106394987E+04  0.37089707958E+04 0.  0.
        1    1    3    3  502    0  0.15094294544E+04  0.92121447939E+03  0.50327761585E+03  0.18385596954E+04  0.50400001928E-02 0. -1.
       -1    1    3    3    0  502 -0.15094294544E+04 -0.92121447939E+03 -0.61454812259E+03  0.18720798033E+04  0.50400001928E-02 0.  1.
</event>
<event>
 5   0  0.9341000E-08  0.3596034E+04  0.7818609E-02  0.8091401E-01
       -1   -1    0    0    0  501  0.00000000000E+00  0.00000000000E+00  0.15802475088E+04  0.15802475088E+04  0.50400001928E-02 0. -1.
        1   -1    0    0  501    0  0.00000000000E+00  0.00000000000E+00 -0.20457966239E+04  0.20457966239E+04  0.50400001928E-02 0.  1.
    10030    2    1    2    0    0  0.00000000000E+00  0.00000000000E+00 -0.46554911514E+03  0.36260441327E+04  0.35960339366E+04 0.  0.
        3    1    3    3  502    0 -0.21075835741E+03 -0.24046238709E+03 -0.20168973553E+04  0.20420862364E+04  0.10100000352E+00 0.  1.
       -3    1    3    3    0  502  0.21075835741E+03  0.24046238709E+03  0.15513482401E+04  0.15839578963E+04  0.10100000352E+00 0. -1.
</event>
<event>
 5   0  0.2996969E-07  0.3685341E+04  0.7818609E-02  0.8071218E-01
       -2   -1    0    0    0  501  0.00000000000E+00  0.00000000000E+00  0.17897899160E+04  0.17897899160E+04  0.25500000920E-02 0.  1.
        2   -1    0    0  501    0  0.00000000000E+00  0.00000000000E+00 -0.18971132504E+04  0.18971132504E+04  0.25500000920E-02 0. -1.
    10030    2    1    2    0    0  0.00000000000E+00  0.00000000000E+00 -0.10732333440E+03  0.36869031665E+04  0.36853407795E+04 0.  0.
        1    1    3    3  502    0 -0.22706906961E+03  0.10193082876E+04 -0.15724898757E+04  0.18876636768E+04  0.50400001928E-02 0. -1.
       -1    1    3    3    0  502  0.22706906961E+03 -0.10193082876E+04  0.14651665413E+04  0.17992394897E+04  0.50400001928E-02 0.  1.
</event>
<event>
 5   0  0.9341000E-08  0.3715306E+04  0.7818609E-02  0.8064578E-01
        1   -1    0    0  501    0  0.00000000000E+00  0.00000000000E+00  0.10822089453E+04  0.10822089453E+04  0.50400001928E-02 0. -1.
       -1   -1    0    0    0  501  0.00000000000E+00  0.00000000000E+00 -0.31887322967E+04  0.31887322967E+04  0.50400001928E-02 0.  1.
    10030    2    1    2    0    0  0.00000000000E+00  0.00000000000E+00 -0.21065233514E+04  0.42709412420E+04  0.37153059716E+04 0.  0.
        1    1    3    3  502    0 -0.14823497452E+04  0.14555259954E+03  0.22286039558E+03  0.15060587911E+04  0.50400001928E-02 0. -1.
       -1    1    3    3    0  502  0.14823497452E+04 -0.14555259954E+03 -0.23293837470E+04  0.27648824509E+04  0.50400001928E-02 0.  1.
</event>
<event>
 5   0  0.2913025E-07  0.3698745E+04  0.7818609E-02  0.8068240E-01
       -2   -1    0    0    0  501  0.00000000000E+00  0.00000000000E+00  0.18422868056E+04  0.18422868056E+04  0.25500000920E-02 0.  1.
        2   -1    0    0  501    0  0.00000000000E+00  0.00000000000E+00 -0.18564855762E+04  0.18564855762E+04  0.25500000920E-02 0. -1.
    10030    2    1    2    0    0  0.00000000000E+00  0.00000000000E+00 -0.14198770602E+02  0.36987723818E+04  0.36987451288E+04 0.  0.
        5    1    3    3  502    0 -0.11734867913E+04 -0.62084848742E+03 -0.12945997254E+04  0.18543286205E+04  0.46999998093E+01 0. -1.
       -5    1    3    3    0  502  0.11734867913E+04  0.62084848742E+03  0.12804009548E+04  0.18444437614E+04  0.46999998093E+01 0.  1.
</event>
<event>
 5   0  0.9646615E-08  0.3727697E+04  0.7818609E-02  0.8061851E-01
       -1   -1    0    0    0  501  0.00000000000E+00  0.00000000000E+00  0.25995565454E+04  0.25995565454E+04  0.50400001928E-02 0. -1.
        1   -1    0    0  501    0  0.00000000000E+00  0.00000000000E+00 -0.13363555909E+04  0.13363555909E+04  0.50400001928E-02 0.  1.
    10030    2    1    2    0    0  0.00000000000E+00  0.00000000000E+00  0.12632009545E+04  0.39359121362E+04  0.37276973714E+04 0.  0.
        2    1    3    3  502    0 -0.44827843721E+03 -0.11397060830E+04  0.21150871422E+04  0.24440697887E+04  0.25500000920E-02 0. -1.
       -2    1    3    3    0  502  0.44827843721E+03  0.11397060830E+04 -0.85188618773E+03  0.14918423475E+04  0.25500000920E-02 0.  1.
</event>
<event>
 5   0  0.3032442E-07  0.3715357E+04  0.7818609E-02  0.8064567E-01
       -2   -1    0    0    0  501  0.00000000000E+00  0.00000000000E+00  0.18001018991E+04  0.18001018991E+04  0.25500000920E-02 0.  1.
        2   -1    0    0  501    0  0.00000000000E+00  0.00000000000E+00 -0.19170971835E+04  0.19170971835E+04  0.25500000920E-02 0. -1.
    10030    2    1    2    0    0  0.00000000000E+00  0.00000000000E+00 -0.11699528446E+03  0.37171990826E+04  0.37153574691E+04 0.  0.
        3    1    3    3  502    0 -0.17996010169E+04  0.41161590441E+02 -0.51775913178E+03  0.18730543573E+04  0.10100000352E+00 0. -1.
       -3    1    3    3    0  502  0.17996010169E+04 -0.41161590441E+02  0.40076384732E+03  0.18441447254E+04  0.10100000352E+00 0.  1.
</event>
<event>
 5   0  0.3008879E-07  0.3704589E+04  0.7818609E-02  0.8066946E-01
       -2   -1    0    0    0  501  0.00000000000E+00  0.00000000000E+00  0.20963931787E+04  0.20963931787E+04  0.25500000920E-02 0.  1.
        2   -1    0    0  501    0  0.00000000000E+00  0.00000000000E+00 -0.16366179627E+04  0.16366179627E+04  0.25500000920E-02 0. -1.
    10030    2    1    2    0    0  0.00000000000E+00  0.00000000000E+00  0.45977521597E+03  0.37330111414E+04  0.37045889020E+04 0.  0.
        2    1    3    3  502    0 -0.80210465207E+03 -0.16691257335E+04  0.27072191057E+03  0.18715349155E+04  0.25500000920E-02 0.  1.
       -2    1    3    3    0  502  0.80210465207E+03  0.16691257335E+04  0.18905330540E+03  0.18614762259E+04  0.25500000920E-02 0. -1.
</event>
<event>
 5   0  0.9646615E-08  0.3591526E+04  0.7818609E-02  0.8092436E-01
       -1   -1    0    0    0  501  0.00000000000E+00  0.00000000000E+00  0.17968509605E+04  0.17968509605E+04  0.50400001928E-02 0.  1.
        1   -1    0    0  501    0  0.00000000000E+00  0.00000000000E+00 -0.17946753013E+04  0.17946753013E+04  0.50400001928E-02 0. -1.
    10030    2    1    2    0    0  0.00000000000E+00  0.00000000000E+00  0.21756591740E+01  0.35915262618E+04  0.35915256028E+04 0.  0.
        2    1    3    3  502    0  0.72688447765E+03  0.12070189333E+04  0.11144201002E+04  0.17964375605E+04  0.25500000920E-02 0.  1.
       -2    1    3    3    0  502 -0.72688447765E+03 -0.12070189333E+04 -0.11122444410E+04  0.17950887013E+04  0.25500000920E-02 0. -1.
</event>
<event>
 5   0  0.2913025E-07  0.3700447E+04  0.7818609E-02  0.8067863E-01
       -2   -1    0    0    0  501  0.00000000000E+00  0.00000000000E+00  0.14511885972E+04  0.14511885972E+04  0.25500000920E-02 0. -1.
        2   -1    0    0  501    0  0.00000000000E+00  0.00000000000E+00 -0.23589819570E+04  0.23589819570E+04  0.25500000920E-02 0.  1.
    10030    2    1    2    0    0  0.00000000000E+00  0.00000000000E+00 -0.90779335972E+03  0.38101705542E+04  0.37004473876E+04 0.  0.
        5    1    3    3  502    0 -0.14204812711E+04 -0.99065496163E+03 -0.11244687808E+04  0.20648526397E+04  0.46999998093E+01 0. -1.
       -5    1    3    3    0  502  0.14204812711E+04  0.99065496163E+03  0.21667542112E+03  0.17453179145E+04  0.46999998093E+01 0.  1.
</event>
<event>
 5   0  0.2913025E-07  0.3669665E+04  0.7818609E-02  0.8074718E-01
        2   -1    0    0  501    0  0.00000000000E+00  0.00000000000E+00  0.10334705640E+04  0.10334705640E+04  0.25500000920E-02 0.  1.
       -2   -1    0    0    0  501  0.00000000000E+00  0.00000000000E+00 -0.32575777360E+04  0.32575777360E+04  0.25500000920E-02 0. -1.
    10030    2    1    2    0    0  0.00000000000E+00  0.00000000000E+00 -0.22241071720E+04  0.42910483001E+04  0.36696652165E+04 0.  0.
        5    1    3    3  502    0  0.30507896141E+03 -0.15711706364E+04 -0.62950304805E+02  0.16017600233E+04  0.46999998093E+01 0.  1.
       -5    1    3    3    0  502 -0.30507896141E+03  0.15711706364E+04 -0.21611568672E+04  0.26892882768E+04  0.46999998093E+01 0. -1.
</event>
<event>
 5   0  0.3032442E-07  0.3885037E+04  0.7818609E-02  0.8028149E-01
       -2   -1    0    0    0  501  0.00000000000E+00  0.00000000000E+00  0.30719700658E+04  0.30719700658E+04  0.25500000920E-02 0. -1.
        2   -1    0    0  501    0  0.00000000000E+00  0.00000000000E+00 -0.12283249181E+04  0.12283249181E+04  0.25500000920E-02 0.  1.
    10030    2    1    2    0    0  0.00000000000E+00  0.00000000000E+00  0.18436451477E+04  0.43002949839E+04  0.38850366173E+04 0.  0.
        3    1    3    3  502    0  0.52405187157E+03 -0.46356500124E+03 -0.10840118663E+04  0.12901955708E+04  0.10100000352E+00 0.  1.
       -3    1    3    3    0  502 -0.52405187157E+03  0.46356500124E+03  0.29276570140E+04  0.30100994131E+04  0.10100000352E+00 0. -1.
</event>
<event>
 5   0  0.2996969E-07  0.3721095E+04  0.7818609E-02  0.8063303E-01
        2   -1    0    0  501    0  0.00000000000E+00  0.00000000000E+00  0.24560950003E+04  0.24560950003E+04  0.25500000920E-02 0. -1.
       -2   -1    0    0    0  501  0.00000000000E+00  0.00000000000E+00 -0.14094068757E+04  0.14094068757E+04  0.25500000920E-02 0.  1.
    10030    2    1    2    0    0  0.00000000000E+00  0.00000000000E+00  0.10466881246E+04  0.38655018760E+04  0.37210950973E+04 0.  0.
        1    1    3    3  502    0  0.52384678209E+02 -0.13932513072E+04 -0.75643310035E+03  0.15862170075E+04  0.50400001928E-02 0.  1.
       -1    1    3    3    0  502 -0.52384678209E+02  0.13932513072E+04  0.18031212250E+04  0.22792848685E+04  0.50400001928E-02 0. -1.
</event>
<event>
 5   0  0.9418945E-08  0.3696246E+04  0.7818609E-02  0.8068794E-01
        1   -1    0    0  501    0  0.00000000000E+00  0.00000000000E+00  0.11075386930E+04  0.11075386930E+04  0.50400001928E-02 0. -1.
       -1   -1    0    0    0  501  0.00000000000E+00  0.00000000000E+00 -0.30839175422E+04  0.30839175422E+04  0.50400001928E-02 0.  1.
    10030    2    1    2    0    0  0.00000000000E+00  0.00000000000E+00 -0.19763788492E+04  0.41914562352E+04  0.36962456650E+04 0.  0.
        5    1    3    3  502    0  0.14898856217E+04  0.80536545948E+03 -0.14938143606E+03  0.17002086909E+04  0.46999998093E+01 0. -1.
       -5    1    3    3    0  502 -0.14898856217E+04 -0.80536545948E+03 -0.18269974132E+04  0.24912475443E+04  0.46999998093E+01 0.  1.
</event>
<event>
 5   0  0.9341000E-08  0.3686091E+04  0.7818609E-02  0.8071051E-01
        1   -1    0    0  501    0  0.00000000000E+00  0.00000000000E+00  0.28120375662E+04  0.28120375662E+04  0.50400001928E-02 0.  1.
       -1   -1    0    0    0  501  0.00000000000E+00  0.00000000000E+00 -0.12079558991E+04  0.12079558991E+04  0.50400001928E-02 0. -1.
    10030    2    1    2    0    0  0.00000000000E+00  0.00000000000E+00  0.16040816672E+04  0.40199934653E+04  0.36860913535E+04 0.  0.
        1    1    3    3  502    0 -0.17365676511E+04  0.53644034955E+03  0.11353065438E+04  0.21429783956E+04  0.50400001928E-02 0.  1.
       -1    1    3    3    0  502  0.17365676511E+04 -0.53644034955E+03  0.46877512336E+03  0.18770150697E+04  0.50400001928E-02 0. -1.
</event>
<event>
 5   0  0.3008879E-07  0.3687030E+04  0.7818609E-02  0.8070842E-01
        2   -1    0    0  501    0  0.00000000000E+00  0.00000000000E+00  0.13068062596E+04  0.13068062596E+04  0.25500000920E-02 0.  1.
       -2   -1    0    0    0  501  0.00000000000E+00  0.00000000000E+00 -0.26006517224E+04  0.26006517224E+04  0.25500000920E-02 0. -1.
    10030    2    1    2    0    0  0.00000000000E+00  0.00000000000E+00 -0.12938454628E+04  0.39074579820E+04  0.36870302140E+04 0.  0.
        2    1    3    3  502    0  0.34651767492E+02  0.20641525018E+03  0.12941734280E+04  0.13109892686E+04  0.25500000920E-02 0.  1.
       -2    1    3    3    0  502 -0.34651767492E+02 -0.20641525018E+03 -0.25880188908E+04  0.25964687134E+04  0.25500000920E-02 0. -1.
</event>
<event>
 5   0  0.9646615E-08  0.3703985E+04  0.7818609E-02  0.8067079E-01
        1   -1    0    0  501    0  0.00000000000E+00  0.00000000000E+00  0.14585643489E+04  0.14585643489E+04  0.50400001928E-02 0.  1.
       -1   -1    0    0    0  501  0.00000000000E+00  0.00000000000E+00 -0.23515423175E+04  0.23515423176E+04  0.50400001928E-02 0. -1.
    10030    2    1    2    0    0  0.00000000000E+00  0.00000000000E+00 -0.89297796861E+03  0.38101066665E+04  0.37039847675E+04 0.  0.
        2    1    3    3  502    0  0.72121731736E+03 -0.89292640393E+02 -0.21987459847E+04  0.23157313099E+04  0.25500000920E-02 0. -1.
       -2    1    3    3    0  502 -0.72121731736E+03  0.89292640393E+02  0.13057680161E+04  0.14943753566E+04  0.25500000920E-02 0.  1.
</event>
<event>
 5   0  0.2996969E-07  0.3693133E+04  0.7818609E-02  0.8069485E-01
       -2   -1    0    0    0  501  0.00000000000E+00  0.00000000000E+00  0.25182556362E+04  0.25182556362E+04  0.25500000920E-02 0.  1.
        2   -1    0    0  501    0  0.00000000000E+00  0.00000000000E+00 -0.13540358697E+04  0.13540358697E+04  0.25500000920E-02 0. -1.
    10030    2    1    2    0    0  0.00000000000E+00  0.00000000000E+00  0.11642197666E+04  0.38722915059E+04  0.36931333366E+04 0.  0.
        1    1    3    3  502    0 -0.11568143147E+04 -0.14040015358E+04  0.91428905550E+03  0.20360167357E+04  0.50400001928E-02 0.  1.
       -1    1    3    3    0  502  0.11568143147E+04  0.14040015358E+04  0.24993071107E+03  0.18362747702E+04  0.50400001928E-02 0. -1.
</event>
<event>
 5   0  0.2913025E-07  0.3691314E+04  0.7818609E-02  0.8069889E-01
       -2   -1    0    0    0  501  0.00000000000E+00  0.00000000000E+00  0.15420813762E+04  0.15420813762E+04  0.25500000920E-02 0. -1.
        2   -1    0    0  501    0  0.00000000000E+00  0.00000000000E+00 -0.22089947310E+04  0.22089947310E+04  0.25500000920E-02 0.  1.
    10030    2    1    2    0    0  0.00000000000E+00  0.00000000000E+00 -0.66691335483E+03  0.37510761073E+04  0.36913139313E+04 0.  0.
        5    1    3    3  502    0 -0.60454621588E+03 -0.17325923657E+04 -0.13258208431E+03  0.18398240492E+04  0.46999998093E+01 0. -1.
       -5    1    3    3    0  502  0.60454621588E+03  0.17325923657E+04 -0.53433127051E+03  0.19112520581E+04  0.46999998093E+01 0.  1.
</event>
<event>
 5   0  0.9418945E-08  0.3582563E+04  0.7818609E-02  0.8094498E-01
       -1   -1    0    0    0  501  0.00000000000E+00  0.00000000000E+00  0.14312283554E+04  0.14312283554E+04  0.50400001928E-02 0. -1.
        1   -1    0    0  501    0  0.00000000000E+00  0.00000000000E+00 -0.22419126489E+04  0.22419126489E+04  0.50400001928E-02 0.  1.
    10030    2    1    2    0    0  0.00000000000E+00  0.00000000000E+00 -0.81068429344E+03  0.36731410043E+04  0.35825627439E+04 0.  0.
        5    1    3    3  502    0 -0.17200265707E+04  0.20636538515E+03 -0.87248073177E+03  0.19396707951E+04  0.46999998093E+01 0. -1.
       -5    1    3    3    0  502  0.17200265707E+04 -0.20636538515E+03  0.61796438325E+02  0.17334702091E+04  0.46999998093E+01 0.  1.
</event>
<event>
 5   0  0.9418945E-08  0.3661692E+04  0.7818609E-02  0.8076505E-01
       -1   -1    0    0    0  501  0.00000000000E+00  0.00000000000E+00  0.26087813382E+04  0.26087813382E+04  0.50400001928E-02 0.  1.
        1   -1    0    0  501    0  0.00000000000E+00  0.00000000000E+00 -0.12848897172E+04  0.12848897172E+04  0.50400001928E-02 0. -1.
    10030    2    1    2    0    0  0.00000000000E+00  0.00000000000E+00  0.13238916210E+04  0.38936710554E+04  0.36616915850E+04 0.  0.
        5    1    3    3  502    0  0.42045039165E+02  0.13579268292E+04 -0.64309698452E+03  0.15031064102E+04  0.46999998093E+01 0. -1.
       -5    1    3    3    0  502 -0.42045039165E+02 -0.13579268292E+04  0.19669886055E+04  0.23905646452E+04  0.46999998093E+01 0.  1.
</event>
<event>
 5   0  0.2996969E-07  0.3551971E+04  0.7818609E-02  0.8101583E-01
       -2   -1    0    0    0  501  0.00000000000E+00  0.00000000000E+00  0.19276469098E+04  0.19276469098E+04  0.25500000920E-02 0.  1.
        2   -1    0    0  501    0  0.00000000000E+00  0.00000000000E+00 -0.16362559937E+04  0.16362559937E+04  0.25500000920E-02 0. -1.
    10030    2    1    2    0    0  0.00000000000E+00  0.00000000000E+00  0.29139091608E+03  0.35639029035E+04  0.35519706136E+04 0.  0.
        1    1    3    3  502    0 -0.79139916724E+03  0.69853986076E+03 -0.12873367771E+04  0.16647842373E+04  0.50400001928E-02 0. -1.
       -1    1    3    3    0  502  0.79139916724E+03 -0.69853986076E+03  0.15787276932E+04  0.18991186662E+04  0.50400001928E-02 0.  1.
</event>
<event>
 5   0  0.2897133E-07  0.3365768E+04  0.7818609E-02  0.8146359E-01
       -2   -1    0    0    0  501  0.00000000000E+00  0.00000000000E+00  0.17943813130E+04  0.17943813130E+04  0.25500000920E-02 0.  1.
        2   -1    0    0  501    0  0.00000000000E+00  0.00000000000E+00 -0.15783152210E+04  0.15783152210E+04  0.25500000920E-02 0. -1.
    10030    2    1    2    0    0  0.00000000000E+00  0.00000000000E+00  0.21606609201E+03  0.33726965339E+04  0.33657684641E+04 0.  0.
        4    1    3    3  502    0  0.11219758138E+04  0.94910246141E+03  0.92976523443E+03  0.17389911481E+04  0.12699999809E+01 0.  1.
       -4    1    3    3    0  502 -0.11219758138E+04 -0.94910246141E+03 -0.71369914242E+03  0.16337053859E+04  0.12699999809E+01 0. -1.
</event>
<event>
 5   0  0.9646615E-08  0.3780864E+04  0.7818609E-02  0.8050274E-01
        1   -1    0    0  501    0  0.00000000000E+00  0.00000000000E+00  0.30345668479E+04  0.30345668479E+04  0.50400001928E-02 0. -1.
       -1   -1    0    0    0  501  0.00000000000E+00  0.00000000000E+00 -0.11776747358E+04  0.11776747358E+04  0.50400001928E-02 0.  1.
    10030    2    1    2    0    0  0.00000000000E+00  0.00000000000E+00  0.18568921121E+04  0.42122415837E+04  0.37808637695E+04 0.  0.
        2    1    3    3  502    0  0.74895466445E+03  0.85090846154E+03  0.26139192084E+04  0.28491317848E+04  0.25500000920E-02 0. -1.
       -2    1    3    3    0  502 -0.74895466445E+03 -0.85090846154E+03 -0.75702709629E+03  0.13631097989E+04  0.25500000920E-02 0.  1.
</event>
<event>
 5   0  0.9341000E-08  0.3692043E+04  0.7818609E-02  0.8069727E-01
        1   -1    0    0  501    0  0.00000000000E+00  0.00000000000E+00  0.18536142733E+04  0.18536142733E+04  0.50400001928E-02 0.  1.
       -1   -1    0    0    0  501  0.00000000000E+00  0.00000000000E+00 -0.18384598415E+04  0.18384598415E+04  0.50400001928E-02 0. -1.
    10030    2    1    2    0    0  0.00000000000E+00  0.00000000000E+00  0.15154431847E+02  0.36920741148E+04  0.36920430134E+04 0.  0.
        4    1    3    3  502    0  0.10962361815E+04  0.91063489772E+02  0.14900766234E+04  0.18521221022E+04  0.12699999809E+01 0.  1.
       -4    1    3    3    0  502 -0.10962361815E+04 -0.91063489772E+02 -0.14749221916E+04  0.18399520127E+04  0.12699999809E+01 0. -1.
</event>
<event>
 5   0  0.3032442E-07  0.3706079E+04  0.7818609E-02  0.8066616E-01
       -2   -1    0    0    0  501  0.00000000000E+00  0.00000000000E+00  0.16729425976E+04  0.16729425976E+04  0.25500000920E-02 0. -1.
        2   -1    0    0  501    0  0.00000000000E+00  0.00000000000E+00 -0.20525241643E+04  0.20525241643E+04  0.25500000920E-02 0.  1.
    10030    2    1    2    0    0  0.00000000000E+00  0.00000000000E+00 -0.37958156663E+03  0.37254667619E+04  0.37060788481E+04 0.  0.
        3    1    3    3  502    0  0.80605137615E+03 -0.10601489202E+04  0.11054062770E+04  0.17307679225E+04  0.10100000352E+00 0. -1.
       -3    1    3    3    0  502 -0.80605137615E+03  0.10601489202E+04 -0.14849878436E+04  0.19946988394E+04  0.10100000352E+00 0.  1.
</event>
<event>
 5   0  0.9341000E-08  0.3696355E+04  0.7818609E-02  0.8068770E-01
        1   -1    0    0  501    0  0.00000000000E+00  0.00000000000E+00  0.17293451372E+04  0.17293451372E+04  0.50400001928E-02 0.  1.
       -1   -1    0    0    0  501  0.00000000000E+00  0.00000000000E+00 -0.19751753561E+04  0.19751753561E+04  0.50400001928E-02 0. -1.
    10030    2    1    2    0    0  0.00000000000E+00  0.00000000000E+00 -0.24583021894E+03  0.37045204933E+04  0.36963549057E+04 0.  0.
        1    1    3    3  502    0  0.14783905461E+04 -0.10623109955E+04 -0.44239295837E+03  0.18734606448E+04  0.50400001928E-02 0. -1.
       -1    1    3    3    0  502 -0.14783905461E+04  0.10623109955E+04  0.19656273943E+03  0.18310598485E+04  0.50400001928E-02 0.  1.
</event>
<event>
 5   0  0.2913025E-07  0.3700975E+04  0.7818609E-02  0.8067746E-01
        2   -1    0    0  501    0  0.00000000000E+00  0.00000000000E+00  0.18168311473E+04  0.18168311473E+04  0.25500000920E-02 0.  1.
       -2   -1    0    0    0  501  0.00000000000E+00  0.00000000000E+00 -0.18847676303E+04  0.18847676303E+04  0.25500000920E-02 0. -1.
    10030    2    1    2    0    0  0.00000000000E+00  0.00000000000E+00 -0.67936482982E+02  0.37015987776E+04  0.37009752964E+04 0.  0.
        5    1    3    3  502    0  0.61456453733E+03 -0.91300367123E+03 -0.15218401655E+04  0.18781067205E+04  0.46999998093E+01 0. -1.
       -5    1    3    3    0  502 -0.61456453733E+03  0.91300367123E+03  0.14539036825E+04  0.18234920571E+04  0.46999998093E+01 0.  1.
</event>
<event>
 5   0  0.9646615E-08  0.3688069E+04  0.7818609E-02  0.8070611E-01
       -1   -1    0    0    0  501  0.00000000000E+00  0.00000000000E+00  0.15499934002E+04  0.15499934002E+04  0.50400001928E-02 0. -1.
        1   -1    0    0  501    0  0.00000000000E+00  0.00000000000E+00 -0.21938571294E+04  0.21938571294E+04  0.50400001928E-02 0.  1.
    10030    2    1    2    0    0  0.00000000000E+00  0.00000000000E+00 -0.64386372918E+03  0.37438505297E+04  0.36880694525E+04 0.  0.
        2    1    3    3  502    0  0.78470612017E+03 -0.15942514975E+04  0.17853856953E+03  0.17858548522E+04  0.25500000920E-02 0. -1.
       -2    1    3    3    0  502 -0.78470612017E+03  0.15942514975E+04 -0.82240229871E+03  0.19579956775E+04  0.25500000920E-02 0.  1.
</event>
<event>
 5   0  0.2996969E-07  0.3713870E+04  0.7818609E-02  0.8064895E-01
        2   -1    0    0  501    0  0.00000000000E+00  0.00000000000E+00  0.20665857487E+04  0.20665857487E+04  0.25500000920E-02 0. -1.
       -2   -1    0    0    0  501  0.00000000000E+00  0.00000000000E+00 -0.16685524680E+04  0.16685524680E+04  0.25500000920E-02 0.  1.
    10030    2    1    2    0    0  0.00000000000E+00  0.00000000000E+00  0.39803328072E+03  0.37351382167E+04  0.37138695461E+04 0.  0.
        1    1    3    3  502    0 -0.10639338793E+03 -0.18137961695E+04  0.58465833001E+03  0.19086648371E+04  0.50400001928E-02 0.  1.
       -1    1    3    3    0  502  0.10639338793E+03  0.18137961695E+04 -0.18662504929E+03  0.18264733796E+04  0.50400001928E-02 0. -1.
</event>
<event>
 5   0  0.3008879E-07  0.3734737E+04  0.7818609E-02  0.8060307E-01
       -2   -1    0    0    0  501  0.00000000000E+00  0.00000000000E+00  0.15881172383E+04  0.15881172383E+04  0.25500000920E-02 0.  1.
        2   -1    0    0  501    0  0.00000000000E+00  0.00000000000E+00 -0.21957226691E+04  0.21957226691E+04  0.25500000920E-02 0. -1.
    10030    2    1    2    0    0  0.00000000000E+00  0.00000000000E+00 -0.60760543085E+03  0.37838399074E+04  0.37347369499E+04 0.  0.
        2    1    3    3  502    0  0.13396163535E+04  0.88703491378E+03  0.66037221199E+03  0.17370936565E+04  0.25500000920E-02 0.  1.
       -2    1    3    3    0  502 -0.13396163535E+04 -0.88703491378E+03 -0.12679776428E+04  0.20467462509E+04  0.25500000920E-02 0. -1.
</event>
<event>
 5   0  0.9341000E-08  0.3726664E+04  0.7818609E-02  0.8062078E-01
       -1   -1    0    0    0  501  0.00000000000E+00  0.00000000000E+00  0.16873655221E+04  0.16873655222E+04  0.50400001928E-02 0. -1.
        1   -1    0    0  501    0  0.00000000000E+00  0.00000000000E+00 -0.20576495567E+04  0.20576495567E+04  0.50400001928E-02 0.  1.
    10030    2    1    2    0    0  0.00000000000E+00  0.00000000000E+00 -0.37028403452E+03  0.37450150788E+04  0.37266644167E+04 0.  0.
        4    1    3    3  502    0  0.10143400744E+04  0.10979570299E+04 -0.13030991930E+04  0.19830442622E+04  0.12699999809E+01 0.  1.
       -4    1    3    3    0  502 -0.10143400744E+04 -0.10979570299E+04  0.93281515847E+03  0.17619708167E+04  0.12699999809E+01 0. -1.
</event>
<event>
 5   0  0.2897133E-07  0.3710210E+04  0.7818609E-02  0.8065703E-01
        2   -1    0    0  501    0  0.00000000000E+00  0.00000000000E+00  0.27625414311E+04  0.27625414311E+04  0.25500000920E-02 0. -1.
       -2   -1    0    0    0  501  0.00000000000E+00  0.00000000000E+00 -0.12457422107E+04  0.12457422107E+04  0.25500000920E-02 0.  1.
    10030    2    1    2    0    0  0.00000000000E+00  0.00000000000E+00  0.15167992204E+04  0.40082836418E+04  0.37102099507E+04 0.  0.
        4    1    3    3  502    0 -0.14549940666E+04  0.57710845512E+03  0.18340562809E+04  0.24111876653E+04  0.12699999809E+01 0. -1.
       -4    1    3    3    0  502  0.14549940666E+04 -0.57710845512E+03 -0.31725706054E+03  0.15970959765E+04  0.12699999809E+01 0.  1.
</event>
<event>
 5   0  0.2913025E-07  0.3708378E+04  0.7818609E-02  0.8066108E-01
        2   -1    0    0  501    0  0.00000000000E+00  0.00000000000E+00  0.11862733292E+04  0.11862733292E+04  0.25500000920E-02 0. -1.
       -2   -1    0    0    0  501  0.00000000000E+00  0.00000000000E+00 -0.28981665029E+04  0.28981665029E+04  0.25500000920E-02 0.  1.
    10030    2    1    2    0    0  0.00000000000E+00  0.00000000000E+00 -0.17118931737E+04  0.40844398322E+04  0.37083784198E+04 0.  0.
        5    1    3    3  502    0 -0.49860061162E+03 -0.16746793301E+04 -0.17268068189E+03  0.17558457041E+04  0.46999998093E+01 0. -1.
       -5    1    3    3    0  502  0.49860061162E+03  0.16746793301E+04 -0.15392124918E+04  0.23285941281E+04  0.46999998093E+01 0.  1.
</event>
<event>
 5   0  0.9341000E-08  0.3725890E+04  0.7818609E-02  0.8062248E-01
        1   -1    0    0  501    0  0.00000000000E+00  0.00000000000E+00  0.14270164894E+04  0.14270164894E+04  0.50400001928E-02 0. -1.
       -1   -1    0    0    0  501  0.00000000000E+00  0.00000000000E+00 -0.24320418102E+04  0.24320418103E+04  0.50400001928E-02 0.  1.
    10030    2    1    2    0    0  0.00000000000E+00  0.00000000000E+00 -0.10050253208E+04  0.38590582997E+04  0.37258898353E+04 0.  0.
        1    1    3    3  502    0 -0.21502616822E+03 -0.17098589457E+04  0.23038682798E+03  0.17386580911E+04  0.50400001928E-02 0.  1.
       -1    1    3    3    0  502  0.21502616822E+03  0.17098589457E+04 -0.12354121488E+04  0.21204002086E+04  0.50400001928E-02 0. -1.
</event>
<event>
 5   0  0.2897133E-07  0.3684882E+04  0.7818609E-02  0.8071320E-01
        2   -1    0    0  501    0  0.00000000000E+00  0.00000000000E+00  0.23239599270E+04  0.23239599270E+04  0.25500000920E-02 0.  1.
       -2   -1    0    0    0  501  0.00000000000E+00  0.00000000000E+00 -0.14606916637E+04  0.14606916637E+04  0.25500000920E-02 0. -1.
    10030    2    1    2    0    0  0.00000000000E+00  0.00000000000E+00  0.86326826329E+03  0.37846515907E+04  0.36848820291E+04 0.  0.
        4    1    3    3  502    0  0.50055941036E+03  0.15564673740E+04  0.13040056607E+04  0.20913112599E+04  0.12699999809E+01 0.  1.
       -4    1    3    3    0  502 -0.50055941036E+03 -0.15564673740E+04 -0.44073739737E+03  0.16933403308E+04  0.12699999809E+01 0. -1.
</event>
<event>
 5   0  0.9341000E-08  0.3701892E+04  0.7818609E-02  0.8067543E-01
       -1   -1    0    0    0  501  0.00000000000E+00  0.00000000000E+00  0.20756014382E+04  0.20756014382E+04  0.50400001928E-02 0.  1.
        1   -1    0    0  501    0  0.00000000000E+00  0.00000000000E+00 -0.16506063923E+04  0.16506063923E+04  0.50400001928E-02 0. -1.
    10030    2    1    2    0    0  0.00000000000E+00  0.00000000000E+00  0.42499504590E+03  0.37262078304E+04  0.37018919496E+04 0.  0.
        3    1    3    3  502    0  0.18023663810E+04  0.17251841404E+03 -0.17436253814E+03  0.18189803405E+04  0.10100000352E+00 0. -1.
       -3    1    3    3    0  502 -0.18023663810E+04 -0.17251841404E+03  0.59935758404E+03  0.19072274899E+04  0.10100000352E+00 0.  1.
</event>
<event>
 5   0  0.9646615E-08  0.3509298E+04  0.7818609E-02  0.8111590E-01
       -1   -1    0    0    0  501  0.00000000000E+00  0.00000000000E+00  0.17838713191E+04  0.17838713191E+04  0.50400001928E-02 0. -1.
        1   -1    0    0  501    0  0.00000000000E+00  0.00000000000E+00 -0.17259049720E+04  0.17259049720E+04  0.50400001928E-02 0.  1.
    10030    2    1    2    0    0  0.00000000000E+00  0.00000000000E+00  0.57966347074E+02  0.35097762911E+04  0.35092975816E+04 0.  0.
        2    1    3    3  502    0  0.17294404308E+03  0.31393843903E+03  0.17468686082E+04  0.17832601941E+04  0.25500000920E-02 0. -1.
       -2    1    3    3    0  502 -0.17294404308E+03 -0.31393843903E+03 -0.16889022611E+04  0.17265160970E+04  0.25500000920E-02 0.  1.
</event>
<event>
 5   0  0.9646615E-08  0.3647588E+04  0.7818609E-02  0.8079677E-01
        1   -1    0    0  501    0  0.00000000000E+00  0.00000000000E+00  0.20380604957E+04  0.20380604957E+04  0.50400001928E-02 0.  1.
       -1   -1    0    0    0  501  0.00000000000E+00  0.00000000000E+00 -0.16320536219E+04  0.16320536219E+04  0.50400001928E-02 0. -1.
    10030    2    1    2    0    0  0.00000000000E+00  0.00000000000E+00  0.40600687377E+03  0.36701141177E+04  0.36475877036E+04 0.  0.
        2    1    3    3  502    0 -0.16818100427E+04  0.59016566623E+03 -0.18596316427E+03  0.17920275756E+04  0.25500000920E-02 0. -1.
       -2    1    3    3    0  502  0.16818100427E+04 -0.59016566623E+03  0.59197003804E+03  0.18780865420E+04  0.25500000920E-02 0.  1.
</event>
<event>
 5   0  0.9341000E-08  0.3718693E+04  0.7818609E-02  0.8063832E-01
        1   -1    0    0  501    0  0.00000000000E+00  0.00000000000E+00  0.24235183015E+04  0.24235183015E+04  0.50400001928E-02 0.  1.
       -1   -1    0    0    0  501  0.00000000000E+00  0.00000000000E+00 -0.14265083349E+04  0.14265083349E+04  0.50400001928E-02 0. -1.
    10030    2    1    2    0    0  0.00000000000E+00  0.00000000000E+00  0.99700996653E+03  0.38500266364E+04  0.37186928117E+04 0.  0.
        3    1    3    3  502    0 -0.14366813442E+03  0.33100898951E+03  0.23869194621E+04  0.24140405988E+04  0.10100000352E+00 0.  1.
       -3    1    3    3    0  502  0.14366813442E+03 -0.33100898951E+03 -0.13899094956E+04  0.14359860376E+04  0.10100000352E+00 0. -1.
</event>
<event>
 5   0  0.9418945E-08  0.3696390E+04  0.7818609E-02  0.8068762E-01
        1   -1    0    0  501    0  0.00000000000E+00  0.00000000000E+00  0.12050261588E+04  0.12050261588E+04  0.50400001928E-02 0. -1.
       -1   -1    0    0    0  501  0.00000000000E+00  0.00000000000E+00 -0.28346481329E+04  0.28346481329E+04  0.50400001928E-02 0.  1.
    10030    2    1    2    0    0  0.00000000000E+00  0.00000000000E+00 -0.16296219741E+04  0.40396742917E+04  0.36963902127E+04 0.  0.
        5    1    3    3  502    0  0.36850386103E+03 -0.10450269504E+04 -0.24313452603E+04  0.26719540205E+04  0.46999998093E+01 0.  1.
       -5    1    3    3    0  502 -0.36850386103E+03  0.10450269504E+04  0.80172328626E+03  0.13677202712E+04  0.46999998093E+01 0. -1.
</event>
<event>
 5   0  0.9646615E-08  0.3721516E+04  0.7818609E-02  0.8063210E-01
       -1   -1    0    0    0  501  0.00000000000E+00  0.00000000000E+00  0.19843650166E+04  0.19843650167E+04  0.50400001928E-02 0.  1.
        1   -1    0    0  501    0  0.00000000000E+00  0.00000000000E+00 -0.17448502884E+04  0.17448502884E+04  0.50400001928E-02 0. -1.
    10030    2    1    2    0    0  0.00000000000E+00  0.00000000000E+00  0.23951472826E+03  0.37292153050E+04  0.37215157512E+04 0.  0.
        2    1    3    3  502    0  0.17547118073E+04 -0.32804321204E+03 -0.40649008051E+03  0.18308085813E+04  0.25500000920E-02 0. -1.
       -2    1    3    3    0  502 -0.17547118073E+04  0.32804321204E+03  0.64600480878E+03  0.18984067237E+04  0.25500000920E-02 0.  1.
</event>
<event>
 5   0  0.2897133E-07  0.3714955E+04  0.7818609E-02  0.8064656E-01
       -2   -1    0    0    0  501  0.00000000000E+00  0.00000000000E+00  0.23916577483E+04  0.23916577483E+04  0.25500000920E-02 0. -1.
        2   -1    0    0  501    0  0.00000000000E+00  0.00000000000E+00 -0.14426072033E+04  0.14426072033E+04  0.25500000920E-02 0.  1.
    10030    2    1    2    0    0  0.00000000000E+00  0.00000000000E+00  0.94905054507E+03  0.38342649516E+04  0.37149550175E+04 0.  0.
        4    1    3    3  502    0 -0.17074559646E+04 -0.66979078788E+03  0.77754498900E+03  0.19921353853E+04  0.12699999809E+01 0. -1.
       -4    1    3    3    0  502  0.17074559646E+04  0.66979078788E+03  0.17150555607E+03  0.18421295663E+04  0.12699999809E+01 0.  1.
</event>
<event>
 5   0  0.2897133E-07  0.3343198E+04  0.7818609E-02  0.8151990E-01
        2   -1    0    0  501    0  0.00000000000E+00  0.00000000000E+00  0.20229730984E+04  0.20229730984E+04  0.25500000920E-02 0.  1.
       -2   -1    0    0    0  501  0.00000000000E+00  0.00000000000E+00 -0.13812560828E+04  0.13812560828E+04  0.25500000920E-02 0. -1.
    10030    2    1    2    0    0  0.00000000000E+00  0.00000000000E+00  0.64171701559E+03  0.34042291811E+04  0.33431984072E+04 0.  0.
        4    1    3    3  502    0  0.11395015370E+04 -0.87406107395E+03  0.11919255590E+04  0.18663157999E+04  0.12699999809E+01 0.  1.
       -4    1    3    3    0  502 -0.11395015370E+04  0.87406107395E+03 -0.55020854342E+03  0.15379133812E+04  0.12699999809E+01 0. -1.
</event>
<event>
 5   0  0.2996969E-07  0.3726851E+04  0.7818609E-02  0.8062037E-01
       -2   -1    0    0    0  501  0.00000000000E+00  0.00000000000E+00  0.12259931627E+04  0.12259931627E+04  0.25500000920E-02 0.  1.
        2   -1    0    0  501    0  0.00000000000E+00  0.00000000000E+00 -0.28322794030E+04  0.28322794030E+04  0.25500000920E-02 0. -1.
    10030    2    1    2    0    0  0.00000000000E+00  0.00000000000E+00 -0.16062862403E+04  0.40582725657E+04  0.37268513160E+04 0.  0.
        1    1    3    3  502    0 -0.12863302778E+04  0.60073037746E+03 -0.21174717644E+04  0.25493546719E+04  0.50400001928E-02 0. -1.
       -1    1    3    3    0  502  0.12863302778E+04 -0.60073037746E+03  0.51118552410E+03  0.15089178937E+04  0.50400001928E-02 0.  1.
</event>
<event>
 5   0  0.9341000E-08  0.3731099E+04  0.7818609E-02  0.8061105E-01
       -1   -1    0    0    0  501  0.00000000000E+00  0.00000000000E+00  0.11200107801E+04  0.11200107802E+04  0.50400001928E-02 0.  1.
        1   -1    0    0  501    0  0.00000000000E+00  0.00000000000E+00 -0.31073576318E+04  0.31073576318E+04  0.50400001928E-02 0. -1.
    10030    2    1    2    0    0  0.00000000000E+00  0.00000000000E+00 -0.19873468517E+04  0.42273684120E+04  0.37310985221E+04 0.  0.
        4    1    3    3  502    0 -0.13633375074E+04 -0.11806752899E+03  0.44290133707E+03  0.14383296937E+04  0.12699999809E+01 0.  1.
       -4    1    3    3    0  502  0.13633375074E+04  0.11806752899E+03 -0.24302481887E+04  0.27890387183E+04  0.12699999809E+01 0. -1.
</event>
<event>
 5   0  0.9341000E-08  0.3629012E+04  0.7818609E-02  0.8083878E-01
        1   -1    0    0  501    0  0.00000000000E+00  0.00000000000E+00  0.17360957322E+04  0.17360957322E+04  0.50400001928E-02 0.  1.
       -1   -1    0    0    0  501  0.00000000000E+00  0.00000000000E+00 -0.18964576147E+04  0.18964576147E+04  0.50400001928E-02 0. -1.
    10030    2    1    2    0    0  0.00000000000E+00  0.00000000000E+00 -0.16036188248E+03  0.36325533469E+04  0.36290119708E+04 0.  0.
        4    1    3    3  502    0  0.94262141589E+03 -0.15480818554E+04  0.55635727771E+01  0.18124914154E+04  0.12699999809E+01 0. -1.
       -4    1    3    3    0  502 -0.94262141589E+03  0.15480818554E+04 -0.16592545526E+03  0.18200619315E+04  0.12699999809E+01 0.  1.
</event>
<event>
 5   0  0.2913025E-07  0.3708289E+04  0.7818609E-02  0.8066127E-01
       -2   -1    0    0    0  501  0.00000000000E+00  0.00000000000E+00  0.33511516426E+04  0.33511516426E+04  0.25500000920E-02 0. -1.
        2   -1    0    0  501    0  0.00000000000E+00  0.00000000000E+00 -0.10258720165E+04  0.10258720165E+04  0.25500000920E-02 0.  1.
    10030    2    1    2    0    0  0.00000000000E+00  0.00000000000E+00  0.23252796261E+04  0.43770236591E+04  0.37082894672E+04 0.  0.
        5    1    3    3  502    0 -0.10972644614E+04  0.11614210184E+04  0.22729972318E+04  0.27783856079E+04  0.46999998093E+01 0. -1.
       -5    1    3    3    0  502  0.10972644614E+04 -0.11614210184E+04  0.52282394264E+02  0.15986380512E+04  0.46999998093E+01 0.  1.
</event>
<event>
 5   0  0.9418945E-08  0.3692922E+04  0.7818609E-02  0.8069532E-01
        1   -1    0    0  501    0  0.00000000000E+00  0.00000000000E+00  0.18479991633E+04  0.18479991633E+04  0.50400001928E-02 0.  1.
       -1   -1    0    0    0  501  0.00000000000E+00  0.00000000000E+00 -0.18449238953E+04  0.18449238954E+04  0.50400001928E-02 0. -1.
    10030    2    1    2    0    0  0.00000000000E+00  0.00000000000E+00  0.30752679845E+01  0.36929230587E+04  0.36929217782E+04 0.  0.
        5    1    3    3  502    0  0.16026073346E+04 -0.57012418739E+03  0.71987197456E+03  0.18470597196E+04  0.46999998093E+01 0.  1.
       -5    1    3    3    0  502 -0.16026073346E+04  0.57012418739E+03 -0.71679670657E+03  0.18458633391E+04  0.46999998093E+01 0. -1.
</event>
<event>
 5   0  0.9341000E-08  0.3701163E+04  0.7818609E-02  0.8067704E-01
        3   -1    0    0  501    0  0.00000000000E+00  0.00000000000E+00  0.24348973526E+04  0.24348973547E+04  0.10100000352E+00 0.  1.
       -3   -1    0    0    0  501  0.00000000000E+00  0.00000000000E+00 -0.14064871237E+04  0.14064871273E+04  0.10100000352E+00 0. -1.
    10030    2    1    2    0    0  0.00000000000E+00  0.00000000000E+00  0.10284102289E+04  0.38413844820E+04  0.37011629442E+04 0.  0.
        5    1    3    3  502    0 -0.77242495643E+03 -0.66758739057E+03 -0.10877461431E+04  0.14918200291E+04  0.46999998093E+01 0. -1.
       -5    1    3    3    0  502  0.77242495643E+03  0.66758739057E+03  0.21161563720E+04  0.23495644529E+04  0.46999998093E+01 0.  1.
</event>
<event>
 5   0  0.3008879E-07  0.3681129E+04  0.7818609E-02  0.8072157E-01
        2   -1    0    0  501    0  0.00000000000E+00  0.00000000000E+00  0.26491346817E+04  0.26491346817E+04  0.25500000920E-02 0. -1.
       -2   -1    0    0    0  501  0.00000000000E+00  0.00000000000E+00 -0.12787862145E+04  0.12787862145E+04  0.25500000920E-02 0.  1.
    10030    2    1    2    0    0  0.00000000000E+00  0.00000000000E+00  0.13703484673E+04  0.39279208962E+04  0.36811285831E+04 0.  0.
        2    1    3    3  502    0  0.27818621484E+03  0.69772819552E+03  0.24781438370E+04  0.25894804656E+04  0.25500000920E-02 0. -1.
       -2    1    3    3    0  502 -0.27818621484E+03 -0.69772819552E+03 -0.11077953698E+04  0.13384404306E+04  0.25500000920E-02 0.  1.
</event>
<event>
 5   0  0.9341000E-08  0.3708387E+04  0.7818609E-02  0.8066106E-01
       -1   -1    0    0    0  501  0.00000000000E+00  0.00000000000E+00  0.18067637201E+04  0.18067637201E+04  0.50400001928E-02 0. -1.
        1   -1    0    0  501    0  0.00000000000E+00  0.00000000000E+00 -0.19028687200E+04  0.19028687200E+04  0.50400001928E-02 0.  1.
    10030    2    1    2    0    0  0.00000000000E+00  0.00000000000E+00 -0.96104999867E+02  0.37096324401E+04  0.37083873408E+04 0.  0.
        3    1    3    3  502    0  0.13573434890E+04  0.43069439555E+02  0.12148284348E+04  0.18220989161E+04  0.10100000352E+00 0.  1.
       -3    1    3    3    0  502 -0.13573434890E+04 -0.43069439555E+02 -0.13109334347E+04  0.18875335240E+04  0.10100000352E+00 0. -1.
</event>
<event>
 5   0  0.3032442E-07  0.3676568E+04  0.7818609E-02  0.8073175E-01
        2   -1    0    0  501    0  0.00000000000E+00  0.00000000000E+00  0.14985435814E+04  0.14985435814E+04  0.25500000920E-02 0. -1.
       -2   -1    0    0    0  501  0.00000000000E+00  0.00000000000E+00 -0.22550479736E+04  0.22550479736E+04  0.25500000920E-02 0.  1.
    10030    2    1    2    0    0  0.00000000000E+00  0.00000000000E+00 -0.75650439225E+03  0.37535915550E+04  0.36765677834E+04 0.  0.
        3    1    3    3  502    0  0.14138357362E+04 -0.32207778975E+03  0.77529564093E+03  0.16443080407E+04  0.10100000352E+00 0. -1.
       -3    1    3    3    0  502 -0.14138357362E+04  0.32207778975E+03 -0.15318000332E+04  0.21092835143E+04  0.10100000352E+00 0.  1.
</event>
<event>
 5   0  0.2897133E-07  0.3850904E+04  0.7818609E-02  0.8035318E-01
        2   -1    0    0  501    0  0.00000000000E+00  0.00000000000E+00  0.24377341027E+04  0.24377341027E+04  0.25500000920E-02 0.  1.
       -2   -1    0    0    0  501  0.00000000000E+00  0.00000000000E+00 -0.15208245539E+04  0.15208245539E+04  0.25500000920E-02 0. -1.
    10030    2    1    2    0    0  0.00000000000E+00  0.00000000000E+00  0.91690954886E+03  0.39585586566E+04  0.38509042467E+04 0.  0.
        4    1    3    3  502    0  0.11321573011E+04 -0.70138955307E+03  0.18878812334E+04  0.23103732651E+04  0.12699999809E+01 0.  1.
       -4    1    3    3    0  502 -0.11321573011E+04  0.70138955307E+03 -0.97097168456E+03  0.16481853915E+04  0.12699999809E+01 0. -1.
</event>
<event>
 5   0  0.2897133E-07  0.3674152E+04  0.7818609E-02  0.8073714E-01
       -2   -1    0    0    0  501  0.00000000000E+00  0.00000000000E+00  0.17537025730E+04  0.17537025730E+04  0.25500000920E-02 0.  1.
        2   -1    0    0  501    0  0.00000000000E+00  0.00000000000E+00 -0.19244129282E+04  0.19244129282E+04  0.25500000920E-02 0. -1.
    10030    2    1    2    0    0  0.00000000000E+00  0.00000000000E+00 -0.17071035519E+03  0.36781155011E+04  0.36741518224E+04 0.  0.
        4    1    3    3  502    0  0.97304087487E+03 -0.80704561585E+03  0.12490175711E+04  0.17771262409E+04  0.12699999809E+01 0.  1.
       -4    1    3    3    0  502 -0.97304087487E+03  0.80704561585E+03 -0.14197279262E+04  0.19009892603E+04  0.12699999809E+01 0. -1.
</event>
<event>
 5   0  0.9341000E-08  0.3651698E+04  0.7818609E-02  0.8078751E-01
       -1   -1    0    0    0  501  0.00000000000E+00  0.00000000000E+00  0.13318244193E+04  0.13318244193E+04  0.50400001928E-02 0.  1.
        1   -1    0    0  501    0  0.00000000000E+00  0.00000000000E+00 -0.25031258093E+04  0.25031258093E+04  0.50400001928E-02 0. -1.
    10030    2    1    2    0    0  0.00000000000E+00  0.00000000000E+00 -0.11713013900E+04  0.38349502286E+04  0.36516977298E+04 0.  0.
        4    1    3    3  502    0 -0.15427948954E+04 -0.53121994065E+03  0.27480207046E+03  0.16546686996E+04  0.12699999809E+01 0.  1.
       -4    1    3    3    0  502  0.15427948954E+04  0.53121994065E+03 -0.14461034605E+04  0.21802815290E+04  0.12699999809E+01 0. -1.
</event>
<event>
 5   0  0.2996969E-07  0.3658007E+04  0.7818609E-02  0.8077332E-01
        2   -1    0    0  501    0  0.00000000000E+00  0.00000000000E+00  0.19270045734E+04  0.19270045734E+04  0.25500000920E-02 0.  1.
       -2   -1    0    0    0  501  0.00000000000E+00  0.00000000000E+00 -0.17359861328E+04  0.17359861328E+04  0.25500000920E-02 0. -1.
    10030    2    1    2    0    0  0.00000000000E+00  0.00000000000E+00  0.19101844053E+03  0.36629907062E+04  0.36580066797E+04 0.  0.
        1    1    3    3  502    0 -0.13756058284E+04  0.11785915468E+04  0.34860601916E+03  0.18446939003E+04  0.50400001928E-02 0. -1.
       -1    1    3    3    0  502  0.13756058284E+04 -0.11785915468E+04 -0.15758757863E+03  0.18182968059E+04  0.50400001928E-02 0.  1.
</event>
<event>
 5   0  0.9341000E-08  0.3713873E+04  0.7818609E-02  0.8064894E-01
       -1   -1    0    0    0  501  0.00000000000E+00  0.00000000000E+00  0.11133969456E+04  0.11133969456E+04  0.50400001928E-02 0. -1.
        1   -1    0    0  501    0  0.00000000000E+00  0.00000000000E+00 -0.30970210119E+04  0.30970210119E+04  0.50400001928E-02 0.  1.
    10030    2    1    2    0    0  0.00000000000E+00  0.00000000000E+00 -0.19836240663E+04  0.42104179575E+04  0.37138733070E+04 0.  0.
        1    1    3    3  502    0 -0.63165651296E+03 -0.17419576173E+04 -0.85385680088E+03  0.20402151179E+04  0.50400001928E-02 0.  1.
       -1    1    3    3    0  502  0.63165651296E+03  0.17419576173E+04 -0.11297672654E+04  0.21702028396E+04  0.50400001928E-02 0. -1.
</event>
<event>
 5   0  0.9341000E-08  0.3707277E+04  0.7818609E-02  0.8066351E-01
        3   -1    0    0  501    0  0.00000000000E+00  0.00000000000E+00  0.14363792161E+04  0.14363792196E+04  0.10100000352E+00 0. -1.
       -3   -1    0    0    0  501  0.00000000000E+00  0.00000000000E+00 -0.23921084847E+04  0.23921084868E+04  0.10100000352E+00 0.  1.
    10030    2    1    2    0    0  0.00000000000E+00  0.00000000000E+00 -0.95572926863E+03  0.38284877065E+04  0.37072765858E+04 0.  0.
        4    1    3    3  502    0  0.71931019893E+03  0.22916951066E+03 -0.22261565892E+04  0.23506808799E+04  0.12699999809E+01 0.  1.
       -4    1    3    3    0  502 -0.71931019893E+03 -0.22916951066E+03  0.12704273205E+04  0.14778068265E+04  0.12699999809E+01 0. -1.
</event>
<event>
 5   0  0.2996969E-07  0.3764199E+04  0.7818609E-02  0.8053882E-01
       -2   -1    0    0    0  501  0.00000000000E+00  0.00000000000E+00  0.18602764697E+04  0.18602764697E+04  0.25500000920E-02 0.  1.
        2   -1    0    0  501    0  0.00000000000E+00  0.00000000000E+00 -0.19041783825E+04  0.19041783825E+04  0.25500000920E-02 0. -1.
    10030    2    1    2    0    0  0.00000000000E+00  0.00000000000E+00 -0.43901912716E+02  0.37644548522E+04  0.37641988466E+04 0.  0.
        1    1    3    3  502    0  0.79606465835E+03 -0.67552995709E+03 -0.15880199663E+04  0.19004912724E+04  0.50400001928E-02 0. -1.
       -1    1    3    3    0  502 -0.79606465835E+03  0.67552995709E+03  0.15441180536E+04  0.18639635798E+04  0.50400001928E-02 0.  1.
</event>
<event>
 5   0  0.9418945E-08  0.3674373E+04  0.7818609E-02  0.8073665E-01
        1   -1    0    0  501    0  0.00000000000E+00  0.00000000000E+00  0.26246359659E+04  0.26246359659E+04  0.50400001928E-02 0. -1.
       -1   -1    0    0    0  501  0.00000000000E+00  0.00000000000E+00 -0.12859897022E+04  0.12859897022E+04  0.50400001928E-02 0.  1.
    10030    2    1    2    0    0  0.00000000000E+00  0.00000000000E+00  0.13386462637E+04  0.39106256681E+04  0.36743733202E+04 0.  0.
        5    1    3    3  502    0  0.16356015549E+04 -0.20369767283E+03  0.15330104352E+04  0.22509616329E+04  0.46999998093E+01 0. -1.
       -5    1    3    3    0  502 -0.16356015549E+04  0.20369767283E+03 -0.19436417147E+03  0.16596640352E+04  0.46999998093E+01 0.  1.
</event>
<event>
 5   0  0.9418945E-08  0.3708855E+04  0.7818609E-02  0.8066002E-01
       -1   -1    0    0    0  501  0.00000000000E+00  0.00000000000E+00  0.19818578609E+04  0.19818578609E+04  0.50400001928E-02 0. -1.
        1   -1    0    0  501    0  0.00000000000E+00  0.00000000000E+00 -0.17351909002E+04  0.17351909002E+04  0.50400001928E-02 0.  1.
    10030    2    1    2    0    0  0.00000000000E+00  0.00000000000E+00  0.24666696070E+03  0.37170487612E+04  0.37088552012E+04 0.  0.
        5    1    3    3  502    0  0.98358098629E+03  0.12924590194E+04  0.10202954538E+04  0.19180476470E+04  0.46999998093E+01 0. -1.
       -5    1    3    3    0  502 -0.98358098629E+03 -0.12924590194E+04 -0.77362849307E+03  0.17990011141E+04  0.46999998093E+01 0.  1.
</event>
<event>
 5   0  0.9341000E-08  0.3698166E+04  0.7818609E-02  0.8068368E-01
       -1   -1    0    0    0  501  0.00000000000E+00  0.00000000000E+00  0.23004740693E+04  0.23004740693E+04  0.50400001928E-02 0. -1.
        1   -1    0    0  501    0  0.00000000000E+00  0.00000000000E+00 -0.14862625438E+04  0.14862625438E+04  0.50400001928E-02 0.  1.
    10030    2    1    2    0    0  0.00000000000E+00  0.00000000000E+00  0.81421152549E+03  0.37867366131E+04  0.36981662711E+04 0.  0.
        1    1    3    3  502    0  0.16199778430E+04  0.51891796690E+03  0.11493841800E+04  0.20529705457E+04  0.50400001928E-02 0. -1.
       -1    1    3    3    0  502 -0.16199778430E+04 -0.51891796690E+03 -0.33517265454E+03  0.17337660674E+04  0.50400001928E-02 0.  1.
</event>
<event>
 5   0  0.2913025E-07  0.3707870E+04  0.7818609E-02  0.8066220E-01
        2   -1    0    0  501    0  0.00000000000E+00  0.00000000000E+00  0.23642752160E+04  0.23642752160E+04  0.25500000920E-02 0.  1.
       -2   -1    0    0    0  501  0.00000000000E+00  0.00000000000E+00 -0.14537539054E+04  0.14537539054E+04  0.25500000920E-02 0. -1.
    10030    2    1    2    0    0  0.00000000000E+00  0.00000000000E+00  0.91052131064E+03  0.38180291214E+04  0.37078696464E+04 0.  0.
        5    1    3    3  502    0  0.54154955245E+03  0.84194930238E+03  0.20620359221E+04  0.22921973693E+04  0.46999998093E+01 0.  1.
       -5    1    3    3    0  502 -0.54154955245E+03 -0.84194930238E+03 -0.11515146115E+04  0.15258317522E+04  0.46999998093E+01 0. -1.
</event>
<event>
 5   0  0.2996969E-07  0.3677481E+04  0.7818609E-02  0.8072971E-01
       -2   -1    0    0    0  501  0.00000000000E+00  0.00000000000E+00  0.14987443880E+04  0.14987443880E+04  0.25500000920E-02 0. -1.
        2   -1    0    0  501    0  0.00000000000E+00  0.00000000000E+00 -0.22558656337E+04  0.22558656337E+04  0.25500000920E-02 0.  1.
    10030    2    1    2    0    0  0.00000000000E+00  0.00000000000E+00 -0.75712124569E+03  0.37546100217E+04  0.36774806368E+04 0.  0.
        1    1    3    3  502    0  0.13728037339E+04  0.18653544686E+03  0.85575377415E+03  0.16284041534E+04  0.50400001928E-02 0. -1.
       -1    1    3    3    0  502 -0.13728037339E+04 -0.18653544686E+03 -0.16128750198E+04  0.21262058683E+04  0.50400001928E-02 0.  1.
</event>
<event>
 5   0  0.9646615E-08  0.3719362E+04  0.7818609E-02  0.8063684E-01
        1   -1    0    0  501    0  0.00000000000E+00  0.00000000000E+00  0.19150437233E+04  0.19150437233E+04  0.50400001928E-02 0. -1.
       -1   -1    0    0    0  501  0.00000000000E+00  0.00000000000E+00 -0.18059189896E+04  0.18059189896E+04  0.50400001928E-02 0.  1.
    10030    2    1    2    0    0  0.00000000000E+00  0.00000000000E+00  0.10912473370E+03  0.37209627129E+04  0.37193622173E+04 0.  0.
        2    1    3    3  502    0  0.13010670032E+04 -0.86161210921E+03  0.10665623134E+04  0.18901602953E+04  0.25500000920E-02 0. -1.
       -2    1    3    3    0  502 -0.13010670032E+04  0.86161210921E+03 -0.95743757966E+03  0.18308024177E+04  0.25500000920E-02 0.  1.
</event>
<event>
 5   0  0.9418945E-08  0.3874608E+04  0.7818609E-02  0.8030331E-01
       -1   -1    0    0    0  501  0.00000000000E+00  0.00000000000E+00  0.17032722089E+04  0.17032722089E+04  0.50400001928E-02 0. -1.
        1   -1    0    0  501    0  0.00000000000E+00  0.00000000000E+00 -0.22034925165E+04  0.22034925165E+04  0.50400001928E-02 0.  1.
    10030    2    1    2    0    0  0.00000000000E+00  0.00000000000E+00 -0.50022030758E+03  0.39067647255E+04  0.38746084014E+04 0.  0.
        5    1    3    3  502    0 -0.18289328684E+03 -0.40051060946E+03 -0.21523694369E+04  0.21969467416E+04  0.46999998093E+01 0.  1.
       -5    1    3    3    0  502  0.18289328684E+03  0.40051060946E+03  0.16521491293E+04  0.17098179839E+04  0.46999998093E+01 0. -1.
</event>
<event>
 5   0  0.3032442E-07  0.3685958E+04  0.7818609E-02  0.8071081E-01
       -2   -1    0    0    0  501  0.00000000000E+00  0.00000000000E+00  0.21248450680E+04  0.21248450680E+04  0.25500000920E-02 0. -1.
        2   -1    0    0  501    0  0.00000000000E+00  0.00000000000E+00 -0.15985033526E+04  0.15985033526E+04  0.25500000920E-02 0.  1.
    10030    2    1    2    0    0  0.00000000000E+00  0.00000000000E+00  0.52634171540E+03  0.37233484205E+04  0.36859582010E+04 0.  0.
        3    1    3    3  502    0 -0.62617160103E+03 -0.12404536877E+04 -0.95979426698E+03  0.16887928441E+04  0.10100000352E+00 0.  1.
       -3    1    3    3    0  502  0.62617160103E+03  0.12404536877E+04  0.14861359824E+04  0.20345555764E+04  0.10100000352E+00 0. -1.
</event>
<event>
 5   0  0.2996969E-07  0.3674443E+04  0.7818609E-02  0.8073649E-01
        2   -1    0    0  501    0  0.00000000000E+00  0.00000000000E+00  0.21431575411E+04  0.21431575411E+04  0.25500000920E-02 0. -1.
       -2   -1    0    0    0  501  0.00000000000E+00  0.00000000000E+00 -0.15749582832E+04  0.15749582832E+04  0.25500000920E-02 0.  1.
    10030    2    1    2    0    0  0.00000000000E+00  0.00000000000E+00  0.56819925784E+03  0.37181158243E+04  0.36744434798E+04 0.  0.
        1    1    3    3  502    0  0.13682364952E+04 -0.59827237041E+03 -0.79884604033E+03  0.16935630877E+04  0.50400001928E-02 0.  1.
       -1    1    3    3    0  502 -0.13682364952E+04  0.59827237041E+03  0.13670452982E+04  0.20245527366E+04  0.50400001928E-02 0. -1.
</event>
<event>
 5   0  0.9646615E-08  0.3720837E+04  0.7818609E-02  0.8063360E-01
       -1   -1    0    0    0  501  0.00000000000E+00  0.00000000000E+00  0.13228574226E+04  0.13228574226E+04  0.50400001928E-02 0.  1.
        1   -1    0    0  501    0  0.00000000000E+00  0.00000000000E+00 -0.26164250415E+04  0.26164250415E+04  0.50400001928E-02 0. -1.
    10030    2    1    2    0    0  0.00000000000E+00  0.00000000000E+00 -0.12935676189E+04  0.39392824641E+04  0.37208371568E+04 0.  0.
        2    1    3    3  502    0 -0.45039109109E+03  0.10048393475E+04  0.94078608926E+03  0.14483206534E+04  0.25500000920E-02 0.  1.
       -2    1    3    3    0  502  0.45039109109E+03 -0.10048393475E+04 -0.22343537082E+04  0.24909618107E+04  0.25500000920E-02 0. -1.
</event>
<event>
 5   0  0.9418945E-08  0.3694703E+04  0.7818609E-02  0.8069137E-01
       -1   -1    0    0    0  501  0.00000000000E+00  0.00000000000E+00  0.12369453520E+04  0.12369453520E+04  0.50400001928E-02 0. -1.
        1   -1    0    0  501    0  0.00000000000E+00  0.00000000000E+00 -0.27589801000E+04  0.27589801000E+04  0.50400001928E-02 0.  1.
    10030    2    1    2    0    0  0.00000000000E+00  0.00000000000E+00 -0.15220347480E+04  0.39959254520E+04  0.36947030251E+04 0.  0.
        5    1    3    3  502    0 -0.17820309933E+04  0.46800111358E+03 -0.61581031267E+03  0.19426538381E+04  0.46999998093E+01 0.  1.
       -5    1    3    3    0  502  0.17820309933E+04 -0.46800111358E+03 -0.90622443529E+03  0.20532716139E+04  0.46999998093E+01 0. -1.
</event>
<event>
 5   0  0.9646615E-08  0.3666018E+04  0.7818609E-02  0.8075535E-01
        1   -1    0    0  501    0  0.00000000000E+00  0.00000000000E+00  0.17961506531E+04  0.17961506531E+04  0.50400001928E-02 0.  1.
       -1   -1    0    0    0  501  0.00000000000E+00  0.00000000000E+00 -0.18706239091E+04  0.18706239091E+04  0.50400001928E-02 0. -1.
    10030    2    1    2    0    0  0.00000000000E+00  0.00000000000E+00 -0.74473255998E+02  0.36667745622E+04  0.36660181974E+04 0.  0.
        2    1    3    3  502    0  0.16699894619E+04  0.51863733916E+03  0.51248832352E+03  0.18222222077E+04  0.25500000920E-02 0.  1.
       -2    1    3    3    0  502 -0.16699894619E+04 -0.51863733916E+03 -0.58696157951E+03  0.18445523545E+04  0.25500000920E-02 0. -1.
</event>
<event>
 5   0  0.9341000E-08  0.3737720E+04  0.7818609E-02  0.8059654E-01
       -3   -1    0    0    0  501  0.00000000000E+00  0.00000000000E+00  0.18469987538E+04  0.18469987566E+04  0.10100000352E+00 0. -1.
        3   -1    0    0  501    0  0.00000000000E+00  0.00000000000E+00 -0.18909797608E+04  0.18909797635E+04  0.10100000352E+00 0.  1.
    10030    2    1    2    0    0  0.00000000000E+00  0.00000000000E+00 -0.43981006948E+02  0.37379785201E+04  0.37377197711E+04 0.  0.
        2    1    3    3  502    0  0.11264667220E+04  0.14401350361E+04 -0.40895536483E+03  0.18735422836E+04  0.25500000920E-02 0. -1.
       -2    1    3    3    0  502 -0.11264667220E+04 -0.14401350361E+04  0.36497435788E+03  0.18644362365E+04  0.25500000920E-02 0.  1.
</event>
<event>
 5   0  0.9646615E-08  0.3625488E+04  0.7818609E-02  0.8084678E-01
        1   -1    0    0  501    0  0.00000000000E+00  0.00000000000E+00  0.11885797637E+04  0.11885797637E+04  0.50400001928E-02 0. -1.
       -1   -1    0    0    0  501  0.00000000000E+00  0.00000000000E+00 -0.27646780809E+04  0.27646780809E+04  0.50400001928E-02 0.  1.
    10030    2    1    2    0    0  0.00000000000E+00  0.00000000000E+00 -0.15760983172E+04  0.39532578446E+04  0.36254877852E+04 0.  0.
        2    1    3    3  502    0 -0.10238175694E+04  0.99719993867E+03  0.42785520177E+03  0.14918680259E+04  0.25500000920E-02 0. -1.
       -2    1    3    3    0  502  0.10238175694E+04 -0.99719993867E+03 -0.20039535189E+04  0.24613898186E+04  0.25500000920E-02 0.  1.
</event>
<event>
 5   0  0.3032442E-07  0.3686588E+04  0.7818609E-02  0.8070941E-01
        2   -1    0    0  501    0  0.00000000000E+00  0.00000000000E+00  0.23142957460E+04  0.23142957460E+04  0.25500000920E-02 0.  1.
       -2   -1    0    0    0  501  0.00000000000E+00  0.00000000000E+00 -0.14681499794E+04  0.14681499794E+04  0.25500000920E-02 0. -1.
    10030    2    1    2    0    0  0.00000000000E+00  0.00000000000E+00  0.84614576664E+03  0.37824457254E+04  0.36865882611E+04 0.  0.
        3    1    3    3  502    0 -0.16576460051E+04  0.58844436336E+03 -0.14232404347E+03  0.17647416781E+04  0.10100000352E+00 0. -1.
       -3    1    3    3    0  502  0.16576460051E+04 -0.58844436336E+03  0.98846981011E+03  0.20177040473E+04  0.10100000352E+00 0.  1.
</event>
<event>
 5   0  0.3008879E-07  0.3690976E+04  0.7818609E-02  0.8069965E-01
       -2   -1    0    0    0  501  0.00000000000E+00  0.00000000000E+00  0.21221257982E+04  0.21221257982E+04  0.25500000920E-02 0. -1.
        2   -1    0    0  501    0  0.00000000000E+00  0.00000000000E+00 -0.16049124680E+04  0.16049124680E+04  0.25500000920E-02 0.  1.
    10030    2    1    2    0    0  0.00000000000E+00  0.00000000000E+00  0.51721333022E+03  0.37270382663E+04  0.36909761052E+04 0.  0.
        2    1    3    3  502    0  0.40008225648E+03 -0.17677625255E+04 -0.92317219567E+02  0.18148202741E+04  0.25500000920E-02 0.  1.
       -2    1    3    3    0  502 -0.40008225648E+03  0.17677625255E+04  0.60953054978E+03  0.19122179921E+04  0.25500000920E-02 0. -1.
</event>
<event>
 5   0  0.2996969E-07  0.3700977E+04  0.7818609E-02  0.8067745E-01
       -2   -1    0    0    0  501  0.00000000000E+00  0.00000000000E+00  0.17364366970E+04  0.17364366970E+04  0.25500000920E-02 0. -1.
        2   -1    0    0  501    0  0.00000000000E+00  0.00000000000E+00 -0.19720319061E+04  0.19720319061E+04  0.25500000920E-02 0.  1.
    10030    2    1    2    0    0  0.00000000000E+00  0.00000000000E+00 -0.23559520906E+03  0.37084686031E+04  0.37009774760E+04 0.  0.
        1    1    3    3  502    0 -0.91215337803E+03 -0.62371090459E+03 -0.16051434852E+04  0.19487238608E+04  0.50400001928E-02 0.  1.
       -1    1    3    3    0  502  0.91215337803E+03  0.62371090459E+03  0.13695482761E+04  0.17597447423E+04  0.50400001928E-02 0. -1.
</event>
<event>
 5   0  0.9646615E-08  0.3712615E+04  0.7818609E-02  0.8065172E-01
       -1   -1    0    0    0  501  0.00000000000E+00  0.00000000000E+00  0.26009486005E+04  0.26009486005E+04  0.50400001928E-02 0.  1.
        1   -1    0    0  501    0  0.00000000000E+00  0.00000000000E+00 -0.13248539816E+04  0.13248539816E+04  0.50400001928E-02 0. -1.
    10030    2    1    2    0    0  0.00000000000E+00  0.00000000000E+00  0.12760946189E+04  0.39258025822E+04  0.37126147710E+04 0.  0.
        2    1    3    3  502    0  0.79673306726E+02 -0.18220848540E+04  0.27245417309E+03  0.18440640790E+04  0.25500000920E-02 0.  1.
       -2    1    3    3    0  502 -0.79673306726E+02  0.18220848540E+04  0.10036404458E+04  0.20817385032E+04  0.25500000920E-02 0. -1.
</event>
<event>
 5   0  0.2897133E-07  0.3710192E+04  0.7818609E-02  0.8065707E-01
        2   -1    0    0  501    0  0.00000000000E+00  0.00000000000E+00  0.15378216896E+04  0.15378216896E+04  0.25500000920E-02 0.  1.
       -2   -1    0    0    0  501  0.00000000000E+00  0.00000000000E+00 -0.22378280096E+04  0.22378280096E+04  0.25500000920E-02 0. -1.
    10030    2    1    2    0    0  0.00000000000E+00  0.00000000000E+00 -0.70000631996E+03  0.37756496992E+04  0.37101916127E+04 0.  0.
        4    1    3    3  502    0  0.14878592602E+04  0.10709314839E+04 -0.60807386834E+02  0.18342078870E+04  0.12699999809E+01 0.  1.
       -4    1    3    3    0  502 -0.14878592602E+04 -0.10709314839E+04 -0.63919893313E+03  0.19414418123E+04  0.12699999809E+01 0. -1.
</event>
<event>
 5   0  0.9341000E-08  0.3694447E+04  0.7818609E-02  0.8069194E-01
        1   -1    0    0  501    0  0.00000000000E+00  0.00000000000E+00  0.25803182050E+04  0.25803182050E+04  0.50400001928E-02 0. -1.
       -1   -1    0    0    0  501  0.00000000000E+00  0.00000000000E+00 -0.13224081875E+04  0.13224081875E+04  0.50400001928E-02 0.  1.
    10030    2    1    2    0    0  0.00000000000E+00  0.00000000000E+00  0.12579100174E+04  0.39027263925E+04  0.36944466003E+04 0.  0.
        1    1    3    3  502    0  0.63423012942E+02 -0.54669399227E+03  0.24916966257E+04  0.25517540780E+04  0.50400001928E-02 0. -1.
       -1    1    3    3    0  502 -0.63423012942E+02  0.54669399227E+03 -0.12337866083E+04  0.13509723145E+04  0.50400001928E-02 0.  1.
</event>
<event>
 5   0  0.9341000E-08  0.3712498E+04  0.7818609E-02  0.8065198E-01
       -1   -1    0    0    0  501  0.00000000000E+00  0.00000000000E+00  0.15986460960E+04  0.15986460960E+04  0.50400001928E-02 0. -1.
        1   -1    0    0  501    0  0.00000000000E+00  0.00000000000E+00 -0.21553616790E+04  0.21553616790E+04  0.50400001928E-02 0.  1.
    10030    2    1    2    0    0  0.00000000000E+00  0.00000000000E+00 -0.55671558295E+03  0.37540077750E+04  0.37124980989E+04 0.  0.
        4    1    3    3  502    0  0.83670330601E+01  0.17253432285E+04  0.41397245655E+03  0.17743320070E+04  0.12699999809E+01 0. -1.
       -4    1    3    3    0  502 -0.83670330601E+01 -0.17253432285E+04 -0.97068803950E+03  0.19796757680E+04  0.12699999809E+01 0.  1.
</event>
<event>
 5   0  0.3032442E-07  0.3705844E+04  0.7818609E-02  0.8066668E-01
        2   -1    0    0  501    0  0.00000000000E+00  0.00000000000E+00  0.24790772803E+04  0.24790772803E+04  0.25500000920E-02 0.  1.
       -2   -1    0    0    0  501  0.00000000000E+00  0.00000000000E+00 -0.13849187808E+04  0.13849187808E+04  0.25500000920E-02 0. -1.
    10030    2    1    2    0    0  0.00000000000E+00  0.00000000000E+00  0.10941584995E+04  0.38639960610E+04  0.37058444028E+04 0.  0.
        3    1    3    3  502    0  0.89598467754E+03  0.14073406796E+04 -0.29350431891E+03  0.16939719969E+04  0.10100000352E+00 0.  1.
       -3    1    3    3    0  502 -0.89598467754E+03 -0.14073406796E+04  0.13876628184E+04  0.21700240641E+04  0.10100000352E+00 0. -1.
</event>
<event>
 5   0  0.9418945E-08  0.3687781E+04  0.7818609E-02  0.8070675E-01
        1   -1    0    0  501    0  0.00000000000E+00  0.00000000000E+00  0.21863340509E+04  0.21863340509E+04  0.50400001928E-02 0.  1.
       -1   -1    0    0    0  501  0.00000000000E+00  0.00000000000E+00 -0.15550832908E+04  0.15550832908E+04  0.50400001928E-02 0. -1.
    10030    2    1    2    0    0  0.00000000000E+00  0.00000000000E+00  0.63125076009E+03  0.37414173416E+04  0.36877806608E+04 0.  0.
        5    1    3    3  502    0 -0.63312382200E+02 -0.13084319972E+04 -0.10009025782E+04  0.16485844867E+04  0.46999998093E+01 0. -1.
       -5    1    3    3    0  502  0.63312382200E+02  0.13084319972E+04  0.16321533383E+04  0.20928328549E+04  0.46999998093E+01 0.  1.
</event>
<event>
 5   0  0.3032442E-07  0.3702214E+04  0.7818609E-02  0.8067471E-01
       -2   -1    0    0    0  501  0.00000000000E+00  0.00000000000E+00  0.10754367104E+04  0.10754367104E+04  0.25500000920E-02 0. -1.
        2   -1    0    0  501    0  0.00000000000E+00  0.00000000000E+00 -0.31862379704E+04  0.31862379704E+04  0.25500000920E-02 0.  1.
    10030    2    1    2    0    0  0.00000000000E+00  0.00000000000E+00 -0.21108012600E+04  0.42616746808E+04  0.37022140842E+04 0.  0.
        3    1    3    3  502    0 -0.11162863111E+03 -0.14370236839E+04 -0.23924292890E+04  0.27930656871E+04  0.10100000352E+00 0.  1.
       -3    1    3    3    0  502  0.11162863111E+03  0.14370236839E+04  0.28162802899E+03  0.14686089936E+04  0.10100000352E+00 0. -1.
</event>
<event>
 5   0  0.9341000E-08  0.3658047E+04  0.7818609E-02  0.8077323E-01
        1   -1    0    0  501    0  0.00000000000E+00  0.00000000000E+00  0.15982629598E+04  0.15982629598E+04  0.50400001928E-02 0. -1.
       -1   -1    0    0    0  501  0.00000000000E+00  0.00000000000E+00 -0.20931013822E+04  0.20931013822E+04  0.50400001928E-02 0.  1.
    10030    2    1    2    0    0  0.00000000000E+00  0.00000000000E+00 -0.49483842244E+03  0.36913643420E+04  0.36580466975E+04 0.  0.
        1    1    3    3  502    0  0.22343064346E+03 -0.15911806907E+04 -0.11291909419E+04  0.19638863069E+04  0.50400001928E-02 0.  1.
       -1    1    3    3    0  502 -0.22343064346E+03  0.15911806907E+04  0.63435251947E+03  0.17274780352E+04  0.50400001928E-02 0. -1.
</event>
<event>
 5   0  0.9341000E-08  0.3715288E+04  0.7818609E-02  0.8064582E-01
        3   -1    0    0  501    0  0.00000000000E+00  0.00000000000E+00  0.25459738858E+04  0.25459738878E+04  0.10100000352E+00 0. -1.
       -3   -1    0    0    0  501  0.00000000000E+00  0.00000000000E+00 -0.13554114342E+04  0.13554114380E+04  0.10100000352E+00 0.  1.
    10030    2    1    2    0    0  0.00000000000E+00  0.00000000000E+00  0.11905624516E+04  0.39013853258E+04  0.37152884827E+04 0.  0.
        2    1    3    3  502    0 -0.15766381903E+04 -0.81433770152E+03  0.11722652611E+04  0.21267674339E+04  0.25500000920E-02 0.  1.
       -2    1    3    3    0  502  0.15766381903E+04  0.81433770152E+03  0.18297190522E+02  0.17746178920E+04  0.25500000920E-02 0. -1.
</event>
<event>
 5   0  0.2913025E-07  0.3771527E+04  0.7818609E-02  0.8052293E-01
        2   -1    0    0  501    0  0.00000000000E+00  0.00000000000E+00  0.29294747123E+04  0.29294747123E+04  0.25500000920E-02 0.  1.
       -2   -1    0    0    0  501  0.00000000000E+00  0.00000000000E+00 -0.12139051365E+04  0.12139051365E+04  0.25500000920E-02 0. -1.
    10030    2    1    2    0    0  0.00000000000E+00  0.00000000000E+00  0.17155695757E+04  0.41433798488E+04  0.37715272241E+04 0.  0.
        5    1    3    3  502    0 -0.16217702400E+04 -0.61762116091E+03  0.16684313397E+04  0.24073387453E+04  0.46999998093E+01 0.  1.
       -5    1    3    3    0  502  0.16217702400E+04  0.61762116091E+03  0.47138236055E+02  0.17360411035E+04  0.46999998093E+01 0. -1.
</event>
<event>
 5   0  0.9341000E-08  0.3707408E+04  0.7818609E-02  0.8066322E-01
        1   -1    0    0  501    0  0.00000000000E+00  0.00000000000E+00  0.22375924813E+04  0.22375924813E+04  0.50400001928E-02 0. -1.
       -1   -1    0    0    0  501  0.00000000000E+00  0.00000000000E+00 -0.15356766842E+04  0.15356766842E+04  0.50400001928E-02 0.  1.
    10030    2    1    2    0    0  0.00000000000E+00  0.00000000000E+00  0.70191579711E+03  0.37732691655E+04  0.37074080445E+04 0.  0.
        1    1    3    3  502    0  0.97489149519E+03  0.15489468138E+04  0.51505045090E+02  0.18309293894E+04  0.50400001928E-02 0.  1.
       -1    1    3    3    0  502 -0.97489149519E+03 -0.15489468138E+04  0.65041075202E+03  0.19423397761E+04  0.50400001928E-02 0. -1.
</event>
<event>
 5   0  0.2913025E-07  0.3711846E+04  0.7818609E-02  0.8065342E-01
       -2   -1    0    0    0  501  0.00000000000E+00  0.00000000000E+00  0.15136246622E+04  0.15136246622E+04  0.25500000920E-02 0. -1.
        2   -1    0    0  501    0  0.00000000000E+00  0.00000000000E+00 -0.22756300843E+04  0.22756300843E+04  0.25500000920E-02 0.  1.
    10030    2    1    2    0    0  0.00000000000E+00  0.00000000000E+00 -0.76200542209E+03  0.37892547465E+04  0.37118458037E+04 0.  0.
        5    1    3    3  502    0  0.48886464157E+03  0.17663501300E+04 -0.67941075639E+03  0.19546361517E+04  0.46999998093E+01 0. -1.
       -5    1    3    3    0  502 -0.48886464157E+03 -0.17663501300E+04 -0.82594665698E+02  0.18346185948E+04  0.46999998093E+01 0.  1.
</event>
<event>
 5   0  0.9646615E-08  0.3695071E+04  0.7818609E-02  0.8069055E-01
        1   -1    0    0  501    0  0.00000000000E+00  0.00000000000E+00  0.15775799464E+04  0.15775799464E+04  0.50400001928E-02 0. -1.
       -1   -1    0    0    0  501  0.00000000000E+00  0.00000000000E+00 -0.21636861122E+04  0.21636861122E+04  0.50400001928E-02 0.  1.
    10030    2    1    2    0    0  0.00000000000E+00  0.00000000000E+00 -0.58610616584E+03  0.37412660586E+04  0.36950712150E+04 0.  0.
        2    1    3    3  502    0  0.11980985700E+04  0.14030841056E+04 -0.39070902198E+03  0.18859317937E+04  0.25500000920E-02 0.  1.
       -2    1    3    3    0  502 -0.11980985700E+04 -0.14030841056E+04 -0.19539714386E+03  0.18553342649E+04  0.25500000920E-02 0. -1.
</event>
<event>
 5   0  0.9341000E-08  0.3370758E+04  0.7818609E-02  0.8145121E-01
       -1   -1    0    0    0  501  0.00000000000E+00  0.00000000000E+00  0.14808163924E+04  0.14808163924E+04  0.50400001928E-02 0. -1.
        1   -1    0    0  501    0  0.00000000000E+00  0.00000000000E+00 -0.19182001308E+04  0.19182001308E+04  0.50400001928E-02 0.  1.
    10030    2    1    2    0    0  0.00000000000E+00  0.00000000000E+00 -0.43738373835E+03  0.33990165232E+04  0.33707578955E+04 0.  0.
        3    1    3    3  502    0  0.42078452401E+03 -0.16261890256E+04 -0.79872127189E+02  0.16816450069E+04  0.10100000352E+00 0. -1.
       -3    1    3    3    0  502 -0.42078452401E+03  0.16261890256E+04 -0.35751161116E+03  0.17173715162E+04  0.10100000352E+00 0.  1.
</event>
<event>
 5   0  0.9418945E-08  0.3699700E+04  0.7818609E-02  0.8068028E-01
       -1   -1    0    0    0  501  0.00000000000E+00  0.00000000000E+00  0.16701979877E+04  0.16701979877E+04  0.50400001928E-02 0. -1.
        1   -1    0    0  501    0  0.00000000000E+00  0.00000000000E+00 -0.20488261761E+04  0.20488261761E+04  0.50400001928E-02 0.  1.
    10030    2    1    2    0    0  0.00000000000E+00  0.00000000000E+00 -0.37862818846E+03  0.37190241638E+04  0.36997001806E+04 0.  0.
        5    1    3    3  502    0 -0.75265847976E+03  0.29960929713E+03 -0.18610284787E+04  0.20297067785E+04  0.46999998093E+01 0.  1.
       -5    1    3    3    0  502  0.75265847976E+03 -0.29960929713E+03  0.14824002902E+04  0.16893173854E+04  0.46999998093E+01 0. -1.
</event>
<event>
 5   0  0.3008879E-07  0.3715615E+04  0.7818609E-02  0.8064510E-01
       -2   -1    0    0    0  501  0.00000000000E+00  0.00000000000E+00  0.25811714982E+04  0.25811714982E+04  0.25500000920E-02 0. -1.
        2   -1    0    0  501    0  0.00000000000E+00  0.00000000000E+00 -0.13371639737E+04  0.13371639737E+04  0.25500000920E-02 0.  1.
    10030    2    1    2    0    0  0.00000000000E+00  0.00000000000E+00  0.12440075245E+04  0.39183354719E+04  0.37156154469E+04 0.  0.
        2    1    3    3  502    0 -0.62004155232E+03 -0.88053948775E+03  0.22184152053E+04  0.24660022992E+04  0.25500000920E-02 0. -1.
       -2    1    3    3    0  502  0.62004155232E+03  0.88053948775E+03 -0.97440768088E+03  0.14523331727E+04  0.25500000920E-02 0.  1.
</event>
<event>
 5   0  0.2996969E-07  0.3590456E+04  0.7818609E-02  0.8092681E-01
       -2   -1    0    0    0  501  0.00000000000E+00  0.00000000000E+00  0.11965779496E+04  0.11965779496E+04  0.25500000920E-02 0.  1.
        2   -1    0    0  501    0  0.00000000000E+00  0.00000000000E+00 -0.26933829865E+04  0.26933829865E+04  0.25500000920E-02 0. -1.
    10030    2    1    2    0    0  0.00000000000E+00  0.00000000000E+00 -0.14968050368E+04  0.38899609361E+04  0.35904555095E+04 0.  0.
        1    1    3    3  502    0  0.15564852319E+04 -0.89160330546E+03 -0.66997658938E+03  0.19148032175E+04  0.50400001928E-02 0.  1.
       -1    1    3    3    0  502 -0.15564852319E+04  0.89160330546E+03 -0.82682844747E+03  0.19751577186E+04  0.50400001928E-02 0. -1.
</event>
<event>
 5   0  0.9341000E-08  0.3716054E+04  0.7818609E-02  0.8064413E-01
        1   -1    0    0  501    0  0.00000000000E+00  0.00000000000E+00  0.25741554209E+04  0.25741554209E+04  0.50400001928E-02 0.  1.
       -1   -1    0    0    0  501  0.00000000000E+00  0.00000000000E+00 -0.13411250468E+04  0.13411250468E+04  0.50400001928E-02 0. -1.
    10030    2    1    2    0    0  0.00000000000E+00  0.00000000000E+00  0.12330303741E+04  0.39152804677E+04  0.37160539874E+04 0.  0.
        1    1    3    3  502    0  0.48009127684E+03  0.13577070215E+04 -0.62048511504E+03  0.15680745417E+04  0.50400001928E-02 0. -1.
       -1    1    3    3    0  502 -0.48009127684E+03 -0.13577070215E+04  0.18535154891E+04  0.23472059259E+04  0.50400001928E-02 0.  1.
</event>
<event>
 5   0  0.9341000E-08  0.3713678E+04  0.7818609E-02  0.8064937E-01
       -1   -1    0    0    0  501  0.00000000000E+00  0.00000000000E+00  0.22096712170E+04  0.22096712170E+04  0.50400001928E-02 0. -1.
        1   -1    0    0  501    0  0.00000000000E+00  0.00000000000E+00 -0.15603453437E+04  0.15603453437E+04  0.50400001928E-02 0.  1.
    10030    2    1    2    0    0  0.00000000000E+00  0.00000000000E+00  0.64932587333E+03  0.37700165607E+04  0.37136775275E+04 0.  0.
        3    1    3    3  502    0  0.11733692625E+04  0.32933377520E+03  0.17468420765E+04  0.21299561996E+04  0.10100000352E+00 0. -1.
       -3    1    3    3    0  502 -0.11733692625E+04 -0.32933377520E+03 -0.10975162032E+04  0.16400603611E+04  0.10100000352E+00 0.  1.
</event>
<event>
 5   0  0.9341000E-08  0.3695907E+04  0.7818609E-02  0.8068870E-01
        1   -1    0    0  501    0  0.00000000000E+00  0.00000000000E+00  0.10839880982E+04  0.10839880982E+04  0.50400001928E-02 0.  1.
       -1   -1    0    0    0  501  0.00000000000E+00  0.00000000000E+00 -0.31503406335E+04  0.31503406335E+04  0.50400001928E-02 0. -1.
    10030    2    1    2    0    0  0.00000000000E+00  0.00000000000E+00 -0.20663525353E+04  0.42343287318E+04  0.36959067911E+04 0.  0.
        3    1    3    3  502    0  0.19038189325E+03 -0.17961663101E+04 -0.58581320387E+03  0.18988511787E+04  0.10100000352E+00 0.  1.
       -3    1    3    3    0  502 -0.19038189325E+03  0.17961663101E+04 -0.14805393314E+04  0.23354775531E+04  0.10100000352E+00 0. -1.
</event>
<event>
 5   0  0.9341000E-08  0.3683915E+04  0.7818609E-02  0.8071536E-01
       -1   -1    0    0    0  501  0.00000000000E+00  0.00000000000E+00  0.15766571090E+04  0.15766571090E+04  0.50400001928E-02 0.  1.
        1   -1    0    0  501    0  0.00000000000E+00  0.00000000000E+00 -0.21518996287E+04  0.21518996287E+04  0.50400001928E-02 0. -1.
    10030    2    1    2    0    0  0.00000000000E+00  0.00000000000E+00 -0.57524251973E+03  0.37285567376E+04  0.36839152256E+04 0.  0.
        4    1    3    3  502    0 -0.12960543411E+04  0.11481772579E+04 -0.92351682605E+03  0.19623844709E+04  0.12699999809E+01 0. -1.
       -4    1    3    3    0  502  0.12960543411E+04 -0.11481772579E+04  0.34827430633E+03  0.17661722668E+04  0.12699999809E+01 0.  1.
</event>
<event>
 5   0  0.2996969E-07  0.4024953E+04  0.7818609E-02  0.7999532E-01
       -2   -1    0    0    0  501  0.00000000000E+00  0.00000000000E+00  0.11549769334E+04  0.11549769334E+04  0.25500000920E-02 0. -1.
        2   -1    0    0  501    0  0.00000000000E+00  0.00000000000E+00 -0.35066163861E+04  0.35066163861E+04  0.25500000920E-02 0.  1.
    10030    2    1    2    0    0  0.00000000000E+00  0.00000000000E+00 -0.23516394528E+04  0.46615933195E+04  0.40249526905E+04 0.  0.
        1    1    3    3  502    0  0.73203977736E+03  0.26755396365E+03 -0.33247211140E+04  0.34148554647E+04  0.50400001928E-02 0.  1.
       -1    1    3    3    0  502 -0.73203977736E+03 -0.26755396365E+03  0.97308166122E+03  0.12467378548E+04  0.50400001928E-02 0. -1.
</event>
<event>
 5   0  0.3032442E-07  0.3691614E+04  0.7818609E-02  0.8069823E-01
       -2   -1    0    0    0  501  0.00000000000E+00  0.00000000000E+00  0.15675507499E+04  0.15675507499E+04  0.25500000920E-02 0.  1.
        2   -1    0    0  501    0  0.00000000000E+00  0.00000000000E+00 -0.21734566849E+04  0.21734566849E+04  0.25500000920E-02 0. -1.
    10030    2    1    2    0    0  0.00000000000E+00  0.00000000000E+00 -0.60590593504E+03  0.37410074348E+04  0.36916140948E+04 0.  0.
        3    1    3    3  502    0 -0.27783085267E+03 -0.54116588037E+03  0.14630495656E+04  0.15844761072E+04  0.10100000352E+00 0.  1.
       -3    1    3    3    0  502  0.27783085267E+03  0.54116588037E+03 -0.20689555007E+04  0.21565313275E+04  0.10100000352E+00 0. -1.
</event>
<event>
 5   0  0.9341000E-08  0.3678762E+04  0.7818609E-02  0.8072685E-01
       -1   -1    0    0    0  501  0.00000000000E+00  0.00000000000E+00  0.16811672849E+04  0.16811672849E+04  0.50400001928E-02 0.  1.
        1   -1    0    0  501    0  0.00000000000E+00  0.00000000000E+00 -0.20124837948E+04  0.20124837948E+04  0.50400001928E-02 0. -1.
    10030    2    1    2    0    0  0.00000000000E+00  0.00000000000E+00 -0.33131650995E+03  0.36936510797E+04  0.36787617032E+04 0.  0.
        3    1    3    3  502    0  0.12097247628E+04  0.10024526798E+04 -0.11260738155E+04  0.19329737777E+04  0.10100000352E+00 0. -1.
       -3    1    3    3    0  502 -0.12097247628E+04 -0.10024526798E+04  0.79475730555E+03  0.17606773021E+04  0.10100000352E+00 0.  1.
</event>
<event>
 5   0  0.2897133E-07  0.3716373E+04  0.7818609E-02  0.8064343E-01
       -2   -1    0    0    0  501  0.00000000000E+00  0.00000000000E+00  0.24191886441E+04  0.24191886441E+04  0.25500000920E-02 0.  1.
        2   -1    0    0  501    0  0.00000000000E+00  0.00000000000E+00 -0.14272792479E+04  0.14272792479E+04  0.25500000920E-02 0. -1.
    10030    2    1    2    0    0  0.00000000000E+00  0.00000000000E+00  0.99190939611E+03  0.38464678920E+04  0.37163733658E+04 0.  0.
        4    1    3    3  502    0 -0.12096095024E+04 -0.13953862678E+04  0.28233654993E+03  0.18681470834E+04  0.12699999809E+01 0. -1.
       -4    1    3    3    0  502  0.12096095024E+04  0.13953862678E+04  0.70957284618E+03  0.19783208086E+04  0.12699999809E+01 0.  1.
</event>
<event>
 5   0  0.9341000E-08  0.3818006E+04  0.7818609E-02  0.8042302E-01
        1   -1    0    0  501    0  0.00000000000E+00  0.00000000000E+00  0.28737513597E+04  0.28737513597E+04  0.50400001928E-02 0. -1.
       -1   -1    0    0    0  501  0.00000000000E+00  0.00000000000E+00 -0.12681309262E+04  0.12681309262E+04  0.50400001928E-02 0.  1.
    10030    2    1    2    0    0  0.00000000000E+00  0.00000000000E+00  0.16056204335E+04  0.41418822858E+04  0.38180062720E+04 0.  0.
        3    1    3    3  502    0 -0.17686375199E+04  0.54647160766E+03  0.13088371852E+04  0.22671049120E+04  0.10100000352E+00 0. -1.
       -3    1    3    3    0  502  0.17686375199E+04 -0.54647160766E+03  0.29678324835E+03  0.18747773738E+04  0.10100000352E+00 0.  1.
</event>
<event>
 5   0  0.9341000E-08  0.3716962E+04  0.7818609E-02  0.8064213E-01
       -1   -1    0    0    0  501  0.00000000000E+00  0.00000000000E+00  0.12784148780E+04  0.12784148780E+04  0.50400001928E-02 0.  1.
        1   -1    0    0  501    0  0.00000000000E+00  0.00000000000E+00 -0.27017452610E+04  0.27017452610E+04  0.50400001928E-02 0. -1.
    10030    2    1    2    0    0  0.00000000000E+00  0.00000000000E+00 -0.14233303830E+04  0.39801601390E+04  0.37169618445E+04 0.  0.
        3    1    3    3  502    0 -0.29642915802E+03 -0.18097136507E+04 -0.38861121097E+03  0.18745539274E+04  0.10100000352E+00 0.  1.
       -3    1    3    3    0  502  0.29642915802E+03  0.18097136507E+04 -0.10347191720E+04  0.21056062116E+04  0.10100000352E+00 0. -1.
</event>
<event>
 5   0  0.2913025E-07  0.3765830E+04  0.7818609E-02  0.8053528E-01
        2   -1    0    0  501    0  0.00000000000E+00  0.00000000000E+00  0.14942734709E+04  0.14942734709E+04  0.25500000920E-02 0. -1.
       -2   -1    0    0    0  501  0.00000000000E+00  0.00000000000E+00 -0.23726367448E+04  0.23726367448E+04  0.25500000920E-02 0.  1.
    10030    2    1    2    0    0  0.00000000000E+00  0.00000000000E+00 -0.87836327386E+03  0.38669102157E+04  0.37658295999E+04 0.  0.
        5    1    3    3  502    0 -0.97293050593E+03 -0.88520724819E+03  0.94426027724E+03  0.16192082024E+04  0.46999998093E+01 0. -1.
       -5    1    3    3    0  502  0.97293050593E+03  0.88520724819E+03 -0.18226235511E+04  0.22477020133E+04  0.46999998093E+01 0.  1.
</event>
<event>
 5   0  0.9341000E-08  0.3586375E+04  0.7818609E-02  0.8093620E-01
       -1   -1    0    0    0  501  0.00000000000E+00  0.00000000000E+00  0.15698053819E+04  0.15698053819E+04  0.50400001928E-02 0. -1.
        1   -1    0    0  501    0  0.00000000000E+00  0.00000000000E+00 -0.20483563297E+04  0.20483563297E+04  0.50400001928E-02 0.  1.
    10030    2    1    2    0    0  0.00000000000E+00  0.00000000000E+00 -0.47855094782E+03  0.36181617116E+04  0.35863746544E+04 0.  0.
        4    1    3    3  502    0  0.61686680838E+03 -0.15996226302E+04  0.29093181546E+03  0.17389537523E+04  0.12699999809E+01 0. -1.
       -4    1    3    3    0  502 -0.61686680838E+03  0.15996226302E+04 -0.76948276328E+03  0.18792079593E+04  0.12699999809E+01 0.  1.
</event>
<event>
 5   0  0.9341000E-08  0.3697964E+04  0.7818609E-02  0.8068413E-01
        1   -1    0    0  501    0  0.00000000000E+00  0.00000000000E+00  0.23243587744E+04  0.23243587744E+04  0.50400001928E-02 0.  1.
       -1   -1    0    0    0  501  0.00000000000E+00  0.00000000000E+00 -0.14708289416E+04  0.14708289416E+04  0.50400001928E-02 0. -1.
    10030    2    1    2    0    0  0.00000000000E+00  0.00000000000E+00  0.85352983284E+03  0.37951877160E+04  0.36979638484E+04 0.  0.
        3    1    3    3  502    0 -0.89482996643E+03 -0.15465202233E+04 -0.61439845541E+02  0.17877976213E+04  0.10100000352E+00 0. -1.
       -3    1    3    3    0  502  0.89482996643E+03  0.15465202233E+04  0.91496967839E+03  0.20073900947E+04  0.10100000352E+00 0.  1.
</event>
<event>
 5   0  0.3008879E-07  0.3672261E+04  0.7818609E-02  0.8074137E-01
       -2   -1    0    0    0  501  0.00000000000E+00  0.00000000000E+00  0.13943179817E+04  0.13943179817E+04  0.25500000920E-02 0. -1.
        2   -1    0    0  501    0  0.00000000000E+00  0.00000000000E+00 -0.24179389985E+04  0.24179389985E+04  0.25500000920E-02 0.  1.
    10030    2    1    2    0    0  0.00000000000E+00  0.00000000000E+00 -0.10236210168E+04  0.38122569802E+04  0.36722613329E+04 0.  0.
        2    1    3    3  502    0 -0.10755755532E+04  0.14550811946E+04 -0.18806977429E+03  0.18192015539E+04  0.25500000920E-02 0. -1.
       -2    1    3    3    0  502  0.10755755532E+04 -0.14550811946E+04 -0.83555124253E+03  0.19930554263E+04  0.25500000920E-02 0.  1.
</event>
<event>
 5   0  0.9341000E-08  0.3646143E+04  0.7818609E-02  0.8080003E-01
        1   -1    0    0  501    0  0.00000000000E+00  0.00000000000E+00  0.15281681347E+04  0.15281681347E+04  0.50400001928E-02 0.  1.
       -1   -1    0    0    0  501  0.00000000000E+00  0.00000000000E+00 -0.21748847094E+04  0.21748847094E+04  0.50400001928E-02 0. -1.
    10030    2    1    2    0    0  0.00000000000E+00  0.00000000000E+00 -0.64671657470E+03  0.37030528441E+04  0.36461428987E+04 0.  0.
        1    1    3    3  502    0 -0.21716542764E+03 -0.11922959398E+04  0.10598312151E+04  0.16099604453E+04  0.50400001928E-02 0.  1.
       -1    1    3    3    0  502  0.21716542764E+03  0.11922959398E+04 -0.17065477898E+04  0.20930923988E+04  0.50400001928E-02 0. -1.
</event>
<event>
 5   0  0.2996969E-07  0.3679810E+04  0.7818609E-02  0.8072451E-01
       -2   -1    0    0    0  501  0.00000000000E+00  0.00000000000E+00  0.27721606825E+04  0.27721606825E+04  0.25500000920E-02 0.  1.
        2   -1    0    0  501    0  0.00000000000E+00  0.00000000000E+00 -0.12211596674E+04  0.12211596674E+04  0.25500000920E-02 0. -1.
    10030    2    1    2    0    0  0.00000000000E+00  0.00000000000E+00  0.15510010150E+04  0.39933203499E+04  0.36798102218E+04 0.  0.
        1    1    3    3  502    0 -0.20952316209E+02  0.16114434684E+04 -0.18786004413E+03  0.16224920485E+04  0.50400001928E-02 0. -1.
       -1    1    3    3    0  502  0.20952316209E+02 -0.16114434684E+04  0.17388610592E+04  0.23708283014E+04  0.50400001928E-02 0.  1.
</event>
<event>
 5   0  0.9646615E-08  0.3694804E+04  0.7818609E-02  0.8069114E-01
       -1   -1    0    0    0  501  0.00000000000E+00  0.00000000000E+00  0.14420680870E+04  0.14420680870E+04  0.50400001928E-02 0. -1.
        1   -1    0    0  501    0  0.00000000000E+00  0.00000000000E+00 -0.23666662017E+04  0.23666662017E+04  0.50400001928E-02 0.  1.
    10030    2    1    2    0    0  0.00000000000E+00  0.00000000000E+00 -0.92459811469E+03  0.38087342887E+04  0.36948038119E+04 0.  0.
        2    1    3    3  502    0 -0.36988703871E+03  0.29991264225E+03 -0.23023126200E+04  0.23510438989E+04  0.25500000920E-02 0.  1.
       -2    1    3    3    0  502  0.36988703871E+03 -0.29991264225E+03  0.13777145053E+04  0.14576903898E+04  0.25500000920E-02 0. -1.
</event>
<event>
 5   0  0.9341000E-08  0.3721208E+04  0.7818609E-02  0.8063278E-01
       -1   -1    0    0    0  501  0.00000000000E+00  0.00000000000E+00  0.16192785640E+04  0.16192785640E+04  0.50400001928E-02 0. -1.
        1   -1    0    0  501    0  0.00000000000E+00  0.00000000000E+00 -0.21378950201E+04  0.21378950201E+04  0.50400001928E-02 0.  1.
    10030    2    1    2    0    0  0.00000000000E+00  0.00000000000E+00 -0.51861645615E+03  0.37571735841E+04  0.37212081792E+04 0.  0.
        4    1    3    3  502    0 -0.17302271896E+04 -0.68299912528E+03 -0.21802252697E+03  0.18728879752E+04  0.12699999809E+01 0.  1.
       -4    1    3    3    0  502  0.17302271896E+04  0.68299912528E+03 -0.30059392918E+03  0.18842856089E+04  0.12699999809E+01 0. -1.
</event>
<event>
 5   0  0.3032442E-07  0.3706626E+04  0.7818609E-02  0.8066495E-01
       -2   -1    0    0    0  501  0.00000000000E+00  0.00000000000E+00  0.16268182115E+04  0.16268182115E+04  0.25500000920E-02 0.  1.
        2   -1    0    0  501    0  0.00000000000E+00  0.00000000000E+00 -0.21113422304E+04  0.21113422304E+04  0.25500000920E-02 0. -1.
    10030    2    1    2    0    0  0.00000000000E+00  0.00000000000E+00 -0.48452401893E+03  0.37381604419E+04  0.37066264938E+04 0.  0.
        3    1    3    3  502    0  0.14445971860E+04  0.78803456829E+03 -0.11021058290E+04  0.19805294189E+04  0.10100000352E+00 0. -1.
       -3    1    3    3    0  502 -0.14445971860E+04 -0.78803456829E+03  0.61758181011E+03  0.17576310230E+04  0.10100000352E+00 0.  1.
</event>
<event>
 5   0  0.9341000E-08  0.3650353E+04  0.7818609E-02  0.8079054E-01
       -1   -1    0    0    0  501  0.00000000000E+00  0.00000000000E+00  0.30063425648E+04  0.30063425648E+04  0.50400001928E-02 0. -1.
        1   -1    0    0  501    0  0.00000000000E+00  0.00000000000E+00 -0.11080806739E+04  0.11080806739E+04  0.50400001928E-02 0.  1.
    10030    2    1    2    0    0  0.00000000000E+00  0.00000000000E+00  0.18982618909E+04  0.41144232387E+04  0.36503534597E+04 0.  0.
        3    1    3    3  502    0 -0.86525784080E+03 -0.11596986653E+04  0.22030843041E+04  0.26357451672E+04  0.10100000352E+00 0.  1.
       -3    1    3    3    0  502  0.86525784080E+03  0.11596986653E+04 -0.30482241319E+03  0.14786780715E+04  0.10100000352E+00 0. -1.
</event>
<event>
 5   0  0.3008879E-07  0.3714054E+04  0.7818609E-02  0.8064854E-01
       -2   -1    0    0    0  501  0.00000000000E+00  0.00000000000E+00  0.17121450892E+04  0.17121450892E+04  0.25500000920E-02 0. -1.
        2   -1    0    0  501    0  0.00000000000E+00  0.00000000000E+00 -0.20141684337E+04  0.20141684337E+04  0.25500000920E-02 0.  1.
    10030    2    1    2    0    0  0.00000000000E+00  0.00000000000E+00 -0.30202334454E+03  0.37263135229E+04  0.37140536305E+04 0.  0.
        2    1    3    3  502    0  0.17571202874E+03 -0.16413200362E+04 -0.10045504062E+04  0.19323373662E+04  0.25500000920E-02 0.  1.
       -2    1    3    3    0  502 -0.17571202874E+03  0.16413200362E+04  0.70252706163E+03  0.17939761567E+04  0.25500000920E-02 0. -1.
</event>
<event>
 5   0  0.3032442E-07  0.3721739E+04  0.7818609E-02  0.8063161E-01
       -2   -1    0    0    0  501  0.00000000000E+00  0.00000000000E+00  0.20973371475E+04  0.20973371475E+04  0.25500000920E-02 0.  1.
        2   -1    0    0  501    0  0.00000000000E+00  0.00000000000E+00 -0.16510630287E+04  0.16510630287E+04  0.25500000920E-02 0. -1.
    10030    2    1    2    0    0  0.00000000000E+00  0.00000000000E+00  0.44627411878E+03  0.37484001762E+04  0.37217392831E+04 0.  0.
        3    1    3    3  502    0  0.12406778460E+04  0.12458014934E+04  0.83703851325E+03  0.19472894909E+04  0.10100000352E+00 0.  1.
       -3    1    3    3    0  502 -0.12406778460E+04 -0.12458014934E+04 -0.39076439447E+03  0.18011106853E+04  0.10100000352E+00 0. -1.
</event>
<event>
 5   0  0.3008879E-07  0.3716938E+04  0.7818609E-02  0.8064218E-01
       -2   -1    0    0    0  501  0.00000000000E+00  0.00000000000E+00  0.18128190599E+04  0.18128190599E+04  0.25500000920E-02 0. -1.
        2   -1    0    0  501    0  0.00000000000E+00  0.00000000000E+00 -0.19052685604E+04  0.19052685604E+04  0.25500000920E-02 0.  1.
    10030    2    1    2    0    0  0.00000000000E+00  0.00000000000E+00 -0.92449500485E+02  0.37180876203E+04  0.37169380735E+04 0.  0.
        2    1    3    3  502    0  0.13793377633E+03 -0.33312093320E+03 -0.18699484642E+04  0.19043903333E+04  0.25500000920E-02 0.  1.
       -2    1    3    3    0  502 -0.13793377633E+03  0.33312093320E+03  0.17774989637E+04  0.18136972870E+04  0.25500000920E-02 0. -1.
</event>
<event>
 5   0  0.3008879E-07  0.3446293E+04  0.7818609E-02  0.8126637E-01
        2   -1    0    0  501    0  0.00000000000E+00  0.00000000000E+00  0.23156614300E+04  0.23156614300E+04  0.25500000920E-02 0. -1.
       -2   -1    0    0    0  501  0.00000000000E+00  0.00000000000E+00 -0.12822397049E+04  0.12822397049E+04  0.25500000920E-02 0.  1.
    10030    2    1    2    0    0  0.00000000000E+00  0.00000000000E+00  0.10334217251E+04  0.35979011350E+04  0.34462925174E+04 0.  0.
        2    1    3    3  502    0 -0.84816205041E+03 -0.11081334092E+03 -0.10449468378E+04  0.13503971098E+04  0.25500000920E-02 0.  1.
       -2    1    3    3    0  502  0.84816205041E+03  0.11081334092E+03  0.20783685629E+04  0.22475040252E+04  0.25500000920E-02 0. -1.
</event>
<event>
 5   0  0.9418945E-08  0.3679572E+04  0.7818609E-02  0.8072504E-01
        1   -1    0    0  501    0  0.00000000000E+00  0.00000000000E+00  0.20917118183E+04  0.20917118183E+04  0.50400001928E-02 0. -1.
       -1   -1    0    0    0  501  0.00000000000E+00  0.00000000000E+00 -0.16182019271E+04  0.16182019271E+04  0.50400001928E-02 0.  1.
    10030    2    1    2    0    0  0.00000000000E+00  0.00000000000E+00  0.47350989115E+03  0.37099137454E+04  0.36795717660E+04 0.  0.
        5    1    3    3  502    0  0.89440119827E+03  0.14764093346E+04 -0.40493009336E+03  0.17730562589E+04  0.46999998093E+01 0.  1.
       -5    1    3    3    0  502 -0.89440119827E+03 -0.14764093346E+04  0.87843998450E+03  0.19368574865E+04  0.46999998093E+01 0. -1.
</event>
<event>
 5   0  0.9341000E-08  0.3719179E+04  0.7818609E-02  0.8063725E-01
        1   -1    0    0  501    0  0.00000000000E+00  0.00000000000E+00  0.12250368720E+04  0.12250368720E+04  0.50400001928E-02 0. -1.
       -1   -1    0    0    0  501  0.00000000000E+00  0.00000000000E+00 -0.28228312593E+04  0.28228312593E+04  0.50400001928E-02 0.  1.
    10030    2    1    2    0    0  0.00000000000E+00  0.00000000000E+00 -0.15977943873E+04  0.40478681313E+04  0.37191786062E+04 0.  0.
        1    1    3    3  502    0 -0.11214422866E+04 -0.56098153936E+03  0.69568617570E+03  0.14339847784E+04  0.50400001928E-02 0. -1.
       -1    1    3    3    0  502  0.11214422866E+04  0.56098153936E+03 -0.22934805630E+04  0.26138833529E+04  0.50400001928E-02 0.  1.
</event>
<event>
 5   0  0.3008879E-07  0.3674360E+04  0.7818609E-02  0.8073668E-01
       -2   -1    0    0    0  501  0.00000000000E+00  0.00000000000E+00  0.12080082323E+04  0.12080082323E+04  0.25500000920E-02 0.  1.
        2   -1    0    0  501    0  0.00000000000E+00  0.00000000000E+00 -0.27940461931E+04  0.27940461931E+04  0.25500000920E-02 0. -1.
    10030    2    1    2    0    0  0.00000000000E+00  0.00000000000E+00 -0.15860379608E+04  0.40020544254E+04  0.36743602451E+04 0.  0.
        2    1    3    3  502    0  0.19039669756E+03  0.15834639155E+04  0.20024394019E+03  0.16073912124E+04  0.25500000920E-02 0.  1.
       -2    1    3    3    0  502 -0.19039669756E+03 -0.15834639155E+04 -0.17862819010E+04  0.23946632130E+04  0.25500000920E-02 0. -1.
</event>
<event>
 5   0  0.3008879E-07  0.3709288E+04  0.7818609E-02  0.8065907E-01
       -2   -1    0    0    0  501  0.00000000000E+00  0.00000000000E+00  0.20057051310E+04  0.20057051310E+04  0.25500000920E-02 0.  1.
        2   -1    0    0  501    0  0.00000000000E+00  0.00000000000E+00 -0.17149604524E+04  0.17149604524E+04  0.25500000920E-02 0. -1.
    10030    2    1    2    0    0  0.00000000000E+00  0.00000000000E+00  0.29074467856E+03  0.37206655834E+04  0.37092883300E+04 0.  0.
        2    1    3    3  502    0 -0.18089849828E+04  0.12507663856E+03 -0.24522434098E+03  0.18298103210E+04  0.25500000920E-02 0. -1.
       -2    1    3    3    0  502  0.18089849828E+04 -0.12507663856E+03  0.53596901954E+03  0.18908552624E+04  0.25500000920E-02 0.  1.
</event>
<event>
 5   0  0.3032442E-07  0.3715999E+04  0.7818609E-02  0.8064425E-01
       -2   -1    0    0    0  501  0.00000000000E+00  0.00000000000E+00  0.21290193466E+04  0.21290193466E+04  0.25500000920E-02 0. -1.
        2   -1    0    0  501    0  0.00000000000E+00  0.00000000000E+00 -0.16214799764E+04  0.16214799764E+04  0.25500000920E-02 0.  1.
    10030    2    1    2    0    0  0.00000000000E+00  0.00000000000E+00  0.50753937014E+03  0.37504993230E+04  0.37159990527E+04 0.  0.
        3    1    3    3  502    0  0.16698697874E+04 -0.81343052908E+03  0.29921995572E+03  0.18814002563E+04  0.10100000352E+00 0. -1.
       -3    1    3    3    0  502 -0.16698697874E+04  0.81343052908E+03  0.20831941442E+03  0.18690990667E+04  0.10100000352E+00 0.  1.
</event>
<event>
 5   0  0.9646615E-08  0.3331333E+04  0.7818609E-02  0.8154968E-01
       -1   -1    0    0    0  501  0.00000000000E+00  0.00000000000E+00  0.15974345958E+04  0.15974345959E+04  0.50400001928E-02 0.  1.
        1   -1    0    0  501    0  0.00000000000E+00  0.00000000000E+00 -0.17368124371E+04  0.17368124371E+04  0.50400001928E-02 0. -1.
    10030    2    1    2    0    0  0.00000000000E+00  0.00000000000E+00 -0.13937784128E+03  0.33342470330E+04  0.33313326304E+04 0.  0.
        2    1    3    3  502    0  0.93202966832E+02  0.16385758303E+03 -0.17261014641E+04  0.17363646982E+04  0.25500000920E-02 0. -1.
       -2    1    3    3    0  502 -0.93202966832E+02 -0.16385758303E+03  0.15867236229E+04  0.15978823348E+04  0.25500000920E-02 0.  1.
</event>
<event>
 5   0  0.9341000E-08  0.3691237E+04  0.7818609E-02  0.8069906E-01
       -1   -1    0    0    0  501  0.00000000000E+00  0.00000000000E+00  0.12039800274E+04  0.12039800274E+04  0.50400001928E-02 0.  1.
        1   -1    0    0  501    0  0.00000000000E+00  0.00000000000E+00 -0.28292068072E+04  0.28292068072E+04  0.50400001928E-02 0. -1.
    10030    2    1    2    0    0  0.00000000000E+00  0.00000000000E+00 -0.16252267798E+04  0.40331868347E+04  0.36912374561E+04 0.  0.
        1    1    3    3  502    0 -0.96655853926E+03 -0.84196365938E+03 -0.22634666323E+04  0.26012342088E+04  0.50400001928E-02 0. -1.
       -1    1    3    3    0  502  0.96655853926E+03  0.84196365938E+03  0.63823985246E+03  0.14319526259E+04  0.50400001928E-02 0.  1.
</event>
<event>
 5   0  0.3008879E-07  0.3700173E+04  0.7818609E-02  0.8067924E-01
       -2   -1    0    0    0  501  0.00000000000E+00  0.00000000000E+00  0.13866448635E+04  0.13866448635E+04  0.25500000920E-02 0. -1.
        2   -1    0    0  501    0  0.00000000000E+00  0.00000000000E+00 -0.24684182072E+04  0.24684182072E+04  0.25500000920E-02 0.  1.
    10030    2    1    2    0    0  0.00000000000E+00  0.00000000000E+00 -0.10817733437E+04  0.38550630707E+04  0.37001726597E+04 0.  0.
        2    1    3    3  502    0 -0.47952499572E+03  0.14746965292E+04 -0.15921569585E+04  0.22225296073E+04  0.25500000920E-02 0.  1.
       -2    1    3    3    0  502  0.47952499572E+03 -0.14746965292E+04  0.51038361483E+03  0.16325334634E+04  0.25500000920E-02 0. -1.
</event>
<event>
 5   0  0.2913025E-07  0.3471456E+04  0.7818609E-02  0.8120588E-01
       -2   -1    0    0    0  501  0.00000000000E+00  0.00000000000E+00  0.25087352289E+04  0.25087352289E+04  0.25500000920E-02 0. -1.
        2   -1    0    0  501    0  0.00000000000E+00  0.00000000000E+00 -0.12009046996E+04  0.12009046996E+04  0.25500000920E-02 0.  1.
    10030    2    1    2    0    0  0.00000000000E+00  0.00000000000E+00  0.13078305293E+04  0.37096399285E+04  0.34714561362E+04 0.  0.
        5    1    3    3  502    0 -0.11115097495E+04 -0.12377015506E+04  0.12457917896E+03  0.16682029592E+04  0.46999998093E+01 0.  1.
       -5    1    3    3    0  502  0.11115097495E+04  0.12377015506E+04  0.11832513503E+04  0.20414369692E+04  0.46999998093E+01 0. -1.
</event>
<event>
 5   0  0.9646615E-08  0.3719769E+04  0.7818609E-02  0.8063595E-01
        1   -1    0    0  501    0  0.00000000000E+00  0.00000000000E+00  0.20047832384E+04  0.20047832384E+04  0.50400001928E-02 0. -1.
       -1   -1    0    0    0  501  0.00000000000E+00  0.00000000000E+00 -0.17254588318E+04  0.17254588318E+04  0.50400001928E-02 0.  1.
    10030    2    1    2    0    0  0.00000000000E+00  0.00000000000E+00  0.27932440662E+03  0.37302420703E+04  0.37197693179E+04 0.  0.
        2    1    3    3  502    0  0.79155790292E+03  0.11325017248E+04 -0.11088518173E+04  0.17716310065E+04  0.25500000920E-02 0.  1.
       -2    1    3    3    0  502 -0.79155790292E+03 -0.11325017248E+04  0.13881762239E+04  0.19586110638E+04  0.25500000920E-02 0. -1.
</event>
<event>
 5   0  0.9418945E-08  0.3496908E+04  0.7818609E-02  0.8114523E-01
        1   -1    0    0  501    0  0.00000000000E+00  0.00000000000E+00  0.22197865187E+04  0.22197865187E+04  0.50400001928E-02 0.  1.
       -1   -1    0    0    0  501  0.00000000000E+00  0.00000000000E+00 -0.13772006630E+04  0.13772006630E+04  0.50400001928E-02 0. -1.
    10030    2    1    2    0    0  0.00000000000E+00  0.00000000000E+00  0.84258585565E+03  0.35969871817E+04  0.34969080430E+04 0.  0.
        5    1    3    3  502    0 -0.13680646587E+04  0.24889840401E+03 -0.66900379089E+03  0.15430941281E+04  0.46999998093E+01 0. -1.
       -5    1    3    3    0  502  0.13680646587E+04 -0.24889840401E+03  0.15115896465E+04  0.20538930536E+04  0.46999998093E+01 0.  1.
</event>
<event>
 5   0  0.2897133E-07  0.3685871E+04  0.7818609E-02  0.8071100E-01
       -2   -1    0    0    0  501  0.00000000000E+00  0.00000000000E+00  0.17692580849E+04  0.17692580849E+04  0.25500000920E-02 0.  1.
        2   -1    0    0  501    0  0.00000000000E+00  0.00000000000E+00 -0.19196811385E+04  0.19196811385E+04  0.25500000920E-02 0. -1.
    10030    2    1    2    0    0  0.00000000000E+00  0.00000000000E+00 -0.15042305359E+03  0.36889392235E+04  0.36858710639E+04 0.  0.
        4    1    3    3  502    0  0.41175325361E+03 -0.91728154055E+03  0.14705687359E+04  0.17814376740E+04  0.12699999809E+01 0.  1.
       -4    1    3    3    0  502 -0.41175325361E+03  0.91728154055E+03 -0.16209917895E+04  0.19075015494E+04  0.12699999809E+01 0. -1.
</event>
<event>
 5   0  0.9341000E-08  0.3706411E+04  0.7818609E-02  0.8066543E-01
       -1   -1    0    0    0  501  0.00000000000E+00  0.00000000000E+00  0.14820426487E+04  0.14820426487E+04  0.50400001928E-02 0. -1.
        1   -1    0    0  501    0  0.00000000000E+00  0.00000000000E+00 -0.23173221522E+04  0.23173221522E+04  0.50400001928E-02 0.  1.
    10030    2    1    2    0    0  0.00000000000E+00  0.00000000000E+00 -0.83527950347E+03  0.37993648009E+04  0.37064108031E+04 0.  0.
        3    1    3    3  502    0 -0.49776644508E+02 -0.12494876088E+04  0.98438735396E+03  0.15914507444E+04  0.10100000352E+00 0. -1.
       -3    1    3    3    0  502  0.49776644508E+02  0.12494876088E+04 -0.18196668574E+04  0.22079140566E+04  0.10100000352E+00 0.  1.
</event>
<event>
 5   0  0.9646615E-08  0.3703997E+04  0.7818609E-02  0.8067077E-01
        1   -1    0    0  501    0  0.00000000000E+00  0.00000000000E+00  0.21128618745E+04  0.21128618745E+04  0.50400001928E-02 0. -1.
       -1   -1    0    0    0  501  0.00000000000E+00  0.00000000000E+00 -0.16233424548E+04  0.16233424548E+04  0.50400001928E-02 0.  1.
    10030    2    1    2    0    0  0.00000000000E+00  0.00000000000E+00  0.48951941966E+03  0.37362043293E+04  0.37039969666E+04 0.  0.
        2    1    3    3  502    0  0.17626970797E+04 -0.18058452463E+03  0.78813350048E+03  0.19392952792E+04  0.25500000920E-02 0.  1.
       -2    1    3    3    0  502 -0.17626970797E+04  0.18058452463E+03 -0.29861408082E+03  0.17969090502E+04  0.25500000920E-02 0. -1.
</event>
<event>
 5   0  0.3008879E-07  0.3720962E+04  0.7818609E-02  0.8063332E-01
        2   -1    0    0  501    0  0.00000000000E+00  0.00000000000E+00  0.98085107295E+03  0.98085107296E+03  0.25500000920E-02 0. -1.
       -2   -1    0    0    0  501  0.00000000000E+00  0.00000000000E+00 -0.35289648043E+04  0.35289648043E+04  0.25500000920E-02 0.  1.
    10030    2    1    2    0    0  0.00000000000E+00  0.00000000000E+00 -0.25481137314E+04  0.45098158773E+04  0.37209616578E+04 0.  0.
        2    1    3    3  502    0  0.69372617875E+03  0.12726671361E+02 -0.33662878554E+04  0.34370498839E+04  0.25500000920E-02 0.  1.
       -2    1    3    3    0  502 -0.69372617875E+03 -0.12726671361E+02  0.81817412403E+03  0.10727659933E+04  0.25500000920E-02 0. -1.
</event>
<event>
 5   0  0.2913025E-07  0.3706883E+04  0.7818609E-02  0.8066438E-01
        2   -1    0    0  501    0  0.00000000000E+00  0.00000000000E+00  0.18621190699E+04  0.18621190699E+04  0.25500000920E-02 0.  1.
       -2   -1    0    0    0  501  0.00000000000E+00  0.00000000000E+00 -0.18448048611E+04  0.18448048611E+04  0.25500000920E-02 0. -1.
    10030    2    1    2    0    0  0.00000000000E+00  0.00000000000E+00  0.17314208853E+02  0.37069239310E+04  0.37068834954E+04 0.  0.
        5    1    3    3  502    0  0.11025642829E+04 -0.74272113061E+03  0.13001593054E+04  0.18594942821E+04  0.46999998093E+01 0.  1.
       -5    1    3    3    0  502 -0.11025642829E+04  0.74272113061E+03 -0.12828450966E+04  0.18474296489E+04  0.46999998093E+01 0. -1.
</event>
<event>
 5   0  0.9341000E-08  0.3686336E+04  0.7818609E-02  0.8070997E-01
       -1   -1    0    0    0  501  0.00000000000E+00  0.00000000000E+00  0.11540606770E+04  0.11540606770E+04  0.50400001928E-02 0. -1.
        1   -1    0    0  501    0  0.00000000000E+00  0.00000000000E+00 -0.29437521330E+04  0.29437521330E+04  0.50400001928E-02 0.  1.
    10030    2    1    2    0    0  0.00000000000E+00  0.00000000000E+00 -0.17896914559E+04  0.40978128100E+04  0.36863361646E+04 0.  0.
        4    1    3    3  502    0  0.82828897822E+03  0.16449570348E+04 -0.81376061819E+03  0.20134930431E+04  0.12699999809E+01 0. -1.
       -4    1    3    3    0  502 -0.82828897822E+03 -0.16449570348E+04 -0.97593083775E+03  0.20843197669E+04  0.12699999809E+01 0.  1.
</event>
<event>
 5   0  0.2913025E-07  0.3694469E+04  0.7818609E-02  0.8069189E-01
       -2   -1    0    0    0  501  0.00000000000E+00  0.00000000000E+00  0.11977959593E+04  0.11977959593E+04  0.25500000920E-02 0.  1.
        2   -1    0    0  501    0  0.00000000000E+00  0.00000000000E+00 -0.28487950974E+04  0.28487950974E+04  0.25500000920E-02 0. -1.
    10030    2    1    2    0    0  0.00000000000E+00  0.00000000000E+00 -0.16509991382E+04  0.40465910567E+04  0.36944689776E+04 0.  0.
        5    1    3    3  502    0  0.31796345128E+03  0.73129066884E+03  0.99955426992E+03  0.12786780780E+04  0.46999998093E+01 0.  1.
       -5    1    3    3    0  502 -0.31796345128E+03 -0.73129066884E+03 -0.26505534081E+04  0.27679129787E+04  0.46999998093E+01 0. -1.
</event>
<event>
 5   0  0.9341000E-08  0.3688582E+04  0.7818609E-02  0.8070497E-01
        1   -1    0    0  501    0  0.00000000000E+00  0.00000000000E+00  0.19281964917E+04  0.19281964917E+04  0.50400001928E-02 0. -1.
       -1   -1    0    0    0  501  0.00000000000E+00  0.00000000000E+00 -0.17640366905E+04  0.17640366905E+04  0.50400001928E-02 0.  1.
    10030    2    1    2    0    0  0.00000000000E+00  0.00000000000E+00  0.16415980120E+03  0.36922331822E+04  0.36885820353E+04 0.  0.
        3    1    3    3  502    0  0.54686536751E+02 -0.17735723303E+03  0.19188248544E+04  0.19277798208E+04  0.10100000352E+00 0. -1.
       -3    1    3    3    0  502 -0.54686536751E+02  0.17735723303E+03 -0.17546650532E+04  0.17644533614E+04  0.10100000352E+00 0.  1.
</event>
<event>
 5   0  0.3008879E-07  0.3695951E+04  0.7818609E-02  0.8068860E-01
       -2   -1    0    0    0  501  0.00000000000E+00  0.00000000000E+00  0.14146519748E+04  0.14146519748E+04  0.25500000920E-02 0.  1.
        2   -1    0    0  501    0  0.00000000000E+00  0.00000000000E+00 -0.24140310035E+04  0.24140310035E+04  0.25500000920E-02 0. -1.
    10030    2    1    2    0    0  0.00000000000E+00  0.00000000000E+00 -0.99937902877E+03  0.38286829783E+04  0.36959511503E+04 0.  0.
        2    1    3    3  502    0 -0.39963074577E+03  0.98305614413E+03  0.10675576991E+04  0.15052519910E+04  0.25500000920E-02 0.  1.
       -2    1    3    3    0  502  0.39963074577E+03 -0.98305614413E+03 -0.20669367279E+04  0.23234309873E+04  0.25500000920E-02 0. -1.
</event>
<event>
 5   0  0.3032442E-07  0.3734091E+04  0.7818609E-02  0.8060449E-01
        2   -1    0    0  501    0  0.00000000000E+00  0.00000000000E+00  0.15855356368E+04  0.15855356368E+04  0.25500000920E-02 0. -1.
       -2   -1    0    0    0  501  0.00000000000E+00  0.00000000000E+00 -0.21985371938E+04  0.21985371938E+04  0.25500000920E-02 0.  1.
    10030    2    1    2    0    0  0.00000000000E+00  0.00000000000E+00 -0.61300155696E+03  0.37840728307E+04  0.37340910914E+04 0.  0.
        3    1    3    3  502    0 -0.17377047911E+04 -0.68182523915E+03 -0.34381017466E+03  0.18980803577E+04  0.10100000352E+00 0.  1.
       -3    1    3    3    0  502  0.17377047911E+04  0.68182523915E+03 -0.26919138230E+03  0.18859924730E+04  0.10100000352E+00 0. -1.
</event>
<event>
 5   0  0.2996969E-07  0.3683005E+04  0.7818609E-02  0.8071739E-01
        2   -1    0    0  501    0  0.00000000000E+00  0.00000000000E+00  0.19600677276E+04  0.19600677276E+04  0.25500000920E-02 0.  1.
       -2   -1    0    0    0  501  0.00000000000E+00  0.00000000000E+00 -0.17301092303E+04  0.17301092303E+04  0.25500000920E-02 0. -1.
    10030    2    1    2    0    0  0.00000000000E+00  0.00000000000E+00  0.22995849722E+03  0.36901769579E+04  0.36830048969E+04 0.  0.
        1    1    3    3  502    0 -0.36060510467E+03  0.84740845701E+03  0.17127614373E+04  0.19446564929E+04  0.50400001928E-02 0.  1.
       -1    1    3    3    0  502  0.36060510467E+03 -0.84740845701E+03 -0.14828029401E+04  0.17455204650E+04  0.50400001928E-02 0. -1.
</event>
<event>
 5   0  0.9341000E-08  0.3688426E+04  0.7818609E-02  0.8070532E-01
       -1   -1    0    0    0  501  0.00000000000E+00  0.00000000000E+00  0.13996413141E+04  0.13996413141E+04  0.50400001928E-02 0. -1.
        1   -1    0    0  501    0  0.00000000000E+00  0.00000000000E+00 -0.24299957793E+04  0.24299957794E+04  0.50400001928E-02 0.  1.
    10030    2    1    2    0    0  0.00000000000E+00  0.00000000000E+00 -0.10303544652E+04  0.38296370935E+04  0.36884264862E+04 0.  0.
        1    1    3    3  502    0 -0.16175724392E+04  0.35203536879E+03  0.32874648247E+03  0.16877629415E+04  0.50400001928E-02 0. -1.
       -1    1    3    3    0  502  0.16175724392E+04 -0.35203536879E+03 -0.13591009477E+04  0.21418741520E+04  0.50400001928E-02 0.  1.
</event>
<event>
 5   0  0.3032442E-07  0.3749936E+04  0.7818609E-02  0.8056985E-01
        2   -1    0    0  501    0  0.00000000000E+00  0.00000000000E+00  0.19404106583E+04  0.19404106583E+04  0.25500000920E-02 0.  1.
       -2   -1    0    0    0  501  0.00000000000E+00  0.00000000000E+00 -0.18117322861E+04  0.18117322861E+04  0.25500000920E-02 0. -1.
    10030    2    1    2    0    0  0.00000000000E+00  0.00000000000E+00  0.12867837220E+03  0.37521429443E+04  0.37499358063E+04 0.  0.
        3    1    3    3  502    0 -0.19606723235E+03 -0.10053234620E+04 -0.15070586605E+04  0.18221809568E+04  0.10100000352E+00 0. -1.
       -3    1    3    3    0  502  0.19606723235E+03  0.10053234620E+04  0.16357370327E+04  0.19299619875E+04  0.10100000352E+00 0.  1.
</event>
<event>
 5   0  0.9341000E-08  0.3709559E+04  0.7818609E-02  0.8065847E-01
       -1   -1    0    0    0  501  0.00000000000E+00  0.00000000000E+00  0.13510376130E+04  0.13510376130E+04  0.50400001928E-02 0.  1.
        1   -1    0    0  501    0  0.00000000000E+00  0.00000000000E+00 -0.25463445981E+04  0.25463445981E+04  0.50400001928E-02 0. -1.
    10030    2    1    2    0    0  0.00000000000E+00  0.00000000000E+00 -0.11953069852E+04  0.38973822111E+04  0.37095591801E+04 0.  0.
        4    1    3    3  502    0  0.15992497312E+04 -0.61731237626E+03  0.14639249173E+03  0.17204960469E+04  0.12699999809E+01 0. -1.
       -4    1    3    3    0  502 -0.15992497312E+04  0.61731237626E+03 -0.13416994769E+04  0.21768861642E+04  0.12699999809E+01 0.  1.
</event>
<event>
 5   0  0.2913025E-07  0.3675252E+04  0.7818609E-02  0.8073469E-01
       -2   -1    0    0    0  501  0.00000000000E+00  0.00000000000E+00  0.21587389812E+04  0.21587389812E+04  0.25500000920E-02 0.  1.
        2   -1    0    0  501    0  0.00000000000E+00  0.00000000000E+00 -0.15642785642E+04  0.15642785642E+04  0.25500000920E-02 0. -1.
    10030    2    1    2    0    0  0.00000000000E+00  0.00000000000E+00  0.59446041707E+03  0.37230175454E+04  0.36752518901E+04 0.  0.
        5    1    3    3  502    0  0.11499588207E+04  0.11258918243E+04  0.11957811946E+04  0.20049819064E+04  0.46999998093E+01 0.  1.
       -5    1    3    3    0  502 -0.11499588207E+04 -0.11258918243E+04 -0.60132077752E+03  0.17180356390E+04  0.46999998093E+01 0. -1.
</event>
<event>
 5   0  0.9341000E-08  0.3671058E+04  0.7818609E-02  0.8074406E-01
       -1   -1    0    0    0  501  0.00000000000E+00  0.00000000000E+00  0.16707447184E+04  0.16707447184E+04  0.50400001928E-02 0.  1.
        1   -1    0    0  501    0  0.00000000000E+00  0.00000000000E+00 -0.20165659820E+04  0.20165659820E+04  0.50400001928E-02 0. -1.
    10030    2    1    2    0    0  0.00000000000E+00  0.00000000000E+00 -0.34582126361E+03  0.36873107003E+04  0.36710581383E+04 0.  0.
        4    1    3    3  502    0  0.10351446878E+04 -0.13834659226E+04 -0.79505812453E+03  0.19020046051E+04  0.12699999809E+01 0. -1.
       -4    1    3    3    0  502 -0.10351446878E+04  0.13834659226E+04  0.44923686091E+03  0.17853060952E+04  0.12699999809E+01 0.  1.
</event>
<event>
 5   0  0.9418945E-08  0.3668948E+04  0.7818609E-02  0.8074878E-01
       -1   -1    0    0    0  501  0.00000000000E+00  0.00000000000E+00  0.17606277410E+04  0.17606277410E+04  0.50400001928E-02 0.  1.
        1   -1    0    0  501    0  0.00000000000E+00  0.00000000000E+00 -0.19114171137E+04  0.19114171137E+04  0.50400001928E-02 0. -1.
    10030    2    1    2    0    0  0.00000000000E+00  0.00000000000E+00 -0.15078937276E+03  0.36720448547E+04  0.36689475303E+04 0.  0.
        5    1    3    3  502    0  0.63528630243E+03  0.16971056252E+04 -0.36114528570E+03  0.18477565306E+04  0.46999998093E+01 0. -1.
       -5    1    3    3    0  502 -0.63528630243E+03 -0.16971056252E+04  0.21035591294E+03  0.18242883240E+04  0.46999998093E+01 0.  1.
</event>
<event>
 5   0  0.2996969E-07  0.3636210E+04  0.7818609E-02  0.8082247E-01
       -2   -1    0    0    0  501  0.00000000000E+00  0.00000000000E+00  0.22464169154E+04  0.22464169154E+04  0.25500000920E-02 0. -1.
        2   -1    0    0  501    0  0.00000000000E+00  0.00000000000E+00 -0.14714566130E+04  0.14714566130E+04  0.25500000920E-02 0.  1.
    10030    2    1    2    0    0  0.00000000000E+00  0.00000000000E+00  0.77496030248E+03  0.37178735284E+04  0.36362095791E+04 0.  0.
        1    1    3    3  502    0 -0.22460886182E+03  0.17065641087E+04  0.98602883550E+03  0.19836993377E+04  0.50400001928E-02 0. -1.
       -1    1    3    3    0  502  0.22460886182E+03 -0.17065641087E+04 -0.21106853303E+03  0.17341741907E+04  0.50400001928E-02 0.  1.
</event>
<event>
 5   0  0.2897133E-07  0.3698718E+04  0.7818609E-02  0.8068246E-01
       -2   -1    0    0    0  501  0.00000000000E+00  0.00000000000E+00  0.18140924186E+04  0.18140924186E+04  0.25500000920E-02 0.  1.
        2   -1    0    0  501    0  0.00000000000E+00  0.00000000000E+00 -0.18853111520E+04  0.18853111520E+04  0.25500000920E-02 0. -1.
    10030    2    1    2    0    0  0.00000000000E+00  0.00000000000E+00 -0.71218733400E+02  0.36994035707E+04  0.36987179766E+04 0.  0.
        4    1    3    3  502    0  0.60191292007E+03  0.25319612167E+03  0.16949482167E+04  0.18163861125E+04  0.12699999809E+01 0.  1.
       -4    1    3    3    0  502 -0.60191292007E+03 -0.25319612167E+03 -0.17661669501E+04  0.18830174582E+04  0.12699999809E+01 0. -1.
</event>
<event>
 5   0  0.3032442E-07  0.3708418E+04  0.7818609E-02  0.8066099E-01
       -2   -1    0    0    0  501  0.00000000000E+00  0.00000000000E+00  0.17350571397E+04  0.17350571397E+04  0.25500000920E-02 0. -1.
        2   -1    0    0  501    0  0.00000000000E+00  0.00000000000E+00 -0.19815437598E+04  0.19815437598E+04  0.25500000920E-02 0.  1.
    10030    2    1    2    0    0  0.00000000000E+00  0.00000000000E+00 -0.24648662014E+03  0.37166008995E+04  0.37084183410E+04 0.  0.
        3    1    3    3  502    0  0.96020702793E+03  0.11742671726E+04  0.94550110594E+03  0.17874208460E+04  0.10100000352E+00 0.  1.
       -3    1    3    3    0  502 -0.96020702793E+03 -0.11742671726E+04 -0.11919877261E+04  0.19291800534E+04  0.10100000352E+00 0. -1.
</event>
<event>
 5   0  0.9341000E-08  0.3880596E+04  0.7818609E-02  0.8029077E-01
       -1   -1    0    0    0  501  0.00000000000E+00  0.00000000000E+00  0.24168522271E+04  0.24168522271E+04  0.50400001928E-02 0.  1.
        1   -1    0    0  501    0  0.00000000000E+00  0.00000000000E+00 -0.15577102298E+04  0.15577102298E+04  0.50400001928E-02 0. -1.
    10030    2    1    2    0    0  0.00000000000E+00  0.00000000000E+00  0.85914199728E+03  0.39745624569E+04  0.38805955409E+04 0.  0.
        4    1    3    3  502    0 -0.16341288337E+04  0.88073528079E+03 -0.14861798347E+03  0.18622998142E+04  0.12699999809E+01 0. -1.
       -4    1    3    3    0  502  0.16341288337E+04 -0.88073528079E+03  0.10077599808E+04  0.21122626427E+04  0.12699999809E+01 0.  1.
</event>
<event>
 5   0  0.9646615E-08  0.3688513E+04  0.7818609E-02  0.8070512E-01
       -1   -1    0    0    0  501  0.00000000000E+00  0.00000000000E+00  0.13761347544E+04  0.13761347544E+04  0.50400001928E-02 0.  1.
        1   -1    0    0  501    0  0.00000000000E+00  0.00000000000E+00 -0.24716199881E+04  0.24716199881E+04  0.50400001928E-02 0. -1.
    10030    2    1    2    0    0  0.00000000000E+00  0.00000000000E+00 -0.10954852337E+04  0.38477547426E+04  0.36885130692E+04 0.  0.
        2    1    3    3  502    0 -0.97233438512E+03  0.50251254826E+03  0.10007022454E+04  0.14830232640E+04  0.25500000920E-02 0.  1.
       -2    1    3    3    0  502  0.97233438512E+03 -0.50251254826E+03 -0.20961874792E+04  0.23647314785E+04  0.25500000920E-02 0. -1.
</event>
<event>
 5   0  0.2913025E-07  0.3649185E+04  0.7818609E-02  0.8079317E-01
        2   -1    0    0  501    0  0.00000000000E+00  0.00000000000E+00  0.24392840836E+04  0.24392840836E+04  0.25500000920E-02 0.  1.
       -2   -1    0    0    0  501  0.00000000000E+00  0.00000000000E+00 -0.13648014131E+04  0.13648014131E+04  0.25500000920E-02 0. -1.
    10030    2    1    2    0    0  0.00000000000E+00  0.00000000000E+00  0.10744826705E+04  0.38040854967E+04  0.36491853142E+04 0.  0.
        5    1    3    3  502    0  0.15226092018E+04  0.94194122751E+02  0.15806816543E+04  0.21967676018E+04  0.46999998093E+01 0.  1.
       -5    1    3    3    0  502 -0.15226092018E+04 -0.94194122751E+02 -0.50619898374E+03  0.16073178949E+04  0.46999998093E+01 0. -1.
</event>
<event>
 5   0  0.9341000E-08  0.3677117E+04  0.7818609E-02  0.8073052E-01
        1   -1    0    0  501    0  0.00000000000E+00  0.00000000000E+00  0.20157929271E+04  0.20157929271E+04  0.50400001928E-02 0.  1.
       -1   -1    0    0    0  501  0.00000000000E+00  0.00000000000E+00 -0.16769069836E+04  0.16769069836E+04  0.50400001928E-02 0. -1.
    10030    2    1    2    0    0  0.00000000000E+00  0.00000000000E+00  0.33888594346E+03  0.36926999107E+04  0.36771169342E+04 0.  0.
        1    1    3    3  502    0  0.17635850432E+04  0.18870198853E+03  0.65570213527E+03  0.18909748638E+04  0.50400001928E-02 0. -1.
       -1    1    3    3    0  502 -0.17635850432E+04 -0.18870198853E+03 -0.31681619181E+03  0.18017250469E+04  0.50400001928E-02 0.  1.
</event>
<event>
 5   0  0.3032442E-07  0.3733435E+04  0.7818609E-02  0.8060592E-01
        2   -1    0    0  501    0  0.00000000000E+00  0.00000000000E+00  0.26804605133E+04  0.26804605133E+04  0.25500000920E-02 0.  1.
       -2   -1    0    0    0  501  0.00000000000E+00  0.00000000000E+00 -0.13000135471E+04  0.13000135471E+04  0.25500000920E-02 0. -1.
    10030    2    1    2    0    0  0.00000000000E+00  0.00000000000E+00  0.13804469662E+04  0.39804740604E+04  0.37334354044E+04 0.  0.
        3    1    3    3  502    0  0.16315117512E+04 -0.41522015944E+03  0.15500588126E+04  0.22884319321E+04  0.10100000352E+00 0.  1.
       -3    1    3    3    0  502 -0.16315117512E+04  0.41522015944E+03 -0.16961184644E+03  0.16920421283E+04  0.10100000352E+00 0. -1.
</event>
<event>
 5   0  0.9646615E-08  0.3714781E+04  0.7818609E-02  0.8064694E-01
        1   -1    0    0  501    0  0.00000000000E+00  0.00000000000E+00  0.22671081043E+04  0.22671081043E+04  0.50400001928E-02 0. -1.
       -1   -1    0    0    0  501  0.00000000000E+00  0.00000000000E+00 -0.15217182437E+04  0.15217182437E+04  0.50400001928E-02 0.  1.
    10030    2    1    2    0    0  0.00000000000E+00  0.00000000000E+00  0.74538986066E+03  0.37888263480E+04  0.37147811579E+04 0.  0.
        2    1    3    3  502    0  0.10332383525E+04  0.15271741014E+04  0.60088996547E+03  0.19393068297E+04  0.25500000920E-02 0.  1.
       -2    1    3    3    0  502 -0.10332383525E+04 -0.15271741014E+04  0.14449989519E+03  0.18495195183E+04  0.25500000920E-02 0. -1.
</event>
<event>
 5   0  0.9341000E-08  0.3684089E+04  0.7818609E-02  0.8071497E-01
        1   -1    0    0  501    0  0.00000000000E+00  0.00000000000E+00  0.21128833214E+04  0.21128833214E+04  0.50400001928E-02 0.  1.
       -1   -1    0    0    0  501  0.00000000000E+00  0.00000000000E+00 -0.16059229639E+04  0.16059229639E+04  0.50400001928E-02 0. -1.
    10030    2    1    2    0    0  0.00000000000E+00  0.00000000000E+00  0.50696035749E+03  0.37188062853E+04  0.36840889489E+04 0.  0.
        4    1    3    3  502    0 -0.11840981630E+04 -0.10759970919E+04  0.11749175225E+04  0.19850166243E+04  0.12699999809E+01 0.  1.
       -4    1    3    3    0  502  0.11840981630E+04  0.10759970919E+04 -0.66795716498E+03  0.17337896610E+04  0.12699999809E+01 0. -1.
</event>
<event>
 5   0  0.2897133E-07  0.3638665E+04  0.7818609E-02  0.8081692E-01
       -2   -1    0    0    0  501  0.00000000000E+00  0.00000000000E+00  0.13316678184E+04  0.13316678184E+04  0.25500000920E-02 0. -1.
        2   -1    0    0  501    0  0.00000000000E+00  0.00000000000E+00 -0.24855824833E+04  0.24855824833E+04  0.25500000920E-02 0.  1.
    10030    2    1    2    0    0  0.00000000000E+00  0.00000000000E+00 -0.11539146649E+04  0.38172503018E+04  0.36386647019E+04 0.  0.
        4    1    3    3  502    0  0.13098904134E+04 -0.64578602649E+03 -0.17151564664E+04  0.22526907920E+04  0.12699999809E+01 0.  1.
       -4    1    3    3    0  502 -0.13098904134E+04  0.64578602649E+03  0.56124180150E+03  0.15645595098E+04  0.12699999809E+01 0. -1.
</event>
<event>
 5   0  0.9418945E-08  0.3384217E+04  0.7818609E-02  0.8141791E-01
        1   -1    0    0  501    0  0.00000000000E+00  0.00000000000E+00  0.17777200459E+04  0.17777200459E+04  0.50400001928E-02 0.  1.
       -1   -1    0    0    0  501  0.00000000000E+00  0.00000000000E+00 -0.16106199307E+04  0.16106199307E+04  0.50400001928E-02 0. -1.
    10030    2    1    2    0    0  0.00000000000E+00  0.00000000000E+00  0.16710011523E+03  0.33883399766E+04  0.33842170954E+04 0.  0.
        5    1    3    3  502    0  0.94145648528E+03  0.14000489387E+04 -0.45959384305E+02  0.16877830723E+04  0.46999998093E+01 0.  1.
       -5    1    3    3    0  502 -0.94145648528E+03 -0.14000489387E+04  0.21305949953E+03  0.17005569043E+04  0.46999998093E+01 0. -1.
</event>
<event>
 5   0  0.3008879E-07  0.3616117E+04  0.7818609E-02  0.8086810E-01
       -2   -1    0    0    0  501  0.00000000000E+00  0.00000000000E+00  0.12370856367E+04  0.12370856367E+04  0.25500000920E-02 0. -1.
        2   -1    0    0  501    0  0.00000000000E+00  0.00000000000E+00 -0.26425619436E+04  0.26425619436E+04  0.25500000920E-02 0.  1.
    10030    2    1    2    0    0  0.00000000000E+00  0.00000000000E+00 -0.14054763068E+04  0.38796475803E+04  0.36161169365E+04 0.  0.
        2    1    3    3  502    0  0.56537190957E+03 -0.10344378910E+04  0.76806907953E+03  0.14069958270E+04  0.25500000920E-02 0. -1.
       -2    1    3    3    0  502 -0.56537190957E+03  0.10344378910E+04 -0.21735453863E+04  0.24726517533E+04  0.25500000920E-02 0.  1.
</event>
<event>
 5   0  0.9341000E-08  0.3696466E+04  0.7818609E-02  0.8068745E-01
        1   -1    0    0  501    0  0.00000000000E+00  0.00000000000E+00  0.20631734296E+04  0.20631734296E+04  0.50400001928E-02 0.  1.
       -1   -1    0    0    0  501  0.00000000000E+00  0.00000000000E+00 -0.16556849140E+04  0.16556849140E+04  0.50400001928E-02 0. -1.
    10030    2    1    2    0    0  0.00000000000E+00  0.00000000000E+00  0.40748851558E+03  0.37188583437E+04  0.36964659460E+04 0.  0.
        4    1    3    3  502    0  0.80277990582E+03  0.16467838961E+04  0.44937637588E+03  0.18863439553E+04  0.12699999809E+01 0.  1.
       -4    1    3    3    0  502 -0.80277990582E+03 -0.16467838961E+04 -0.41887860306E+02  0.18325143883E+04  0.12699999809E+01 0. -1.
</event>
<event>
 5   0  0.9341000E-08  0.3633071E+04  0.7818609E-02  0.8082958E-01
        1   -1    0    0  501    0  0.00000000000E+00  0.00000000000E+00  0.27458400265E+04  0.27458400265E+04  0.50400001928E-02 0.  1.
       -1   -1    0    0    0  501  0.00000000000E+00  0.00000000000E+00 -0.12017457882E+04  0.12017457882E+04  0.50400001928E-02 0. -1.
    10030    2    1    2    0    0  0.00000000000E+00  0.00000000000E+00  0.15440942383E+04  0.39475858147E+04  0.36330712556E+04 0.  0.
        1    1    3    3  502    0 -0.10336860977E+04  0.48933088615E+03  0.23055548909E+04  0.25736229366E+04  0.50400001928E-02 0.  1.
       -1    1    3    3    0  502  0.10336860977E+04 -0.48933088615E+03 -0.76146065267E+03  0.13739628781E+04  0.50400001928E-02 0. -1.
</event>
<event>
 5   0  0.3008879E-07  0.3625906E+04  0.7818609E-02  0.8084583E-01
        2   -1    0    0  501    0  0.00000000000E+00  0.00000000000E+00  0.24743109917E+04  0.24743109917E+04  0.25500000920E-02 0.  1.
       -2   -1    0    0    0  501  0.00000000000E+00  0.00000000000E+00 -0.13283692482E+04  0.13283692482E+04  0.25500000920E-02 0. -1.
    10030    2    1    2    0    0  0.00000000000E+00  0.00000000000E+00  0.11459417435E+04  0.38026802399E+04  0.36259060285E+04 0.  0.
        2    1    3    3  502    0 -0.16558165787E+04  0.65965435575E+03  0.22525548265E+03  0.17965557168E+04  0.25500000920E-02 0. -1.
       -2    1    3    3    0  502  0.16558165787E+04 -0.65965435575E+03  0.92068626085E+03  0.20061245231E+04  0.25500000920E-02 0.  1.
</event>
<event>
 5   0  0.2996969E-07  0.3700294E+04  0.7818609E-02  0.8067897E-01
       -2   -1    0    0    0  501  0.00000000000E+00  0.00000000000E+00  0.17375078386E+04  0.17375078386E+04  0.25500000920E-02 0.  1.
        2   -1    0    0  501    0  0.00000000000E+00  0.00000000000E+00 -0.19700883677E+04  0.19700883677E+04  0.25500000920E-02 0. -1.
    10030    2    1    2    0    0  0.00000000000E+00  0.00000000000E+00 -0.23258052913E+03  0.37075962063E+04  0.37002940324E+04 0.  0.
        1    1    3    3  502    0 -0.13305772078E+04 -0.28917340078E+03  0.11387737257E+04  0.17750669170E+04  0.50400001928E-02 0.  1.
       -1    1    3    3    0  502  0.13305772078E+04  0.28917340078E+03 -0.13713542548E+04  0.19325292892E+04  0.50400001928E-02 0. -1.
</event>
<event>
 5   0  0.9646615E-08  0.3558666E+04  0.7818609E-02  0.8100026E-01
        1   -1    0    0  501    0  0.00000000000E+00  0.00000000000E+00  0.13796292657E+04  0.13796292657E+04  0.50400001928E-02 0.  1.
       -1   -1    0    0    0  501  0.00000000000E+00  0.00000000000E+00 -0.22948377100E+04  0.22948377100E+04  0.50400001928E-02 0. -1.
    10030    2    1    2    0    0  0.00000000000E+00  0.00000000000E+00 -0.91520844429E+03  0.36744669757E+04  0.35586656290E+04 0.  0.
        2    1    3    3  502    0  0.10735337293E+04 -0.98102819744E+03 -0.15162148825E+04  0.21009042248E+04  0.25500000920E-02 0. -1.
       -2    1    3    3    0  502 -0.10735337293E+04  0.98102819744E+03  0.60100643818E+03  0.15735627509E+04  0.25500000920E-02 0.  1.
</event>
<event>
 5   0  0.9341000E-08  0.3264025E+04  0.7818609E-02  0.8172110E-01
        1   -1    0    0  501    0  0.00000000000E+00  0.00000000000E+00  0.15069649351E+04  0.15069649351E+04  0.50400001928E-02 0.  1.
       -1   -1    0    0    0  501  0.00000000000E+00  0.00000000000E+00 -0.17674359670E+04  0.17674359670E+04  0.50400001928E-02 0. -1.
    10030    2    1    2    0    0  0.00000000000E+00  0.00000000000E+00 -0.26047103191E+03  0.32744009020E+04  0.32640245264E+04 0.  0.
        3    1    3    3  502    0  0.14402932157E+04 -0.28731855913E+03 -0.84416322047E+03  0.16939917516E+04  0.10100000352E+00 0.  1.
       -3    1    3    3    0  502 -0.14402932157E+04  0.28731855913E+03  0.58369218857E+03  0.15804091504E+04  0.10100000352E+00 0. -1.
</event>
<event>
 5   0  0.9341000E-08  0.3670896E+04  0.7818609E-02  0.8074442E-01
       -1   -1    0    0    0  501  0.00000000000E+00  0.00000000000E+00  0.29452459723E+04  0.29452459723E+04  0.50400001928E-02 0. -1.
        1   -1    0    0  501    0  0.00000000000E+00  0.00000000000E+00 -0.11438328863E+04  0.11438328863E+04  0.50400001928E-02 0.  1.
    10030    2    1    2    0    0  0.00000000000E+00  0.00000000000E+00  0.18014130860E+04  0.40890788586E+04  0.36708959131E+04 0.  0.
        1    1    3    3  502    0 -0.99256938128E+03 -0.42076449803E+03  0.25554033050E+04  0.27735037030E+04  0.50400001928E-02 0. -1.
       -1    1    3    3    0  502  0.99256938128E+03  0.42076449803E+03 -0.75399021900E+03  0.13155751555E+04  0.50400001928E-02 0.  1.
</event>
<event>
 5   0  0.2897133E-07  0.3719338E+04  0.7818609E-02  0.8063690E-01
       -2   -1    0    0    0  501  0.00000000000E+00  0.00000000000E+00  0.13603070622E+04  0.13603070622E+04  0.25500000920E-02 0.  1.
        2   -1    0    0  501    0  0.00000000000E+00  0.00000000000E+00 -0.25423444671E+04  0.25423444671E+04  0.25500000920E-02 0. -1.
    10030    2    1    2    0    0  0.00000000000E+00  0.00000000000E+00 -0.11820374049E+04  0.39026515293E+04  0.37193381847E+04 0.  0.
        4    1    3    3  502    0  0.17271209108E+04  0.16688125346E+03  0.11096225428E+03  0.17387093570E+04  0.12699999809E+01 0.  1.
       -4    1    3    3    0  502 -0.17271209108E+04 -0.16688125346E+03 -0.12929996592E+04  0.21639421723E+04  0.12699999809E+01 0. -1.
</event>
<event>
 5   0  0.9341000E-08  0.3577355E+04  0.7818609E-02  0.8095699E-01
       -1   -1    0    0    0  501  0.00000000000E+00  0.00000000000E+00  0.10080131259E+04  0.10080131260E+04  0.50400001928E-02 0.  1.
        1   -1    0    0  501    0  0.00000000000E+00  0.00000000000E+00 -0.31739345742E+04  0.31739345743E+04  0.50400001928E-02 0. -1.
    10030    2    1    2    0    0  0.00000000000E+00  0.00000000000E+00 -0.21659214483E+04  0.41819477002E+04  0.35773552867E+04 0.  0.
        3    1    3    3  502    0  0.33126788945E+03 -0.92067513129E+03 -0.28333434875E+04  0.29975350607E+04  0.10100000352E+00 0. -1.
       -3    1    3    3    0  502 -0.33126788945E+03  0.92067513129E+03  0.66742203919E+03  0.11844126395E+04  0.10100000352E+00 0.  1.
</event>
<event>
 5   0  0.9341000E-08  0.3712864E+04  0.7818609E-02  0.8065117E-01
        1   -1    0    0  501    0  0.00000000000E+00  0.00000000000E+00  0.22019806382E+04  0.22019806382E+04  0.50400001928E-02 0. -1.
       -1   -1    0    0    0  501  0.00000000000E+00  0.00000000000E+00 -0.15651091275E+04  0.15651091275E+04  0.50400001928E-02 0.  1.
    10030    2    1    2    0    0  0.00000000000E+00  0.00000000000E+00  0.63687151067E+03  0.37670897657E+04  0.37128641211E+04 0.  0.
        1    1    3    3  502    0 -0.34574766335E+03  0.12740400256E+04 -0.10058550080E+04  0.16596577149E+04  0.50400001928E-02 0.  1.
       -1    1    3    3    0  502  0.34574766335E+03 -0.12740400256E+04  0.16427265187E+04  0.21074320508E+04  0.50400001928E-02 0. -1.
</event>
<event>
 5   0  0.9341000E-08  0.3703845E+04  0.7818609E-02  0.8067110E-01
        1   -1    0    0  501    0  0.00000000000E+00  0.00000000000E+00  0.29927870208E+04  0.29927870208E+04  0.50400001928E-02 0. -1.
       -1   -1    0    0    0  501  0.00000000000E+00  0.00000000000E+00 -0.11459608054E+04  0.11459608054E+04  0.50400001928E-02 0.  1.
    10030    2    1    2    0    0  0.00000000000E+00  0.00000000000E+00  0.18468262154E+04  0.41387478262E+04  0.37038448265E+04 0.  0.
        1    1    3    3  502    0  0.26092644470E+03 -0.16247692039E+04 -0.25840405254E+02  0.16457901756E+04  0.50400001928E-02 0.  1.
       -1    1    3    3    0  502 -0.26092644470E+03  0.16247692039E+04  0.18726666206E+04  0.24929576506E+04  0.50400001928E-02 0. -1.
</event>
<event>
 5   0  0.2897133E-07  0.3698504E+04  0.7818609E-02  0.8068294E-01
        2   -1    0    0  501    0  0.00000000000E+00  0.00000000000E+00  0.27274328040E+04  0.27274328040E+04  0.25500000920E-02 0.  1.
       -2   -1    0    0    0  501  0.00000000000E+00  0.00000000000E+00 -0.12538282715E+04  0.12538282715E+04  0.25500000920E-02 0. -1.
    10030    2    1    2    0    0  0.00000000000E+00  0.00000000000E+00  0.14736045324E+04  0.39812610755E+04  0.36985036749E+04 0.  0.
        4    1    3    3  502    0  0.51910846252E+03 -0.13025933490E+04 -0.56098429959E+03  0.15102741559E+04  0.12699999809E+01 0. -1.
       -4    1    3    3    0  502 -0.51910846252E+03  0.13025933490E+04  0.20345888320E+04  0.24709869196E+04  0.12699999809E+01 0.  1.
</event>
<event>
 5   0  0.3032442E-07  0.3673198E+04  0.7818609E-02  0.8073928E-01
        2   -1    0    0  501    0  0.00000000000E+00  0.00000000000E+00  0.23191890549E+04  0.23191890549E+04  0.25500000920E-02 0. -1.
       -2   -1    0    0    0  501  0.00000000000E+00  0.00000000000E+00 -0.14544287346E+04  0.14544287346E+04  0.25500000920E-02 0.  1.
    10030    2    1    2    0    0  0.00000000000E+00  0.00000000000E+00  0.86476032029E+03  0.37736177894E+04  0.36731976273E+04 0.  0.
        3    1    3    3  502    0 -0.31248720314E+03 -0.12635494525E+03  0.22871407820E+04  0.23118448891E+04  0.10100000352E+00 0. -1.
       -3    1    3    3    0  502  0.31248720314E+03  0.12635494525E+03 -0.14223804617E+04  0.14617729004E+04  0.10100000352E+00 0.  1.
</event>
<event>
 5   0  0.2913025E-07  0.3684658E+04  0.7818609E-02  0.8071370E-01
       -2   -1    0    0    0  501  0.00000000000E+00  0.00000000000E+00  0.19470710781E+04  0.19470710781E+04  0.25500000920E-02 0.  1.
        2   -1    0    0  501    0  0.00000000000E+00  0.00000000000E+00 -0.17432212650E+04  0.17432212650E+04  0.25500000920E-02 0. -1.
    10030    2    1    2    0    0  0.00000000000E+00  0.00000000000E+00  0.20384981306E+03  0.36902923431E+04  0.36846577631E+04 0.  0.
        5    1    3    3  502    0 -0.66812995726E+02 -0.18410833721E+04  0.11202290100E+03  0.18457039795E+04  0.46999998093E+01 0.  1.
       -5    1    3    3    0  502  0.66812995726E+02  0.18410833721E+04  0.91826912055E+02  0.18445883636E+04  0.46999998093E+01 0. -1.
</event>
<event>
 5   0  0.3032442E-07  0.3997963E+04  0.7818609E-02  0.8004958E-01
        2   -1    0    0  501    0  0.00000000000E+00  0.00000000000E+00  0.15803346393E+04  0.15803346393E+04  0.25500000920E-02 0. -1.
       -2   -1    0    0    0  501  0.00000000000E+00  0.00000000000E+00 -0.25285325616E+04  0.25285325616E+04  0.25500000920E-02 0.  1.
    10030    2    1    2    0    0  0.00000000000E+00  0.00000000000E+00 -0.94819792229E+03  0.41088672009E+04  0.39979632783E+04 0.  0.
        3    1    3    3  502    0  0.11093286853E+04 -0.11473880818E+04  0.76295950816E+03  0.17689592317E+04  0.10100000352E+00 0. -1.
       -3    1    3    3    0  502 -0.11093286853E+04  0.11473880818E+04 -0.17111574304E+04  0.23399079692E+04  0.10100000352E+00 0.  1.
</event>
<event>
 5   0  0.9418945E-08  0.3721113E+04  0.7818609E-02  0.8063299E-01
       -1   -1    0    0    0  501  0.00000000000E+00  0.00000000000E+00  0.25043006066E+04  0.25043006066E+04  0.50400001928E-02 0. -1.
        1   -1    0    0  501    0  0.00000000000E+00  0.00000000000E+00 -0.13822902947E+04  0.13822902947E+04  0.50400001928E-02 0.  1.
    10030    2    1    2    0    0  0.00000000000E+00  0.00000000000E+00  0.11220103120E+04  0.38865909013E+04  0.37211129644E+04 0.  0.
        5    1    3    3  502    0 -0.96065771758E+03 -0.11328619145E+04 -0.60927162436E+03  0.16054511422E+04  0.46999998093E+01 0.  1.
       -5    1    3    3    0  502  0.96065771758E+03  0.11328619145E+04  0.17312819363E+04  0.22811397591E+04  0.46999998093E+01 0. -1.
</event>
<event>
 5   0  0.2913025E-07  0.3729700E+04  0.7818609E-02  0.8061412E-01
        2   -1    0    0  501    0  0.00000000000E+00  0.00000000000E+00  0.22995450421E+04  0.22995450421E+04  0.25500000920E-02 0.  1.
       -2   -1    0    0    0  501  0.00000000000E+00  0.00000000000E+00 -0.15123277659E+04  0.15123277659E+04  0.25500000920E-02 0. -1.
    10030    2    1    2    0    0  0.00000000000E+00  0.00000000000E+00  0.78721727617E+03  0.38118728080E+04  0.37297001574E+04 0.  0.
        5    1    3    3  502    0 -0.17419720661E+04  0.23880621392E+03 -0.24149081171E+03  0.17747774477E+04  0.46999998093E+01 0. -1.
       -5    1    3    3    0  502  0.17419720661E+04 -0.23880621392E+03  0.10287080879E+04  0.20370953603E+04  0.46999998093E+01 0.  1.
</event>
<event>
 5   0  0.3008879E-07  0.3723938E+04  0.7818609E-02  0.8062677E-01
       -2   -1    0    0    0  501  0.00000000000E+00  0.00000000000E+00  0.20274485702E+04  0.20274485702E+04  0.25500000920E-02 0. -1.
        2   -1    0    0  501    0  0.00000000000E+00  0.00000000000E+00 -0.17099959672E+04  0.17099959672E+04  0.25500000920E-02 0.  1.
    10030    2    1    2    0    0  0.00000000000E+00  0.00000000000E+00  0.31745260301E+03  0.37374445374E+04  0.37239381728E+04 0.  0.
        2    1    3    3  502    0  0.19632087709E+03 -0.16548276051E+04 -0.67490809258E+03  0.17979146873E+04  0.25500000920E-02 0.  1.
       -2    1    3    3    0  502 -0.19632087709E+03  0.16548276051E+04  0.99236069559E+03  0.19395298501E+04  0.25500000920E-02 0. -1.
</event>
<event>
 5   0  0.2913025E-07  0.3694303E+04  0.7818609E-02  0.8069225E-01
        2   -1    0    0  501    0  0.00000000000E+00  0.00000000000E+00  0.13547067895E+04  0.13547067895E+04  0.25500000920E-02 0. -1.
       -2   -1    0    0    0  501  0.00000000000E+00  0.00000000000E+00 -0.25186036573E+04  0.25186036573E+04  0.25500000920E-02 0.  1.
    10030    2    1    2    0    0  0.00000000000E+00  0.00000000000E+00 -0.11638968678E+04  0.38733104468E+04  0.36943034389E+04 0.  0.
        5    1    3    3  502    0 -0.36569283907E+03  0.31483493740E+02  0.13160806695E+04  0.13663136103E+04  0.46999998093E+01 0. -1.
       -5    1    3    3    0  502  0.36569283907E+03 -0.31483493740E+02 -0.24799775373E+04  0.25069968365E+04  0.46999998093E+01 0.  1.
</event>
<event>
 5   0  0.9341000E-08  0.3675304E+04  0.7818609E-02  0.8073457E-01
       -1   -1    0    0    0  501  0.00000000000E+00  0.00000000000E+00  0.98619721828E+03  0.98619721829E+03  0.50400001928E-02 0. -1.
        1   -1    0    0  501    0  0.00000000000E+00  0.00000000000E+00 -0.34242289304E+04  0.34242289304E+04  0.50400001928E-02 0.  1.
    10030    2    1    2    0    0  0.00000000000E+00  0.00000000000E+00 -0.24380317121E+04  0.44104261487E+04  0.36753040940E+04 0.  0.
        1    1    3    3  502    0 -0.79167432518E+03  0.14243805190E+04 -0.19980888610E+03  0.16418074464E+04  0.50400001928E-02 0. -1.
       -1    1    3    3    0  502  0.79167432518E+03 -0.14243805190E+04 -0.22382228260E+04  0.27686187023E+04  0.50400001928E-02 0.  1.
</event>
<event>
 5   0  0.3008879E-07  0.3626738E+04  0.7818609E-02  0.8084394E-01
       -2   -1    0    0    0  501  0.00000000000E+00  0.00000000000E+00  0.22065125289E+04  0.22065125289E+04  0.25500000920E-02 0.  1.
        2   -1    0    0  501    0  0.00000000000E+00  0.00000000000E+00 -0.14902731586E+04  0.14902731586E+04  0.25500000920E-02 0. -1.
    10030    2    1    2    0    0  0.00000000000E+00  0.00000000000E+00  0.71623937028E+03  0.36967856875E+04  0.36267375951E+04 0.  0.
        2    1    3    3  502    0 -0.16017149143E+03 -0.11067991319E+04  0.18131519801E+04  0.21303002906E+04  0.25500000920E-02 0.  1.
       -2    1    3    3    0  502  0.16017149143E+03  0.11067991319E+04 -0.10969126098E+04  0.15664853969E+04  0.25500000920E-02 0. -1.
</event>
<event>
 5   0  0.9418945E-08  0.3725879E+04  0.7818609E-02  0.8062251E-01
       -1   -1    0    0    0  501  0.00000000000E+00  0.00000000000E+00  0.28943713684E+04  0.28943713685E+04  0.50400001928E-02 0.  1.
        1   -1    0    0  501    0  0.00000000000E+00  0.00000000000E+00 -0.11990663758E+04  0.11990663758E+04  0.50400001928E-02 0. -1.
    10030    2    1    2    0    0  0.00000000000E+00  0.00000000000E+00  0.16953049926E+04  0.40934377443E+04  0.37258788961E+04 0.  0.
        5    1    3    3  502    0 -0.10299062913E+04 -0.98139259539E+03 -0.47378348906E+03  0.14994436567E+04  0.46999998093E+01 0. -1.
       -5    1    3    3    0  502  0.10299062913E+04  0.98139259539E+03  0.21690884817E+04  0.25939940876E+04  0.46999998093E+01 0.  1.
</event>
<event>
 5   0  0.9418945E-08  0.3706321E+04  0.7818609E-02  0.8066562E-01
       -1   -1    0    0    0  501  0.00000000000E+00  0.00000000000E+00  0.13681878895E+04  0.13681878895E+04  0.50400001928E-02 0. -1.
        1   -1    0    0  501    0  0.00000000000E+00  0.00000000000E+00 -0.25100381412E+04  0.25100381412E+04  0.50400001928E-02 0.  1.
    10030    2    1    2    0    0  0.00000000000E+00  0.00000000000E+00 -0.11418502517E+04  0.38782260306E+04  0.37063209720E+04 0.  0.
        5    1    3    3  502    0 -0.41959212722E+01  0.98192916493E+03 -0.22154359582E+04  0.24232996236E+04  0.46999998093E+01 0.  1.
       -5    1    3    3    0  502  0.41959212722E+01 -0.98192916493E+03  0.10735857065E+04  0.14549264071E+04  0.46999998093E+01 0. -1.
</event>
<event>
 5   0  0.2897133E-07  0.3698994E+04  0.7818609E-02  0.8068185E-01
        2   -1    0    0  501    0  0.00000000000E+00  0.00000000000E+00  0.21027863630E+04  0.21027863630E+04  0.25500000920E-02 0. -1.
       -2   -1    0    0    0  501  0.00000000000E+00  0.00000000000E+00 -0.16267177890E+04  0.16267177890E+04  0.25500000920E-02 0.  1.
    10030    2    1    2    0    0  0.00000000000E+00  0.00000000000E+00  0.47606857400E+03  0.37295041520E+04  0.36989944488E+04 0.  0.
        4    1    3    3  502    0  0.28012153403E+03 -0.58934849774E+03 -0.15067997705E+04  0.16420252395E+04  0.12699999809E+01 0.  1.
       -4    1    3    3    0  502 -0.28012153403E+03  0.58934849774E+03  0.19828683445E+04  0.20874789125E+04  0.12699999809E+01 0. -1.
</event>
<event>
 5   0  0.9418945E-08  0.3684395E+04  0.7818609E-02  0.8071429E-01
       -1   -1    0    0    0  501  0.00000000000E+00  0.00000000000E+00  0.20522295783E+04  0.20522295783E+04  0.50400001928E-02 0. -1.
        1   -1    0    0  501    0  0.00000000000E+00  0.00000000000E+00 -0.16536606633E+04  0.16536606633E+04  0.50400001928E-02 0.  1.
    10030    2    1    2    0    0  0.00000000000E+00  0.00000000000E+00  0.39856891502E+03  0.37058902417E+04  0.36843948354E+04 0.  0.
        5    1    3    3  502    0  0.15165146422E+03  0.14338158157E+04 -0.95407155126E+03  0.17289015515E+04  0.46999998093E+01 0.  1.
       -5    1    3    3    0  502 -0.15165146422E+03 -0.14338158157E+04  0.13526404663E+04  0.19769886901E+04  0.46999998093E+01 0. -1.
</event>
<event>
 5   0  0.9341000E-08  0.3709286E+04  0.7818609E-02  0.8065907E-01
       -1   -1    0    0    0  501  0.00000000000E+00  0.00000000000E+00  0.18182788517E+04  0.18182788517E+04  0.50400001928E-02 0. -1.
        1   -1    0    0  501    0  0.00000000000E+00  0.00000000000E+00 -0.18917348785E+04  0.18917348785E+04  0.50400001928E-02 0.  1.
    10030    2    1    2    0    0  0.00000000000E+00  0.00000000000E+00 -0.73456026810E+02  0.37100137302E+04  0.37092864665E+04 0.  0.
        1    1    3    3  502    0  0.17630352717E+04  0.14095571568E+03 -0.59499480981E+03  0.18660602098E+04  0.50400001928E-02 0. -1.
       -1    1    3    3    0  502 -0.17630352717E+04 -0.14095571568E+03  0.52153878300E+03  0.18439535204E+04  0.50400001928E-02 0.  1.
</event>
<event>
 5   0  0.9418945E-08  0.3988067E+04  0.7818609E-02  0.8006958E-01
        1   -1    0    0  501    0  0.00000000000E+00  0.00000000000E+00  0.10977006087E+04  0.10977006087E+04  0.50400001928E-02 0. -1.
       -1   -1    0    0    0  501  0.00000000000E+00  0.00000000000E+00 -0.36222712385E+04  0.36222712385E+04  0.50400001928E-02 0.  1.
    10030    2    1    2    0    0  0.00000000000E+00  0.00000000000E+00 -0.25245706298E+04  0.47199718472E+04  0.39880668717E+04 0.  0.
        5    1    3    3  502    0 -0.77242776055E+03 -0.80513024194E+03 -0.32182415211E+04  0.34061679245E+04  0.46999998093E+01 0.  1.
       -5    1    3    3    0  502  0.77242776055E+03  0.80513024194E+03  0.69367089130E+03  0.13138039227E+04  0.46999998093E+01 0. -1.
</event>
<event>
 5   0  0.2913025E-07  0.3687289E+04  0.7818609E-02  0.8070785E-01
        2   -1    0    0  501    0  0.00000000000E+00  0.00000000000E+00  0.26113104394E+04  0.26113104394E+04  0.25500000920E-02 0. -1.
       -2   -1    0    0    0  501  0.00000000000E+00  0.00000000000E+00 -0.13016550892E+04  0.13016550892E+04  0.25500000920E-02 0.  1.
    10030    2    1    2    0    0  0.00000000000E+00  0.00000000000E+00  0.13096553502E+04  0.39129655286E+04  0.36872892607E+04 0.  0.
        5    1    3    3  502    0 -0.16009011469E+04  0.62677618376E+03  0.13613619921E+04  0.21929572340E+04  0.46999998093E+01 0. -1.
       -5    1    3    3    0  502  0.16009011469E+04 -0.62677618376E+03 -0.51706641877E+02  0.17200082946E+04  0.46999998093E+01 0.  1.
</event>
<event>
 5   0  0.9341000E-08  0.3666435E+04  0.7818609E-02  0.8075441E-01
       -1   -1    0    0    0  501  0.00000000000E+00  0.00000000000E+00  0.22433984283E+04  0.22433984283E+04  0.50400001928E-02 0.  1.
        1   -1    0    0  501    0  0.00000000000E+00  0.00000000000E+00 -0.14980338284E+04  0.14980338284E+04  0.50400001928E-02 0. -1.
    10030    2    1    2    0    0  0.00000000000E+00  0.00000000000E+00  0.74536459983E+03  0.37414322567E+04  0.36664351821E+04 0.  0.
        1    1    3    3  502    0 -0.69326192334E+03  0.10523360623E+04  0.17313305073E+04  0.21413847408E+04  0.50400001928E-02 0.  1.
       -1    1    3    3    0  502  0.69326192334E+03 -0.10523360623E+04 -0.98596590749E+03  0.16000475159E+04  0.50400001928E-02 0. -1.
</event>
<event>
 5   0  0.2913025E-07  0.3454597E+04  0.7818609E-02  0.8124635E-01
       -2   -1    0    0    0  501  0.00000000000E+00  0.00000000000E+00  0.15694330252E+04  0.15694330252E+04  0.25500000920E-02 0.  1.
        2   -1    0    0  501    0  0.00000000000E+00  0.00000000000E+00 -0.19010427910E+04  0.19010427910E+04  0.25500000920E-02 0. -1.
    10030    2    1    2    0    0  0.00000000000E+00  0.00000000000E+00 -0.33160976575E+03  0.34704758162E+04  0.34545965545E+04 0.  0.
        5    1    3    3  502    0  0.11637841759E+04  0.13896476442E+03 -0.14404286830E+04  0.18570303430E+04  0.46999998093E+01 0. -1.
       -5    1    3    3    0  502 -0.11637841759E+04 -0.13896476442E+03  0.11088189173E+04  0.16134454732E+04  0.46999998093E+01 0.  1.
</event>
<event>
 5   0  0.9418945E-08  0.3721543E+04  0.7818609E-02  0.8063204E-01
        1   -1    0    0  501    0  0.00000000000E+00  0.00000000000E+00  0.10700555374E+04  0.10700555374E+04  0.50400001928E-02 0.  1.
       -1   -1    0    0    0  501  0.00000000000E+00  0.00000000000E+00 -0.32357864453E+04  0.32357864453E+04  0.50400001928E-02 0. -1.
    10030    2    1    2    0    0  0.00000000000E+00  0.00000000000E+00 -0.21657309079E+04  0.43058419827E+04  0.37215433378E+04 0.  0.
        5    1    3    3  502    0  0.38868788348E+02  0.18473118125E+04 -0.82838392690E+03  0.20249231431E+04  0.46999998093E+01 0. -1.
       -5    1    3    3    0  502 -0.38868788348E+02 -0.18473118125E+04 -0.13373469810E+04  0.22809188396E+04  0.46999998093E+01 0.  1.
</event>
<event>
 5   0  0.2897133E-07  0.3681844E+04  0.7818609E-02  0.8071997E-01
       -2   -1    0    0    0  501  0.00000000000E+00  0.00000000000E+00  0.16819677605E+04  0.16819677605E+04  0.25500000920E-02 0.  1.
        2   -1    0    0  501    0  0.00000000000E+00  0.00000000000E+00 -0.20148986144E+04  0.20148986144E+04  0.25500000920E-02 0. -1.
    10030    2    1    2    0    0  0.00000000000E+00  0.00000000000E+00 -0.33293085391E+03  0.36968663748E+04  0.36818443802E+04 0.  0.
        4    1    3    3  502    0  0.10801420755E+04  0.81554831124E+03 -0.14194216945E+04  0.19612714017E+04  0.12699999809E+01 0. -1.
       -4    1    3    3    0  502 -0.10801420755E+04 -0.81554831124E+03  0.10864908406E+04  0.17355949732E+04  0.12699999809E+01 0.  1.
</event>
<event>
 5   0  0.9341000E-08  0.3705227E+04  0.7818609E-02  0.8066804E-01
       -1   -1    0    0    0  501  0.00000000000E+00  0.00000000000E+00  0.20103494593E+04  0.20103494593E+04  0.50400001928E-02 0. -1.
        1   -1    0    0  501    0  0.00000000000E+00  0.00000000000E+00 -0.17072541328E+04  0.17072541328E+04  0.50400001928E-02 0.  1.
    10030    2    1    2    0    0  0.00000000000E+00  0.00000000000E+00  0.30309532649E+03  0.37176035921E+04  0.37052273468E+04 0.  0.
        4    1    3    3  502    0  0.90367183516E+02 -0.56448095423E+03 -0.16165447200E+04  0.17146496494E+04  0.12699999809E+01 0.  1.
       -4    1    3    3    0  502 -0.90367183516E+02  0.56448095423E+03  0.19196400465E+04  0.20029539427E+04  0.12699999809E+01 0. -1.
</event>
<event>
 5   0  0.9646615E-08  0.3777184E+04  0.7818609E-02  0.8051069E-01
       -1   -1    0    0    0  501  0.00000000000E+00  0.00000000000E+00  0.15750625173E+04  0.15750625173E+04  0.50400001928E-02 0. -1.
        1   -1    0    0  501    0  0.00000000000E+00  0.00000000000E+00 -0.22645326194E+04  0.22645326194E+04  0.50400001928E-02 0.  1.
    10030    2    1    2    0    0  0.00000000000E+00  0.00000000000E+00 -0.68947010211E+03  0.38395951367E+04  0.37771843736E+04 0.  0.
        2    1    3    3  502    0 -0.12333230320E+04  0.12789656471E+04 -0.99558107378E+03  0.20366689722E+04  0.25500000920E-02 0.  1.
       -2    1    3    3    0  502  0.12333230320E+04 -0.12789656471E+04  0.30611097167E+03  0.18029261645E+04  0.25500000920E-02 0. -1.
</event>
<event>
 5   0  0.9341000E-08  0.3644799E+04  0.7818609E-02  0.8080306E-01
       -1   -1    0    0    0  501  0.00000000000E+00  0.00000000000E+00  0.18848756574E+04  0.18848756574E+04  0.50400001928E-02 0. -1.
        1   -1    0    0  501    0  0.00000000000E+00  0.00000000000E+00 -0.17619946044E+04  0.17619946044E+04  0.50400001928E-02 0.  1.
    10030    2    1    2    0    0  0.00000000000E+00  0.00000000000E+00  0.12288105297E+03  0.36468702618E+04  0.36447994394E+04 0.  0.
        3    1    3    3  502    0 -0.60635227095E+03  0.17155650457E+04  0.16305720397E+03  0.18268590981E+04  0.10100000352E+00 0. -1.
       -3    1    3    3    0  502  0.60635227095E+03 -0.17155650457E+04 -0.40176150996E+02  0.18200111637E+04  0.10100000352E+00 0.  1.
</event>
<event>
 5   0  0.3032442E-07  0.3687367E+04  0.7818609E-02  0.8070767E-01
       -2   -1    0    0    0  501  0.00000000000E+00  0.00000000000E+00  0.19573760382E+04  0.19573760382E+04  0.25500000920E-02 0. -1.
        2   -1    0    0  501    0  0.00000000000E+00  0.00000000000E+00 -0.17365942839E+04  0.17365942839E+04  0.25500000920E-02 0.  1.
    10030    2    1    2    0    0  0.00000000000E+00  0.00000000000E+00  0.22078175427E+03  0.36939703220E+04  0.36873665613E+04 0.  0.
        3    1    3    3  502    0  0.24289488546E+03  0.14489548592E+04  0.12262528201E+04  0.19136781596E+04  0.10100000352E+00 0. -1.
       -3    1    3    3    0  502 -0.24289488546E+03 -0.14489548592E+04 -0.10054710659E+04  0.17802921625E+04  0.10100000352E+00 0.  1.
</event>
<event>
 5   0  0.9646615E-08  0.3714391E+04  0.7818609E-02  0.8064780E-01
       -1   -1    0    0    0  501  0.00000000000E+00  0.00000000000E+00  0.20586935161E+04  0.20586935161E+04  0.50400001928E-02 0.  1.
        1   -1    0    0  501    0  0.00000000000E+00  0.00000000000E+00 -0.16754196413E+04  0.16754196413E+04  0.50400001928E-02 0. -1.
    10030    2    1    2    0    0  0.00000000000E+00  0.00000000000E+00  0.38327387476E+03  0.37341131574E+04  0.37143912299E+04 0.  0.
        2    1    3    3  502    0  0.16811484883E+03  0.17363167040E+04 -0.44902002380E+03  0.18012987761E+04  0.25500000920E-02 0. -1.
       -2    1    3    3    0  502 -0.16811484883E+03 -0.17363167040E+04  0.83229389856E+03  0.19328143813E+04  0.25500000920E-02 0.  1.
</event>
<event>
 5   0  0.9341000E-08  0.3698991E+04  0.7818609E-02  0.8068186E-01
        1   -1    0    0  501    0  0.00000000000E+00  0.00000000000E+00  0.18368704990E+04  0.18368704990E+04  0.50400001928E-02 0.  1.
       -1   -1    0    0    0  501  0.00000000000E+00  0.00000000000E+00 -0.18622068641E+04  0.18622068641E+04  0.50400001928E-02 0. -1.
    10030    2    1    2    0    0  0.00000000000E+00  0.00000000000E+00 -0.25336365142E+02  0.36990773631E+04  0.36989905930E+04 0.  0.
        4    1    3    3  502    0 -0.90672610100E+03 -0.15466186701E+04 -0.46704620972E+03  0.18526508867E+04  0.12699999809E+01 0.  1.
       -4    1    3    3    0  502  0.90672610100E+03  0.15466186701E+04  0.44170984458E+03  0.18464264764E+04  0.12699999809E+01 0. -1.
</event>
<event>
 5   0  0.2913025E-07  0.3715232E+04  0.7818609E-02  0.8064595E-01
        2   -1    0    0  501    0  0.00000000000E+00  0.00000000000E+00  0.14248264902E+04  0.14248264902E+04  0.25500000920E-02 0.  1.
       -2   -1    0    0    0  501  0.00000000000E+00  0.00000000000E+00 -0.24218646097E+04  0.24218646097E+04  0.25500000920E-02 0. -1.
    10030    2    1    2    0    0  0.00000000000E+00  0.00000000000E+00 -0.99703811953E+03  0.38466910999E+04  0.37152318105E+04 0.  0.
        5    1    3    3  502    0  0.12782972397E+04  0.94485896928E+03 -0.14937338172E+04  0.21812989505E+04  0.46999998093E+01 0. -1.
       -5    1    3    3    0  502 -0.12782972397E+04 -0.94485896928E+03  0.49669569771E+03  0.16653921493E+04  0.46999998093E+01 0.  1.
</event>
<event>
 5   0  0.2897133E-07  0.3717980E+04  0.7818609E-02  0.8063989E-01
        2   -1    0    0  501    0  0.00000000000E+00  0.00000000000E+00  0.23064504624E+04  0.23064504624E+04  0.25500000920E-02 0. -1.
       -2   -1    0    0    0  501  0.00000000000E+00  0.00000000000E+00 -0.14983382460E+04  0.14983382460E+04  0.25500000920E-02 0.  1.
    10030    2    1    2    0    0  0.00000000000E+00  0.00000000000E+00  0.80811221648E+03  0.38047887084E+04  0.37179795267E+04 0.  0.
        4    1    3    3  502    0  0.97472790014E+03  0.15656420346E+04  0.16512699016E+03  0.18516473735E+04  0.12699999809E+01 0.  1.
       -4    1    3    3    0  502 -0.97472790014E+03 -0.15656420346E+04  0.64298522633E+03  0.19531413349E+04  0.12699999809E+01 0. -1.
</event>
<event>
 5   0  0.9646615E-08  0.3691577E+04  0.7818609E-02  0.8069831E-01
       -1   -1    0    0    0  501  0.00000000000E+00  0.00000000000E+00  0.12354281675E+04  0.12354281675E+04  0.50400001928E-02 0. -1.
        1   -1    0    0  501    0  0.00000000000E+00  0.00000000000E+00 -0.27576964092E+04  0.27576964092E+04  0.50400001928E-02 0.  1.
    10030    2    1    2    0    0  0.00000000000E+00  0.00000000000E+00 -0.15222682417E+04  0.39931245767E+04  0.36915773438E+04 0.  0.
        2    1    3    3  502    0 -0.37738643122E+03 -0.17974820818E+04 -0.95933199527E+03  0.20721197432E+04  0.25500000920E-02 0. -1.
       -2    1    3    3    0  502  0.37738643122E+03  0.17974820818E+04 -0.56293624643E+03  0.19210048335E+04  0.25500000920E-02 0.  1.
</event>
<event>
 5   0  0.9341000E-08  0.3607495E+04  0.7818609E-02  0.8088777E-01
       -1   -1    0    0    0  501  0.00000000000E+00  0.00000000000E+00  0.28446850793E+04  0.28446850793E+04  0.50400001928E-02 0.  1.
        1   -1    0    0  501    0  0.00000000000E+00  0.00000000000E+00 -0.11437134111E+04  0.11437134111E+04  0.50400001928E-02 0. -1.
    10030    2    1    2    0    0  0.00000000000E+00  0.00000000000E+00  0.17009716683E+04  0.39883984904E+04  0.36074946850E+04 0.  0.
        3    1    3    3  502    0  0.90697612889E+03  0.63843887907E+03  0.24231007869E+04  0.26648878653E+04  0.10100000352E+00 0.  1.
       -3    1    3    3    0  502 -0.90697612889E+03 -0.63843887907E+03 -0.72212911865E+03  0.13235106252E+04  0.10100000352E+00 0. -1.
</event>
<event>
 5   0  0.9418945E-08  0.3812860E+04  0.7818609E-02  0.8043401E-01
       -1   -1    0    0    0  501  0.00000000000E+00  0.00000000000E+00  0.18338629728E+04  0.18338629728E+04  0.50400001928E-02 0.  1.
        1   -1    0    0  501    0  0.00000000000E+00  0.00000000000E+00 -0.19818686877E+04  0.19818686877E+04  0.50400001928E-02 0. -1.
    10030    2    1    2    0    0  0.00000000000E+00  0.00000000000E+00 -0.14800571494E+03  0.38157316606E+04  0.38128601356E+04 0.  0.
        5    1    3    3  502    0  0.19032051411E+04  0.33883749567E+02  0.31507070325E+02  0.19037732804E+04  0.46999998093E+01 0. -1.
       -5    1    3    3    0  502 -0.19032051411E+04 -0.33883749567E+02 -0.17951278527E+03  0.19119583802E+04  0.46999998093E+01 0.  1.
</event>
<event>
 5   0  0.3008879E-07  0.3730607E+04  0.7818609E-02  0.8061213E-01
        2   -1    0    0  501    0  0.00000000000E+00  0.00000000000E+00  0.20368489914E+04  0.20368489914E+04  0.25500000920E-02 0. -1.
       -2   -1    0    0    0  501  0.00000000000E+00  0.00000000000E+00 -0.17082056630E+04  0.17082056630E+04  0.25500000920E-02 0.  1.
    10030    2    1    2    0    0  0.00000000000E+00  0.00000000000E+00  0.32864332842E+03  0.37450546544E+04  0.37306069113E+04 0.  0.
        2    1    3    3  502    0  0.12077919463E+03  0.15471022457E+04 -0.87469586050E+03  0.17813494382E+04  0.25500000920E-02 0. -1.
       -2    1    3    3    0  502 -0.12077919463E+03 -0.15471022457E+04  0.12033391889E+04  0.19637052162E+04  0.25500000920E-02 0.  1.
</event>
<event>
 5   0  0.9341000E-08  0.3708187E+04  0.7818609E-02  0.8066150E-01
        1   -1    0    0  501    0  0.00000000000E+00  0.00000000000E+00  0.13132132732E+04  0.13132132733E+04  0.50400001928E-02 0. -1.
       -1   -1    0    0    0  501  0.00000000000E+00  0.00000000000E+00 -0.26177484494E+04  0.26177484494E+04  0.50400001928E-02 0.  1.
    10030    2    1    2    0    0  0.00000000000E+00  0.00000000000E+00 -0.13045351761E+04  0.39309617226E+04  0.37081866241E+04 0.  0.
        1    1    3    3  502    0  0.23771271876E+03 -0.17443152081E+04 -0.35489638822E+02  0.17607959553E+04  0.50400001928E-02 0. -1.
       -1    1    3    3    0  502 -0.23771271876E+03  0.17443152081E+04 -0.12690455373E+04  0.21701657673E+04  0.50400001928E-02 0.  1.
</event>
<event>
 5   0  0.2913025E-07  0.3707750E+04  0.7818609E-02  0.8066246E-01
       -2   -1    0    0    0  501  0.00000000000E+00  0.00000000000E+00  0.14975086444E+04  0.14975086444E+04  0.25500000920E-02 0.  1.
        2   -1    0    0  501    0  0.00000000000E+00  0.00000000000E+00 -0.22950469254E+04  0.22950469254E+04  0.25500000920E-02 0. -1.
    10030    2    1    2    0    0  0.00000000000E+00  0.00000000000E+00 -0.79753828093E+03  0.37925555698E+04  0.37077500509E+04 0.  0.
        5    1    3    3  502    0  0.79107177085E+03 -0.12832463052E+04  0.70494531306E+03  0.16641771573E+04  0.46999998093E+01 0. -1.
       -5    1    3    3    0  502 -0.79107177085E+03  0.12832463052E+04 -0.15024835940E+04  0.21283784125E+04  0.46999998093E+01 0.  1.
</event>
<event>
 5   0  0.9341000E-08  0.3675371E+04  0.7818609E-02  0.8073442E-01
        1   -1    0    0  501    0  0.00000000000E+00  0.00000000000E+00  0.10714130005E+04  0.10714130005E+04  0.50400001928E-02 0.  1.
       -1   -1    0    0    0  501  0.00000000000E+00  0.00000000000E+00 -0.31519946628E+04  0.31519946628E+04  0.50400001928E-02 0. -1.
    10030    2    1    2    0    0  0.00000000000E+00  0.00000000000E+00 -0.20805816623E+04  0.42234076633E+04  0.36753710340E+04 0.  0.
        3    1    3    3  502    0  0.75768973541E+03  0.43015699593E+03  0.81898257873E+03  0.11957680589E+04  0.10100000352E+00 0.  1.
       -3    1    3    3    0  502 -0.75768973541E+03 -0.43015699593E+03 -0.28995642410E+04  0.30276396044E+04  0.10100000352E+00 0. -1.
</event>
<event>
 5   0  0.3008879E-07  0.3678450E+04  0.7818609E-02  0.8072754E-01
       -2   -1    0    0    0  501  0.00000000000E+00  0.00000000000E+00  0.11856047928E+04  0.11856047928E+04  0.25500000920E-02 0. -1.
        2   -1    0    0  501    0  0.00000000000E+00  0.00000000000E+00 -0.28531843611E+04  0.28531843611E+04  0.25500000920E-02 0.  1.
    10030    2    1    2    0    0  0.00000000000E+00  0.00000000000E+00 -0.16675795683E+04  0.40387891539E+04  0.36784502461E+04 0.  0.
        2    1    3    3  502    0  0.74575857916E+03 -0.39518394250E+03  0.96043277354E+03  0.12785762861E+04  0.25500000920E-02 0. -1.
       -2    1    3    3    0  502 -0.74575857916E+03  0.39518394250E+03 -0.26280123419E+04  0.27602128678E+04  0.25500000920E-02 0.  1.
</event>
<event>
 5   0  0.2913025E-07  0.3671185E+04  0.7818609E-02  0.8074378E-01
        2   -1    0    0  501    0  0.00000000000E+00  0.00000000000E+00  0.15446553889E+04  0.15446553889E+04  0.25500000920E-02 0. -1.
       -2   -1    0    0    0  501  0.00000000000E+00  0.00000000000E+00 -0.21813284324E+04  0.21813284324E+04  0.25500000920E-02 0.  1.
    10030    2    1    2    0    0  0.00000000000E+00  0.00000000000E+00 -0.63667304349E+03  0.37259838213E+04  0.36711854860E+04 0.  0.
        5    1    3    3  502    0  0.14207968205E+04 -0.85832341563E+03  0.47693857982E+03  0.17271002258E+04  0.46999998093E+01 0. -1.
       -5    1    3    3    0  502 -0.14207968205E+04  0.85832341563E+03 -0.11136116233E+04  0.19988835956E+04  0.46999998093E+01 0.  1.
</event>
<event>
 5   0  0.9341000E-08  0.3691158E+04  0.7818609E-02  0.8069924E-01
        1   -1    0    0  501    0  0.00000000000E+00  0.00000000000E+00  0.13309241006E+04  0.13309241006E+04  0.50400001928E-02 0.  1.
       -1   -1    0    0    0  501  0.00000000000E+00  0.00000000000E+00 -0.25592463810E+04  0.25592463810E+04  0.50400001928E-02 0. -1.
    10030    2    1    2    0    0  0.00000000000E+00  0.00000000000E+00 -0.12283222804E+04  0.38901704816E+04  0.36911584566E+04 0.  0.
        1    1    3    3  502    0  0.73828722369E+03 -0.21132840523E+03 -0.23828677904E+04  0.25035547979E+04  0.50400001928E-02 0. -1.
       -1    1    3    3    0  502 -0.73828722369E+03  0.21132840523E+03  0.11545455100E+04  0.13866156837E+04  0.50400001928E-02 0.  1.
</event>
<event>
 5   0  0.9341000E-08  0.3692868E+04  0.7818609E-02  0.8069544E-01
       -1   -1    0    0    0  501  0.00000000000E+00  0.00000000000E+00  0.14517374205E+04  0.14517374205E+04  0.50400001928E-02 0.  1.
        1   -1    0    0  501    0  0.00000000000E+00  0.00000000000E+00 -0.23484406066E+04  0.23484406066E+04  0.50400001928E-02 0. -1.
    10030    2    1    2    0    0  0.00000000000E+00  0.00000000000E+00 -0.89670318604E+03  0.38001780271E+04  0.36928683207E+04 0.  0.
        4    1    3    3  502    0  0.71769259661E+03 -0.34497726280E+03 -0.21626612074E+04  0.23046034553E+04  0.12699999809E+01 0. -1.
       -4    1    3    3    0  502 -0.71769259661E+03  0.34497726280E+03  0.12659580214E+04  0.14955745718E+04  0.12699999809E+01 0.  1.
</event>
<event>
 5   0  0.3032442E-07  0.3694555E+04  0.7818609E-02  0.8069169E-01
       -2   -1    0    0    0  501  0.00000000000E+00  0.00000000000E+00  0.19646931798E+04  0.19646931798E+04  0.25500000920E-02 0. -1.
        2   -1    0    0  501    0  0.00000000000E+00  0.00000000000E+00 -0.17368793763E+04  0.17368793763E+04  0.25500000920E-02 0.  1.
    10030    2    1    2    0    0  0.00000000000E+00  0.00000000000E+00  0.22781380351E+03  0.37015725561E+04  0.36945554887E+04 0.  0.
        3    1    3    3  502    0  0.91992985711E+03  0.15935285742E+04 -0.50205291479E+02  0.18406859700E+04  0.10100000352E+00 0.  1.
       -3    1    3    3    0  502 -0.91992985711E+03 -0.15935285742E+04  0.27801909499E+03  0.18608865860E+04  0.10100000352E+00 0. -1.
</event>
<event>
 5   0  0.9418945E-08  0.3697376E+04  0.7818609E-02  0.8068544E-01
        1   -1    0    0  501    0  0.00000000000E+00  0.00000000000E+00  0.20424994750E+04  0.20424994750E+04  0.50400001928E-02 0. -1.
       -1   -1    0    0    0  501  0.00000000000E+00  0.00000000000E+00 -0.16732670295E+04  0.16732670295E+04  0.50400001928E-02 0.  1.
    10030    2    1    2    0    0  0.00000000000E+00  0.00000000000E+00  0.36923244551E+03  0.37157665045E+04  0.36973758421E+04 0.  0.
        5    1    3    3  502    0 -0.94433009649E+03  0.75691793474E+03  0.15890438395E+04  0.19974399878E+04  0.46999998093E+01 0. -1.
       -5    1    3    3    0  502  0.94433009649E+03 -0.75691793474E+03 -0.12198113940E+04  0.17183265167E+04  0.46999998093E+01 0.  1.
</event>
<event>
 5   0  0.2996969E-07  0.3675178E+04  0.7818609E-02  0.8073485E-01
       -2   -1    0    0    0  501  0.00000000000E+00  0.00000000000E+00  0.17743733446E+04  0.17743733446E+04  0.25500000920E-02 0. -1.
        2   -1    0    0  501    0  0.00000000000E+00  0.00000000000E+00 -0.19030572887E+04  0.19030572887E+04  0.25500000920E-02 0.  1.
    10030    2    1    2    0    0  0.00000000000E+00  0.00000000000E+00 -0.12868394405E+03  0.36774306333E+04  0.36751784317E+04 0.  0.
        1    1    3    3  502    0  0.77816334867E+03 -0.22202320750E+03 -0.17151716684E+04  0.18964826269E+04  0.50400001928E-02 0.  1.
       -1    1    3    3    0  502 -0.77816334867E+03  0.22202320750E+03  0.15864877244E+04  0.17809480064E+04  0.50400001928E-02 0. -1.
</event>
<event>
 5   0  0.9341000E-08  0.3688057E+04  0.7818609E-02  0.8070614E-01
       -1   -1    0    0    0  501  0.00000000000E+00  0.00000000000E+00  0.33096187392E+04  0.33096187392E+04  0.50400001928E-02 0.  1.
        1   -1    0    0  501    0  0.00000000000E+00  0.00000000000E+00 -0.10274420388E+04  0.10274420388E+04  0.50400001928E-02 0. -1.
    10030    2    1    2    0    0  0.00000000000E+00  0.00000000000E+00  0.22821767004E+04  0.43370607780E+04  0.36880571715E+04 0.  0.
        1    1    3    3  502    0  0.15449676738E+04  0.21854265360E+03  0.22967519665E+04  0.27766446659E+04  0.50400001928E-02 0.  1.
       -1    1    3    3    0  502 -0.15449676738E+04 -0.21854265360E+03 -0.14575266176E+02  0.15604161122E+04  0.50400001928E-02 0. -1.
</event>
<event>
 5   0  0.3008879E-07  0.3576077E+04  0.7818609E-02  0.8095994E-01
       -2   -1    0    0    0  501  0.00000000000E+00  0.00000000000E+00  0.18550189907E+04  0.18550189907E+04  0.25500000920E-02 0.  1.
        2   -1    0    0  501    0  0.00000000000E+00  0.00000000000E+00 -0.17234767543E+04  0.17234767543E+04  0.25500000920E-02 0. -1.
    10030    2    1    2    0    0  0.00000000000E+00  0.00000000000E+00  0.13154223641E+03  0.35784957450E+04  0.35760772415E+04 0.  0.
        2    1    3    3  502    0 -0.91660229578E+03  0.38748976794E+02  0.16015471046E+04  0.18457015956E+04  0.25500000920E-02 0.  1.
       -2    1    3    3    0  502  0.91660229578E+03 -0.38748976794E+02 -0.14700048682E+04  0.17327941494E+04  0.25500000920E-02 0. -1.
</event>
<event>
 5   0  0.9341000E-08  0.3706312E+04  0.7818609E-02  0.8066565E-01
        1   -1    0    0  501    0  0.00000000000E+00  0.00000000000E+00  0.17934720329E+04  0.17934720329E+04  0.50400001928E-02 0.  1.
       -1   -1    0    0    0  501  0.00000000000E+00  0.00000000000E+00 -0.19148257099E+04  0.19148257099E+04  0.50400001928E-02 0. -1.
    10030    2    1    2    0    0  0.00000000000E+00  0.00000000000E+00 -0.12135367705E+03  0.37082977428E+04  0.37063115674E+04 0.  0.
        3    1    3    3  502    0  0.65930094806E+03 -0.70542989721E+03 -0.16432568362E+04  0.19059386454E+04  0.10100000352E+00 0. -1.
       -3    1    3    3    0  502 -0.65930094806E+03  0.70542989721E+03  0.15219031592E+04  0.18023590974E+04  0.10100000352E+00 0.  1.
</event>
<event>
 5   0  0.2897133E-07  0.3633854E+04  0.7818609E-02  0.8082781E-01
        2   -1    0    0  501    0  0.00000000000E+00  0.00000000000E+00  0.23688100464E+04  0.23688100464E+04  0.25500000920E-02 0.  1.
       -2   -1    0    0    0  501  0.00000000000E+00  0.00000000000E+00 -0.13936208776E+04  0.13936208776E+04  0.25500000920E-02 0. -1.
    10030    2    1    2    0    0  0.00000000000E+00  0.00000000000E+00  0.97518916884E+03  0.37624309240E+04  0.36338536766E+04 0.  0.
        4    1    3    3  502    0 -0.36867242484E+02 -0.27489480428E+03 -0.13715728189E+04  0.13993355415E+04  0.12699999809E+01 0. -1.
       -4    1    3    3    0  502  0.36867242484E+02  0.27489480428E+03  0.23467619878E+04  0.23630953826E+04  0.12699999809E+01 0.  1.
</event>
<event>
 5   0  0.2996969E-07  0.3753125E+04  0.7818609E-02  0.8056290E-01
       -2   -1    0    0    0  501  0.00000000000E+00  0.00000000000E+00  0.16932673134E+04  0.16932673134E+04  0.25500000920E-02 0.  1.
        2   -1    0    0  501    0  0.00000000000E+00  0.00000000000E+00 -0.20796996327E+04  0.20796996327E+04  0.25500000920E-02 0. -1.
    10030    2    1    2    0    0  0.00000000000E+00  0.00000000000E+00 -0.38643231928E+03  0.37729669461E+04  0.37531253162E+04 0.  0.
        1    1    3    3  502    0  0.16016344720E+04 -0.28533469972E+03 -0.11334889911E+04  0.19827874736E+04  0.50400001928E-02 0. -1.
       -1    1    3    3    0  502 -0.16016344720E+04  0.28533469972E+03  0.74705667183E+03  0.17901794724E+04  0.50400001928E-02 0.  1.
</event>
<event>
 5   0  0.9341000E-08  0.3675511E+04  0.7818609E-02  0.8073411E-01
       -1   -1    0    0    0  501  0.00000000000E+00  0.00000000000E+00  0.14785100464E+04  0.14785100464E+04  0.50400001928E-02 0.  1.
        1   -1    0    0  501    0  0.00000000000E+00  0.00000000000E+00 -0.22842899555E+04  0.22842899555E+04  0.50400001928E-02 0. -1.
    10030    2    1    2    0    0  0.00000000000E+00  0.00000000000E+00 -0.80577990907E+03  0.37628000019E+04  0.36755112015E+04 0.  0.
        3    1    3    3  502    0 -0.11751357941E+04 -0.32662430442E+03  0.10044269116E+04  0.15800319623E+04  0.10100000352E+00 0.  1.
       -3    1    3    3    0  502  0.11751357941E+04  0.32662430442E+03 -0.18102068207E+04  0.21827680396E+04  0.10100000352E+00 0. -1.
</event>
<event>
 5   0  0.9418945E-08  0.3687314E+04  0.7818609E-02  0.8070779E-01
        1   -1    0    0  501    0  0.00000000000E+00  0.00000000000E+00  0.25695988463E+04  0.25695988463E+04  0.50400001928E-02 0. -1.
       -1   -1    0    0    0  501  0.00000000000E+00  0.00000000000E+00 -0.13228022966E+04  0.13228022966E+04  0.50400001928E-02 0.  1.
    10030    2    1    2    0    0  0.00000000000E+00  0.00000000000E+00  0.12467965498E+04  0.38924011429E+04  0.36873140660E+04 0.  0.
        5    1    3    3  502    0 -0.12158989211E+04  0.48951275430E+03 -0.74525492202E+03  0.15077996922E+04  0.46999998093E+01 0. -1.
       -5    1    3    3    0  502  0.12158989211E+04 -0.48951275430E+03  0.19920514718E+04  0.23846014508E+04  0.46999998093E+01 0.  1.
</event>
<event>
 5   0  0.9341000E-08  0.3745597E+04  0.7818609E-02  0.8057931E-01
        1   -1    0    0  501    0  0.00000000000E+00  0.00000000000E+00  0.20098080601E+04  0.20098080601E+04  0.50400001928E-02 0. -1.
       -1   -1    0    0    0  501  0.00000000000E+00  0.00000000000E+00 -0.17451287525E+04  0.17451287525E+04  0.50400001928E-02 0.  1.
    10030    2    1    2    0    0  0.00000000000E+00  0.00000000000E+00  0.26467930754E+03  0.37549368126E+04  0.37455967924E+04 0.  0.
        3    1    3    3  502    0  0.81456365025E+03  0.90223239033E+03 -0.12959363766E+04  0.17767915828E+04  0.10100000352E+00 0.  1.
       -3    1    3    3    0  502 -0.81456365025E+03 -0.90223239033E+03  0.15606156841E+04  0.19781452298E+04  0.10100000352E+00 0. -1.
</event>
<event>
 5   0  0.9341000E-08  0.3693600E+04  0.7818609E-02  0.8069382E-01
       -3   -1    0    0    0  501  0.00000000000E+00  0.00000000000E+00  0.23404030184E+04  0.23404030206E+04  0.10100000352E+00 0. -1.
        3   -1    0    0  501    0  0.00000000000E+00  0.00000000000E+00 -0.14573000641E+04  0.14573000676E+04  0.10100000352E+00 0.  1.
    10030    2    1    2    0    0  0.00000000000E+00  0.00000000000E+00  0.88310295431E+03  0.37977030882E+04  0.36935995882E+04 0.  0.
        5    1    3    3  502    0 -0.30266366809E+03  0.10811983335E+04  0.19491847112E+04  0.22494306526E+04  0.46999998093E+01 0. -1.
       -5    1    3    3    0  502  0.30266366809E+03 -0.10811983335E+04 -0.10660817569E+04  0.15482724356E+04  0.46999998093E+01 0.  1.
</event>
<event>
 5   0  0.3008879E-07  0.3714114E+04  0.7818609E-02  0.8064841E-01
        2   -1    0    0  501    0  0.00000000000E+00  0.00000000000E+00  0.23979074166E+04  0.23979074166E+04  0.25500000920E-02 0.  1.
       -2   -1    0    0    0  501  0.00000000000E+00  0.00000000000E+00 -0.14381959106E+04  0.14381959106E+04  0.25500000920E-02 0. -1.
    10030    2    1    2    0    0  0.00000000000E+00  0.00000000000E+00  0.95971150601E+03  0.38361033273E+04  0.37141139674E+04 0.  0.
        2    1    3    3  502    0  0.14030636161E+04 -0.19748856337E+02  0.17362311677E+04  0.22323700848E+04  0.25500000920E-02 0.  1.
       -2    1    3    3    0  502 -0.14030636161E+04  0.19748856337E+02 -0.77651966164E+03  0.16037332425E+04  0.25500000920E-02 0. -1.
</event>
<event>
 5   0  0.9341000E-08  0.3686813E+04  0.7818609E-02  0.8070890E-01
        1   -1    0    0  501    0  0.00000000000E+00  0.00000000000E+00  0.20767783889E+04  0.20767783889E+04  0.50400001928E-02 0.  1.
       -1   -1    0    0    0  501  0.00000000000E+00  0.00000000000E+00 -0.16362595191E+04  0.16362595191E+04  0.50400001928E-02 0. -1.
    10030    2    1    2    0    0  0.00000000000E+00  0.00000000000E+00  0.44051886987E+03  0.37130379080E+04  0.36868134794E+04 0.  0.
        3    1    3    3  502    0 -0.57711922147E+03  0.56661676027E+03  0.18885528145E+04  0.20544471014E+04  0.10100000352E+00 0.  1.
       -3    1    3    3    0  502  0.57711922147E+03 -0.56661676027E+03 -0.14480339447E+04  0.16585908066E+04  0.10100000352E+00 0. -1.
</event>
<event>
 5   0  0.2996969E-07  0.3692742E+04  0.7818609E-02  0.8069572E-01
        2   -1    0    0  501    0  0.00000000000E+00  0.00000000000E+00  0.23183947906E+04  0.23183947906E+04  0.25500000920E-02 0.  1.
       -2   -1    0    0    0  501  0.00000000000E+00  0.00000000000E+00 -0.14704506944E+04  0.14704506944E+04  0.25500000920E-02 0. -1.
    10030    2    1    2    0    0  0.00000000000E+00  0.00000000000E+00  0.84794409626E+03  0.37888454850E+04  0.36927416534E+04 0.  0.
        1    1    3    3  502    0 -0.19896214644E+03  0.63176556993E+03 -0.13443581282E+04  0.14986702265E+04  0.50400001928E-02 0. -1.
       -1    1    3    3    0  502  0.19896214644E+03 -0.63176556993E+03  0.21923022245E+04  0.22901752585E+04  0.50400001928E-02 0.  1.
</event>
<event>
 5   0  0.2897133E-07  0.3654539E+04  0.7818609E-02  0.8078112E-01
       -2   -1    0    0    0  501  0.00000000000E+00  0.00000000000E+00  0.16658662684E+04  0.16658662684E+04  0.25500000920E-02 0.  1.
        2   -1    0    0  501    0  0.00000000000E+00  0.00000000000E+00 -0.20043111903E+04  0.20043111904E+04  0.25500000920E-02 0. -1.
    10030    2    1    2    0    0  0.00000000000E+00  0.00000000000E+00 -0.33844492197E+03  0.36701774587E+04  0.36545393162E+04 0.  0.
        4    1    3    3  502    0  0.46013715574E+03  0.10769620675E+04 -0.15778431351E+04  0.19649844959E+04  0.12699999809E+01 0. -1.
       -4    1    3    3    0  502 -0.46013715574E+03 -0.10769620675E+04  0.12393982132E+04  0.17051929629E+04  0.12699999809E+01 0.  1.
</event>
<event>
 5   0  0.9418945E-08  0.3588039E+04  0.7818609E-02  0.8093237E-01
        1   -1    0    0  501    0  0.00000000000E+00  0.00000000000E+00  0.25609110042E+04  0.25609110042E+04  0.50400001928E-02 0.  1.
       -1   -1    0    0    0  501  0.00000000000E+00  0.00000000000E+00 -0.12567815958E+04  0.12567815958E+04  0.50400001928E-02 0. -1.
    10030    2    1    2    0    0  0.00000000000E+00  0.00000000000E+00  0.13041294084E+04  0.38176926001E+04  0.35880389177E+04 0.  0.
        5    1    3    3  502    0 -0.10262068931E+04  0.60382317556E+03  0.20798872212E+04  0.23965925723E+04  0.46999998093E+01 0.  1.
       -5    1    3    3    0  502  0.10262068931E+04 -0.60382317556E+03 -0.77575781278E+03  0.14211000278E+04  0.46999998093E+01 0. -1.
</event>
<event>
 5   0  0.3032442E-07  0.3695737E+04  0.7818609E-02  0.8068907E-01
        2   -1    0    0  501    0  0.00000000000E+00  0.00000000000E+00  0.14150726480E+04  0.14150726480E+04  0.25500000920E-02 0. -1.
       -2   -1    0    0    0  501  0.00000000000E+00  0.00000000000E+00 -0.24130331451E+04  0.24130331451E+04  0.25500000920E-02 0.  1.
    10030    2    1    2    0    0  0.00000000000E+00  0.00000000000E+00 -0.99796049712E+03  0.38281057930E+04  0.36957365719E+04 0.  0.
        3    1    3    3  502    0  0.24724788797E+03 -0.17730191814E+04 -0.97352525469E+03  0.20377634719E+04  0.10100000352E+00 0. -1.
       -3    1    3    3    0  502 -0.24724788797E+03  0.17730191814E+04 -0.24435242432E+02  0.17903423212E+04  0.10100000352E+00 0.  1.
</event>
<event>
 5   0  0.3032442E-07  0.3688019E+04  0.7818609E-02  0.8070622E-01
       -2   -1    0    0    0  501  0.00000000000E+00  0.00000000000E+00  0.12463129210E+04  0.12463129210E+04  0.25500000920E-02 0.  1.
        2   -1    0    0  501    0  0.00000000000E+00  0.00000000000E+00 -0.27283447347E+04  0.27283447347E+04  0.25500000920E-02 0. -1.
    10030    2    1    2    0    0  0.00000000000E+00  0.00000000000E+00 -0.14820318137E+04  0.39746576557E+04  0.36880191408E+04 0.  0.
        3    1    3    3  502    0 -0.65582942447E+02 -0.96182274649E+03  0.95308801989E+03  0.13556477794E+04  0.10100000352E+00 0.  1.
       -3    1    3    3    0  502  0.65582942447E+02  0.96182274649E+03 -0.24351198335E+04  0.26190098763E+04  0.10100000352E+00 0. -1.
</event>
<event>
 5   0  0.9646615E-08  0.3691595E+04  0.7818609E-02  0.8069827E-01
        1   -1    0    0  501    0  0.00000000000E+00  0.00000000000E+00  0.12283552568E+04  0.12283552568E+04  0.50400001928E-02 0. -1.
       -1   -1    0    0    0  501  0.00000000000E+00  0.00000000000E+00 -0.27736018112E+04  0.27736018112E+04  0.50400001928E-02 0.  1.
    10030    2    1    2    0    0  0.00000000000E+00  0.00000000000E+00 -0.15452465544E+04  0.40019570680E+04  0.36915949751E+04 0.  0.
        2    1    3    3  502    0  0.81111038197E+03  0.78841240047E+03 -0.23538368377E+04  0.26115210172E+04  0.25500000920E-02 0.  1.
       -2    1    3    3    0  502 -0.81111038197E+03 -0.78841240047E+03  0.80859028334E+03  0.13904360508E+04  0.25500000920E-02 0. -1.
</event>
<event>
 5   0  0.9418945E-08  0.3687103E+04  0.7818609E-02  0.8070826E-01
       -1   -1    0    0    0  501  0.00000000000E+00  0.00000000000E+00  0.12976760654E+04  0.12976760654E+04  0.50400001928E-02 0.  1.
        1   -1    0    0  501    0  0.00000000000E+00  0.00000000000E+00 -0.26190532808E+04  0.26190532808E+04  0.50400001928E-02 0. -1.
    10030    2    1    2    0    0  0.00000000000E+00  0.00000000000E+00 -0.13213772154E+04  0.39167293461E+04  0.36871033380E+04 0.  0.
        5    1    3    3  502    0  0.15020293394E+04  0.86065126292E+03 -0.13340824208E+04  0.21855458651E+04  0.46999998093E+01 0. -1.
       -5    1    3    3    0  502 -0.15020293394E+04 -0.86065126292E+03  0.12705205372E+02  0.17311834811E+04  0.46999998093E+01 0.  1.
</event>
<event>
 5   0  0.9341000E-08  0.3708601E+04  0.7818609E-02  0.8066058E-01
       -1   -1    0    0    0  501  0.00000000000E+00  0.00000000000E+00  0.31405371800E+04  0.31405371800E+04  0.50400001928E-02 0. -1.
        1   -1    0    0  501    0  0.00000000000E+00  0.00000000000E+00 -0.10948540915E+04  0.10948540915E+04  0.50400001928E-02 0.  1.
    10030    2    1    2    0    0  0.00000000000E+00  0.00000000000E+00  0.20456830885E+04  0.42353912715E+04  0.37086008041E+04 0.  0.
        1    1    3    3  502    0  0.97652296689E+03 -0.53945006796E+03 -0.66870747716E+03  0.13006818099E+04  0.50400001928E-02 0.  1.
       -1    1    3    3    0  502 -0.97652296689E+03  0.53945006796E+03  0.27143905657E+04  0.29347094616E+04  0.50400001928E-02 0. -1.
</event>
<event>
 5   0  0.2913025E-07  0.3699236E+04  0.7818609E-02  0.8068131E-01
        2   -1    0    0  501    0  0.00000000000E+00  0.00000000000E+00  0.21351654821E+04  0.21351654821E+04  0.25500000920E-02 0. -1.
       -2   -1    0    0    0  501  0.00000000000E+00  0.00000000000E+00 -0.16022580504E+04  0.16022580504E+04  0.25500000920E-02 0.  1.
    10030    2    1    2    0    0  0.00000000000E+00  0.00000000000E+00  0.53290743174E+03  0.37374235325E+04  0.36992356414E+04 0.  0.
        5    1    3    3  502    0 -0.60699929736E+01  0.82502134829E+02 -0.16003820156E+04  0.16025255483E+04  0.46999998093E+01 0.  1.
       -5    1    3    3    0  502  0.60699929736E+01 -0.82502134829E+02  0.21332894473E+04  0.21348979843E+04  0.46999998093E+01 0. -1.
</event>
<event>
 5   0  0.3032442E-07  0.3686934E+04  0.7818609E-02  0.8070864E-01
        2   -1    0    0  501    0  0.00000000000E+00  0.00000000000E+00  0.17785954317E+04  0.17785954317E+04  0.25500000920E-02 0.  1.
       -2   -1    0    0    0  501  0.00000000000E+00  0.00000000000E+00 -0.19107050111E+04  0.19107050111E+04  0.25500000920E-02 0. -1.
    10030    2    1    2    0    0  0.00000000000E+00  0.00000000000E+00 -0.13210957940E+03  0.36893004427E+04  0.36869343384E+04 0.  0.
        3    1    3    3  502    0  0.19888027415E+03 -0.11214929759E+04  0.13843827105E+04  0.17927117330E+04  0.10100000352E+00 0.  1.
       -3    1    3    3    0  502 -0.19888027415E+03  0.11214929759E+04 -0.15164922899E+04  0.18965887097E+04  0.10100000352E+00 0. -1.
</event>
<event>
 5   0  0.2897133E-07  0.3697351E+04  0.7818609E-02  0.8068549E-01
       -2   -1    0    0    0  501  0.00000000000E+00  0.00000000000E+00  0.12119174761E+04  0.12119174761E+04  0.25500000920E-02 0. -1.
        2   -1    0    0  501    0  0.00000000000E+00  0.00000000000E+00 -0.28199955669E+04  0.28199955669E+04  0.25500000920E-02 0.  1.
    10030    2    1    2    0    0  0.00000000000E+00  0.00000000000E+00 -0.16080780908E+04  0.40319130430E+04  0.36973514359E+04 0.  0.
        4    1    3    3  502    0 -0.45357329200E+03 -0.17171759711E+04 -0.13634686204E+04  0.22390780108E+04  0.12699999809E+01 0. -1.
       -4    1    3    3    0  502  0.45357329200E+03  0.17171759711E+04 -0.24460947047E+03  0.17928350322E+04  0.12699999809E+01 0.  1.
</event>
<event>
 5   0  0.3032442E-07  0.3729289E+04  0.7818609E-02  0.8061502E-01
       -2   -1    0    0    0  501  0.00000000000E+00  0.00000000000E+00  0.19640918944E+04  0.19640918944E+04  0.25500000920E-02 0. -1.
        2   -1    0    0  501    0  0.00000000000E+00  0.00000000000E+00 -0.17702323747E+04  0.17702323747E+04  0.25500000920E-02 0.  1.
    10030    2    1    2    0    0  0.00000000000E+00  0.00000000000E+00  0.19385951968E+03  0.37343242692E+04  0.37292889716E+04 0.  0.
        3    1    3    3  502    0  0.64972761106E+03  0.12580812647E+04 -0.11179621082E+04  0.18040936014E+04  0.10100000352E+00 0.  1.
       -3    1    3    3    0  502 -0.64972761106E+03 -0.12580812647E+04  0.13118216279E+04  0.19302306678E+04  0.10100000352E+00 0. -1.
</event>
<event>
 5   0  0.9418945E-08  0.3676069E+04  0.7818609E-02  0.8073286E-01
        1   -1    0    0  501    0  0.00000000000E+00  0.00000000000E+00  0.18843740683E+04  0.18843740683E+04  0.50400001928E-02 0.  1.
       -1   -1    0    0    0  501  0.00000000000E+00  0.00000000000E+00 -0.17928348216E+04  0.17928348216E+04  0.50400001928E-02 0. -1.
    10030    2    1    2    0    0  0.00000000000E+00  0.00000000000E+00  0.91539246659E+02  0.36772088899E+04  0.36760693392E+04 0.  0.
        5    1    3    3  502    0 -0.14904658213E+04 -0.85770254164E+03 -0.60343644876E+03  0.18224433193E+04  0.46999998093E+01 0. -1.
       -5    1    3    3    0  502  0.14904658213E+04  0.85770254164E+03  0.69497569542E+03  0.18547655706E+04  0.46999998093E+01 0.  1.
</event>
<event>
 5   0  0.9341000E-08  0.3702885E+04  0.7818609E-02  0.8067323E-01
       -1   -1    0    0    0  501  0.00000000000E+00  0.00000000000E+00  0.22624515658E+04  0.22624515658E+04  0.50400001928E-02 0. -1.
        1   -1    0    0  501    0  0.00000000000E+00  0.00000000000E+00 -0.15150998364E+04  0.15150998364E+04  0.50400001928E-02 0.  1.
    10030    2    1    2    0    0  0.00000000000E+00  0.00000000000E+00  0.74735172947E+03  0.37775514022E+04  0.37028853599E+04 0.  0.
        4    1    3    3  502    0 -0.37118752791E+03 -0.48790921113E+03  0.21559010650E+04  0.22413715877E+04  0.12699999809E+01 0. -1.
       -4    1    3    3    0  502  0.37118752791E+03  0.48790921113E+03 -0.14085493355E+04  0.15361798145E+04  0.12699999809E+01 0.  1.
</event>
<event>
 5   0  0.9418945E-08  0.3731813E+04  0.7818609E-02  0.8060948E-01
        1   -1    0    0  501    0  0.00000000000E+00  0.00000000000E+00  0.21396711145E+04  0.21396711145E+04  0.50400001928E-02 0.  1.
       -1   -1    0    0    0  501  0.00000000000E+00  0.00000000000E+00 -0.16271696209E+04  0.16271696209E+04  0.50400001928E-02 0. -1.
    10030    2    1    2    0    0  0.00000000000E+00  0.00000000000E+00  0.51250149360E+03  0.37668407355E+04  0.37318134124E+04 0.  0.
        5    1    3    3  502    0 -0.36098783739E+03 -0.14219271102E+04  0.14200676351E+04  0.20417647033E+04  0.46999998093E+01 0.  1.
       -5    1    3    3    0  502  0.36098783739E+03  0.14219271102E+04 -0.90756614154E+03  0.17250760321E+04  0.46999998093E+01 0. -1.
</event>
<event>
 5   0  0.9341000E-08  0.4168858E+04  0.7818609E-02  0.7971323E-01
        1   -1    0    0  501    0  0.00000000000E+00  0.00000000000E+00  0.20498099930E+04  0.20498099930E+04  0.50400001928E-02 0. -1.
       -1   -1    0    0    0  501  0.00000000000E+00  0.00000000000E+00 -0.21196329813E+04  0.21196329814E+04  0.50400001928E-02 0.  1.
    10030    2    1    2    0    0  0.00000000000E+00  0.00000000000E+00 -0.69822988309E+02  0.41694429744E+04  0.41688582930E+04 0.  0.
        4    1    3    3  502    0  0.18979047282E+04  0.75285639931E+03  0.38468058442E+03  0.20776948477E+04  0.12699999809E+01 0.  1.
       -4    1    3    3    0  502 -0.18979047282E+04 -0.75285639931E+03 -0.45450357273E+03  0.20917481267E+04  0.12699999809E+01 0. -1.
</event>
<event>
 5   0  0.3032442E-07  0.3695453E+04  0.7818609E-02  0.8068970E-01
       -2   -1    0    0    0  501  0.00000000000E+00  0.00000000000E+00  0.14329624613E+04  0.14329624613E+04  0.25500000920E-02 0. -1.
        2   -1    0    0  501    0  0.00000000000E+00  0.00000000000E+00 -0.23825418609E+04  0.23825418609E+04  0.25500000920E-02 0.  1.
    10030    2    1    2    0    0  0.00000000000E+00  0.00000000000E+00 -0.94957939953E+03  0.38155043222E+04  0.36954529082E+04 0.  0.
        3    1    3    3  502    0 -0.73981981650E+03  0.13198104595E+04  0.62025921691E+03  0.16352230785E+04  0.10100000352E+00 0. -1.
       -3    1    3    3    0  502  0.73981981650E+03 -0.13198104595E+04 -0.15698386164E+04  0.21802812437E+04  0.10100000352E+00 0.  1.
</event>
<event>
 5   0  0.9341000E-08  0.3674388E+04  0.7818609E-02  0.8073662E-01
       -1   -1    0    0    0  501  0.00000000000E+00  0.00000000000E+00  0.18397012160E+04  0.18397012160E+04  0.50400001928E-02 0.  1.
        1   -1    0    0  501    0  0.00000000000E+00  0.00000000000E+00 -0.18346899945E+04  0.18346899945E+04  0.50400001928E-02 0. -1.
    10030    2    1    2    0    0  0.00000000000E+00  0.00000000000E+00  0.50112214544E+01  0.36743912105E+04  0.36743877933E+04 0.  0.
        3    1    3    3  502    0  0.52346727564E+03  0.77634397637E+03  0.15831884039E+04  0.18393513778E+04  0.10100000352E+00 0.  1.
       -3    1    3    3    0  502 -0.52346727564E+03 -0.77634397637E+03 -0.15781771825E+04  0.18350398328E+04  0.10100000352E+00 0. -1.
</event>
<event>
 5   0  0.2913025E-07  0.3697834E+04  0.7818609E-02  0.8068442E-01
       -2   -1    0    0    0  501  0.00000000000E+00  0.00000000000E+00  0.18138548461E+04  0.18138548461E+04  0.25500000920E-02 0. -1.
        2   -1    0    0  501    0  0.00000000000E+00  0.00000000000E+00 -0.18846571857E+04  0.18846571857E+04  0.25500000920E-02 0.  1.
    10030    2    1    2    0    0  0.00000000000E+00  0.00000000000E+00 -0.70802339551E+02  0.36985120318E+04  0.36978342687E+04 0.  0.
        5    1    3    3  502    0  0.50904851458E+03  0.90819967144E+03  0.14927909959E+04  0.18200011211E+04  0.46999998093E+01 0. -1.
       -5    1    3    3    0  502 -0.50904851458E+03 -0.90819967144E+03 -0.15635933354E+04  0.18785109108E+04  0.46999998093E+01 0.  1.
</event>
<event>
 5   0  0.3032442E-07  0.3676532E+04  0.7818609E-02  0.8073183E-01
       -2   -1    0    0    0  501  0.00000000000E+00  0.00000000000E+00  0.25487667404E+04  0.25487667404E+04  0.25500000920E-02 0.  1.
        2   -1    0    0  501    0  0.00000000000E+00  0.00000000000E+00 -0.13258259917E+04  0.13258259917E+04  0.25500000920E-02 0. -1.
    10030    2    1    2    0    0  0.00000000000E+00  0.00000000000E+00  0.12229407487E+04  0.38745927320E+04  0.36765316216E+04 0.  0.
        3    1    3    3  502    0 -0.12603440678E+04  0.98235768118E+03 -0.34617805627E+03  0.16350330393E+04  0.10100000352E+00 0. -1.
       -3    1    3    3    0  502  0.12603440678E+04 -0.98235768118E+03  0.15691188050E+04  0.22395596927E+04  0.10100000352E+00 0.  1.
</event>
<event>
 5   0  0.9341000E-08  0.3719129E+04  0.7818609E-02  0.8063736E-01
        1   -1    0    0  501    0  0.00000000000E+00  0.00000000000E+00  0.16459993916E+04  0.16459993916E+04  0.50400001928E-02 0.  1.
       -1   -1    0    0    0  501  0.00000000000E+00  0.00000000000E+00 -0.21008388452E+04  0.21008388452E+04  0.50400001928E-02 0. -1.
    10030    2    1    2    0    0  0.00000000000E+00  0.00000000000E+00 -0.45483945359E+03  0.37468382368E+04  0.37191286404E+04 0.  0.
        3    1    3    3  502    0 -0.40403572655E+03  0.15607619588E+04 -0.11610153563E+04  0.19867509729E+04  0.10100000352E+00 0. -1.
       -3    1    3    3    0  502  0.40403572655E+03 -0.15607619588E+04  0.70617590276E+03  0.17600872638E+04  0.10100000352E+00 0.  1.
</event>
<event>
 5   0  0.2897133E-07  0.3706750E+04  0.7818609E-02  0.8066468E-01
        2   -1    0    0  501    0  0.00000000000E+00  0.00000000000E+00  0.24041632859E+04  0.24041632859E+04  0.25500000920E-02 0.  1.
       -2   -1    0    0    0  501  0.00000000000E+00  0.00000000000E+00 -0.14287708508E+04  0.14287708508E+04  0.25500000920E-02 0. -1.
    10030    2    1    2    0    0  0.00000000000E+00  0.00000000000E+00  0.97539243509E+03  0.38329341367E+04  0.37067497479E+04 0.  0.
        4    1    3    3  502    0  0.17822429578E+04 -0.50691348401E+03  0.52964276414E+03  0.19271414871E+04  0.12699999809E+01 0. -1.
       -4    1    3    3    0  502 -0.17822429578E+04  0.50691348401E+03  0.44574967095E+03  0.19057926495E+04  0.12699999809E+01 0.  1.
</event>
<event>
 5   0  0.9341000E-08  0.3707266E+04  0.7818609E-02  0.8066353E-01
       -4   -1    0    0    0  501  0.00000000000E+00  0.00000000000E+00  0.17601209922E+04  0.17601214504E+04  0.12699999809E+01 0.  1.
        4   -1    0    0  501    0  0.00000000000E+00  0.00000000000E+00 -0.19521126130E+04  0.19521130261E+04  0.12699999809E+01 0. -1.
    10030    2    1    2    0    0  0.00000000000E+00  0.00000000000E+00 -0.19199162082E+03  0.37122344765E+04  0.37072663818E+04 0.  0.
        3    1    3    3  502    0 -0.12728515012E+04 -0.99109207353E+03 -0.10102042676E+04  0.19033988323E+04  0.10100000352E+00 0. -1.
       -3    1    3    3    0  502  0.12728515012E+04  0.99109207353E+03  0.81821264674E+03  0.18088356442E+04  0.10100000352E+00 0.  1.
</event>
<event>
 5   0  0.9646615E-08  0.3688298E+04  0.7818609E-02  0.8070560E-01
       -1   -1    0    0    0  501  0.00000000000E+00  0.00000000000E+00  0.11610110370E+04  0.11610110370E+04  0.50400001928E-02 0.  1.
        1   -1    0    0  501    0  0.00000000000E+00  0.00000000000E+00 -0.29292442504E+04  0.29292442504E+04  0.50400001928E-02 0. -1.
    10030    2    1    2    0    0  0.00000000000E+00  0.00000000000E+00 -0.17682332134E+04  0.40902552875E+04  0.36882976588E+04 0.  0.
        2    1    3    3  502    0  0.11256851660E+04 -0.98596142185E+03 -0.20793490097E+04  0.25618312439E+04  0.25500000920E-02 0. -1.
       -2    1    3    3    0  502 -0.11256851660E+04  0.98596142185E+03  0.31111579624E+03  0.15284240436E+04  0.25500000920E-02 0.  1.
</event>
<event>
 5   0  0.9341000E-08  0.3649866E+04  0.7818609E-02  0.8079164E-01
        1   -1    0    0  501    0  0.00000000000E+00  0.00000000000E+00  0.29153143480E+04  0.29153143480E+04  0.50400001928E-02 0. -1.
       -1   -1    0    0    0  501  0.00000000000E+00  0.00000000000E+00 -0.11423741154E+04  0.11423741155E+04  0.50400001928E-02 0.  1.
    10030    2    1    2    0    0  0.00000000000E+00  0.00000000000E+00  0.17729402326E+04  0.40576884635E+04  0.36498655589E+04 0.  0.
        4    1    3    3  502    0 -0.59155557577E+03  0.10351264011E+04 -0.64955915761E+03  0.13577015054E+04  0.12699999809E+01 0.  1.
       -4    1    3    3    0  502  0.59155557577E+03 -0.10351264011E+04  0.24224993902E+04  0.26999869581E+04  0.12699999809E+01 0. -1.
</event>
<event>
 5   0  0.9341000E-08  0.3713857E+04  0.7818609E-02  0.8064898E-01
       -1   -1    0    0    0  501  0.00000000000E+00  0.00000000000E+00  0.28097039987E+04  0.28097039987E+04  0.50400001928E-02 0.  1.
        1   -1    0    0  501    0  0.00000000000E+00  0.00000000000E+00 -0.12272406112E+04  0.12272406112E+04  0.50400001928E-02 0. -1.
    10030    2    1    2    0    0  0.00000000000E+00  0.00000000000E+00  0.15824633875E+04  0.40369446100E+04  0.37138566762E+04 0.  0.
        3    1    3    3  502    0 -0.15438201814E+04  0.95213617718E+03  0.35883324433E+03  0.18489741372E+04  0.10100000352E+00 0. -1.
       -3    1    3    3    0  502  0.15438201814E+04 -0.95213617718E+03  0.12236301432E+04  0.21879704728E+04  0.10100000352E+00 0.  1.
</event>
<event>
 5   0  0.9418945E-08  0.3690137E+04  0.7818609E-02  0.8070151E-01
        1   -1    0    0  501    0  0.00000000000E+00  0.00000000000E+00  0.12753448813E+04  0.12753448813E+04  0.50400001928E-02 0. -1.
       -1   -1    0    0    0  501  0.00000000000E+00  0.00000000000E+00 -0.26693001367E+04  0.26693001367E+04  0.50400001928E-02 0.  1.
    10030    2    1    2    0    0  0.00000000000E+00  0.00000000000E+00 -0.13939552555E+04  0.39446450180E+04  0.36901372690E+04 0.  0.
        5    1    3    3  502    0  0.61883515908E+03  0.12308696284E+04  0.61496625351E+03  0.15087089114E+04  0.46999998093E+01 0. -1.
       -5    1    3    3    0  502 -0.61883515908E+03 -0.12308696284E+04 -0.20089215090E+04  0.24359361066E+04  0.46999998093E+01 0.  1.
</event>
<event>
 5   0  0.3032442E-07  0.3555831E+04  0.7818609E-02  0.8100685E-01
       -2   -1    0    0    0  501  0.00000000000E+00  0.00000000000E+00  0.23143610425E+04  0.23143610425E+04  0.25500000920E-02 0. -1.
        2   -1    0    0  501    0  0.00000000000E+00  0.00000000000E+00 -0.13658129533E+04  0.13658129533E+04  0.25500000920E-02 0.  1.
    10030    2    1    2    0    0  0.00000000000E+00  0.00000000000E+00  0.94854808927E+03  0.36801739958E+04  0.35558314305E+04 0.  0.
        3    1    3    3  502    0 -0.12259278753E+04 -0.30486118832E+03  0.17690792793E+04  0.21738171511E+04  0.10100000352E+00 0. -1.
       -3    1    3    3    0  502  0.12259278753E+04  0.30486118832E+03 -0.82053119003E+03  0.15063568447E+04  0.10100000352E+00 0.  1.
</event>
<event>
 5   0  0.9341000E-08  0.3629540E+04  0.7818609E-02  0.8083759E-01
        1   -1    0    0  501    0  0.00000000000E+00  0.00000000000E+00  0.29556696122E+04  0.29556696122E+04  0.50400001928E-02 0. -1.
       -1   -1    0    0    0  501  0.00000000000E+00  0.00000000000E+00 -0.11142617023E+04  0.11142617023E+04  0.50400001928E-02 0.  1.
    10030    2    1    2    0    0  0.00000000000E+00  0.00000000000E+00  0.18414079100E+04  0.40699313145E+04  0.36295396146E+04 0.  0.
        1    1    3    3  502    0 -0.17218417317E+04 -0.50864562070E+03  0.62417457585E+03  0.19008033085E+04  0.50400001928E-02 0.  1.
       -1    1    3    3    0  502  0.17218417317E+04  0.50864562070E+03  0.12172333341E+04  0.21691280060E+04  0.50400001928E-02 0. -1.
</event>
<event>
 5   0  0.2996969E-07  0.3690123E+04  0.7818609E-02  0.8070154E-01
       -2   -1    0    0    0  501  0.00000000000E+00  0.00000000000E+00  0.19356426617E+04  0.19356426617E+04  0.25500000920E-02 0. -1.
        2   -1    0    0  501    0  0.00000000000E+00  0.00000000000E+00 -0.17587193730E+04  0.17587193730E+04  0.25500000920E-02 0.  1.
    10030    2    1    2    0    0  0.00000000000E+00  0.00000000000E+00  0.17692328871E+03  0.36943620346E+04  0.36901231677E+04 0.  0.
        1    1    3    3  502    0 -0.15225809051E+04  0.79363518223E+03 -0.58769764389E+03  0.18147996958E+04  0.50400001928E-02 0.  1.
       -1    1    3    3    0  502  0.15225809051E+04 -0.79363518223E+03  0.76462093260E+03  0.18795623389E+04  0.50400001928E-02 0. -1.
</event>
<event>
 5   0  0.9341000E-08  0.3690367E+04  0.7818609E-02  0.8070100E-01
       -1   -1    0    0    0  501  0.00000000000E+00  0.00000000000E+00  0.27461922949E+04  0.27461922949E+04  0.50400001928E-02 0.  1.
        1   -1    0    0  501    0  0.00000000000E+00  0.00000000000E+00 -0.12397900470E+04  0.12397900470E+04  0.50400001928E-02 0. -1.
    10030    2    1    2    0    0  0.00000000000E+00  0.00000000000E+00  0.15064022479E+04  0.39859823420E+04  0.36903668514E+04 0.  0.
        3    1    3    3  502    0  0.15458726995E+04  0.98619101867E+03  0.53077630166E+03  0.19089312772E+04  0.10100000352E+00 0.  1.
       -3    1    3    3    0  502 -0.15458726995E+04 -0.98619101867E+03  0.97562594626E+03  0.20770510648E+04  0.10100000352E+00 0. -1.
</event>
<event>
 5   0  0.9646615E-08  0.3726761E+04  0.7818609E-02  0.8062057E-01
       -1   -1    0    0    0  501  0.00000000000E+00  0.00000000000E+00  0.21295004755E+04  0.21295004755E+04  0.50400001928E-02 0.  1.
        1   -1    0    0  501    0  0.00000000000E+00  0.00000000000E+00 -0.16305169940E+04  0.16305169940E+04  0.50400001928E-02 0. -1.
    10030    2    1    2    0    0  0.00000000000E+00  0.00000000000E+00  0.49898348155E+03  0.37600174695E+04  0.37267609067E+04 0.  0.
        2    1    3    3  502    0  0.10701102958E+04 -0.13470615405E+04  0.97175420330E+03  0.19758585655E+04  0.25500000920E-02 0.  1.
       -2    1    3    3    0  502 -0.10701102958E+04  0.13470615405E+04 -0.47277072175E+03  0.17841589040E+04  0.25500000920E-02 0. -1.
</event>
<event>
 5   0  0.9341000E-08  0.3687130E+04  0.7818609E-02  0.8070820E-01
        3   -1    0    0  501    0  0.00000000000E+00  0.00000000000E+00  0.22436048055E+04  0.22436048078E+04  0.10100000352E+00 0. -1.
       -3   -1    0    0    0  501  0.00000000000E+00  0.00000000000E+00 -0.15148531262E+04  0.15148531296E+04  0.10100000352E+00 0.  1.
    10030    2    1    2    0    0  0.00000000000E+00  0.00000000000E+00  0.72875167930E+03  0.37584579373E+04  0.36871299213E+04 0.  0.
        4    1    3    3  502    0 -0.11706979621E+04  0.85211289120E+03 -0.79879480094E+03  0.16536943021E+04  0.12699999809E+01 0.  1.
       -4    1    3    3    0  502  0.11706979621E+04 -0.85211289120E+03  0.15275464802E+04  0.21047636352E+04  0.12699999809E+01 0. -1.
</event>
<event>
 5   0  0.2913025E-07  0.3697162E+04  0.7818609E-02  0.8068591E-01
        2   -1    0    0  501    0  0.00000000000E+00  0.00000000000E+00  0.29656468521E+04  0.29656468521E+04  0.25500000920E-02 0. -1.
       -2   -1    0    0    0  501  0.00000000000E+00  0.00000000000E+00 -0.11522787162E+04  0.11522787162E+04  0.25500000920E-02 0.  1.
    10030    2    1    2    0    0  0.00000000000E+00  0.00000000000E+00  0.18133681359E+04  0.41179255683E+04  0.36971620183E+04 0.  0.
        5    1    3    3  502    0  0.92036928819E+02  0.31175389671E+03  0.29335586316E+04  0.29515164955E+04  0.46999998093E+01 0. -1.
       -5    1    3    3    0  502 -0.92036928819E+02 -0.31175389671E+03 -0.11201904957E+04  0.11664090728E+04  0.46999998093E+01 0.  1.
</event>
<event>
 5   0  0.2913025E-07  0.3662463E+04  0.7818609E-02  0.8076332E-01
       -2   -1    0    0    0  501  0.00000000000E+00  0.00000000000E+00  0.13649356316E+04  0.13649356316E+04  0.25500000920E-02 0. -1.
        2   -1    0    0  501    0  0.00000000000E+00  0.00000000000E+00 -0.24568253680E+04  0.24568253680E+04  0.25500000920E-02 0.  1.
    10030    2    1    2    0    0  0.00000000000E+00  0.00000000000E+00 -0.10918897364E+04  0.38217609996E+04  0.36624628246E+04 0.  0.
        5    1    3    3  502    0  0.96889117845E+03 -0.13428446859E+04 -0.13618780394E+04  0.21439953009E+04  0.46999998093E+01 0.  1.
       -5    1    3    3    0  502 -0.96889117845E+03  0.13428446859E+04  0.26998830297E+03  0.16777656987E+04  0.46999998093E+01 0. -1.
</event>
<event>
 5   0  0.2913025E-07  0.3704990E+04  0.7818609E-02  0.8066857E-01
       -2   -1    0    0    0  501  0.00000000000E+00  0.00000000000E+00  0.12877281526E+04  0.12877281526E+04  0.25500000920E-02 0. -1.
        2   -1    0    0  501    0  0.00000000000E+00  0.00000000000E+00 -0.26649548685E+04  0.26649548685E+04  0.25500000920E-02 0.  1.
    10030    2    1    2    0    0  0.00000000000E+00  0.00000000000E+00 -0.13772267159E+04  0.39526830211E+04  0.37049898297E+04 0.  0.
        5    1    3    3  502    0  0.20493416766E+02  0.17673052548E+04 -0.12806235572E+04  0.21826146314E+04  0.46999998093E+01 0.  1.
       -5    1    3    3    0  502 -0.20493416766E+02 -0.17673052548E+04 -0.96603158697E+02  0.17700683897E+04  0.46999998093E+01 0. -1.
</event>
<event>
 5   0  0.9341000E-08  0.3641586E+04  0.7818609E-02  0.8081032E-01
        1   -1    0    0  501    0  0.00000000000E+00  0.00000000000E+00  0.23160363012E+04  0.23160363012E+04  0.50400001928E-02 0.  1.
       -1   -1    0    0    0  501  0.00000000000E+00  0.00000000000E+00 -0.14314485318E+04  0.14314485318E+04  0.50400001928E-02 0. -1.
    10030    2    1    2    0    0  0.00000000000E+00  0.00000000000E+00  0.88458776943E+03  0.37474848330E+04  0.36415857880E+04 0.  0.
        4    1    3    3  502    0  0.16669402270E+04 -0.49350862633E+02  0.11944101629E+04  0.20512782547E+04  0.12699999809E+01 0.  1.
       -4    1    3    3    0  502 -0.16669402270E+04  0.49350862633E+02 -0.30982239349E+03  0.16962065783E+04  0.12699999809E+01 0. -1.
</event>
<event>
 5   0  0.3008879E-07  0.3697974E+04  0.7818609E-02  0.8068411E-01
       -2   -1    0    0    0  501  0.00000000000E+00  0.00000000000E+00  0.16408671079E+04  0.16408671079E+04  0.25500000920E-02 0. -1.
        2   -1    0    0  501    0  0.00000000000E+00  0.00000000000E+00 -0.20835037465E+04  0.20835037465E+04  0.25500000920E-02 0.  1.
    10030    2    1    2    0    0  0.00000000000E+00  0.00000000000E+00 -0.44263663858E+03  0.37243708544E+04  0.36979739139E+04 0.  0.
        2    1    3    3  502    0 -0.87649301243E+03 -0.29407599584E+03  0.13913713464E+04  0.16705193551E+04  0.25500000920E-02 0. -1.
       -2    1    3    3    0  502  0.87649301243E+03  0.29407599584E+03 -0.18340079850E+04  0.20538514993E+04  0.25500000920E-02 0.  1.
</event>
<event>
 5   0  0.3032442E-07  0.3709141E+04  0.7818609E-02  0.8065939E-01
       -2   -1    0    0    0  501  0.00000000000E+00  0.00000000000E+00  0.12012187405E+04  0.12012187405E+04  0.25500000920E-02 0.  1.
        2   -1    0    0  501    0  0.00000000000E+00  0.00000000000E+00 -0.28632850986E+04  0.28632850986E+04  0.25500000920E-02 0. -1.
    10030    2    1    2    0    0  0.00000000000E+00  0.00000000000E+00 -0.16620663581E+04  0.40645038391E+04  0.37091409894E+04 0.  0.
        3    1    3    3  502    0 -0.16211503277E+04 -0.82607111895E+03 -0.43759435288E+03  0.18713660002E+04  0.10100000352E+00 0.  1.
       -3    1    3    3    0  502  0.16211503277E+04  0.82607111895E+03 -0.12244720053E+04  0.21931378389E+04  0.10100000352E+00 0. -1.
</event>
<event>
 5   0  0.9341000E-08  0.3702022E+04  0.7818609E-02  0.8067514E-01
        1   -1    0    0  501    0  0.00000000000E+00  0.00000000000E+00  0.21709400166E+04  0.21709400166E+04  0.50400001928E-02 0. -1.
       -1   -1    0    0    0  501  0.00000000000E+00  0.00000000000E+00 -0.15782291644E+04  0.15782291644E+04  0.50400001928E-02 0.  1.
    10030    2    1    2    0    0  0.00000000000E+00  0.00000000000E+00  0.59271085226E+03  0.37491691810E+04  0.37020215279E+04 0.  0.
        3    1    3    3  502    0 -0.45182799804E+03  0.17943541021E+04  0.24689021356E+03  0.18667645731E+04  0.10100000352E+00 0.  1.
       -3    1    3    3    0  502  0.45182799804E+03 -0.17943541021E+04  0.34582063870E+03  0.18824046079E+04  0.10100000352E+00 0. -1.
</event>
<event>
 5   0  0.3032442E-07  0.3579736E+04  0.7818609E-02  0.8095149E-01
        2   -1    0    0  501    0  0.00000000000E+00  0.00000000000E+00  0.25361131933E+04  0.25361131933E+04  0.25500000920E-02 0.  1.
       -2   -1    0    0    0  501  0.00000000000E+00  0.00000000000E+00 -0.12632038919E+04  0.12632038919E+04  0.25500000920E-02 0. -1.
    10030    2    1    2    0    0  0.00000000000E+00  0.00000000000E+00  0.12729093013E+04  0.37993170852E+04  0.35797363345E+04 0.  0.
        3    1    3    3  502    0  0.93752709537E+03  0.22867788680E+03 -0.96345232853E+03  0.13636315595E+04  0.10100000352E+00 0. -1.
       -3    1    3    3    0  502 -0.93752709537E+03 -0.22867788680E+03  0.22363616299E+04  0.24356855257E+04  0.10100000352E+00 0.  1.
</event>
<event>
 5   0  0.9341000E-08  0.3645979E+04  0.7818609E-02  0.8080040E-01
        1   -1    0    0  501    0  0.00000000000E+00  0.00000000000E+00  0.23073221373E+04  0.23073221373E+04  0.50400001928E-02 0. -1.
       -1   -1    0    0    0  501  0.00000000000E+00  0.00000000000E+00 -0.14403234368E+04  0.14403234368E+04  0.50400001928E-02 0.  1.
    10030    2    1    2    0    0  0.00000000000E+00  0.00000000000E+00  0.86699870051E+03  0.37476455740E+04  0.36459786892E+04 0.  0.
        1    1    3    3  502    0 -0.99519735367E+03  0.67401940655E+03 -0.97532906387E+03  0.15478975147E+04  0.50400001928E-02 0.  1.
       -1    1    3    3    0  502  0.99519735367E+03 -0.67401940655E+03  0.18423277644E+04  0.21997480593E+04  0.50400001928E-02 0. -1.
</event>
<event>
 5   0  0.2913025E-07  0.3710019E+04  0.7818609E-02  0.8065745E-01
       -2   -1    0    0    0  501  0.00000000000E+00  0.00000000000E+00  0.19572049760E+04  0.19572049760E+04  0.25500000920E-02 0. -1.
        2   -1    0    0  501    0  0.00000000000E+00  0.00000000000E+00 -0.17581502509E+04  0.17581502509E+04  0.25500000920E-02 0.  1.
    10030    2    1    2    0    0  0.00000000000E+00  0.00000000000E+00  0.19905472504E+03  0.37153552269E+04  0.37100190941E+04 0.  0.
        5    1    3    3  502    0  0.10185306850E+04 -0.15142256188E+04  0.43280378625E+03  0.18755333077E+04  0.46999998093E+01 0.  1.
       -5    1    3    3    0  502 -0.10185306850E+04  0.15142256188E+04 -0.23374906122E+03  0.18398219192E+04  0.46999998093E+01 0. -1.
</event>
<event>
 5   0  0.9341000E-08  0.3657070E+04  0.7818609E-02  0.8077543E-01
       -1   -1    0    0    0  501  0.00000000000E+00  0.00000000000E+00  0.12107933594E+04  0.12107933594E+04  0.50400001928E-02 0. -1.
        1   -1    0    0  501    0  0.00000000000E+00  0.00000000000E+00 -0.27614453655E+04  0.27614453655E+04  0.50400001928E-02 0.  1.
    10030    2    1    2    0    0  0.00000000000E+00  0.00000000000E+00 -0.15506520060E+04  0.39722387249E+04  0.36570697073E+04 0.  0.
        3    1    3    3  502    0 -0.55425577714E+03 -0.94542875531E+03  0.81454904864E+03  0.13654761663E+04  0.10100000352E+00 0. -1.
       -3    1    3    3    0  502  0.55425577714E+03  0.94542875531E+03 -0.23652010547E+04  0.26067625586E+04  0.10100000352E+00 0.  1.
</event>
<event>
 5   0  0.3008879E-07  0.3691558E+04  0.7818609E-02  0.8069835E-01
       -2   -1    0    0    0  501  0.00000000000E+00  0.00000000000E+00  0.10487897172E+04  0.10487897172E+04  0.25500000920E-02 0. -1.
        2   -1    0    0  501    0  0.00000000000E+00  0.00000000000E+00 -0.32484118468E+04  0.32484118468E+04  0.25500000920E-02 0.  1.
    10030    2    1    2    0    0  0.00000000000E+00  0.00000000000E+00 -0.21996221296E+04  0.42972015641E+04  0.36915584472E+04 0.  0.
        2    1    3    3  502    0 -0.54637090687E+03  0.17067242962E+04 -0.16144684395E+04  0.24120400771E+04  0.25500000920E-02 0. -1.
       -2    1    3    3    0  502  0.54637090687E+03 -0.17067242962E+04 -0.58515369006E+03  0.18851614870E+04  0.25500000920E-02 0.  1.
</event>
<event>
 5   0  0.9418945E-08  0.3683658E+04  0.7818609E-02  0.8071593E-01
       -1   -1    0    0    0  501  0.00000000000E+00  0.00000000000E+00  0.11542433146E+04  0.11542433146E+04  0.50400001928E-02 0.  1.
        1   -1    0    0  501    0  0.00000000000E+00  0.00000000000E+00 -0.29390108955E+04  0.29390108955E+04  0.50400001928E-02 0. -1.
    10030    2    1    2    0    0  0.00000000000E+00  0.00000000000E+00 -0.17847675809E+04  0.40932542101E+04  0.36836577896E+04 0.  0.
        5    1    3    3  502    0 -0.69426492238E+03  0.12327783339E+04  0.41795967347E+03  0.14752825430E+04  0.46999998093E+01 0.  1.
       -5    1    3    3    0  502  0.69426492238E+03 -0.12327783339E+04 -0.22027272543E+04  0.26179716672E+04  0.46999998093E+01 0. -1.
</event>
<event>
 5   0  0.9646615E-08  0.3678622E+04  0.7818609E-02  0.8072716E-01
       -1   -1    0    0    0  501  0.00000000000E+00  0.00000000000E+00  0.15461471322E+04  0.15461471322E+04  0.50400001928E-02 0. -1.
        1   -1    0    0  501    0  0.00000000000E+00  0.00000000000E+00 -0.21880614316E+04  0.21880614316E+04  0.50400001928E-02 0.  1.
    10030    2    1    2    0    0  0.00000000000E+00  0.00000000000E+00 -0.64191429940E+03  0.37342085638E+04  0.36786219744E+04 0.  0.
        2    1    3    3  502    0  0.87806410283E+02  0.11740367193E+04 -0.17554607780E+04  0.21136969336E+04  0.25500000920E-02 0.  1.
       -2    1    3    3    0  502 -0.87806410283E+02 -0.11740367193E+04  0.11135464786E+04  0.16205116303E+04  0.25500000920E-02 0. -1.
</event>
<event>
 5   0  0.9341000E-08  0.3711948E+04  0.7818609E-02  0.8065319E-01
       -3   -1    0    0    0  501  0.00000000000E+00  0.00000000000E+00  0.17163965147E+04  0.17163965177E+04  0.10100000352E+00 0.  1.
        3   -1    0    0  501    0  0.00000000000E+00  0.00000000000E+00 -0.20069017186E+04  0.20069017212E+04  0.10100000352E+00 0. -1.
    10030    2    1    2    0    0  0.00000000000E+00  0.00000000000E+00 -0.29050520390E+03  0.37232982388E+04  0.37119478043E+04 0.  0.
        1    1    3    3  502    0 -0.20674233391E+03  0.17455592303E+04  0.45232047279E+03  0.18150243054E+04  0.50400001928E-02 0.  1.
       -1    1    3    3    0  502  0.20674233391E+03 -0.17455592303E+04 -0.74282567669E+03  0.19082739334E+04  0.50400001928E-02 0. -1.
</event>
<event>
 5   0  0.2913025E-07  0.3651027E+04  0.7818609E-02  0.8078902E-01
        2   -1    0    0  501    0  0.00000000000E+00  0.00000000000E+00  0.21446995418E+04  0.21446995418E+04  0.25500000920E-02 0. -1.
       -2   -1    0    0    0  501  0.00000000000E+00  0.00000000000E+00 -0.15538301320E+04  0.15538301320E+04  0.25500000920E-02 0.  1.
    10030    2    1    2    0    0  0.00000000000E+00  0.00000000000E+00  0.59086940983E+03  0.36985296738E+04  0.36510265801E+04 0.  0.
        5    1    3    3  502    0  0.15766472425E+04  0.79413105261E+03  0.76625708557E+03  0.19244824414E+04  0.46999998093E+01 0. -1.
       -5    1    3    3    0  502 -0.15766472425E+04 -0.79413105261E+03 -0.17538767574E+03  0.17740472324E+04  0.46999998093E+01 0.  1.
</event>
<event>
 5   0  0.9341000E-08  0.3843366E+04  0.7818609E-02  0.8036912E-01
        3   -1    0    0  501    0  0.00000000000E+00  0.00000000000E+00  0.19838484913E+04  0.19838484939E+04  0.10100000352E+00 0. -1.
       -3   -1    0    0    0  501  0.00000000000E+00  0.00000000000E+00 -0.18614651320E+04  0.18614651347E+04  0.10100000352E+00 0.  1.
    10030    2    1    2    0    0  0.00000000000E+00  0.00000000000E+00  0.12238335933E+03  0.38453136286E+04  0.38433656105E+04 0.  0.
        4    1    3    3  502    0  0.10008013823E+04  0.96985651851E+03 -0.12625957643E+04  0.18805251262E+04  0.12699999809E+01 0.  1.
       -4    1    3    3    0  502 -0.10008013823E+04 -0.96985651851E+03  0.13849791236E+04  0.19647885024E+04  0.12699999809E+01 0. -1.
</event>
<event>
 5   0  0.2996969E-07  0.3695764E+04  0.7818609E-02  0.8068901E-01
       -2   -1    0    0    0  501  0.00000000000E+00  0.00000000000E+00  0.13748238451E+04  0.13748238451E+04  0.25500000920E-02 0.  1.
        2   -1    0    0  501    0  0.00000000000E+00  0.00000000000E+00 -0.24837124876E+04  0.24837124876E+04  0.25500000920E-02 0. -1.
    10030    2    1    2    0    0  0.00000000000E+00  0.00000000000E+00 -0.11088886425E+04  0.38585363327E+04  0.36957636031E+04 0.  0.
        1    1    3    3  502    0 -0.49883742110E+03  0.60945674119E+03  0.11908231168E+04  0.14277030460E+04  0.50400001928E-02 0.  1.
       -1    1    3    3    0  502  0.49883742110E+03 -0.60945674119E+03 -0.22997117593E+04  0.24308332867E+04  0.50400001928E-02 0. -1.
</event>
<event>
 5   0  0.2913025E-07  0.3697131E+04  0.7818609E-02  0.8068598E-01
       -2   -1    0    0    0  501  0.00000000000E+00  0.00000000000E+00  0.21002057382E+04  0.21002057382E+04  0.25500000920E-02 0. -1.
        2   -1    0    0  501    0  0.00000000000E+00  0.00000000000E+00 -0.16270758613E+04  0.16270758613E+04  0.25500000920E-02 0.  1.
    10030    2    1    2    0    0  0.00000000000E+00  0.00000000000E+00  0.47312987688E+03  0.37272815995E+04  0.36971308120E+04 0.  0.
        5    1    3    3  502    0 -0.13608857341E+03  0.63405011509E+03  0.19817605733E+04  0.20851706664E+04  0.46999998093E+01 0. -1.
       -5    1    3    3    0  502  0.13608857341E+03 -0.63405011509E+03 -0.15086306964E+04  0.16421109330E+04  0.46999998093E+01 0.  1.
</event>
<event>
 5   0  0.2913025E-07  0.3714386E+04  0.7818609E-02  0.8064781E-01
       -2   -1    0    0    0  501  0.00000000000E+00  0.00000000000E+00  0.17969138381E+04  0.17969138381E+04  0.25500000920E-02 0.  1.
        2   -1    0    0  501    0  0.00000000000E+00  0.00000000000E+00 -0.19194939273E+04  0.19194939273E+04  0.25500000920E-02 0. -1.
    10030    2    1    2    0    0  0.00000000000E+00  0.00000000000E+00 -0.12258008924E+03  0.37164077654E+04  0.37143856558E+04 0.  0.
        5    1    3    3  502    0 -0.53659291716E+03 -0.16839966465E+04  0.50942950213E+03  0.18393795616E+04  0.46999998093E+01 0.  1.
       -5    1    3    3    0  502  0.53659291716E+03  0.16839966465E+04 -0.63200959137E+03  0.18770282038E+04  0.46999998093E+01 0. -1.
</event>
<event>
 5   0  0.9418945E-08  0.3712202E+04  0.7818609E-02  0.8065263E-01
       -1   -1    0    0    0  501  0.00000000000E+00  0.00000000000E+00  0.16013875551E+04  0.16013875551E+04  0.50400001928E-02 0. -1.
        1   -1    0    0  501    0  0.00000000000E+00  0.00000000000E+00 -0.21513288376E+04  0.21513288376E+04  0.50400001928E-02 0.  1.
    10030    2    1    2    0    0  0.00000000000E+00  0.00000000000E+00 -0.54994128243E+03  0.37527163927E+04  0.37122021645E+04 0.  0.
        5    1    3    3  502    0 -0.43103941197E+03 -0.40872206430E+03 -0.20526390405E+04  0.21368663555E+04  0.46999998093E+01 0.  1.
       -5    1    3    3    0  502  0.43103941197E+03  0.40872206430E+03  0.15026977581E+04  0.16158500372E+04  0.46999998093E+01 0. -1.
</event>
<event>
 5   0  0.9341000E-08  0.3696280E+04  0.7818609E-02  0.8068787E-01
        3   -1    0    0  501    0  0.00000000000E+00  0.00000000000E+00  0.17506834140E+04  0.17506834169E+04  0.10100000352E+00 0.  1.
       -3   -1    0    0    0  501  0.00000000000E+00  0.00000000000E+00 -0.19510215358E+04  0.19510215384E+04  0.10100000352E+00 0. -1.
    10030    2    1    2    0    0  0.00000000000E+00  0.00000000000E+00 -0.20033812180E+03  0.37017049553E+04  0.36962797802E+04 0.  0.
        4    1    3    3  502    0  0.11917098302E+03  0.52079063805E+03  0.16716633781E+04  0.17549600207E+04  0.12699999809E+01 0.  1.
       -4    1    3    3    0  502 -0.11917098302E+03 -0.52079063805E+03 -0.18720014999E+04  0.19467449346E+04  0.12699999809E+01 0. -1.
</event>
<event>
 5   0  0.2913025E-07  0.3633066E+04  0.7818609E-02  0.8082959E-01
        2   -1    0    0  501    0  0.00000000000E+00  0.00000000000E+00  0.22850776998E+04  0.22850776998E+04  0.25500000920E-02 0. -1.
       -2   -1    0    0    0  501  0.00000000000E+00  0.00000000000E+00 -0.14440610369E+04  0.14440610369E+04  0.25500000920E-02 0.  1.
    10030    2    1    2    0    0  0.00000000000E+00  0.00000000000E+00  0.84101666288E+03  0.37291387366E+04  0.36330657426E+04 0.  0.
        5    1    3    3  502    0  0.15146275334E+04 -0.55276606443E+03 -0.43835164011E+03  0.16708743631E+04  0.46999998093E+01 0.  1.
       -5    1    3    3    0  502 -0.15146275334E+04  0.55276606443E+03  0.12793683030E+04  0.20582643736E+04  0.46999998093E+01 0. -1.
</event>
<event>
 5   0  0.9341000E-08  0.3674740E+04  0.7818609E-02  0.8073583E-01
        1   -1    0    0  501    0  0.00000000000E+00  0.00000000000E+00  0.21033642387E+04  0.21033642387E+04  0.50400001928E-02 0.  1.
       -1   -1    0    0    0  501  0.00000000000E+00  0.00000000000E+00 -0.16050134896E+04  0.16050134896E+04  0.50400001928E-02 0. -1.
    10030    2    1    2    0    0  0.00000000000E+00  0.00000000000E+00  0.49835074906E+03  0.37083777283E+04  0.36747397059E+04 0.  0.
        4    1    3    3  502    0  0.11656387102E+04 -0.10629630966E+04 -0.70142517233E+03  0.17264423050E+04  0.12699999809E+01 0. -1.
       -4    1    3    3    0  502 -0.11656387102E+04  0.10629630966E+04  0.11997759214E+04  0.19819354232E+04  0.12699999809E+01 0.  1.
</event>
<event>
 5   0  0.2996969E-07  0.3685381E+04  0.7818609E-02  0.8071209E-01
        2   -1    0    0  501    0  0.00000000000E+00  0.00000000000E+00  0.26913561670E+04  0.26913561670E+04  0.25500000920E-02 0.  1.
       -2   -1    0    0    0  501  0.00000000000E+00  0.00000000000E+00 -0.12616349025E+04  0.12616349025E+04  0.25500000920E-02 0. -1.
    10030    2    1    2    0    0  0.00000000000E+00  0.00000000000E+00  0.14297212645E+04  0.39529910695E+04  0.36853813238E+04 0.  0.
        1    1    3    3  502    0  0.73368696019E+03  0.15979906733E+04  0.12381426140E+03  0.17627253668E+04  0.50400001928E-02 0. -1.
       -1    1    3    3    0  502 -0.73368696019E+03 -0.15979906733E+04  0.13059070032E+04  0.21902657027E+04  0.50400001928E-02 0.  1.
</event>
<event>
 5   0  0.9418945E-08  0.3679459E+04  0.7818609E-02  0.8072529E-01
       -1   -1    0    0    0  501  0.00000000000E+00  0.00000000000E+00  0.14611707216E+04  0.14611707217E+04  0.50400001928E-02 0.  1.
        1   -1    0    0  501    0  0.00000000000E+00  0.00000000000E+00 -0.23163653568E+04  0.23163653568E+04  0.50400001928E-02 0. -1.
    10030    2    1    2    0    0  0.00000000000E+00  0.00000000000E+00 -0.85519463518E+03  0.37775360785E+04  0.36794593299E+04 0.  0.
        5    1    3    3  502    0 -0.14640879004E+04  0.10477853655E+04 -0.39125858661E+02  0.18008221664E+04  0.46999998093E+01 0.  1.
       -5    1    3    3    0  502  0.14640879004E+04 -0.10477853655E+04 -0.81606877652E+03  0.19767139121E+04  0.46999998093E+01 0. -1.
</event>
<event>
 5   0  0.9341000E-08  0.3711657E+04  0.7818609E-02  0.8065383E-01
        1   -1    0    0  501    0  0.00000000000E+00  0.00000000000E+00  0.15242467708E+04  0.15242467708E+04  0.50400001928E-02 0. -1.
       -1   -1    0    0    0  501  0.00000000000E+00  0.00000000000E+00 -0.22595415510E+04  0.22595415510E+04  0.50400001928E-02 0.  1.
    10030    2    1    2    0    0  0.00000000000E+00  0.00000000000E+00 -0.73529478016E+03  0.37837883218E+04  0.37116567258E+04 0.  0.
        1    1    3    3  502    0 -0.87293812820E+03  0.19638690639E+03 -0.20251320498E+04  0.22139892980E+04  0.50400001928E-02 0.  1.
       -1    1    3    3    0  502  0.87293812820E+03 -0.19638690639E+03  0.12898372697E+04  0.15697990237E+04  0.50400001928E-02 0. -1.
</event>
<event>
 5   0  0.9341000E-08  0.3683956E+04  0.7818609E-02  0.8071527E-01
       -1   -1    0    0    0  501  0.00000000000E+00  0.00000000000E+00  0.11095831615E+04  0.11095831615E+04  0.50400001928E-02 0. -1.
        1   -1    0    0  501    0  0.00000000000E+00  0.00000000000E+00 -0.30577991518E+04  0.30577991518E+04  0.50400001928E-02 0.  1.
    10030    2    1    2    0    0  0.00000000000E+00  0.00000000000E+00 -0.19482159903E+04  0.41673823133E+04  0.36839557272E+04 0.  0.
        1    1    3    3  502    0 -0.72188303542E+03 -0.16884433707E+04 -0.81046578204E+03  0.20071898058E+04  0.50400001928E-02 0. -1.
       -1    1    3    3    0  502  0.72188303542E+03  0.16884433707E+04 -0.11377502083E+04  0.21601925075E+04  0.50400001928E-02 0.  1.
</event>
<event>
 5   0  0.9341000E-08  0.3692369E+04  0.7818609E-02  0.8069655E-01
       -1   -1    0    0    0  501  0.00000000000E+00  0.00000000000E+00  0.18228710618E+04  0.18228710618E+04  0.50400001928E-02 0.  1.
        1   -1    0    0  501    0  0.00000000000E+00  0.00000000000E+00 -0.18697960784E+04  0.18697960785E+04  0.50400001928E-02 0. -1.
    10030    2    1    2    0    0  0.00000000000E+00  0.00000000000E+00 -0.46925016641E+02  0.36926671403E+04  0.36923689755E+04 0.  0.
        4    1    3    3  502    0 -0.13847582978E+04 -0.11181382655E+04  0.46709399845E+03  0.18400997637E+04  0.12699999809E+01 0. -1.
       -4    1    3    3    0  502  0.13847582978E+04  0.11181382655E+04 -0.51401901510E+03  0.18525673766E+04  0.12699999809E+01 0.  1.
</event>
<event>
 5   0  0.2897133E-07  0.3666742E+04  0.7818609E-02  0.8075372E-01
        2   -1    0    0  501    0  0.00000000000E+00  0.00000000000E+00  0.20228477925E+04  0.20228477925E+04  0.25500000920E-02 0.  1.
       -2   -1    0    0    0  501  0.00000000000E+00  0.00000000000E+00 -0.16616422965E+04  0.16616422965E+04  0.25500000920E-02 0. -1.
    10030    2    1    2    0    0  0.00000000000E+00  0.00000000000E+00  0.36120549605E+03  0.36844900890E+04  0.36667421242E+04 0.  0.
        4    1    3    3  502    0  0.96039472065E+03  0.12181015683E+04  0.11626347215E+04  0.19385176189E+04  0.12699999809E+01 0.  1.
       -4    1    3    3    0  502 -0.96039472065E+03 -0.12181015683E+04 -0.80142922545E+03  0.17459724701E+04  0.12699999809E+01 0. -1.
</event>
<event>
 5   0  0.3032442E-07  0.3690825E+04  0.7818609E-02  0.8069998E-01
        2   -1    0    0  501    0  0.00000000000E+00  0.00000000000E+00  0.24649562729E+04  0.24649562729E+04  0.25500000920E-02 0. -1.
       -2   -1    0    0    0  501  0.00000000000E+00  0.00000000000E+00 -0.13815855254E+04  0.13815855254E+04  0.25500000920E-02 0.  1.
    10030    2    1    2    0    0  0.00000000000E+00  0.00000000000E+00  0.10833707475E+04  0.38465417982E+04  0.36908253317E+04 0.  0.
        3    1    3    3  502    0  0.75684211102E+03 -0.17380720693E+03 -0.12030196787E+04  0.14318782363E+04  0.10100000352E+00 0.  1.
       -3    1    3    3    0  502 -0.75684211102E+03  0.17380720693E+03  0.22863904262E+04  0.24146635619E+04  0.10100000352E+00 0. -1.
</event>
<event>
 5   0  0.9341000E-08  0.3751725E+04  0.7818609E-02  0.8056595E-01
        1   -1    0    0  501    0  0.00000000000E+00  0.00000000000E+00  0.16124733653E+04  0.16124733653E+04  0.50400001928E-02 0. -1.
       -1   -1    0    0    0  501  0.00000000000E+00  0.00000000000E+00 -0.21822753538E+04  0.21822753538E+04  0.50400001928E-02 0.  1.
    10030    2    1    2    0    0  0.00000000000E+00  0.00000000000E+00 -0.56980198857E+03  0.37947487191E+04  0.37517254077E+04 0.  0.
        1    1    3    3  502    0 -0.17477395201E+03  0.15957278408E+04  0.69677905040E+03  0.17499698058E+04  0.50400001928E-02 0. -1.
       -1    1    3    3    0  502  0.17477395201E+03 -0.15957278408E+04 -0.12665810390E+04  0.20447789133E+04  0.50400001928E-02 0.  1.
</event>
<event>
 5   0  0.2913025E-07  0.3690770E+04  0.7818609E-02  0.8070010E-01
        2   -1    0    0  501    0  0.00000000000E+00  0.00000000000E+00  0.18290952595E+04  0.18290952595E+04  0.25500000920E-02 0. -1.
       -2   -1    0    0    0  501  0.00000000000E+00  0.00000000000E+00 -0.18618196484E+04  0.18618196484E+04  0.25500000920E-02 0.  1.
    10030    2    1    2    0    0  0.00000000000E+00  0.00000000000E+00 -0.32724388936E+02  0.36909149080E+04  0.36907698346E+04 0.  0.
        5    1    3    3  502    0  0.68698345583E+03  0.12820234929E+04  0.11194169672E+04  0.18353874090E+04  0.46999998093E+01 0. -1.
       -5    1    3    3    0  502 -0.68698345583E+03 -0.12820234929E+04 -0.11521413561E+04  0.18555274989E+04  0.46999998093E+01 0.  1.
</event>
<event>
 5   0  0.3032442E-07  0.3688421E+04  0.7818609E-02  0.8070533E-01
       -2   -1    0    0    0  501  0.00000000000E+00  0.00000000000E+00  0.12749443625E+04  0.12749443625E+04  0.25500000920E-02 0. -1.
        2   -1    0    0  501    0  0.00000000000E+00  0.00000000000E+00 -0.26676561551E+04  0.26676561551E+04  0.25500000920E-02 0.  1.
    10030    2    1    2    0    0  0.00000000000E+00  0.00000000000E+00 -0.13927117925E+04  0.39426005176E+04  0.36884214380E+04 0.  0.
        3    1    3    3  502    0 -0.15432434308E+04 -0.16574307582E+03  0.36829516445E+03  0.15952154689E+04  0.10100000352E+00 0. -1.
       -3    1    3    3    0  502  0.15432434308E+04  0.16574307582E+03 -0.17610069570E+04  0.23473850487E+04  0.10100000352E+00 0.  1.
</event>
<event>
 5   0  0.2897133E-07  0.3734889E+04  0.7818609E-02  0.8060274E-01
        2   -1    0    0  501    0  0.00000000000E+00  0.00000000000E+00  0.15931828090E+04  0.15931828090E+04  0.25500000920E-02 0.  1.
       -2   -1    0    0    0  501  0.00000000000E+00  0.00000000000E+00 -0.21889201068E+04  0.21889201068E+04  0.25500000920E-02 0. -1.
    10030    2    1    2    0    0  0.00000000000E+00  0.00000000000E+00 -0.59573729786E+03  0.37821029158E+04  0.37348894947E+04 0.  0.
        4    1    3    3  502    0 -0.10924311972E+04  0.72649269602E+01 -0.18315736692E+04  0.21326327435E+04  0.12699999809E+01 0. -1.
       -4    1    3    3    0  502  0.10924311972E+04 -0.72649269602E+01  0.12358363714E+04  0.16494701724E+04  0.12699999809E+01 0.  1.
</event>
<event>
 5   0  0.3008879E-07  0.3639825E+04  0.7818609E-02  0.8081430E-01
       -2   -1    0    0    0  501  0.00000000000E+00  0.00000000000E+00  0.17223552851E+04  0.17223552851E+04  0.25500000920E-02 0. -1.
        2   -1    0    0  501    0  0.00000000000E+00  0.00000000000E+00 -0.19229959988E+04  0.19229959988E+04  0.25500000920E-02 0.  1.
    10030    2    1    2    0    0  0.00000000000E+00  0.00000000000E+00 -0.20064071372E+03  0.36453512839E+04  0.36398254474E+04 0.  0.
        2    1    3    3  502    0  0.85156382274E+02 -0.15725498765E+04  0.81315951882E+03  0.17723975645E+04  0.25500000920E-02 0. -1.
       -2    1    3    3    0  502 -0.85156382274E+02  0.15725498765E+04 -0.10138002325E+04  0.18729537194E+04  0.25500000920E-02 0.  1.
</event>
<event>
 5   0  0.3008879E-07  0.3713840E+04  0.7818609E-02  0.8064902E-01
        2   -1    0    0  501    0  0.00000000000E+00  0.00000000000E+00  0.22821230818E+04  0.22821230818E+04  0.25500000920E-02 0. -1.
       -2   -1    0    0    0  501  0.00000000000E+00  0.00000000000E+00 -0.15109404289E+04  0.15109404289E+04  0.25500000920E-02 0.  1.
    10030    2    1    2    0    0  0.00000000000E+00  0.00000000000E+00  0.77118265283E+03  0.37930635107E+04  0.37138400763E+04 0.  0.
        2    1    3    3  502    0  0.63243896999E+03 -0.72312121745E+03  0.20085995207E+04  0.22265119313E+04  0.25500000920E-02 0. -1.
       -2    1    3    3    0  502 -0.63243896999E+03  0.72312121745E+03 -0.12374168679E+04  0.15665515794E+04  0.25500000920E-02 0.  1.
</event>
<event>
 5   0  0.3008879E-07  0.3712473E+04  0.7818609E-02  0.8065203E-01
        2   -1    0    0  501    0  0.00000000000E+00  0.00000000000E+00  0.14707946810E+04  0.14707946810E+04  0.25500000920E-02 0. -1.
       -2   -1    0    0    0  501  0.00000000000E+00  0.00000000000E+00 -0.23426890935E+04  0.23426890935E+04  0.25500000920E-02 0.  1.
    10030    2    1    2    0    0  0.00000000000E+00  0.00000000000E+00 -0.87189441253E+03  0.38134837745E+04  0.37124733847E+04 0.  0.
        2    1    3    3  502    0 -0.10494376095E+04 -0.84750754492E+03  0.87390513304E+03  0.16072642958E+04  0.25500000920E-02 0. -1.
       -2    1    3    3    0  502  0.10494376095E+04  0.84750754492E+03 -0.17457995456E+04  0.22062194787E+04  0.25500000920E-02 0.  1.
</event>
<event>
 5   0  0.3032442E-07  0.3714282E+04  0.7818609E-02  0.8064804E-01
        2   -1    0    0  501    0  0.00000000000E+00  0.00000000000E+00  0.22332556396E+04  0.22332556396E+04  0.25500000920E-02 0.  1.
       -2   -1    0    0    0  501  0.00000000000E+00  0.00000000000E+00 -0.15443699417E+04  0.15443699417E+04  0.25500000920E-02 0. -1.
    10030    2    1    2    0    0  0.00000000000E+00  0.00000000000E+00  0.68888569789E+03  0.37776255814E+04  0.37142821014E+04 0.  0.
        3    1    3    3  502    0  0.90153908161E+03 -0.16230036619E+04  0.29828977302E+03  0.18803963415E+04  0.10100000352E+00 0. -1.
       -3    1    3    3    0  502 -0.90153908161E+03  0.16230036619E+04  0.39059592487E+03  0.18972292399E+04  0.10100000352E+00 0.  1.
</event>
<event>
 5   0  0.2897133E-07  0.3684560E+04  0.7818609E-02  0.8071392E-01
        2   -1    0    0  501    0  0.00000000000E+00  0.00000000000E+00  0.19969019008E+04  0.19969019008E+04  0.25500000920E-02 0.  1.
       -2   -1    0    0    0  501  0.00000000000E+00  0.00000000000E+00 -0.16996305204E+04  0.16996305205E+04  0.25500000920E-02 0. -1.
    10030    2    1    2    0    0  0.00000000000E+00  0.00000000000E+00  0.29727138037E+03  0.36965324213E+04  0.36845599015E+04 0.  0.
        4    1    3    3  502    0  0.15236540821E+04 -0.67823826669E+03  0.93378002066E+03  0.19114067197E+04  0.12699999809E+01 0.  1.
       -4    1    3    3    0  502 -0.15236540821E+04  0.67823826669E+03 -0.63650864030E+03  0.17851257016E+04  0.12699999809E+01 0. -1.
</event>
<event>
 5   0  0.2996969E-07  0.3710280E+04  0.7818609E-02  0.8065687E-01
        2   -1    0    0  501    0  0.00000000000E+00  0.00000000000E+00  0.20733289082E+04  0.20733289082E+04  0.25500000920E-02 0.  1.
       -2   -1    0    0    0  501  0.00000000000E+00  0.00000000000E+00 -0.16599123267E+04  0.16599123267E+04  0.25500000920E-02 0. -1.
    10030    2    1    2    0    0  0.00000000000E+00  0.00000000000E+00  0.41341658150E+03  0.37332412349E+04  0.37102798881E+04 0.  0.
        1    1    3    3  502    0 -0.37975201781E+03  0.16091019560E+04  0.10534167315E+04  0.19603845312E+04  0.50400001928E-02 0. -1.
       -1    1    3    3    0  502  0.37975201781E+03 -0.16091019560E+04 -0.64000015001E+03  0.17728567037E+04  0.50400001928E-02 0.  1.
</event>
<event>
 5   0  0.9341000E-08  0.3712954E+04  0.7818609E-02  0.8065097E-01
        1   -1    0    0  501    0  0.00000000000E+00  0.00000000000E+00  0.12940660529E+04  0.12940660529E+04  0.50400001928E-02 0.  1.
       -1   -1    0    0    0  501  0.00000000000E+00  0.00000000000E+00 -0.26633162068E+04  0.26633162068E+04  0.50400001928E-02 0. -1.
    10030    2    1    2    0    0  0.00000000000E+00  0.00000000000E+00 -0.13692501539E+04  0.39573822598E+04  0.37129541293E+04 0.  0.
        1    1    3    3  502    0  0.60764214889E+03  0.11242265285E+04  0.75064742697E+03  0.14820883334E+04  0.50400001928E-02 0.  1.
       -1    1    3    3    0  502 -0.60764214889E+03 -0.11242265285E+04 -0.21198975809E+04  0.24752939264E+04  0.50400001928E-02 0. -1.
</event>
<event>
 5   0  0.9341000E-08  0.3669538E+04  0.7818609E-02  0.8074746E-01
       -1   -1    0    0    0  501  0.00000000000E+00  0.00000000000E+00  0.22583999798E+04  0.22583999798E+04  0.50400001928E-02 0.  1.
        1   -1    0    0  501    0  0.00000000000E+00  0.00000000000E+00 -0.14906025990E+04  0.14906025990E+04  0.50400001928E-02 0. -1.
    10030    2    1    2    0    0  0.00000000000E+00  0.00000000000E+00  0.76779738079E+03  0.37490025788E+04  0.36695377799E+04 0.  0.
        3    1    3    3  502    0  0.15651719173E+04 -0.90282882801E+03  0.70941070017E+03  0.19411662925E+04  0.10100000352E+00 0.  1.
       -3    1    3    3    0  502 -0.15651719173E+04  0.90282882801E+03  0.58386680612E+02  0.18078362863E+04  0.10100000352E+00 0. -1.
</event>
<event>
 5   0  0.9341000E-08  0.3672900E+04  0.7818609E-02  0.8073994E-01
       -1   -1    0    0    0  501  0.00000000000E+00  0.00000000000E+00  0.12537227179E+04  0.12537227179E+04  0.50400001928E-02 0.  1.
        1   -1    0    0  501    0  0.00000000000E+00  0.00000000000E+00 -0.26900272860E+04  0.26900272860E+04  0.50400001928E-02 0. -1.
    10030    2    1    2    0    0  0.00000000000E+00  0.00000000000E+00 -0.14363045681E+04  0.39437500039E+04  0.36728998463E+04 0.  0.
        1    1    3    3  502    0 -0.48034174071E+03 -0.12393653894E+04  0.64249371020E+03  0.14763308992E+04  0.50400001928E-02 0.  1.
       -1    1    3    3    0  502  0.48034174071E+03  0.12393653894E+04 -0.20787982783E+04  0.24674191047E+04  0.50400001928E-02 0. -1.
</event>
<event>
 5   0  0.2897133E-07  0.3604713E+04  0.7818609E-02  0.8089413E-01
       -2   -1    0    0    0  501  0.00000000000E+00  0.00000000000E+00  0.16942116217E+04  0.16942116217E+04  0.25500000920E-02 0. -1.
        2   -1    0    0  501    0  0.00000000000E+00  0.00000000000E+00 -0.19174045090E+04  0.19174045090E+04  0.25500000920E-02 0.  1.
    10030    2    1    2    0    0  0.00000000000E+00  0.00000000000E+00 -0.22319288728E+03  0.36116161307E+04  0.36047130275E+04 0.  0.
        4    1    3    3  502    0 -0.59052891892E+03 -0.15935928854E+04 -0.71293303703E+03  0.18429698361E+04  0.12699999809E+01 0.  1.
       -4    1    3    3    0  502  0.59052891892E+03  0.15935928854E+04  0.48974014976E+03  0.17686462947E+04  0.12699999809E+01 0. -1.
</event>
<event>
 5   0  0.3008879E-07  0.3720708E+04  0.7818609E-02  0.8063388E-01
       -2   -1    0    0    0  501  0.00000000000E+00  0.00000000000E+00  0.16410826822E+04  0.16410826822E+04  0.25500000920E-02 0. -1.
        2   -1    0    0  501    0  0.00000000000E+00  0.00000000000E+00 -0.21089233565E+04  0.21089233565E+04  0.25500000920E-02 0.  1.
    10030    2    1    2    0    0  0.00000000000E+00  0.00000000000E+00 -0.46784067424E+03  0.37500060387E+04  0.37207083189E+04 0.  0.
        2    1    3    3  502    0  0.85108645628E+03  0.16541917513E+04 -0.24883865514E+03  0.18768641886E+04  0.25500000920E-02 0.  1.
       -2    1    3    3    0  502 -0.85108645628E+03 -0.16541917513E+04 -0.21900201910E+03  0.18731418501E+04  0.25500000920E-02 0. -1.
</event>
<event>
 5   0  0.3008879E-07  0.3677151E+04  0.7818609E-02  0.8073044E-01
       -2   -1    0    0    0  501  0.00000000000E+00  0.00000000000E+00  0.14246459190E+04  0.14246459190E+04  0.25500000920E-02 0.  1.
        2   -1    0    0  501    0  0.00000000000E+00  0.00000000000E+00 -0.23727721339E+04  0.23727721339E+04  0.25500000920E-02 0. -1.
    10030    2    1    2    0    0  0.00000000000E+00  0.00000000000E+00 -0.94812621497E+03  0.37974180529E+04  0.36771511458E+04 0.  0.
        2    1    3    3  502    0 -0.15738449353E+04 -0.60515460754E+03  0.28282002270E+03  0.17097330624E+04  0.25500000920E-02 0.  1.
       -2    1    3    3    0  502  0.15738449353E+04  0.60515460754E+03 -0.12309462377E+04  0.20876849905E+04  0.25500000920E-02 0. -1.
</event>
<event>
 5   0  0.2996969E-07  0.3975968E+04  0.7818609E-02  0.8009412E-01
       -2   -1    0    0    0  501  0.00000000000E+00  0.00000000000E+00  0.16999636130E+04  0.16999636130E+04  0.25500000920E-02 0. -1.
        2   -1    0    0  501    0  0.00000000000E+00  0.00000000000E+00 -0.23248031771E+04  0.23248031771E+04  0.25500000920E-02 0.  1.
    10030    2    1    2    0    0  0.00000000000E+00  0.00000000000E+00 -0.62483956402E+03  0.40247667901E+04  0.39759682134E+04 0.  0.
        1    1    3    3  502    0  0.25296173796E+02 -0.20410544992E+03 -0.23140049848E+04  0.23231267724E+04  0.50400001928E-02 0.  1.
       -1    1    3    3    0  502 -0.25296173796E+02  0.20410544992E+03  0.16891654208E+04  0.17016400177E+04  0.50400001928E-02 0. -1.
</event>
<event>
 5   0  0.2913025E-07  0.3617949E+04  0.7818609E-02  0.8086393E-01
        2   -1    0    0  501    0  0.00000000000E+00  0.00000000000E+00  0.30049151846E+04  0.30049151846E+04  0.25500000920E-02 0.  1.
       -2   -1    0    0    0  501  0.00000000000E+00  0.00000000000E+00 -0.10890118068E+04  0.10890118068E+04  0.25500000920E-02 0. -1.
    10030    2    1    2    0    0  0.00000000000E+00  0.00000000000E+00  0.19159033779E+04  0.40939269914E+04  0.36179486533E+04 0.  0.
        5    1    3    3  502    0 -0.60605443035E+03 -0.15883011700E+04  0.16576581392E+04  0.23744168075E+04  0.46999998093E+01 0.  1.
       -5    1    3    3    0  502  0.60605443035E+03  0.15883011700E+04  0.25824523863E+03  0.17195101839E+04  0.46999998093E+01 0. -1.
</event>
<event>
 5   0  0.9646615E-08  0.3697813E+04  0.7818609E-02  0.8068447E-01
        1   -1    0    0  501    0  0.00000000000E+00  0.00000000000E+00  0.18004607512E+04  0.18004607512E+04  0.50400001928E-02 0. -1.
       -1   -1    0    0    0  501  0.00000000000E+00  0.00000000000E+00 -0.18986556113E+04  0.18986556113E+04  0.50400001928E-02 0.  1.
    10030    2    1    2    0    0  0.00000000000E+00  0.00000000000E+00 -0.98194860098E+02  0.36991163626E+04  0.36978128175E+04 0.  0.
        2    1    3    3  502    0  0.98303690920E+03 -0.14819518715E+04 -0.55515321039E+03  0.18629916804E+04  0.25500000920E-02 0.  1.
       -2    1    3    3    0  502 -0.98303690920E+03  0.14819518715E+04  0.45695835029E+03  0.18361246821E+04  0.25500000920E-02 0. -1.
</event>
<event>
 5   0  0.9341000E-08  0.3690838E+04  0.7818609E-02  0.8069995E-01
        1   -1    0    0  501    0  0.00000000000E+00  0.00000000000E+00  0.17613126746E+04  0.17613126746E+04  0.50400001928E-02 0.  1.
       -1   -1    0    0    0  501  0.00000000000E+00  0.00000000000E+00 -0.19335411217E+04  0.19335411217E+04  0.50400001928E-02 0. -1.
    10030    2    1    2    0    0  0.00000000000E+00  0.00000000000E+00 -0.17222844710E+03  0.36948537963E+04  0.36908375660E+04 0.  0.
        3    1    3    3  502    0 -0.15759179023E+04  0.54338304113E+03 -0.87867522861E+03  0.18843705930E+04  0.10100000352E+00 0. -1.
       -3    1    3    3    0  502  0.15759179023E+04 -0.54338304113E+03  0.70644678151E+03  0.18104832033E+04  0.10100000352E+00 0.  1.
</event>
<event>
 5   0  0.9341000E-08  0.3688943E+04  0.7818609E-02  0.8070417E-01
        1   -1    0    0  501    0  0.00000000000E+00  0.00000000000E+00  0.21159434765E+04  0.21159434765E+04  0.50400001928E-02 0.  1.
       -1   -1    0    0    0  501  0.00000000000E+00  0.00000000000E+00 -0.16078288619E+04  0.16078288619E+04  0.50400001928E-02 0. -1.
    10030    2    1    2    0    0  0.00000000000E+00  0.00000000000E+00  0.50811461459E+03  0.37237723384E+04  0.36889429336E+04 0.  0.
        1    1    3    3  502    0  0.11225261558E+04 -0.14191209596E+04 -0.10724060391E+03  0.18125864988E+04  0.50400001928E-02 0.  1.
       -1    1    3    3    0  502 -0.11225261558E+04  0.14191209596E+04  0.61535521850E+03  0.19111858396E+04  0.50400001928E-02 0. -1.
</event>
<event>
 5   0  0.9646615E-08  0.3654814E+04  0.7818609E-02  0.8078050E-01
       -1   -1    0    0    0  501  0.00000000000E+00  0.00000000000E+00  0.25914129715E+04  0.25914129715E+04  0.50400001928E-02 0.  1.
        1   -1    0    0  501    0  0.00000000000E+00  0.00000000000E+00 -0.12886471568E+04  0.12886471568E+04  0.50400001928E-02 0. -1.
    10030    2    1    2    0    0  0.00000000000E+00  0.00000000000E+00  0.13027658146E+04  0.38800601283E+04  0.36548143361E+04 0.  0.
        2    1    3    3  502    0  0.13816405039E+04  0.74795353607E+03  0.16422038399E+04  0.22727072900E+04  0.25500000920E-02 0.  1.
       -2    1    3    3    0  502 -0.13816405039E+04 -0.74795353607E+03 -0.33943802527E+03  0.16073528384E+04  0.25500000920E-02 0. -1.
</event>
<event>
 5   0  0.3032442E-07  0.3688889E+04  0.7818609E-02  0.8070429E-01
        2   -1    0    0  501    0  0.00000000000E+00  0.00000000000E+00  0.25640575714E+04  0.25640575714E+04  0.25500000920E-02 0.  1.
       -2   -1    0    0    0  501  0.00000000000E+00  0.00000000000E+00 -0.13267938209E+04  0.13267938209E+04  0.25500000920E-02 0. -1.
    10030    2    1    2    0    0  0.00000000000E+00  0.00000000000E+00  0.12372637505E+04  0.38908513923E+04  0.36888891240E+04 0.  0.
        3    1    3    3  502    0 -0.15892039994E+04  0.50509207297E+03  0.14500043784E+04  0.22097963846E+04  0.10100000352E+00 0.  1.
       -3    1    3    3    0  502  0.15892039994E+04 -0.50509207297E+03 -0.21274062786E+03  0.16810550077E+04  0.10100000352E+00 0. -1.
</event>
<event>
 5   0  0.9646615E-08  0.3702638E+04  0.7818609E-02  0.8067378E-01
        1   -1    0    0  501    0  0.00000000000E+00  0.00000000000E+00  0.14558223546E+04  0.14558223546E+04  0.50400001928E-02 0. -1.
       -1   -1    0    0    0  501  0.00000000000E+00  0.00000000000E+00 -0.23542577883E+04  0.23542577884E+04  0.50400001928E-02 0.  1.
    10030    2    1    2    0    0  0.00000000000E+00  0.00000000000E+00 -0.89843543371E+03  0.38100801430E+04  0.37026375015E+04 0.  0.
        2    1    3    3  502    0  0.10547500572E+04 -0.82703034840E+03 -0.17633441343E+04  0.22149174739E+04  0.25500000920E-02 0.  1.
       -2    1    3    3    0  502 -0.10547500572E+04  0.82703034840E+03  0.86490870060E+03  0.15951626691E+04  0.25500000920E-02 0. -1.
</event>
<event>
 5   0  0.2913025E-07  0.3581639E+04  0.7818609E-02  0.8094710E-01
       -2   -1    0    0    0  501  0.00000000000E+00  0.00000000000E+00  0.17835080198E+04  0.17835080198E+04  0.25500000920E-02 0.  1.
        2   -1    0    0  501    0  0.00000000000E+00  0.00000000000E+00 -0.17981614144E+04  0.17981614144E+04  0.25500000920E-02 0. -1.
    10030    2    1    2    0    0  0.00000000000E+00  0.00000000000E+00 -0.14653394540E+02  0.35816694342E+04  0.35816394590E+04 0.  0.
        5    1    3    3  502    0  0.54370917307E+03  0.16242782282E+04  0.51528057172E+03  0.17886966162E+04  0.46999998093E+01 0.  1.
       -5    1    3    3    0  502 -0.54370917307E+03 -0.16242782282E+04 -0.52993396626E+03  0.17929728180E+04  0.46999998093E+01 0. -1.
</event>
<event>
 5   0  0.2996969E-07  0.3471819E+04  0.7818609E-02  0.8120501E-01
       -2   -1    0    0    0  501  0.00000000000E+00  0.00000000000E+00  0.11844622663E+04  0.11844622663E+04  0.25500000920E-02 0.  1.
        2   -1    0    0  501    0  0.00000000000E+00  0.00000000000E+00 -0.25440924110E+04  0.25440924110E+04  0.25500000920E-02 0. -1.
    10030    2    1    2    0    0  0.00000000000E+00  0.00000000000E+00 -0.13596301448E+04  0.37285546773E+04  0.34718188102E+04 0.  0.
        1    1    3    3  502    0 -0.21109309635E+03 -0.17040070705E+04 -0.40562974502E+03  0.17642947265E+04  0.50400001928E-02 0.  1.
       -1    1    3    3    0  502  0.21109309635E+03  0.17040070705E+04 -0.95400039976E+03  0.19642599509E+04  0.50400001928E-02 0. -1.
</event>
<event>
 5   0  0.9418945E-08  0.3687261E+04  0.7818609E-02  0.8070791E-01
        1   -1    0    0  501    0  0.00000000000E+00  0.00000000000E+00  0.17052594803E+04  0.17052594803E+04  0.50400001928E-02 0.  1.
       -1   -1    0    0    0  501  0.00000000000E+00  0.00000000000E+00 -0.19932298971E+04  0.19932298971E+04  0.50400001928E-02 0. -1.
    10030    2    1    2    0    0  0.00000000000E+00  0.00000000000E+00 -0.28797041678E+03  0.36984893775E+04  0.36872614112E+04 0.  0.
        5    1    3    3  502    0 -0.98206532665E+03  0.80546375055E+03  0.11963952666E+04  0.17448804782E+04  0.46999998093E+01 0.  1.
       -5    1    3    3    0  502  0.98206532665E+03 -0.80546375055E+03 -0.14843656834E+04  0.19536088993E+04  0.46999998093E+01 0. -1.
</event>
<event>
 5   0  0.9341000E-08  0.3702430E+04  0.7818609E-02  0.8067424E-01
       -1   -1    0    0    0  501  0.00000000000E+00  0.00000000000E+00  0.15164177069E+04  0.15164177069E+04  0.50400001928E-02 0.  1.
        1   -1    0    0  501    0  0.00000000000E+00  0.00000000000E+00 -0.22599290606E+04  0.22599290606E+04  0.50400001928E-02 0. -1.
    10030    2    1    2    0    0  0.00000000000E+00  0.00000000000E+00 -0.74351135374E+03  0.37763467675E+04  0.37024297124E+04 0.  0.
        3    1    3    3  502    0 -0.59627749917E+03  0.30001978802E+03 -0.21329120318E+04  0.22349211340E+04  0.10100000352E+00 0. -1.
       -3    1    3    3    0  502  0.59627749917E+03 -0.30001978802E+03  0.13894006781E+04  0.15414256335E+04  0.10100000352E+00 0.  1.
</event>
<event>
 5   0  0.9341000E-08  0.3715719E+04  0.7818609E-02  0.8064487E-01
        1   -1    0    0  501    0  0.00000000000E+00  0.00000000000E+00  0.26056724909E+04  0.26056724909E+04  0.50400001928E-02 0.  1.
       -1   -1    0    0    0  501  0.00000000000E+00  0.00000000000E+00 -0.13246645378E+04  0.13246645378E+04  0.50400001928E-02 0. -1.
    10030    2    1    2    0    0  0.00000000000E+00  0.00000000000E+00  0.12810079531E+04  0.39303370287E+04  0.37157190130E+04 0.  0.
        1    1    3    3  502    0 -0.17622684395E+04 -0.38114889348E+03  0.11144668857E+04  0.21196464260E+04  0.50400001928E-02 0.  1.
       -1    1    3    3    0  502  0.17622684395E+04  0.38114889348E+03  0.16654106739E+03  0.18106906027E+04  0.50400001928E-02 0. -1.
</event>
<event>
 5   0  0.9418945E-08  0.3689091E+04  0.7818609E-02  0.8070384E-01
       -1   -1    0    0    0  501  0.00000000000E+00  0.00000000000E+00  0.20028789229E+04  0.20028789229E+04  0.50400001928E-02 0. -1.
        1   -1    0    0  501    0  0.00000000000E+00  0.00000000000E+00 -0.16987291212E+04  0.16987291212E+04  0.50400001928E-02 0.  1.
    10030    2    1    2    0    0  0.00000000000E+00  0.00000000000E+00  0.30414980176E+03  0.37016080441E+04  0.36890913530E+04 0.  0.
        5    1    3    3  502    0  0.78098332714E+03  0.28826645987E+03  0.18036529435E+04  0.19865091341E+04  0.46999998093E+01 0. -1.
       -5    1    3    3    0  502 -0.78098332714E+03 -0.28826645987E+03 -0.14995031417E+04  0.17150989100E+04  0.46999998093E+01 0.  1.
</event>
<event>
 5   0  0.3008879E-07  0.3690014E+04  0.7818609E-02  0.8070178E-01
        2   -1    0    0  501    0  0.00000000000E+00  0.00000000000E+00  0.14960468358E+04  0.14960468358E+04  0.25500000920E-02 0.  1.
       -2   -1    0    0    0  501  0.00000000000E+00  0.00000000000E+00 -0.22753636413E+04  0.22753636413E+04  0.25500000920E-02 0. -1.
    10030    2    1    2    0    0  0.00000000000E+00  0.00000000000E+00 -0.77931680557E+03  0.37714104771E+04  0.36900138622E+04 0.  0.
        2    1    3    3  502    0 -0.75395917326E+03 -0.56923431364E+03 -0.20094096158E+04  0.22204074272E+04  0.25500000920E-02 0. -1.
       -2    1    3    3    0  502  0.75395917326E+03  0.56923431364E+03  0.12300928103E+04  0.15510030498E+04  0.25500000920E-02 0.  1.
</event>
<event>
 5   0  0.9646615E-08  0.3753552E+04  0.7818609E-02  0.8056197E-01
       -1   -1    0    0    0  501  0.00000000000E+00  0.00000000000E+00  0.13772880989E+04  0.13772880989E+04  0.50400001928E-02 0.  1.
        1   -1    0    0  501    0  0.00000000000E+00  0.00000000000E+00 -0.25574080868E+04  0.25574080868E+04  0.50400001928E-02 0. -1.
    10030    2    1    2    0    0  0.00000000000E+00  0.00000000000E+00 -0.11801199880E+04  0.39346961857E+04  0.37535517697E+04 0.  0.
        2    1    3    3  502    0 -0.88780659555E+03 -0.89794515980E+03  0.86539143362E+03  0.15308195173E+04  0.25500000920E-02 0.  1.
       -2    1    3    3    0  502  0.88780659555E+03  0.89794515980E+03 -0.20455114216E+04  0.24038766684E+04  0.25500000920E-02 0. -1.
</event>
<event>
 5   0  0.2913025E-07  0.3706951E+04  0.7818609E-02  0.8066423E-01
       -2   -1    0    0    0  501  0.00000000000E+00  0.00000000000E+00  0.22583378928E+04  0.22583378928E+04  0.25500000920E-02 0.  1.
        2   -1    0    0  501    0  0.00000000000E+00  0.00000000000E+00 -0.15211948193E+04  0.15211948193E+04  0.25500000920E-02 0. -1.
    10030    2    1    2    0    0  0.00000000000E+00  0.00000000000E+00  0.73714307351E+03  0.37795327120E+04  0.37069512555E+04 0.  0.
        5    1    3    3  502    0  0.80987111496E+03 -0.16377376998E+04  0.68656574542E+03  0.19517865173E+04  0.46999998093E+01 0.  1.
       -5    1    3    3    0  502 -0.80987111496E+03  0.16377376998E+04  0.50577328084E+02  0.18277461947E+04  0.46999998093E+01 0. -1.
</event>
<event>
 5   0  0.9341000E-08  0.3663970E+04  0.7818609E-02  0.8075994E-01
        1   -1    0    0  501    0  0.00000000000E+00  0.00000000000E+00  0.17979792859E+04  0.17979792860E+04  0.50400001928E-02 0.  1.
       -1   -1    0    0    0  501  0.00000000000E+00  0.00000000000E+00 -0.18666336276E+04  0.18666336276E+04  0.50400001928E-02 0. -1.
    10030    2    1    2    0    0  0.00000000000E+00  0.00000000000E+00 -0.68654341637E+02  0.36646129135E+04  0.36639697580E+04 0.  0.
        3    1    3    3  502    0  0.13402575797E+04 -0.32838486235E+03  0.11708912336E+04  0.18097274074E+04  0.10100000352E+00 0.  1.
       -3    1    3    3    0  502 -0.13402575797E+04  0.32838486235E+03 -0.12395455753E+04  0.18548855062E+04  0.10100000352E+00 0. -1.
</event>
<event>
 5   0  0.3032442E-07  0.3740604E+04  0.7818609E-02  0.8059023E-01
        2   -1    0    0  501    0  0.00000000000E+00  0.00000000000E+00  0.29564010430E+04  0.29564010430E+04  0.25500000920E-02 0.  1.
       -2   -1    0    0    0  501  0.00000000000E+00  0.00000000000E+00 -0.11832052985E+04  0.11832052985E+04  0.25500000920E-02 0. -1.
    10030    2    1    2    0    0  0.00000000000E+00  0.00000000000E+00  0.17731957444E+04  0.41396063415E+04  0.37406038971E+04 0.  0.
        3    1    3    3  502    0 -0.12163278487E+04  0.49914645856E+03 -0.58549042720E+03  0.14392357949E+04  0.10100000352E+00 0. -1.
       -3    1    3    3    0  502  0.12163278487E+04 -0.49914645856E+03  0.23586861716E+04  0.27003705466E+04  0.10100000352E+00 0.  1.
</event>
<event>
 5   0  0.2913025E-07  0.3701672E+04  0.7818609E-02  0.8067591E-01
       -2   -1    0    0    0  501  0.00000000000E+00  0.00000000000E+00  0.17607372443E+04  0.17607372443E+04  0.25500000920E-02 0.  1.
        2   -1    0    0  501    0  0.00000000000E+00  0.00000000000E+00 -0.19455450797E+04  0.19455450797E+04  0.25500000920E-02 0. -1.
    10030    2    1    2    0    0  0.00000000000E+00  0.00000000000E+00 -0.18480783540E+03  0.37062823240E+04  0.37016718830E+04 0.  0.
        5    1    3    3  502    0  0.68924494519E+03 -0.10594872377E+03 -0.18089743955E+04  0.19387352012E+04  0.46999998093E+01 0. -1.
       -5    1    3    3    0  502 -0.68924494519E+03  0.10594872377E+03  0.16241665601E+04  0.17675471229E+04  0.46999998093E+01 0.  1.
</event>
<event>
 5   0  0.2913025E-07  0.3618055E+04  0.7818609E-02  0.8086369E-01
        2   -1    0    0  501    0  0.00000000000E+00  0.00000000000E+00  0.24707475920E+04  0.24707475920E+04  0.25500000920E-02 0. -1.
       -2   -1    0    0    0  501  0.00000000000E+00  0.00000000000E+00 -0.13245301838E+04  0.13245301838E+04  0.25500000920E-02 0.  1.
    10030    2    1    2    0    0  0.00000000000E+00  0.00000000000E+00  0.11462174083E+04  0.37952777758E+04  0.36180545945E+04 0.  0.
        5    1    3    3  502    0 -0.25769996586E+03 -0.92396687828E+03  0.21820016188E+04  0.23835429971E+04  0.46999998093E+01 0. -1.
       -5    1    3    3    0  502  0.25769996586E+03  0.92396687828E+03 -0.10357842105E+04  0.14117347787E+04  0.46999998093E+01 0.  1.
</event>
<event>
 5   0  0.3032442E-07  0.3723572E+04  0.7818609E-02  0.8062758E-01
        2   -1    0    0  501    0  0.00000000000E+00  0.00000000000E+00  0.25092513848E+04  0.25092513848E+04  0.25500000920E-02 0.  1.
       -2   -1    0    0    0  501  0.00000000000E+00  0.00000000000E+00 -0.13813869465E+04  0.13813869465E+04  0.25500000920E-02 0. -1.
    10030    2    1    2    0    0  0.00000000000E+00  0.00000000000E+00  0.11278644383E+04  0.38906383312E+04  0.37235719992E+04 0.  0.
        3    1    3    3  502    0  0.32854361001E+02  0.12629839927E+04 -0.86491716413E+03  0.15311073397E+04  0.10100000352E+00 0. -1.
       -3    1    3    3    0  502 -0.32854361001E+02 -0.12629839927E+04  0.19927816024E+04  0.23595309915E+04  0.10100000352E+00 0.  1.
</event>
<event>
 5   0  0.9341000E-08  0.3713222E+04  0.7818609E-02  0.8065038E-01
        1   -1    0    0  501    0  0.00000000000E+00  0.00000000000E+00  0.23479298279E+04  0.23479298279E+04  0.50400001928E-02 0. -1.
       -1   -1    0    0    0  501  0.00000000000E+00  0.00000000000E+00 -0.14681035436E+04  0.14681035436E+04  0.50400001928E-02 0.  1.
    10030    2    1    2    0    0  0.00000000000E+00  0.00000000000E+00  0.87982628438E+03  0.38160333715E+04  0.37132218358E+04 0.  0.
        1    1    3    3  502    0 -0.95671875606E+03  0.15496850040E+04  0.69133195239E+02  0.18225295028E+04  0.50400001928E-02 0.  1.
       -1    1    3    3    0  502  0.95671875606E+03 -0.15496850040E+04  0.81069308914E+03  0.19935038687E+04  0.50400001928E-02 0. -1.
</event>
<event>
 5   0  0.9341000E-08  0.3401749E+04  0.7818609E-02  0.8137477E-01
        1   -1    0    0  501    0  0.00000000000E+00  0.00000000000E+00  0.19251014042E+04  0.19251014042E+04  0.50400001928E-02 0.  1.
       -1   -1    0    0    0  501  0.00000000000E+00  0.00000000000E+00 -0.15027647968E+04  0.15027647968E+04  0.50400001928E-02 0. -1.
    10030    2    1    2    0    0  0.00000000000E+00  0.00000000000E+00  0.42233660745E+03  0.34278662010E+04  0.34017493267E+04 0.  0.
        4    1    3    3  502    0 -0.18282310972E+03  0.73836453356E+03  0.17441523130E+04  0.19028072361E+04  0.12699999809E+01 0.  1.
       -4    1    3    3    0  502  0.18282310972E+03 -0.73836453356E+03 -0.13218157056E+04  0.15250589649E+04  0.12699999809E+01 0. -1.
</event>
<event>
 5   0  0.9418945E-08  0.3684428E+04  0.7818609E-02  0.8071422E-01
       -1   -1    0    0    0  501  0.00000000000E+00  0.00000000000E+00  0.16522374477E+04  0.16522374477E+04  0.50400001928E-02 0. -1.
        1   -1    0    0  501    0  0.00000000000E+00  0.00000000000E+00 -0.20540341586E+04  0.20540341586E+04  0.50400001928E-02 0.  1.
    10030    2    1    2    0    0  0.00000000000E+00  0.00000000000E+00 -0.40179671087E+03  0.37062716063E+04  0.36844278556E+04 0.  0.
        5    1    3    3  502    0 -0.15909076503E+04  0.85186250713E+03  0.17153059574E+03  0.18127608001E+04  0.46999998093E+01 0. -1.
       -5    1    3    3    0  502  0.15909076503E+04 -0.85186250713E+03 -0.57332730662E+03  0.18935108063E+04  0.46999998093E+01 0.  1.
</event>
<event>
 5   0  0.3008879E-07  0.3712463E+04  0.7818609E-02  0.8065205E-01
        2   -1    0    0  501    0  0.00000000000E+00  0.00000000000E+00  0.15194318265E+04  0.15194318265E+04  0.25500000920E-02 0.  1.
       -2   -1    0    0    0  501  0.00000000000E+00  0.00000000000E+00 -0.22676872525E+04  0.22676872525E+04  0.25500000920E-02 0. -1.
    10030    2    1    2    0    0  0.00000000000E+00  0.00000000000E+00 -0.74825542606E+03  0.37871190790E+04  0.37124634322E+04 0.  0.
        2    1    3    3  502    0  0.76192262904E+03  0.16622324708E+04 -0.48245759141E+02  0.18291720895E+04  0.25500000920E-02 0. -1.
       -2    1    3    3    0  502 -0.76192262904E+03 -0.16622324708E+04 -0.70000966692E+03  0.19579469895E+04  0.25500000920E-02 0.  1.
</event>
<event>
 5   0  0.9341000E-08  0.3690339E+04  0.7818609E-02  0.8070106E-01
        1   -1    0    0  501    0  0.00000000000E+00  0.00000000000E+00  0.22274247956E+04  0.22274247956E+04  0.50400001928E-02 0. -1.
       -1   -1    0    0    0  501  0.00000000000E+00  0.00000000000E+00 -0.15285140550E+04  0.15285140550E+04  0.50400001928E-02 0.  1.
    10030    2    1    2    0    0  0.00000000000E+00  0.00000000000E+00  0.69891074055E+03  0.37559388506E+04  0.36903387956E+04 0.  0.
        3    1    3    3  502    0 -0.23959884828E+03 -0.83191595760E+03 -0.13089759300E+04  0.15693660389E+04  0.10100000352E+00 0.  1.
       -3    1    3    3    0  502  0.23959884828E+03  0.83191595760E+03  0.20078866706E+04  0.21865728117E+04  0.10100000352E+00 0. -1.
</event>
<event>
 5   0  0.9341000E-08  0.3731575E+04  0.7818609E-02  0.8061000E-01
        1   -1    0    0  501    0  0.00000000000E+00  0.00000000000E+00  0.18466843763E+04  0.18466843763E+04  0.50400001928E-02 0.  1.
       -1   -1    0    0    0  501  0.00000000000E+00  0.00000000000E+00 -0.18850881115E+04  0.18850881115E+04  0.50400001928E-02 0. -1.
    10030    2    1    2    0    0  0.00000000000E+00  0.00000000000E+00 -0.38403735135E+02  0.37317724878E+04  0.37315748758E+04 0.  0.
        4    1    3    3  502    0 -0.12529285641E+04  0.70054498645E+03  0.11727370348E+04  0.18536199801E+04  0.12699999809E+01 0.  1.
       -4    1    3    3    0  502  0.12529285641E+04 -0.70054498645E+03 -0.12111407700E+04  0.18781525077E+04  0.12699999809E+01 0. -1.
</event>
<event>
 5   0  0.2897133E-07  0.3694351E+04  0.7818609E-02  0.8069215E-01
        2   -1    0    0  501    0  0.00000000000E+00  0.00000000000E+00  0.30259943273E+04  0.30259943273E+04  0.25500000920E-02 0.  1.
       -2   -1    0    0    0  501  0.00000000000E+00  0.00000000000E+00 -0.11275821555E+04  0.11275821555E+04  0.25500000920E-02 0. -1.
    10030    2    1    2    0    0  0.00000000000E+00  0.00000000000E+00  0.18984121719E+04  0.41535764828E+04  0.36943509341E+04 0.  0.
        4    1    3    3  502    0 -0.13062755172E+03 -0.14150970488E+04  0.22759297566E+04  0.26831736963E+04  0.12699999809E+01 0.  1.
       -4    1    3    3    0  502  0.13062755172E+03  0.14150970488E+04 -0.37751758472E+03  0.14704027865E+04  0.12699999809E+01 0. -1.
</event>
<event>
 5   0  0.9341000E-08  0.3691874E+04  0.7818609E-02  0.8069765E-01
       -1   -1    0    0    0  501  0.00000000000E+00  0.00000000000E+00  0.13993242435E+04  0.13993242435E+04  0.50400001928E-02 0.  1.
        1   -1    0    0  501    0  0.00000000000E+00  0.00000000000E+00 -0.24350919020E+04  0.24350919020E+04  0.50400001928E-02 0. -1.
    10030    2    1    2    0    0  0.00000000000E+00  0.00000000000E+00 -0.10357676585E+04  0.38344161454E+04  0.36918738513E+04 0.  0.
        4    1    3    3  502    0 -0.15369829541E+04 -0.14039930403E+03 -0.15696283593E+04  0.22013094660E+04  0.12699999809E+01 0.  1.
       -4    1    3    3    0  502  0.15369829541E+04  0.14039930403E+03  0.53386070078E+03  0.16331066795E+04  0.12699999809E+01 0. -1.
</event>
<event>
 5   0  0.9341000E-08  0.3714466E+04  0.7818609E-02  0.8064764E-01
        1   -1    0    0  501    0  0.00000000000E+00  0.00000000000E+00  0.21038769617E+04  0.21038769617E+04  0.50400001928E-02 0.  1.
       -1   -1    0    0    0  501  0.00000000000E+00  0.00000000000E+00 -0.16395035905E+04  0.16395035906E+04  0.50400001928E-02 0. -1.
    10030    2    1    2    0    0  0.00000000000E+00  0.00000000000E+00  0.46437337114E+03  0.37433805522E+04  0.37144656858E+04 0.  0.
        4    1    3    3  502    0  0.17156898824E+04  0.64577818937E+03 -0.67941891918E+02  0.18344587638E+04  0.12699999809E+01 0.  1.
       -4    1    3    3    0  502 -0.17156898824E+04 -0.64577818937E+03  0.53231526305E+03  0.19089217885E+04  0.12699999809E+01 0. -1.
</event>
<event>
 5   0  0.9341000E-08  0.3693484E+04  0.7818609E-02  0.8069407E-01
       -1   -1    0    0    0  501  0.00000000000E+00  0.00000000000E+00  0.17776693488E+04  0.17776693488E+04  0.50400001928E-02 0.  1.
        1   -1    0    0  501    0  0.00000000000E+00  0.00000000000E+00 -0.19184984643E+04  0.19184984644E+04  0.50400001928E-02 0. -1.
    10030    2    1    2    0    0  0.00000000000E+00  0.00000000000E+00 -0.14082911552E+03  0.36961678132E+04  0.36934839465E+04 0.  0.
        1    1    3    3  502    0 -0.15992188743E+04  0.89515670502E+03 -0.29784470218E+03  0.18567493102E+04  0.50400001928E-02 0. -1.
       -1    1    3    3    0  502  0.15992188743E+04 -0.89515670502E+03  0.15701558665E+03  0.18394185029E+04  0.50400001928E-02 0.  1.
</event>
<event>
 5   0  0.2996969E-07  0.3725322E+04  0.7818609E-02  0.8062373E-01
       -2   -1    0    0    0  501  0.00000000000E+00  0.00000000000E+00  0.17438978873E+04  0.17438978873E+04  0.25500000920E-02 0. -1.
        2   -1    0    0  501    0  0.00000000000E+00  0.00000000000E+00 -0.19895124055E+04  0.19895124055E+04  0.25500000920E-02 0.  1.
    10030    2    1    2    0    0  0.00000000000E+00  0.00000000000E+00 -0.24561451823E+03  0.37334102927E+04  0.37253222575E+04 0.  0.
        1    1    3    3  502    0  0.10219277363E+04 -0.28178641202E+03 -0.16577220548E+04  0.19676845000E+04  0.50400001928E-02 0.  1.
       -1    1    3    3    0  502 -0.10219277363E+04  0.28178641202E+03  0.14121075366E+04  0.17657257928E+04  0.50400001928E-02 0. -1.
</event>
<event>
 5   0  0.9341000E-08  0.3700374E+04  0.7818609E-02  0.8067879E-01
        1   -1    0    0  501    0  0.00000000000E+00  0.00000000000E+00  0.24144598291E+04  0.24144598291E+04  0.50400001928E-02 0. -1.
       -1   -1    0    0    0  501  0.00000000000E+00  0.00000000000E+00 -0.14177879612E+04  0.14177879612E+04  0.50400001928E-02 0.  1.
    10030    2    1    2    0    0  0.00000000000E+00  0.00000000000E+00  0.99667186795E+03  0.38322477903E+04  0.37003740776E+04 0.  0.
        3    1    3    3  502    0  0.10958335425E+04 -0.28535544892E+03 -0.10169949713E+04  0.15220242005E+04  0.10100000352E+00 0.  1.
       -3    1    3    3    0  502 -0.10958335425E+04  0.28535544892E+03  0.20136668393E+04  0.23102235898E+04  0.10100000352E+00 0. -1.
</event>
<event>
 5   0  0.3008879E-07  0.3716688E+04  0.7818609E-02  0.8064274E-01
       -2   -1    0    0    0  501  0.00000000000E+00  0.00000000000E+00  0.14250040565E+04  0.14250040565E+04  0.25500000920E-02 0. -1.
        2   -1    0    0  501    0  0.00000000000E+00  0.00000000000E+00 -0.24234611348E+04  0.24234611348E+04  0.25500000920E-02 0.  1.
    10030    2    1    2    0    0  0.00000000000E+00  0.00000000000E+00 -0.99845707821E+03  0.38484651913E+04  0.37166877447E+04 0.  0.
        2    1    3    3  502    0  0.12466417352E+04  0.10188886552E+04  0.46167886799E+03  0.16749319643E+04  0.25500000920E-02 0. -1.
       -2    1    3    3    0  502 -0.12466417352E+04 -0.10188886552E+04 -0.14601359462E+04  0.21735332271E+04  0.25500000920E-02 0.  1.
</event>
<event>
 5   0  0.3032442E-07  0.3695179E+04  0.7818609E-02  0.8069031E-01
        2   -1    0    0  501    0  0.00000000000E+00  0.00000000000E+00  0.27493528542E+04  0.27493528542E+04  0.25500000920E-02 0.  1.
       -2   -1    0    0    0  501  0.00000000000E+00  0.00000000000E+00 -0.12415965336E+04  0.12415965336E+04  0.25500000920E-02 0. -1.
    10030    2    1    2    0    0  0.00000000000E+00  0.00000000000E+00  0.15077563206E+04  0.39909493877E+04  0.36951790069E+04 0.  0.
        3    1    3    3  502    0  0.59614004476E+03 -0.14750823694E+04 -0.26063513107E+03  0.16121977643E+04  0.10100000352E+00 0. -1.
       -3    1    3    3    0  502 -0.59614004476E+03  0.14750823694E+04  0.17683914517E+04  0.23787516234E+04  0.10100000352E+00 0.  1.
</event>
<event>
 5   0  0.9418945E-08  0.3711271E+04  0.7818609E-02  0.8065469E-01
        1   -1    0    0  501    0  0.00000000000E+00  0.00000000000E+00  0.23263923516E+04  0.23263923516E+04  0.50400001928E-02 0.  1.
       -1   -1    0    0    0  501  0.00000000000E+00  0.00000000000E+00 -0.14801388433E+04  0.14801388434E+04  0.50400001928E-02 0. -1.
    10030    2    1    2    0    0  0.00000000000E+00  0.00000000000E+00  0.84625350822E+03  0.38065311949E+04  0.37112713102E+04 0.  0.
        5    1    3    3  502    0 -0.81545071663E+03  0.81922736123E+03  0.19120304267E+04  0.22342729876E+04  0.46999998093E+01 0.  1.
       -5    1    3    3    0  502  0.81545071663E+03 -0.81922736123E+03 -0.10657769184E+04  0.15722582073E+04  0.46999998093E+01 0. -1.
</event>
<event>
 5   0  0.2897133E-07  0.3696476E+04  0.7818609E-02  0.8068743E-01
        2   -1    0    0  501    0  0.00000000000E+00  0.00000000000E+00  0.25912651307E+04  0.25912651307E+04  0.25500000920E-02 0.  1.
       -2   -1    0    0    0  501  0.00000000000E+00  0.00000000000E+00 -0.13182687914E+04  0.13182687914E+04  0.25500000920E-02 0. -1.
    10030    2    1    2    0    0  0.00000000000E+00  0.00000000000E+00  0.12729963393E+04  0.39095339220E+04  0.36964761338E+04 0.  0.
        4    1    3    3  502    0 -0.59146609041E+03  0.72290419105E+03 -0.10502803032E+04  0.14055294140E+04  0.12699999809E+01 0. -1.
       -4    1    3    3    0  502  0.59146609041E+03 -0.72290419105E+03  0.23232766425E+04  0.25040045080E+04  0.12699999809E+01 0.  1.
</event>
<event>
 5   0  0.2897133E-07  0.3676169E+04  0.7818609E-02  0.8073264E-01
        2   -1    0    0  501    0  0.00000000000E+00  0.00000000000E+00  0.22841058727E+04  0.22841058727E+04  0.25500000920E-02 0.  1.
       -2   -1    0    0    0  501  0.00000000000E+00  0.00000000000E+00 -0.14791587806E+04  0.14791587806E+04  0.25500000920E-02 0. -1.
    10030    2    1    2    0    0  0.00000000000E+00  0.00000000000E+00  0.80494709210E+03  0.37632646533E+04  0.36761693419E+04 0.  0.
        4    1    3    3  502    0  0.75611489863E+03  0.14992117243E+04  0.11679925619E+04  0.20453737487E+04  0.12699999809E+01 0.  1.
       -4    1    3    3    0  502 -0.75611489863E+03 -0.14992117243E+04 -0.36304546980E+03  0.17178909047E+04  0.12699999809E+01 0. -1.
</event>
<event>
 5   0  0.3008879E-07  0.3677450E+04  0.7818609E-02  0.8072978E-01
        2   -1    0    0  501    0  0.00000000000E+00  0.00000000000E+00  0.17722928156E+04  0.17722928156E+04  0.25500000920E-02 0. -1.
       -2   -1    0    0    0  501  0.00000000000E+00  0.00000000000E+00 -0.19076475509E+04  0.19076475509E+04  0.25500000920E-02 0.  1.
    10030    2    1    2    0    0  0.00000000000E+00  0.00000000000E+00 -0.13535473538E+03  0.36799403665E+04  0.36774502303E+04 0.  0.
        2    1    3    3  502    0 -0.62018396409E+03 -0.34979835900E+03  0.16287354366E+04  0.17775731106E+04  0.25500000920E-02 0. -1.
       -2    1    3    3    0  502  0.62018396409E+03  0.34979835900E+03 -0.17640901720E+04  0.19023672558E+04  0.25500000920E-02 0.  1.
</event>
<event>
 5   0  0.9418945E-08  0.3747600E+04  0.7818609E-02  0.8057494E-01
        1   -1    0    0  501    0  0.00000000000E+00  0.00000000000E+00  0.20899371443E+04  0.20899371443E+04  0.50400001928E-02 0. -1.
       -1   -1    0    0    0  501  0.00000000000E+00  0.00000000000E+00 -0.16800151788E+04  0.16800151788E+04  0.50400001928E-02 0.  1.
    10030    2    1    2    0    0  0.00000000000E+00  0.00000000000E+00  0.40992196546E+03  0.37699523231E+04  0.37475998320E+04 0.  0.
        5    1    3    3  502    0 -0.13373720348E+04 -0.87464997116E+03  0.11893307702E+04  0.19920106181E+04  0.46999998093E+01 0.  1.
       -5    1    3    3    0  502  0.13373720348E+04  0.87464997116E+03 -0.77940880477E+03  0.17779417050E+04  0.46999998093E+01 0. -1.
</event>
<event>
 5   0  0.3032442E-07  0.3720852E+04  0.7818609E-02  0.8063357E-01
        2   -1    0    0  501    0  0.00000000000E+00  0.00000000000E+00  0.14914216002E+04  0.14914216002E+04  0.25500000920E-02 0.  1.
       -2   -1    0    0    0  501  0.00000000000E+00  0.00000000000E+00 -0.23207282039E+04  0.23207282039E+04  0.25500000920E-02 0. -1.
    10030    2    1    2    0    0  0.00000000000E+00  0.00000000000E+00 -0.82930660363E+03  0.38121498041E+04  0.37208516077E+04 0.  0.
        3    1    3    3  502    0  0.16134336124E+04 -0.92529126998E+03 -0.37056004335E+03  0.18964827212E+04  0.10100000352E+00 0. -1.
       -3    1    3    3    0  502 -0.16134336124E+04  0.92529126998E+03 -0.45874656029E+03  0.19156670829E+04  0.10100000352E+00 0.  1.
</event>
<event>
 5   0  0.9418945E-08  0.3698113E+04  0.7818609E-02  0.8068380E-01
       -1   -1    0    0    0  501  0.00000000000E+00  0.00000000000E+00  0.28571921053E+04  0.28571921053E+04  0.50400001928E-02 0.  1.
        1   -1    0    0  501    0  0.00000000000E+00  0.00000000000E+00 -0.11966327630E+04  0.11966327631E+04  0.50400001928E-02 0. -1.
    10030    2    1    2    0    0  0.00000000000E+00  0.00000000000E+00  0.16605593422E+04  0.40538248683E+04  0.36981128612E+04 0.  0.
        5    1    3    3  502    0  0.84169811212E+03 -0.16453871901E+04  0.89260712224E+03  0.20524434905E+04  0.46999998093E+01 0.  1.
       -5    1    3    3    0  502 -0.84169811212E+03  0.16453871901E+04  0.76795221998E+03  0.20013813778E+04  0.46999998093E+01 0. -1.
</event>
<event>
 5   0  0.2897133E-07  0.3650179E+04  0.7818609E-02  0.8079093E-01
       -2   -1    0    0    0  501  0.00000000000E+00  0.00000000000E+00  0.19248705696E+04  0.19248705696E+04  0.25500000920E-02 0.  1.
        2   -1    0    0  501    0  0.00000000000E+00  0.00000000000E+00 -0.17304809676E+04  0.17304809676E+04  0.25500000920E-02 0. -1.
    10030    2    1    2    0    0  0.00000000000E+00  0.00000000000E+00  0.19438960196E+03  0.36553515372E+04  0.36501791111E+04 0.  0.
        4    1    3    3  502    0  0.11811877836E+04 -0.99922263563E+03  0.10667091483E+04  0.18792340131E+04  0.12699999809E+01 0. -1.
       -4    1    3    3    0  502 -0.11811877836E+04  0.99922263563E+03 -0.87231954637E+03  0.17761175242E+04  0.12699999809E+01 0.  1.
</event>
<event>
 5   0  0.9341000E-08  0.3678338E+04  0.7818609E-02  0.8072779E-01
        1   -1    0    0  501    0  0.00000000000E+00  0.00000000000E+00  0.26377453474E+04  0.26377453474E+04  0.50400001928E-02 0. -1.
       -1   -1    0    0    0  501  0.00000000000E+00  0.00000000000E+00 -0.12823612811E+04  0.12823612811E+04  0.50400001928E-02 0.  1.
    10030    2    1    2    0    0  0.00000000000E+00  0.00000000000E+00  0.13553840662E+04  0.39201066285E+04  0.36783379415E+04 0.  0.
        4    1    3    3  502    0  0.14372618928E+04  0.38593506325E+03  0.18294046176E+04  0.23582600555E+04  0.12699999809E+01 0. -1.
       -4    1    3    3    0  502 -0.14372618928E+04 -0.38593506325E+03 -0.47402055138E+03  0.15618465730E+04  0.12699999809E+01 0.  1.
</event>
<event>
 5   0  0.9341000E-08  0.3696822E+04  0.7818609E-02  0.8068667E-01
        1   -1    0    0  501    0  0.00000000000E+00  0.00000000000E+00  0.22893269892E+04  0.22893269892E+04  0.50400001928E-02 0.  1.
       -1   -1    0    0    0  501  0.00000000000E+00  0.00000000000E+00 -0.14924136186E+04  0.14924136186E+04  0.50400001928E-02 0. -1.
    10030    2    1    2    0    0  0.00000000000E+00  0.00000000000E+00  0.79691337062E+03  0.37817406077E+04  0.36968217571E+04 0.  0.
        3    1    3    3  502    0  0.68735779033E+03 -0.31834070446E+03  0.21232537344E+04  0.22543309355E+04  0.10100000352E+00 0.  1.
       -3    1    3    3    0  502 -0.68735779033E+03  0.31834070446E+03 -0.13263403638E+04  0.15274096722E+04  0.10100000352E+00 0. -1.
</event>
<event>
 5   0  0.3008879E-07  0.3711081E+04  0.7818609E-02  0.8065511E-01
       -2   -1    0    0    0  501  0.00000000000E+00  0.00000000000E+00  0.15231743838E+04  0.15231743838E+04  0.25500000920E-02 0.  1.
        2   -1    0    0  501    0  0.00000000000E+00  0.00000000000E+00 -0.22604308400E+04  0.22604308400E+04  0.25500000920E-02 0. -1.
    10030    2    1    2    0    0  0.00000000000E+00  0.00000000000E+00 -0.73725645621E+03  0.37836052238E+04  0.37110808948E+04 0.  0.
        2    1    3    3  502    0 -0.28366153835E+03  0.10483407963E+03  0.14978801792E+04  0.15281030998E+04  0.25500000920E-02 0.  1.
       -2    1    3    3    0  502  0.28366153835E+03 -0.10483407963E+03 -0.22351366354E+04  0.22555021240E+04  0.25500000920E-02 0. -1.
</event>
<event>
 5   0  0.9341000E-08  0.3724862E+04  0.7818609E-02  0.8062474E-01
       -1   -1    0    0    0  501  0.00000000000E+00  0.00000000000E+00  0.14410623554E+04  0.14410623554E+04  0.50400001928E-02 0. -1.
        1   -1    0    0  501    0  0.00000000000E+00  0.00000000000E+00 -0.24070083389E+04  0.24070083389E+04  0.50400001928E-02 0.  1.
    10030    2    1    2    0    0  0.00000000000E+00  0.00000000000E+00 -0.96594598353E+03  0.38480706944E+04  0.37248619338E+04 0.  0.
        3    1    3    3  502    0 -0.99203208741E+03  0.65207412607E+03  0.99952755398E+03  0.15518967974E+04  0.10100000352E+00 0. -1.
       -3    1    3    3    0  502  0.99203208741E+03 -0.65207412607E+03 -0.19654735375E+04  0.22961738970E+04  0.10100000352E+00 0.  1.
</event>
<event>
 5   0  0.2897133E-07  0.3695367E+04  0.7818609E-02  0.8068989E-01
        2   -1    0    0  501    0  0.00000000000E+00  0.00000000000E+00  0.12498591167E+04  0.12498591167E+04  0.25500000920E-02 0. -1.
       -2   -1    0    0    0  501  0.00000000000E+00  0.00000000000E+00 -0.27314555305E+04  0.27314555305E+04  0.25500000920E-02 0.  1.
    10030    2    1    2    0    0  0.00000000000E+00  0.00000000000E+00 -0.14815964138E+04  0.39813146471E+04  0.36953671517E+04 0.  0.
        4    1    3    3  502    0  0.15431149292E+04 -0.98680337980E+03 -0.10023784118E+04  0.20880011228E+04  0.12699999809E+01 0.  1.
       -4    1    3    3    0  502 -0.15431149292E+04  0.98680337980E+03 -0.47921800196E+03  0.18933135244E+04  0.12699999809E+01 0. -1.
</event>
<event>
 5   0  0.2996969E-07  0.3690632E+04  0.7818609E-02  0.8070041E-01
        2   -1    0    0  501    0  0.00000000000E+00  0.00000000000E+00  0.22883603948E+04  0.22883603948E+04  0.25500000920E-02 0.  1.
       -2   -1    0    0    0  501  0.00000000000E+00  0.00000000000E+00 -0.14880488297E+04  0.14880488297E+04  0.25500000920E-02 0. -1.
    10030    2    1    2    0    0  0.00000000000E+00  0.00000000000E+00  0.80031156515E+03  0.37764092245E+04  0.36906324701E+04 0.  0.
        1    1    3    3  502    0  0.27269214936E+03  0.17383206071E+04  0.96901972925E+03  0.20087605077E+04  0.50400001928E-02 0.  1.
       -1    1    3    3    0  502 -0.27269214936E+03 -0.17383206071E+04 -0.16870816410E+03  0.17676487168E+04  0.50400001928E-02 0. -1.
</event>
<event>
 5   0  0.3032442E-07  0.3692329E+04  0.7818609E-02  0.8069664E-01
       -2   -1    0    0    0  501  0.00000000000E+00  0.00000000000E+00  0.12206134041E+04  0.12206134041E+04  0.25500000920E-02 0. -1.
        2   -1    0    0  501    0  0.00000000000E+00  0.00000000000E+00 -0.27923041693E+04  0.27923041693E+04  0.25500000920E-02 0.  1.
    10030    2    1    2    0    0  0.00000000000E+00  0.00000000000E+00 -0.15716907653E+04  0.40129175734E+04  0.36923292905E+04 0.  0.
        3    1    3    3  502    0  0.33510446570E+03 -0.11556747250E+04 -0.23075737079E+04  0.26024556674E+04  0.10100000352E+00 0.  1.
       -3    1    3    3    0  502 -0.33510446570E+03  0.11556747250E+04  0.73588294263E+03  0.14104619061E+04  0.10100000352E+00 0. -1.
</event>
<event>
 5   0  0.3032442E-07  0.3707562E+04  0.7818609E-02  0.8066288E-01
        2   -1    0    0  501    0  0.00000000000E+00  0.00000000000E+00  0.21722038483E+04  0.21722038483E+04  0.25500000920E-02 0. -1.
       -2   -1    0    0    0  501  0.00000000000E+00  0.00000000000E+00 -0.15820353839E+04  0.15820353839E+04  0.25500000920E-02 0.  1.
    10030    2    1    2    0    0  0.00000000000E+00  0.00000000000E+00  0.59016846438E+03  0.37542392323E+04  0.37075616511E+04 0.  0.
        3    1    3    3  502    0  0.12165898266E+04  0.12100349298E+04  0.10055067529E+04  0.19887984256E+04  0.10100000352E+00 0. -1.
       -3    1    3    3    0  502 -0.12165898266E+04 -0.12100349298E+04 -0.41533828848E+03  0.17654408066E+04  0.10100000352E+00 0.  1.
</event>
<event>
 5   0  0.2913025E-07  0.3631068E+04  0.7818609E-02  0.8083412E-01
        2   -1    0    0  501    0  0.00000000000E+00  0.00000000000E+00  0.25180480775E+04  0.25180480775E+04  0.25500000920E-02 0.  1.
       -2   -1    0    0    0  501  0.00000000000E+00  0.00000000000E+00 -0.13090157297E+04  0.13090157297E+04  0.25500000920E-02 0. -1.
    10030    2    1    2    0    0  0.00000000000E+00  0.00000000000E+00  0.12090323478E+04  0.38270638072E+04  0.36310684607E+04 0.  0.
        5    1    3    3  502    0 -0.16726711260E+04  0.36706731180E+03 -0.31002736527E+02  0.17127610361E+04  0.46999998093E+01 0.  1.
       -5    1    3    3    0  502  0.16726711260E+04 -0.36706731180E+03  0.12400350844E+04  0.21143027711E+04  0.46999998093E+01 0. -1.
</event>
<event>
 5   0  0.9341000E-08  0.3729717E+04  0.7818609E-02  0.8061408E-01
       -1   -1    0    0    0  501  0.00000000000E+00  0.00000000000E+00  0.13803575076E+04  0.13803575076E+04  0.50400001928E-02 0.  1.
        1   -1    0    0  501    0  0.00000000000E+00  0.00000000000E+00 -0.25194183467E+04  0.25194183467E+04  0.50400001928E-02 0. -1.
    10030    2    1    2    0    0  0.00000000000E+00  0.00000000000E+00 -0.11390608391E+04  0.38997758543E+04  0.37297174314E+04 0.  0.
        3    1    3    3  502    0  0.13309528310E+04 -0.10382352463E+04  0.25928470366E+03  0.17078045652E+04  0.10100000352E+00 0.  1.
       -3    1    3    3    0  502 -0.13309528310E+04  0.10382352463E+04 -0.13983455428E+04  0.21919712891E+04  0.10100000352E+00 0. -1.
</event>
<event>
 5   0  0.9341000E-08  0.3702784E+04  0.7818609E-02  0.8067345E-01
        1   -1    0    0  501    0  0.00000000000E+00  0.00000000000E+00  0.21442600966E+04  0.21442600966E+04  0.50400001928E-02 0. -1.
       -1   -1    0    0    0  501  0.00000000000E+00  0.00000000000E+00 -0.15985247684E+04  0.15985247684E+04  0.50400001928E-02 0.  1.
    10030    2    1    2    0    0  0.00000000000E+00  0.00000000000E+00  0.54573532822E+03  0.37427848650E+04  0.37027842899E+04 0.  0.
        4    1    3    3  502    0  0.10397940408E+04  0.10735292594E+04  0.13773817543E+04  0.20324415928E+04  0.12699999809E+01 0. -1.
       -4    1    3    3    0  502 -0.10397940408E+04 -0.10735292594E+04 -0.83164642613E+03  0.17103432723E+04  0.12699999809E+01 0.  1.
</event>
<event>
 5   0  0.2897133E-07  0.3690164E+04  0.7818609E-02  0.8070145E-01
        2   -1    0    0  501    0  0.00000000000E+00  0.00000000000E+00  0.13195218171E+04  0.13195218171E+04  0.25500000920E-02 0.  1.
       -2   -1    0    0    0  501  0.00000000000E+00  0.00000000000E+00 -0.25799702860E+04  0.25799702860E+04  0.25500000920E-02 0. -1.
    10030    2    1    2    0    0  0.00000000000E+00  0.00000000000E+00 -0.12604484689E+04  0.38994921030E+04  0.36901637252E+04 0.  0.
        4    1    3    3  502    0 -0.10511954500E+02  0.18037038857E+04 -0.21977456641E+03  0.18170747595E+04  0.12699999809E+01 0.  1.
       -4    1    3    3    0  502  0.10511954500E+02 -0.18037038857E+04 -0.10406739025E+04  0.20824173436E+04  0.12699999809E+01 0. -1.
</event>
<event>
 5   0  0.9341000E-08  0.3729833E+04  0.7818609E-02  0.8061382E-01
       -1   -1    0    0    0  501  0.00000000000E+00  0.00000000000E+00  0.22184786934E+04  0.22184786934E+04  0.50400001928E-02 0. -1.
        1   -1    0    0  501    0  0.00000000000E+00  0.00000000000E+00 -0.15677019744E+04  0.15677019744E+04  0.50400001928E-02 0.  1.
    10030    2    1    2    0    0  0.00000000000E+00  0.00000000000E+00  0.65077671907E+03  0.37861806678E+04  0.37298329334E+04 0.  0.
        3    1    3    3  502    0 -0.14535117888E+04  0.72982514691E+03 -0.60085028066E+03  0.17338864828E+04  0.10100000352E+00 0.  1.
       -3    1    3    3    0  502  0.14535117888E+04 -0.72982514691E+03  0.12516269997E+04  0.20522941850E+04  0.10100000352E+00 0. -1.
</event>
<event>
 5   0  0.9341000E-08  0.3694603E+04  0.7818609E-02  0.8069159E-01
       -1   -1    0    0    0  501  0.00000000000E+00  0.00000000000E+00  0.19856430792E+04  0.19856430792E+04  0.50400001928E-02 0. -1.
        1   -1    0    0  501    0  0.00000000000E+00  0.00000000000E+00 -0.17185982338E+04  0.17185982339E+04  0.50400001928E-02 0.  1.
    10030    2    1    2    0    0  0.00000000000E+00  0.00000000000E+00  0.26704484536E+03  0.37042413131E+04  0.36946029226E+04 0.  0.
        4    1    3    3  502    0 -0.91668847672E+03 -0.15937715307E+04 -0.46097452701E+02  0.18391715645E+04  0.12699999809E+01 0. -1.
       -4    1    3    3    0  502  0.91668847672E+03  0.15937715307E+04  0.31314229806E+03  0.18650697486E+04  0.12699999809E+01 0.  1.
</event>
<event>
 5   0  0.9418945E-08  0.3707253E+04  0.7818609E-02  0.8066356E-01
       -1   -1    0    0    0  501  0.00000000000E+00  0.00000000000E+00  0.14748943288E+04  0.14748943288E+04  0.50400001928E-02 0. -1.
        1   -1    0    0  501    0  0.00000000000E+00  0.00000000000E+00 -0.23296115390E+04  0.23296115390E+04  0.50400001928E-02 0.  1.
    10030    2    1    2    0    0  0.00000000000E+00  0.00000000000E+00 -0.85471721022E+03  0.38045058678E+04  0.37072528088E+04 0.  0.
        5    1    3    3  502    0 -0.41277661500E+03  0.50419427821E+03  0.13534775252E+04  0.15021717296E+04  0.46999998093E+01 0. -1.
       -5    1    3    3    0  502  0.41277661500E+03 -0.50419427821E+03 -0.22081947354E+04  0.23023341382E+04  0.46999998093E+01 0.  1.
</event>
<event>
 5   0  0.9341000E-08  0.3613329E+04  0.7818609E-02  0.8087445E-01
        1   -1    0    0  501    0  0.00000000000E+00  0.00000000000E+00  0.13412232678E+04  0.13412232678E+04  0.50400001928E-02 0. -1.
       -1   -1    0    0    0  501  0.00000000000E+00  0.00000000000E+00 -0.24336261607E+04  0.24336261607E+04  0.50400001928E-02 0.  1.
    10030    2    1    2    0    0  0.00000000000E+00  0.00000000000E+00 -0.10924028929E+04  0.37748494285E+04  0.36133286769E+04 0.  0.
        3    1    3    3  502    0 -0.16216182754E+04 -0.65558365663E+03 -0.73654179604E+02  0.17506743587E+04  0.10100000352E+00 0. -1.
       -3    1    3    3    0  502  0.16216182754E+04  0.65558365663E+03 -0.10187487133E+04  0.20241750698E+04  0.10100000352E+00 0.  1.
</event>
<event>
 5   0  0.9418945E-08  0.3694305E+04  0.7818609E-02  0.8069225E-01
       -1   -1    0    0    0  501  0.00000000000E+00  0.00000000000E+00  0.17639977423E+04  0.17639977423E+04  0.50400001928E-02 0. -1.
        1   -1    0    0  501    0  0.00000000000E+00  0.00000000000E+00 -0.19342275955E+04  0.19342275955E+04  0.50400001928E-02 0.  1.
    10030    2    1    2    0    0  0.00000000000E+00  0.00000000000E+00 -0.17022985320E+03  0.36982253378E+04  0.36943054079E+04 0.  0.
        5    1    3    3  502    0 -0.47754500771E+03  0.12193780457E+04 -0.13891939900E+04  0.19091396189E+04  0.46999998093E+01 0.  1.
       -5    1    3    3    0  502  0.47754500771E+03 -0.12193780457E+04  0.12189641368E+04  0.17890857189E+04  0.46999998093E+01 0. -1.
</event>
<event>
 5   0  0.9646615E-08  0.3707628E+04  0.7818609E-02  0.8066273E-01
       -1   -1    0    0    0  501  0.00000000000E+00  0.00000000000E+00  0.19384631717E+04  0.19384631717E+04  0.50400001928E-02 0. -1.
        1   -1    0    0  501    0  0.00000000000E+00  0.00000000000E+00 -0.17728613918E+04  0.17728613918E+04  0.50400001928E-02 0.  1.
    10030    2    1    2    0    0  0.00000000000E+00  0.00000000000E+00  0.16560177993E+03  0.37113245635E+04  0.37076280916E+04 0.  0.
        2    1    3    3  502    0 -0.14935046001E+04  0.33649841611E+03 -0.96363091868E+03  0.18089697958E+04  0.25500000920E-02 0.  1.
       -2    1    3    3    0  502  0.14935046001E+04 -0.33649841611E+03  0.11292326986E+04  0.19023547677E+04  0.25500000920E-02 0. -1.
</event>
<event>
 5   0  0.9646615E-08  0.3692937E+04  0.7818609E-02  0.8069529E-01
        1   -1    0    0  501    0  0.00000000000E+00  0.00000000000E+00  0.15155403020E+04  0.15155403020E+04  0.50400001928E-02 0. -1.
       -1   -1    0    0    0  501  0.00000000000E+00  0.00000000000E+00 -0.22496564453E+04  0.22496564453E+04  0.50400001928E-02 0.  1.
    10030    2    1    2    0    0  0.00000000000E+00  0.00000000000E+00 -0.73411614331E+03  0.37651967474E+04  0.36929365056E+04 0.  0.
        2    1    3    3  502    0  0.14530089909E+04 -0.72342817602E+03 -0.12645445024E+04  0.20575850534E+04  0.25500000920E-02 0. -1.
       -2    1    3    3    0  502 -0.14530089909E+04  0.72342817602E+03  0.53042835906E+03  0.17076116940E+04  0.25500000920E-02 0.  1.
</event>
<event>
 5   0  0.2913025E-07  0.3683214E+04  0.7818609E-02  0.8071692E-01
       -2   -1    0    0    0  501  0.00000000000E+00  0.00000000000E+00  0.16166573156E+04  0.16166573156E+04  0.25500000920E-02 0. -1.
        2   -1    0    0  501    0  0.00000000000E+00  0.00000000000E+00 -0.20978572406E+04  0.20978572406E+04  0.25500000920E-02 0.  1.
    10030    2    1    2    0    0  0.00000000000E+00  0.00000000000E+00 -0.48119992506E+03  0.37145145562E+04  0.36832139526E+04 0.  0.
        5    1    3    3  502    0  0.11120529763E+04  0.14623767646E+04 -0.36930322397E+03  0.18739302508E+04  0.46999998093E+01 0.  1.
       -5    1    3    3    0  502 -0.11120529763E+04 -0.14623767646E+04 -0.11189670108E+03  0.18405843054E+04  0.46999998093E+01 0. -1.
</event>
<event>
 5   0  0.9341000E-08  0.3706613E+04  0.7818609E-02  0.8066498E-01
       -1   -1    0    0    0  501  0.00000000000E+00  0.00000000000E+00  0.27818503548E+04  0.27818503548E+04  0.50400001928E-02 0.  1.
        1   -1    0    0  501    0  0.00000000000E+00  0.00000000000E+00 -0.12346980527E+04  0.12346980527E+04  0.50400001928E-02 0. -1.
    10030    2    1    2    0    0  0.00000000000E+00  0.00000000000E+00  0.15471523020E+04  0.40165484075E+04  0.37066131258E+04 0.  0.
        3    1    3    3  502    0 -0.12876816839E+03  0.15611376071E+04  0.18468565594E+04  0.24216958997E+04  0.10100000352E+00 0.  1.
       -3    1    3    3    0  502  0.12876816839E+03 -0.15611376071E+04 -0.29970425734E+03  0.15948525078E+04  0.10100000352E+00 0. -1.
</event>
<event>
 5   0  0.2913025E-07  0.3682940E+04  0.7818609E-02  0.8071753E-01
        2   -1    0    0  501    0  0.00000000000E+00  0.00000000000E+00  0.13544377784E+04  0.13544377784E+04  0.25500000920E-02 0. -1.
       -2   -1    0    0    0  501  0.00000000000E+00  0.00000000000E+00 -0.25036304172E+04  0.25036304172E+04  0.25500000920E-02 0.  1.
    10030    2    1    2    0    0  0.00000000000E+00  0.00000000000E+00 -0.11491926388E+04  0.38580681957E+04  0.36829399237E+04 0.  0.
        5    1    3    3  502    0  0.28483879743E+03 -0.12901781254E+04  0.76908843962E+03  0.15287942484E+04  0.46999998093E+01 0. -1.
       -5    1    3    3    0  502 -0.28483879743E+03  0.12901781254E+04 -0.19182810784E+04  0.23292739473E+04  0.46999998093E+01 0.  1.
</event>
<event>
 5   0  0.9341000E-08  0.3701595E+04  0.7818609E-02  0.8067609E-01
       -1   -1    0    0    0  501  0.00000000000E+00  0.00000000000E+00  0.17125376728E+04  0.17125376728E+04  0.50400001928E-02 0. -1.
        1   -1    0    0  501    0  0.00000000000E+00  0.00000000000E+00 -0.20002192929E+04  0.20002192929E+04  0.50400001928E-02 0.  1.
    10030    2    1    2    0    0  0.00000000000E+00  0.00000000000E+00 -0.28768162008E+03  0.37127569657E+04  0.37015947336E+04 0.  0.
        3    1    3    3  502    0 -0.47144688507E+03 -0.21037561249E+02 -0.19388592363E+04  0.19954648313E+04  0.10100000352E+00 0.  1.
       -3    1    3    3    0  502  0.47144688507E+03  0.21037561249E+02  0.16511776162E+04  0.17172921344E+04  0.10100000352E+00 0. -1.
</event>
<event>
 5   0  0.2897133E-07  0.3697660E+04  0.7818609E-02  0.8068481E-01
        2   -1    0    0  501    0  0.00000000000E+00  0.00000000000E+00  0.24809395910E+04  0.24809395910E+04  0.25500000920E-02 0. -1.
       -2   -1    0    0    0  501  0.00000000000E+00  0.00000000000E+00 -0.13777735010E+04  0.13777735010E+04  0.25500000920E-02 0.  1.
    10030    2    1    2    0    0  0.00000000000E+00  0.00000000000E+00  0.11031660901E+04  0.38587130920E+04  0.36976602473E+04 0.  0.
        4    1    3    3  502    0  0.81071906577E+03  0.13394803778E+04  0.15776150852E+04  0.22226884748E+04  0.12699999809E+01 0. -1.
       -4    1    3    3    0  502 -0.81071906577E+03 -0.13394803778E+04 -0.47444899513E+03  0.16360246172E+04  0.12699999809E+01 0.  1.
</event>
<event>
 5   0  0.9341000E-08  0.3671695E+04  0.7818609E-02  0.8074264E-01
        1   -1    0    0  501    0  0.00000000000E+00  0.00000000000E+00  0.16715560087E+04  0.16715560087E+04  0.50400001928E-02 0.  1.
       -1   -1    0    0    0  501  0.00000000000E+00  0.00000000000E+00 -0.20162860999E+04  0.20162860999E+04  0.50400001928E-02 0. -1.
    10030    2    1    2    0    0  0.00000000000E+00  0.00000000000E+00 -0.34473009125E+03  0.36878421086E+04  0.36716945110E+04 0.  0.
        4    1    3    3  502    0  0.12893166528E+01  0.18321859818E+04 -0.28874697300E+03  0.18548001406E+04  0.12699999809E+01 0. -1.
       -4    1    3    3    0  502 -0.12893166528E+01 -0.18321859818E+04 -0.55983118243E+02  0.18330419680E+04  0.12699999809E+01 0.  1.
</event>
<event>
 5   0  0.2897133E-07  0.3711663E+04  0.7818609E-02  0.8065382E-01
       -2   -1    0    0    0  501  0.00000000000E+00  0.00000000000E+00  0.19970178359E+04  0.19970178359E+04  0.25500000920E-02 0.  1.
        2   -1    0    0  501    0  0.00000000000E+00  0.00000000000E+00 -0.17246272719E+04  0.17246272719E+04  0.25500000920E-02 0. -1.
    10030    2    1    2    0    0  0.00000000000E+00  0.00000000000E+00  0.27239056403E+03  0.37216451078E+04  0.37116634666E+04 0.  0.
        4    1    3    3  502    0 -0.12101829841E+03 -0.27481297048E+03  0.19724974732E+04  0.19952231684E+04  0.12699999809E+01 0.  1.
       -4    1    3    3    0  502  0.12101829841E+03  0.27481297048E+03 -0.17001069091E+04  0.17264219394E+04  0.12699999809E+01 0. -1.
</event>
<event>
 5   0  0.3008879E-07  0.3700101E+04  0.7818609E-02  0.8067939E-01
       -2   -1    0    0    0  501  0.00000000000E+00  0.00000000000E+00  0.28603368461E+04  0.28603368461E+04  0.25500000920E-02 0.  1.
        2   -1    0    0  501    0  0.00000000000E+00  0.00000000000E+00 -0.11966029832E+04  0.11966029832E+04  0.25500000920E-02 0. -1.
    10030    2    1    2    0    0  0.00000000000E+00  0.00000000000E+00  0.16637338629E+04  0.40569398292E+04  0.37001014056E+04 0.  0.
        2    1    3    3  502    0 -0.24148133945E+03 -0.93899593689E+03  0.25594687422E+04  0.27369521093E+04  0.25500000920E-02 0.  1.
       -2    1    3    3    0  502  0.24148133945E+03  0.93899593689E+03 -0.89573487923E+03  0.13199877199E+04  0.25500000920E-02 0. -1.
</event>
<event>
 5   0  0.9341000E-08  0.3710140E+04  0.7818609E-02  0.8065718E-01
        1   -1    0    0  501    0  0.00000000000E+00  0.00000000000E+00  0.29151075864E+04  0.29151075864E+04  0.50400001928E-02 0.  1.
       -1   -1    0    0    0  501  0.00000000000E+00  0.00000000000E+00 -0.11805003101E+04  0.11805003101E+04  0.50400001928E-02 0. -1.
    10030    2    1    2    0    0  0.00000000000E+00  0.00000000000E+00  0.17346072763E+04  0.40956078965E+04  0.37101403800E+04 0.  0.
        1    1    3    3  502    0  0.78824708078E+03  0.13955954582E+04 -0.16368129610E+03  0.16111522927E+04  0.50400001928E-02 0. -1.
       -1    1    3    3    0  502 -0.78824708078E+03 -0.13955954582E+04  0.18982885724E+04  0.24844556039E+04  0.50400001928E-02 0.  1.
</event>
<event>
 5   0  0.9341000E-08  0.3705581E+04  0.7818609E-02  0.8066726E-01
       -1   -1    0    0    0  501  0.00000000000E+00  0.00000000000E+00  0.22927367664E+04  0.22927367664E+04  0.50400001928E-02 0. -1.
        1   -1    0    0  501    0  0.00000000000E+00  0.00000000000E+00 -0.14972638419E+04  0.14972638419E+04  0.50400001928E-02 0.  1.
    10030    2    1    2    0    0  0.00000000000E+00  0.00000000000E+00  0.79547292455E+03  0.37900006083E+04  0.37055805804E+04 0.  0.
        1    1    3    3  502    0  0.10618648403E+04 -0.61364792650E+03  0.18181559194E+04  0.21931282826E+04  0.50400001928E-02 0. -1.
       -1    1    3    3    0  502 -0.10618648403E+04  0.61364792650E+03 -0.10226829949E+04  0.15968723257E+04  0.50400001928E-02 0.  1.
</event>
<event>
 5   0  0.2913025E-07  0.3719360E+04  0.7818609E-02  0.8063685E-01
        2   -1    0    0  501    0  0.00000000000E+00  0.00000000000E+00  0.22441507337E+04  0.22441507337E+04  0.25500000920E-02 0. -1.
       -2   -1    0    0    0  501  0.00000000000E+00  0.00000000000E+00 -0.15410776783E+04  0.15410776783E+04  0.25500000920E-02 0.  1.
    10030    2    1    2    0    0  0.00000000000E+00  0.00000000000E+00  0.70307305541E+03  0.37852284120E+04  0.37193604840E+04 0.  0.
        5    1    3    3  502    0  0.16804018705E+04 -0.61307306270E+03 -0.16617608003E+03  0.17964536193E+04  0.46999998093E+01 0.  1.
       -5    1    3    3    0  502 -0.16804018705E+04  0.61307306270E+03  0.86924913544E+03  0.19887747927E+04  0.46999998093E+01 0. -1.
</event>
<event>
 5   0  0.3032442E-07  0.3695543E+04  0.7818609E-02  0.8068950E-01
       -2   -1    0    0    0  501  0.00000000000E+00  0.00000000000E+00  0.17604690728E+04  0.17604690728E+04  0.25500000920E-02 0.  1.
        2   -1    0    0  501    0  0.00000000000E+00  0.00000000000E+00 -0.19394033987E+04  0.19394033987E+04  0.25500000920E-02 0. -1.
    10030    2    1    2    0    0  0.00000000000E+00  0.00000000000E+00 -0.17893432589E+03  0.36998724716E+04  0.36955431012E+04 0.  0.
        3    1    3    3  502    0  0.18918576752E+03  0.48471362771E+03 -0.18645420325E+04  0.19357829312E+04  0.10100000352E+00 0. -1.
       -3    1    3    3    0  502 -0.18918576752E+03 -0.48471362771E+03  0.16856077066E+04  0.17640895403E+04  0.10100000352E+00 0.  1.
</event>
<event>
 5   0  0.2913025E-07  0.3697058E+04  0.7818609E-02  0.8068614E-01
       -2   -1    0    0    0  501  0.00000000000E+00  0.00000000000E+00  0.18991394372E+04  0.18991394372E+04  0.25500000920E-02 0.  1.
        2   -1    0    0  501    0  0.00000000000E+00  0.00000000000E+00 -0.17992677132E+04  0.17992677132E+04  0.25500000920E-02 0. -1.
    10030    2    1    2    0    0  0.00000000000E+00  0.00000000000E+00  0.99871724033E+02  0.36984071504E+04  0.36970584373E+04 0.  0.
        5    1    3    3  502    0 -0.18100727434E+04 -0.87274424945E+02 -0.31496839865E+03  0.18393497067E+04  0.46999998093E+01 0. -1.
       -5    1    3    3    0  502  0.18100727434E+04  0.87274424945E+02  0.41484012268E+03  0.18590574437E+04  0.46999998093E+01 0.  1.
</event>
<event>
 5   0  0.9646615E-08  0.3684988E+04  0.7818609E-02  0.8071297E-01
        1   -1    0    0  501    0  0.00000000000E+00  0.00000000000E+00  0.17449660128E+04  0.17449660128E+04  0.50400001928E-02 0. -1.
       -1   -1    0    0    0  501  0.00000000000E+00  0.00000000000E+00 -0.19454733779E+04  0.19454733779E+04  0.50400001928E-02 0.  1.
    10030    2    1    2    0    0  0.00000000000E+00  0.00000000000E+00 -0.20050736515E+03  0.36904393907E+04  0.36849884251E+04 0.  0.
        2    1    3    3  502    0  0.45450237126E+03 -0.16386024622E+04  0.61015766010E+03  0.18066219319E+04  0.25500000920E-02 0. -1.
       -2    1    3    3    0  502 -0.45450237126E+03  0.16386024622E+04 -0.81066502525E+03  0.18838174588E+04  0.25500000920E-02 0.  1.
</event>
<event>
 5   0  0.2897133E-07  0.3711301E+04  0.7818609E-02  0.8065462E-01
       -2   -1    0    0    0  501  0.00000000000E+00  0.00000000000E+00  0.96510397170E+03  0.96510397170E+03  0.25500000920E-02 0.  1.
        2   -1    0    0  501    0  0.00000000000E+00  0.00000000000E+00 -0.35679466599E+04  0.35679466599E+04  0.25500000920E-02 0. -1.
    10030    2    1    2    0    0  0.00000000000E+00  0.00000000000E+00 -0.26028426882E+04  0.45330506316E+04  0.37113013848E+04 0.  0.
        4    1    3    3  502    0 -0.14289832771E+04  0.11635930257E+04 -0.15676118773E+04  0.24193698656E+04  0.12699999809E+01 0.  1.
       -4    1    3    3    0  502  0.14289832771E+04 -0.11635930257E+04 -0.10352308108E+04  0.21136807659E+04  0.12699999809E+01 0. -1.
</event>
<event>
 5   0  0.9341000E-08  0.3634545E+04  0.7818609E-02  0.8082624E-01
       -1   -1    0    0    0  501  0.00000000000E+00  0.00000000000E+00  0.18387676700E+04  0.18387676700E+04  0.50400001928E-02 0.  1.
        1   -1    0    0  501    0  0.00000000000E+00  0.00000000000E+00 -0.17960283193E+04  0.17960283193E+04  0.50400001928E-02 0. -1.
    10030    2    1    2    0    0  0.00000000000E+00  0.00000000000E+00  0.42739350730E+02  0.36347959893E+04  0.36345447076E+04 0.  0.
        3    1    3    3  502    0 -0.85321888032E+03  0.66356943897E+03 -0.14396118613E+04  0.18002192032E+04  0.10100000352E+00 0. -1.
       -3    1    3    3    0  502  0.85321888032E+03 -0.66356943897E+03  0.14823512120E+04  0.18345767861E+04  0.10100000352E+00 0.  1.
</event>
<event>
 5   0  0.3032442E-07  0.3931347E+04  0.7818609E-02  0.8018541E-01
       -2   -1    0    0    0  501  0.00000000000E+00  0.00000000000E+00  0.14859650846E+04  0.14859650846E+04  0.25500000920E-02 0.  1.
        2   -1    0    0  501    0  0.00000000000E+00  0.00000000000E+00 -0.26002436906E+04  0.26002436906E+04  0.25500000920E-02 0. -1.
    10030    2    1    2    0    0  0.00000000000E+00  0.00000000000E+00 -0.11142786060E+04  0.40862087752E+04  0.39313465051E+04 0.  0.
        3    1    3    3  502    0 -0.10094379628E+04 -0.76527651928E+03  0.10051525190E+04  0.16170790792E+04  0.10100000352E+00 0.  1.
       -3    1    3    3    0  502  0.10094379628E+04  0.76527651928E+03 -0.21194311250E+04  0.24691296960E+04  0.10100000352E+00 0. -1.
</event>
<event>
 5   0  0.9341000E-08  0.3716719E+04  0.7818609E-02  0.8064267E-01
       -1   -1    0    0    0  501  0.00000000000E+00  0.00000000000E+00  0.13587716432E+04  0.13587716432E+04  0.50400001928E-02 0.  1.
        1   -1    0    0  501    0  0.00000000000E+00  0.00000000000E+00 -0.25416336252E+04  0.25416336252E+04  0.50400001928E-02 0. -1.
    10030    2    1    2    0    0  0.00000000000E+00  0.00000000000E+00 -0.11828619820E+04  0.39004052684E+04  0.37167188203E+04 0.  0.
        1    1    3    3  502    0  0.93934799695E+03 -0.75225121890E+03  0.89461943787E+03  0.14995334255E+04  0.50400001928E-02 0.  1.
       -1    1    3    3    0  502 -0.93934799695E+03  0.75225121890E+03 -0.20774814199E+04  0.24008718428E+04  0.50400001928E-02 0. -1.
</event>
<event>
 5   0  0.2913025E-07  0.3731455E+04  0.7818609E-02  0.8061027E-01
        2   -1    0    0  501    0  0.00000000000E+00  0.00000000000E+00  0.14534554723E+04  0.14534554723E+04  0.25500000920E-02 0.  1.
       -2   -1    0    0    0  501  0.00000000000E+00  0.00000000000E+00 -0.23949402832E+04  0.23949402832E+04  0.25500000920E-02 0. -1.
    10030    2    1    2    0    0  0.00000000000E+00  0.00000000000E+00 -0.94148481094E+03  0.38483957555E+04  0.37314549765E+04 0.  0.
        5    1    3    3  502    0 -0.72468384725E+03  0.13190833501E+04 -0.16079169425E+04  0.22024001787E+04  0.46999998093E+01 0. -1.
       -5    1    3    3    0  502  0.72468384725E+03 -0.13190833501E+04  0.66643213155E+03  0.16459955769E+04  0.46999998093E+01 0.  1.
</event>
<event>
 5   0  0.9341000E-08  0.3691448E+04  0.7818609E-02  0.8069860E-01
       -1   -1    0    0    0  501  0.00000000000E+00  0.00000000000E+00  0.13865032373E+04  0.13865032373E+04  0.50400001928E-02 0.  1.
        1   -1    0    0  501    0  0.00000000000E+00  0.00000000000E+00 -0.24570422798E+04  0.24570422798E+04  0.50400001928E-02 0. -1.
    10030    2    1    2    0    0  0.00000000000E+00  0.00000000000E+00 -0.10705390425E+04  0.38435455171E+04  0.36914479951E+04 0.  0.
        4    1    3    3  502    0  0.66872342660E+03 -0.93558193687E+03 -0.20384254001E+04  0.23404453223E+04  0.12699999809E+01 0. -1.
       -4    1    3    3    0  502 -0.66872342660E+03  0.93558193687E+03  0.96788635754E+03  0.15031001949E+04  0.12699999809E+01 0.  1.
</event>
<event>
 5   0  0.3008879E-07  0.3363045E+04  0.7818609E-02  0.8147036E-01
       -2   -1    0    0    0  501  0.00000000000E+00  0.00000000000E+00  0.17104223894E+04  0.17104223894E+04  0.25500000920E-02 0.  1.
        2   -1    0    0  501    0  0.00000000000E+00  0.00000000000E+00 -0.16531108231E+04  0.16531108231E+04  0.25500000920E-02 0. -1.
    10030    2    1    2    0    0  0.00000000000E+00  0.00000000000E+00  0.57311566311E+02  0.33635332126E+04  0.33630449085E+04 0.  0.
        2    1    3    3  502    0 -0.27940304866E+03  0.74822473009E+03 -0.14512926450E+04  0.16565496225E+04  0.25500000920E-02 0. -1.
       -2    1    3    3    0  502  0.27940304866E+03 -0.74822473009E+03  0.15086042113E+04  0.17069835901E+04  0.25500000920E-02 0.  1.
</event>
<event>
 5   0  0.3032442E-07  0.3649224E+04  0.7818609E-02  0.8079309E-01
       -2   -1    0    0    0  501  0.00000000000E+00  0.00000000000E+00  0.18630815342E+04  0.18630815342E+04  0.25500000920E-02 0. -1.
        2   -1    0    0  501    0  0.00000000000E+00  0.00000000000E+00 -0.17869365663E+04  0.17869365663E+04  0.25500000920E-02 0.  1.
    10030    2    1    2    0    0  0.00000000000E+00  0.00000000000E+00  0.76144967891E+02  0.36500181004E+04  0.36492237637E+04 0.  0.
        3    1    3    3  502    0  0.64855815660E+03 -0.29057112870E+03  0.17189588158E+04  0.18600749135E+04  0.10100000352E+00 0. -1.
       -3    1    3    3    0  502 -0.64855815660E+03  0.29057112870E+03 -0.16428138479E+04  0.17899431869E+04  0.10100000352E+00 0.  1.
</event>
<event>
 5   0  0.9418945E-08  0.3680366E+04  0.7818609E-02  0.8072327E-01
        1   -1    0    0  501    0  0.00000000000E+00  0.00000000000E+00  0.19658436753E+04  0.19658436753E+04  0.50400001928E-02 0.  1.
       -1   -1    0    0    0  501  0.00000000000E+00  0.00000000000E+00 -0.17225545651E+04  0.17225545651E+04  0.50400001928E-02 0. -1.
    10030    2    1    2    0    0  0.00000000000E+00  0.00000000000E+00  0.24328911019E+03  0.36883982403E+04  0.36803657411E+04 0.  0.
        5    1    3    3  502    0 -0.13701528018E+04 -0.88195328103E+03 -0.73525996115E+03  0.17876771495E+04  0.46999998093E+01 0. -1.
       -5    1    3    3    0  502  0.13701528018E+04  0.88195328103E+03  0.97854907134E+03  0.19007210909E+04  0.46999998093E+01 0.  1.
</event>
<event>
 5   0  0.9646615E-08  0.3672375E+04  0.7818609E-02  0.8074111E-01
        1   -1    0    0  501    0  0.00000000000E+00  0.00000000000E+00  0.14707342622E+04  0.14707342622E+04  0.50400001928E-02 0.  1.
       -1   -1    0    0    0  501  0.00000000000E+00  0.00000000000E+00 -0.22924502902E+04  0.22924502902E+04  0.50400001928E-02 0. -1.
    10030    2    1    2    0    0  0.00000000000E+00  0.00000000000E+00 -0.82171602799E+03  0.37631845525E+04  0.36723753546E+04 0.  0.
        2    1    3    3  502    0  0.75083846604E+03  0.21662589349E+03  0.12918249550E+04  0.15098002829E+04  0.25500000920E-02 0.  1.
       -2    1    3    3    0  502 -0.75083846604E+03 -0.21662589349E+03 -0.21135409830E+04  0.22533842696E+04  0.25500000920E-02 0. -1.
</event>
<event>
 5   0  0.2897133E-07  0.3603998E+04  0.7818609E-02  0.8089577E-01
        2   -1    0    0  501    0  0.00000000000E+00  0.00000000000E+00  0.13155325508E+04  0.13155325508E+04  0.25500000920E-02 0. -1.
       -2   -1    0    0    0  501  0.00000000000E+00  0.00000000000E+00 -0.24683541102E+04  0.24683541102E+04  0.25500000920E-02 0.  1.
    10030    2    1    2    0    0  0.00000000000E+00  0.00000000000E+00 -0.11528215594E+04  0.37838866610E+04  0.36039978795E+04 0.  0.
        4    1    3    3  502    0  0.95758859863E+03 -0.11183134391E+03  0.10219828457E+04  0.14049671610E+04  0.12699999809E+01 0. -1.
       -4    1    3    3    0  502 -0.95758859863E+03  0.11183134391E+03 -0.21748044051E+04  0.23789194999E+04  0.12699999809E+01 0.  1.
</event>
<event>
 5   0  0.3008879E-07  0.3697164E+04  0.7818609E-02  0.8068591E-01
       -2   -1    0    0    0  501  0.00000000000E+00  0.00000000000E+00  0.31132046268E+04  0.31132046268E+04  0.25500000920E-02 0. -1.
        2   -1    0    0  501    0  0.00000000000E+00  0.00000000000E+00 -0.10976650776E+04  0.10976650776E+04  0.25500000920E-02 0.  1.
    10030    2    1    2    0    0  0.00000000000E+00  0.00000000000E+00  0.20155395492E+04  0.42108697044E+04  0.36971643178E+04 0.  0.
        2    1    3    3  502    0 -0.43826095463E+03 -0.81422573550E+03 -0.81533337235E+03  0.12328036019E+04  0.25500000920E-02 0.  1.
       -2    1    3    3    0  502  0.43826095463E+03  0.81422573550E+03  0.28308729216E+04  0.29780661025E+04  0.25500000920E-02 0. -1.
</event>
<event>
 5   0  0.9646615E-08  0.3700649E+04  0.7818609E-02  0.8067818E-01
       -1   -1    0    0    0  501  0.00000000000E+00  0.00000000000E+00  0.17402913645E+04  0.17402913646E+04  0.50400001928E-02 0. -1.
        1   -1    0    0  501    0  0.00000000000E+00  0.00000000000E+00 -0.19673145596E+04  0.19673145596E+04  0.50400001928E-02 0.  1.
    10030    2    1    2    0    0  0.00000000000E+00  0.00000000000E+00 -0.22702319502E+03  0.37076059241E+04  0.37006488833E+04 0.  0.
        2    1    3    3  502    0  0.16824791326E+04  0.40374351346E+03  0.54343116580E+03  0.18135772077E+04  0.25500000920E-02 0. -1.
       -2    1    3    3    0  502 -0.16824791326E+04 -0.40374351346E+03 -0.77045436081E+03  0.18940287164E+04  0.25500000920E-02 0.  1.
</event>
<event>
 5   0  0.2897133E-07  0.3718204E+04  0.7818609E-02  0.8063940E-01
       -2   -1    0    0    0  501  0.00000000000E+00  0.00000000000E+00  0.24867550336E+04  0.24867550336E+04  0.25500000920E-02 0. -1.
        2   -1    0    0  501    0  0.00000000000E+00  0.00000000000E+00 -0.13898674647E+04  0.13898674647E+04  0.25500000920E-02 0.  1.
    10030    2    1    2    0    0  0.00000000000E+00  0.00000000000E+00  0.10968875689E+04  0.38766224983E+04  0.37182038211E+04 0.  0.
        4    1    3    3  502    0  0.14588565037E+04  0.79990483124E+03 -0.31644711651E+03  0.16935909860E+04  0.12699999809E+01 0.  1.
       -4    1    3    3    0  502 -0.14588565037E+04 -0.79990483124E+03  0.14133346854E+04  0.21830315123E+04  0.12699999809E+01 0. -1.
</event>
<event>
 5   0  0.2913025E-07  0.3796740E+04  0.7818609E-02  0.8046855E-01
        2   -1    0    0  501    0  0.00000000000E+00  0.00000000000E+00  0.19180400020E+04  0.19180400020E+04  0.25500000920E-02 0.  1.
       -2   -1    0    0    0  501  0.00000000000E+00  0.00000000000E+00 -0.18789012674E+04  0.18789012674E+04  0.25500000920E-02 0. -1.
    10030    2    1    2    0    0  0.00000000000E+00  0.00000000000E+00  0.39138734573E+02  0.37969412695E+04  0.37967395438E+04 0.  0.
        5    1    3    3  502    0  0.63674411073E+03 -0.18454171310E+03 -0.17593694312E+04  0.18801333973E+04  0.46999998093E+01 0. -1.
       -5    1    3    3    0  502 -0.63674411073E+03  0.18454171310E+03  0.17985081657E+04  0.19168078721E+04  0.46999998093E+01 0.  1.
</event>
<event>
 5   0  0.2897133E-07  0.3729008E+04  0.7818609E-02  0.8061564E-01
       -2   -1    0    0    0  501  0.00000000000E+00  0.00000000000E+00  0.13873268286E+04  0.13873268286E+04  0.25500000920E-02 0.  1.
        2   -1    0    0  501    0  0.00000000000E+00  0.00000000000E+00 -0.25058085881E+04  0.25058085881E+04  0.25500000920E-02 0. -1.
    10030    2    1    2    0    0  0.00000000000E+00  0.00000000000E+00 -0.11184817595E+04  0.38931354168E+04  0.37290081693E+04 0.  0.
        4    1    3    3  502    0 -0.65235006578E+03  0.32748095040E+03  0.12319559904E+04  0.14319642301E+04  0.12699999809E+01 0.  1.
       -4    1    3    3    0  502  0.65235006578E+03 -0.32748095040E+03 -0.23504377499E+04  0.24611711867E+04  0.12699999809E+01 0. -1.
</event>
<event>
 5   0  0.3008879E-07  0.3802726E+04  0.7818609E-02  0.8045570E-01
        2   -1    0    0  501    0  0.00000000000E+00  0.00000000000E+00  0.19470439823E+04  0.19470439823E+04  0.25500000920E-02 0.  1.
       -2   -1    0    0    0  501  0.00000000000E+00  0.00000000000E+00 -0.18567540088E+04  0.18567540088E+04  0.25500000920E-02 0. -1.
    10030    2    1    2    0    0  0.00000000000E+00  0.00000000000E+00  0.90289973487E+02  0.38037979911E+04  0.38027262428E+04 0.  0.
        2    1    3    3  502    0 -0.12916065170E+04  0.13910305294E+04 -0.64285987729E+02  0.18993014549E+04  0.25500000920E-02 0. -1.
       -2    1    3    3    0  502  0.12916065170E+04 -0.13910305294E+04  0.15457596122E+03  0.19044965362E+04  0.25500000920E-02 0.  1.
</event>
<event>
 5   0  0.2913025E-07  0.3593369E+04  0.7818609E-02  0.8092012E-01
       -2   -1    0    0    0  501  0.00000000000E+00  0.00000000000E+00  0.18605236716E+04  0.18605236716E+04  0.25500000920E-02 0.  1.
        2   -1    0    0  501    0  0.00000000000E+00  0.00000000000E+00 -0.17350354601E+04  0.17350354601E+04  0.25500000920E-02 0. -1.
    10030    2    1    2    0    0  0.00000000000E+00  0.00000000000E+00  0.12548821149E+03  0.35955591317E+04  0.35933686393E+04 0.  0.
        5    1    3    3  502    0  0.83296716856E+03 -0.80647675111E+03  0.14361016045E+04  0.18457109640E+04  0.46999998093E+01 0.  1.
       -5    1    3    3    0  502 -0.83296716856E+03  0.80647675111E+03 -0.13106133931E+04  0.17498481677E+04  0.46999998093E+01 0. -1.
</event>
<event>
 5   0  0.9341000E-08  0.3712459E+04  0.7818609E-02  0.8065206E-01
        1   -1    0    0  501    0  0.00000000000E+00  0.00000000000E+00  0.20846639006E+04  0.20846639006E+04  0.50400001928E-02 0. -1.
       -1   -1    0    0    0  501  0.00000000000E+00  0.00000000000E+00 -0.16528263845E+04  0.16528263845E+04  0.50400001928E-02 0.  1.
    10030    2    1    2    0    0  0.00000000000E+00  0.00000000000E+00  0.43183751609E+03  0.37374902851E+04  0.37124587527E+04 0.  0.
        1    1    3    3  502    0 -0.10849893765E+04  0.14355930469E+04 -0.24262806628E+03  0.18157636746E+04  0.50400001928E-02 0.  1.
       -1    1    3    3    0  502  0.10849893765E+04 -0.14355930469E+04  0.67446558237E+03  0.19217266105E+04  0.50400001928E-02 0. -1.
</event>
<event>
 5   0  0.3032442E-07  0.3690753E+04  0.7818609E-02  0.8070014E-01
        2   -1    0    0  501    0  0.00000000000E+00  0.00000000000E+00  0.20619792472E+04  0.20619792472E+04  0.25500000920E-02 0. -1.
       -2   -1    0    0    0  501  0.00000000000E+00  0.00000000000E+00 -0.16515266358E+04  0.16515266358E+04  0.25500000920E-02 0.  1.
    10030    2    1    2    0    0  0.00000000000E+00  0.00000000000E+00  0.41045261149E+03  0.37135058830E+04  0.36907525786E+04 0.  0.
        3    1    3    3  502    0 -0.90264976110E+03 -0.11956631571E+04 -0.87892595823E+03  0.17369219403E+04  0.10100000352E+00 0.  1.
       -3    1    3    3    0  502  0.90264976110E+03  0.11956631571E+04  0.12893785697E+04  0.19765839427E+04  0.10100000352E+00 0. -1.
</event>
<event>
 5   0  0.9341000E-08  0.3727824E+04  0.7818609E-02  0.8061824E-01
       -1   -1    0    0    0  501  0.00000000000E+00  0.00000000000E+00  0.14142954639E+04  0.14142954639E+04  0.50400001928E-02 0.  1.
        1   -1    0    0  501    0  0.00000000000E+00  0.00000000000E+00 -0.24564649536E+04  0.24564649536E+04  0.50400001928E-02 0. -1.
    10030    2    1    2    0    0  0.00000000000E+00  0.00000000000E+00 -0.10421694896E+04  0.38707604175E+04  0.37278236231E+04 0.  0.
        1    1    3    3  502    0  0.15736851898E+04 -0.46171716388E+02  0.51494576986E+03  0.16564377591E+04  0.50400001928E-02 0.  1.
       -1    1    3    3    0  502 -0.15736851898E+04  0.46171716388E+02 -0.15571152595E+04  0.22143226584E+04  0.50400001928E-02 0. -1.
</event>
<event>
 5   0  0.3008879E-07  0.3705036E+04  0.7818609E-02  0.8066847E-01
        2   -1    0    0  501    0  0.00000000000E+00  0.00000000000E+00  0.22560567870E+04  0.22560567870E+04  0.25500000920E-02 0.  1.
       -2   -1    0    0    0  501  0.00000000000E+00  0.00000000000E+00 -0.15211597815E+04  0.15211597815E+04  0.25500000920E-02 0. -1.
    10030    2    1    2    0    0  0.00000000000E+00  0.00000000000E+00  0.73489700549E+03  0.37772165686E+04  0.37050359509E+04 0.  0.
        2    1    3    3  502    0  0.11950004187E+04  0.64400833500E+03 -0.91768503208E+03  0.16385721084E+04  0.25500000920E-02 0. -1.
       -2    1    3    3    0  502 -0.11950004187E+04 -0.64400833500E+03  0.16525820376E+04  0.21386444602E+04  0.25500000920E-02 0.  1.
</event>
<event>
 5   0  0.2913025E-07  0.3232870E+04  0.7818609E-02  0.8180190E-01
        2   -1    0    0  501    0  0.00000000000E+00  0.00000000000E+00  0.23088332517E+04  0.23088332517E+04  0.25500000920E-02 0.  1.
       -2   -1    0    0    0  501  0.00000000000E+00  0.00000000000E+00 -0.11316806662E+04  0.11316806662E+04  0.25500000920E-02 0. -1.
    10030    2    1    2    0    0  0.00000000000E+00  0.00000000000E+00  0.11771525855E+04  0.34405139179E+04  0.32328699030E+04 0.  0.
        5    1    3    3  502    0  0.38022574253E+03 -0.44184203888E+03 -0.10159210376E+04  0.11712871754E+04  0.46999998093E+01 0. -1.
       -5    1    3    3    0  502 -0.38022574253E+03  0.44184203888E+03  0.21930736231E+04  0.22692267425E+04  0.46999998093E+01 0.  1.
</event>
<event>
 5   0  0.9341000E-08  0.3707528E+04  0.7818609E-02  0.8066296E-01
        1   -1    0    0  501    0  0.00000000000E+00  0.00000000000E+00  0.20865202102E+04  0.20865202103E+04  0.50400001928E-02 0. -1.
       -1   -1    0    0    0  501  0.00000000000E+00  0.00000000000E+00 -0.16469723405E+04  0.16469723405E+04  0.50400001928E-02 0.  1.
    10030    2    1    2    0    0  0.00000000000E+00  0.00000000000E+00  0.43954786978E+03  0.37334925507E+04  0.37075280574E+04 0.  0.
        3    1    3    3  502    0  0.11041138282E+04 -0.14539423510E+04  0.54362427661E+03  0.19048735050E+04  0.10100000352E+00 0. -1.
       -3    1    3    3    0  502 -0.11041138282E+04  0.14539423510E+04 -0.10407640682E+03  0.18286190457E+04  0.10100000352E+00 0.  1.
</event>
<event>
 5   0  0.9341000E-08  0.3655429E+04  0.7818609E-02  0.8077912E-01
       -1   -1    0    0    0  501  0.00000000000E+00  0.00000000000E+00  0.12407667698E+04  0.12407667698E+04  0.50400001928E-02 0. -1.
        1   -1    0    0  501    0  0.00000000000E+00  0.00000000000E+00 -0.26923186881E+04  0.26923186881E+04  0.50400001928E-02 0.  1.
    10030    2    1    2    0    0  0.00000000000E+00  0.00000000000E+00 -0.14515519183E+04  0.39330854579E+04  0.36554285997E+04 0.  0.
        1    1    3    3  502    0 -0.17686369782E+04  0.32149854339E+03 -0.37038169504E+03  0.18353802532E+04  0.50400001928E-02 0. -1.
       -1    1    3    3    0  502  0.17686369782E+04 -0.32149854339E+03 -0.10811702233E+04  0.20977052047E+04  0.50400001928E-02 0.  1.
</event>
<event>
 5   0  0.9418945E-08  0.3674414E+04  0.7818609E-02  0.8073656E-01
        1   -1    0    0  501    0  0.00000000000E+00  0.00000000000E+00  0.18787780493E+04  0.18787780493E+04  0.50400001928E-02 0.  1.
       -1   -1    0    0    0  501  0.00000000000E+00  0.00000000000E+00 -0.17965561308E+04  0.17965561309E+04  0.50400001928E-02 0. -1.
    10030    2    1    2    0    0  0.00000000000E+00  0.00000000000E+00  0.82221918496E+02  0.36753341802E+04  0.36744143604E+04 0.  0.
        5    1    3    3  502    0 -0.12787704756E+04 -0.11257319650E+04  0.72887434905E+03  0.18530532353E+04  0.46999998093E+01 0.  1.
       -5    1    3    3    0  502  0.12787704756E+04  0.11257319650E+04 -0.64665243055E+03  0.18222809449E+04  0.46999998093E+01 0. -1.
</event>
<event>
 5   0  0.9341000E-08  0.3720302E+04  0.7818609E-02  0.8063478E-01
       -1   -1    0    0    0  501  0.00000000000E+00  0.00000000000E+00  0.13208017163E+04  0.13208017163E+04  0.50400001928E-02 0.  1.
        1   -1    0    0  501    0  0.00000000000E+00  0.00000000000E+00 -0.26197433130E+04  0.26197433130E+04  0.50400001928E-02 0. -1.
    10030    2    1    2    0    0  0.00000000000E+00  0.00000000000E+00 -0.12989415967E+04  0.39405450294E+04  0.37203018502E+04 0.  0.
        3    1    3    3  502    0  0.53474152840E+03  0.65914707955E+03  0.11037339549E+04  0.13923548499E+04  0.10100000352E+00 0.  1.
       -3    1    3    3    0  502 -0.53474152840E+03 -0.65914707955E+03 -0.24026755515E+04  0.25481901795E+04  0.10100000352E+00 0. -1.
</event>
<event>
 5   0  0.2913025E-07  0.3691860E+04  0.7818609E-02  0.8069768E-01
        2   -1    0    0  501    0  0.00000000000E+00  0.00000000000E+00  0.98127839952E+03  0.98127839952E+03  0.25500000920E-02 0. -1.
       -2   -1    0    0    0  501  0.00000000000E+00  0.00000000000E+00 -0.34724675789E+04  0.34724675789E+04  0.25500000920E-02 0.  1.
    10030    2    1    2    0    0  0.00000000000E+00  0.00000000000E+00 -0.24911891794E+04  0.44537459784E+04  0.36918599259E+04 0.  0.
        5    1    3    3  502    0  0.13628796930E+04 -0.20377217658E+03  0.23606602596E+03  0.13981106595E+04  0.46999998093E+01 0. -1.
       -5    1    3    3    0  502 -0.13628796930E+04  0.20377217658E+03 -0.27272552053E+04  0.30556353190E+04  0.46999998093E+01 0.  1.
</event>
<event>
 5   0  0.2913025E-07  0.3700669E+04  0.7818609E-02  0.8067814E-01
       -2   -1    0    0    0  501  0.00000000000E+00  0.00000000000E+00  0.23645032355E+04  0.23645032355E+04  0.25500000920E-02 0.  1.
        2   -1    0    0  501    0  0.00000000000E+00  0.00000000000E+00 -0.14479730629E+04  0.14479730629E+04  0.25500000920E-02 0. -1.
    10030    2    1    2    0    0  0.00000000000E+00  0.00000000000E+00  0.91653017265E+03  0.38124762984E+04  0.37006685840E+04 0.  0.
        5    1    3    3  502    0  0.15835741616E+04 -0.63843438646E+03 -0.27630579207E+03  0.17296452156E+04  0.46999998093E+01 0.  1.
       -5    1    3    3    0  502 -0.15835741616E+04  0.63843438646E+03  0.11928359647E+04  0.20828310829E+04  0.46999998093E+01 0. -1.
</event>
<event>
 5   0  0.9341000E-08  0.3698770E+04  0.7818609E-02  0.8068234E-01
       -1   -1    0    0    0  501  0.00000000000E+00  0.00000000000E+00  0.29929190075E+04  0.29929190075E+04  0.50400001928E-02 0.  1.
        1   -1    0    0  501    0  0.00000000000E+00  0.00000000000E+00 -0.11427722985E+04  0.11427722985E+04  0.50400001928E-02 0. -1.
    10030    2    1    2    0    0  0.00000000000E+00  0.00000000000E+00  0.18501467090E+04  0.41356913060E+04  0.36987700298E+04 0.  0.
        1    1    3    3  502    0 -0.84973410565E+03  0.16259567278E+03  0.27527015229E+04  0.28854550902E+04  0.50400001928E-02 0.  1.
       -1    1    3    3    0  502  0.84973410565E+03 -0.16259567278E+03 -0.90255481393E+03  0.12502362158E+04  0.50400001928E-02 0. -1.
</event>
<event>
 5   0  0.9341000E-08  0.3713142E+04  0.7818609E-02  0.8065056E-01
       -3   -1    0    0    0  501  0.00000000000E+00  0.00000000000E+00  0.17926638799E+04  0.17926638828E+04  0.10100000352E+00 0.  1.
        3   -1    0    0  501    0  0.00000000000E+00  0.00000000000E+00 -0.19227566278E+04  0.19227566305E+04  0.10100000352E+00 0. -1.
    10030    2    1    2    0    0  0.00000000000E+00  0.00000000000E+00 -0.13009274787E+03  0.37154205132E+04  0.37131422632E+04 0.  0.
        4    1    3    3  502    0 -0.94473962147E+02  0.16367836859E+04 -0.93671150703E+03  0.18882309775E+04  0.12699999809E+01 0. -1.
       -4    1    3    3    0  502  0.94473962147E+02 -0.16367836859E+04  0.80661875916E+03  0.18271895357E+04  0.12699999809E+01 0.  1.
</event>
<event>
 5   0  0.3032442E-07  0.3605086E+04  0.7818609E-02  0.8089328E-01
        2   -1    0    0  501    0  0.00000000000E+00  0.00000000000E+00  0.20680196829E+04  0.20680196829E+04  0.25500000920E-02 0. -1.
       -2   -1    0    0    0  501  0.00000000000E+00  0.00000000000E+00 -0.15711465414E+04  0.15711465414E+04  0.25500000920E-02 0.  1.
    10030    2    1    2    0    0  0.00000000000E+00  0.00000000000E+00  0.49687314152E+03  0.36391662242E+04  0.36050863913E+04 0.  0.
        3    1    3    3  502    0  0.12070430299E+04  0.89637355460E+03 -0.75530902546E+03  0.16825368227E+04  0.10100000352E+00 0.  1.
       -3    1    3    3    0  502 -0.12070430299E+04 -0.89637355460E+03  0.12521821670E+04  0.19566294016E+04  0.10100000352E+00 0. -1.
</event>
<event>
 5   0  0.2913025E-07  0.3681050E+04  0.7818609E-02  0.8072174E-01
        2   -1    0    0  501    0  0.00000000000E+00  0.00000000000E+00  0.12736406779E+04  0.12736406779E+04  0.25500000920E-02 0.  1.
       -2   -1    0    0    0  501  0.00000000000E+00  0.00000000000E+00 -0.26597232294E+04  0.26597232294E+04  0.25500000920E-02 0. -1.
    10030    2    1    2    0    0  0.00000000000E+00  0.00000000000E+00 -0.13860825515E+04  0.39333639074E+04  0.36810496857E+04 0.  0.
        5    1    3    3  502    0  0.15711916636E+04 -0.65313202868E+03  0.56681515743E+02  0.17024862921E+04  0.46999998093E+01 0.  1.
       -5    1    3    3    0  502 -0.15711916636E+04  0.65313202868E+03 -0.14427640673E+04  0.22308776153E+04  0.46999998093E+01 0. -1.
</event>
<event>
 5   0  0.2897133E-07  0.3907253E+04  0.7818609E-02  0.8023522E-01
       -2   -1    0    0    0  501  0.00000000000E+00  0.00000000000E+00  0.27781446518E+04  0.27781446518E+04  0.25500000920E-02 0. -1.
        2   -1    0    0  501    0  0.00000000000E+00  0.00000000000E+00 -0.13738148828E+04  0.13738148828E+04  0.25500000920E-02 0.  1.
    10030    2    1    2    0    0  0.00000000000E+00  0.00000000000E+00  0.14043297691E+04  0.41519595346E+04  0.39072529834E+04 0.  0.
        4    1    3    3  502    0 -0.61663182030E+02  0.10039245664E+03 -0.13700358860E+04  0.13750930642E+04  0.12699999809E+01 0.  1.
       -4    1    3    3    0  502  0.61663182030E+02 -0.10039245664E+03  0.27743656551E+04  0.27768664704E+04  0.12699999809E+01 0. -1.
</event>
<event>
 5   0  0.9341000E-08  0.3682401E+04  0.7818609E-02  0.8071873E-01
       -1   -1    0    0    0  501  0.00000000000E+00  0.00000000000E+00  0.19656748013E+04  0.19656748013E+04  0.50400001928E-02 0. -1.
        1   -1    0    0  501    0  0.00000000000E+00  0.00000000000E+00 -0.17246083962E+04  0.17246083962E+04  0.50400001928E-02 0.  1.
    10030    2    1    2    0    0  0.00000000000E+00  0.00000000000E+00  0.24106640508E+03  0.36902831975E+04  0.36824009920E+04 0.  0.
        3    1    3    3  502    0  0.39526452317E+03 -0.14241691645E+04 -0.97978211920E+03  0.17732639013E+04  0.10100000352E+00 0.  1.
       -3    1    3    3    0  502 -0.39526452317E+03  0.14241691645E+04  0.12208485243E+04  0.19170192962E+04  0.10100000352E+00 0. -1.
</event>
<event>
 5   0  0.9341000E-08  0.3706628E+04  0.7818609E-02  0.8066495E-01
       -1   -1    0    0    0  501  0.00000000000E+00  0.00000000000E+00  0.13228535740E+04  0.13228535740E+04  0.50400001928E-02 0. -1.
        1   -1    0    0  501    0  0.00000000000E+00  0.00000000000E+00 -0.25964878061E+04  0.25964878061E+04  0.50400001928E-02 0.  1.
    10030    2    1    2    0    0  0.00000000000E+00  0.00000000000E+00 -0.12736342321E+04  0.39193413800E+04  0.37066282112E+04 0.  0.
        4    1    3    3  502    0  0.98410484642E+03  0.11344533626E+03  0.10194170173E+04  0.14214587089E+04  0.12699999809E+01 0. -1.
       -4    1    3    3    0  502 -0.98410484642E+03 -0.11344533626E+03 -0.22930512495E+04  0.24978826711E+04  0.12699999809E+01 0.  1.
</event>
<event>
 5   0  0.9341000E-08  0.3688741E+04  0.7818609E-02  0.8070462E-01
        1   -1    0    0  501    0  0.00000000000E+00  0.00000000000E+00  0.23815829894E+04  0.23815829894E+04  0.50400001928E-02 0. -1.
       -1   -1    0    0    0  501  0.00000000000E+00  0.00000000000E+00 -0.14283363971E+04  0.14283363971E+04  0.50400001928E-02 0.  1.
    10030    2    1    2    0    0  0.00000000000E+00  0.00000000000E+00  0.95324659222E+03  0.38099193865E+04  0.36887405257E+04 0.  0.
        4    1    3    3  502    0  0.22993438154E+03 -0.15744346001E+04  0.14399947924E+04  0.21459964457E+04  0.12699999809E+01 0. -1.
       -4    1    3    3    0  502 -0.22993438154E+03  0.15744346001E+04 -0.48674820022E+03  0.16639229408E+04  0.12699999809E+01 0.  1.
</event>
<event>
 5   0  0.9341000E-08  0.3651028E+04  0.7818609E-02  0.8078902E-01
        1   -1    0    0  501    0  0.00000000000E+00  0.00000000000E+00  0.17015647155E+04  0.17015647155E+04  0.50400001928E-02 0.  1.
       -1   -1    0    0    0  501  0.00000000000E+00  0.00000000000E+00 -0.19584920924E+04  0.19584920924E+04  0.50400001928E-02 0. -1.
    10030    2    1    2    0    0  0.00000000000E+00  0.00000000000E+00 -0.25692737696E+03  0.36600568079E+04  0.36510278224E+04 0.  0.
        4    1    3    3  502    0 -0.68295471185E+03  0.13984915007E+04  0.82798897022E+03  0.17628876776E+04  0.12699999809E+01 0.  1.
       -4    1    3    3    0  502  0.68295471185E+03 -0.13984915007E+04 -0.10849163472E+04  0.18971691304E+04  0.12699999809E+01 0. -1.
</event>
<event>
 5   0  0.9341000E-08  0.3598051E+04  0.7818609E-02  0.8090938E-01
        1   -1    0    0  501    0  0.00000000000E+00  0.00000000000E+00  0.20262428601E+04  0.20262428601E+04  0.50400001928E-02 0.  1.
       -1   -1    0    0    0  501  0.00000000000E+00  0.00000000000E+00 -0.15972879791E+04  0.15972879791E+04  0.50400001928E-02 0. -1.
    10030    2    1    2    0    0  0.00000000000E+00  0.00000000000E+00  0.42895488099E+03  0.36235308392E+04  0.35980513410E+04 0.  0.
        1    1    3    3  502    0  0.47243934571E+03 -0.81103727595E+03  0.17601139059E+04  0.19947384190E+04  0.50400001928E-02 0.  1.
       -1    1    3    3    0  502 -0.47243934571E+03  0.81103727595E+03 -0.13311590249E+04  0.16287924202E+04  0.50400001928E-02 0. -1.
</event>
<event>
 5   0  0.9418945E-08  0.3679895E+04  0.7818609E-02  0.8072432E-01
       -1   -1    0    0    0  501  0.00000000000E+00  0.00000000000E+00  0.17948607981E+04  0.17948607981E+04  0.50400001928E-02 0.  1.
        1   -1    0    0  501    0  0.00000000000E+00  0.00000000000E+00 -0.18861671942E+04  0.18861671942E+04  0.50400001928E-02 0. -1.
    10030    2    1    2    0    0  0.00000000000E+00  0.00000000000E+00 -0.91306396023E+02  0.36810279923E+04  0.36798954091E+04 0.  0.
        5    1    3    3  502    0 -0.98587301186E+03 -0.71954371300E+03 -0.14229199820E+04  0.18746765363E+04  0.46999998093E+01 0. -1.
       -5    1    3    3    0  502  0.98587301186E+03  0.71954371300E+03  0.13316135860E+04  0.18063514560E+04  0.46999998093E+01 0.  1.
</event>
<event>
 5   0  0.2897133E-07  0.3656677E+04  0.7818609E-02  0.8077631E-01
       -2   -1    0    0    0  501  0.00000000000E+00  0.00000000000E+00  0.10675187485E+04  0.10675187485E+04  0.25500000920E-02 0. -1.
        2   -1    0    0  501    0  0.00000000000E+00  0.00000000000E+00 -0.31313946002E+04  0.31313946002E+04  0.25500000920E-02 0.  1.
    10030    2    1    2    0    0  0.00000000000E+00  0.00000000000E+00 -0.20638758517E+04  0.41989133488E+04  0.36566774235E+04 0.  0.
        4    1    3    3  502    0  0.57391883125E+02 -0.78807433843E+03  0.86133054297E+03  0.11688656502E+04  0.12699999809E+01 0. -1.
       -4    1    3    3    0  502 -0.57391883125E+02  0.78807433843E+03 -0.29252063947E+04  0.30300476985E+04  0.12699999809E+01 0.  1.
</event>
<event>
 5   0  0.9341000E-08  0.3706412E+04  0.7818609E-02  0.8066542E-01
        3   -1    0    0  501    0  0.00000000000E+00  0.00000000000E+00  0.14593400178E+04  0.14593400213E+04  0.10100000352E+00 0. -1.
       -3   -1    0    0    0  501  0.00000000000E+00  0.00000000000E+00 -0.23533739851E+04  0.23533739873E+04  0.10100000352E+00 0.  1.
    10030    2    1    2    0    0  0.00000000000E+00  0.00000000000E+00 -0.89403396728E+03  0.38127140086E+04  0.37064121973E+04 0.  0.
        4    1    3    3  502    0  0.13339818353E+04 -0.48924437584E+03 -0.16708890095E+04  0.21933397573E+04  0.12699999809E+01 0.  1.
       -4    1    3    3    0  502 -0.13339818353E+04  0.48924437584E+03  0.77685504221E+03  0.16193742512E+04  0.12699999809E+01 0. -1.
</event>
<event>
 5   0  0.2897133E-07  0.3712907E+04  0.7818609E-02  0.8065107E-01
        2   -1    0    0  501    0  0.00000000000E+00  0.00000000000E+00  0.22134737001E+04  0.22134737001E+04  0.25500000920E-02 0. -1.
       -2   -1    0    0    0  501  0.00000000000E+00  0.00000000000E+00 -0.15570189301E+04  0.15570189301E+04  0.25500000920E-02 0.  1.
    10030    2    1    2    0    0  0.00000000000E+00  0.00000000000E+00  0.65645477009E+03  0.37704926302E+04  0.37129074604E+04 0.  0.
        4    1    3    3  502    0 -0.15627554014E+01 -0.14852775195E+03 -0.15509744122E+04  0.15580712999E+04  0.12699999809E+01 0.  1.
       -4    1    3    3    0  502  0.15627554014E+01  0.14852775195E+03  0.22074291823E+04  0.22124213303E+04  0.12699999809E+01 0. -1.
</event>
<event>
 5   0  0.9341000E-08  0.3688062E+04  0.7818609E-02  0.8070613E-01
        1   -1    0    0  501    0  0.00000000000E+00  0.00000000000E+00  0.23702799640E+04  0.23702799640E+04  0.50400001928E-02 0. -1.
       -1   -1    0    0    0  501  0.00000000000E+00  0.00000000000E+00 -0.14346193498E+04  0.14346193498E+04  0.50400001928E-02 0.  1.
    10030    2    1    2    0    0  0.00000000000E+00  0.00000000000E+00  0.93566061426E+03  0.38048993138E+04  0.36880615509E+04 0.  0.
        1    1    3    3  502    0 -0.95213685597E+02 -0.16947499495E+04 -0.27555684943E+03  0.17196437464E+04  0.50400001928E-02 0.  1.
       -1    1    3    3    0  502  0.95213685597E+02  0.16947499495E+04  0.12112174637E+04  0.20852555674E+04  0.50400001928E-02 0. -1.
</event>
<event>
 5   0  0.2996969E-07  0.3703928E+04  0.7818609E-02  0.8067092E-01
       -2   -1    0    0    0  501  0.00000000000E+00  0.00000000000E+00  0.20965123218E+04  0.20965123218E+04  0.25500000920E-02 0.  1.
        2   -1    0    0  501    0  0.00000000000E+00  0.00000000000E+00 -0.16359411890E+04  0.16359411890E+04  0.25500000920E-02 0. -1.
    10030    2    1    2    0    0  0.00000000000E+00  0.00000000000E+00  0.46057113280E+03  0.37324535108E+04  0.37039281097E+04 0.  0.
        1    1    3    3  502    0  0.45676020424E+03  0.17504474229E+04 -0.16909332797E+03  0.18169448583E+04  0.50400001928E-02 0. -1.
       -1    1    3    3    0  502 -0.45676020424E+03 -0.17504474229E+04  0.62966446077E+03  0.19155086525E+04  0.50400001928E-02 0.  1.
</event>
<event>
 5   0  0.9341000E-08  0.3721492E+04  0.7818609E-02  0.8063216E-01
        1   -1    0    0  501    0  0.00000000000E+00  0.00000000000E+00  0.19269301605E+04  0.19269301605E+04  0.50400001928E-02 0. -1.
       -1   -1    0    0    0  501  0.00000000000E+00  0.00000000000E+00 -0.17968351963E+04  0.17968351963E+04  0.50400001928E-02 0.  1.
    10030    2    1    2    0    0  0.00000000000E+00  0.00000000000E+00  0.13009496421E+03  0.37237653569E+04  0.37214921380E+04 0.  0.
        3    1    3    3  502    0  0.12769242787E+04 -0.84484733955E+02 -0.12865931897E+04  0.18146612163E+04  0.10100000352E+00 0.  1.
       -3    1    3    3    0  502 -0.12769242787E+04  0.84484733955E+02  0.14166881539E+04  0.19091041406E+04  0.10100000352E+00 0. -1.
</event>
<event>
 5   0  0.3008879E-07  0.3700218E+04  0.7818609E-02  0.8067914E-01
        2   -1    0    0  501    0  0.00000000000E+00  0.00000000000E+00  0.19786297018E+04  0.19786297018E+04  0.25500000920E-02 0.  1.
       -2   -1    0    0    0  501  0.00000000000E+00  0.00000000000E+00 -0.17299362564E+04  0.17299362564E+04  0.25500000920E-02 0. -1.
    10030    2    1    2    0    0  0.00000000000E+00  0.00000000000E+00  0.24869344535E+03  0.37085659582E+04  0.37002179715E+04 0.  0.
        2    1    3    3  502    0  0.19522456863E+03  0.96383010266E+03  0.16949885409E+04  0.19596089540E+04  0.25500000920E-02 0.  1.
       -2    1    3    3    0  502 -0.19522456863E+03 -0.96383010266E+03 -0.14462950955E+04  0.17489570041E+04  0.25500000920E-02 0. -1.
</event>
<event>
 5   0  0.9341000E-08  0.3708218E+04  0.7818609E-02  0.8066143E-01
       -1   -1    0    0    0  501  0.00000000000E+00  0.00000000000E+00  0.17436166627E+04  0.17436166627E+04  0.50400001928E-02 0. -1.
        1   -1    0    0  501    0  0.00000000000E+00  0.00000000000E+00 -0.19716028585E+04  0.19716028585E+04  0.50400001928E-02 0.  1.
    10030    2    1    2    0    0  0.00000000000E+00  0.00000000000E+00 -0.22798619577E+03  0.37152195213E+04  0.37082176832E+04 0.  0.
        1    1    3    3  502    0 -0.33017114122E+03  0.82856667438E+03 -0.17425419049E+04  0.19575464252E+04  0.50400001928E-02 0.  1.
       -1    1    3    3    0  502  0.33017114122E+03 -0.82856667438E+03  0.15145557092E+04  0.17576730961E+04  0.50400001928E-02 0. -1.
</event>
<event>
 5   0  0.9418945E-08  0.3709728E+04  0.7818609E-02  0.8065809E-01
        1   -1    0    0  501    0  0.00000000000E+00  0.00000000000E+00  0.23972077748E+04  0.23972077748E+04  0.50400001928E-02 0.  1.
       -1   -1    0    0    0  501  0.00000000000E+00  0.00000000000E+00 -0.14352199349E+04  0.14352199349E+04  0.50400001928E-02 0. -1.
    10030    2    1    2    0    0  0.00000000000E+00  0.00000000000E+00  0.96198783986E+03  0.38324277097E+04  0.37097279612E+04 0.  0.
        5    1    3    3  502    0 -0.19630026306E+03 -0.15248707322E+04 -0.59098457230E+03  0.16471336915E+04  0.46999998093E+01 0. -1.
       -5    1    3    3    0  502  0.19630026306E+03  0.15248707322E+04  0.15529724122E+04  0.21852940182E+04  0.46999998093E+01 0.  1.
</event>
<event>
 5   0  0.9341000E-08  0.3694676E+04  0.7818609E-02  0.8069143E-01
        1   -1    0    0  501    0  0.00000000000E+00  0.00000000000E+00  0.25530532361E+04  0.25530532361E+04  0.50400001928E-02 0. -1.
       -1   -1    0    0    0  501  0.00000000000E+00  0.00000000000E+00 -0.13366963185E+04  0.13366963185E+04  0.50400001928E-02 0.  1.
    10030    2    1    2    0    0  0.00000000000E+00  0.00000000000E+00  0.12163569176E+04  0.38897495546E+04  0.36946755537E+04 0.  0.
        1    1    3    3  502    0 -0.75725802186E+03 -0.70160505555E+03 -0.10046897076E+04  0.14405175369E+04  0.50400001928E-02 0.  1.
       -1    1    3    3    0  502  0.75725802186E+03  0.70160505555E+03  0.22210466251E+04  0.24492320177E+04  0.50400001928E-02 0. -1.
</event>
<event>
 5   0  0.2913025E-07  0.3446981E+04  0.7818609E-02  0.8126471E-01
       -2   -1    0    0    0  501  0.00000000000E+00  0.00000000000E+00  0.19083161296E+04  0.19083161296E+04  0.25500000920E-02 0.  1.
        2   -1    0    0  501    0  0.00000000000E+00  0.00000000000E+00 -0.15565655031E+04  0.15565655031E+04  0.25500000920E-02 0. -1.
    10030    2    1    2    0    0  0.00000000000E+00  0.00000000000E+00  0.35175062651E+03  0.34648816328E+04  0.34469807406E+04 0.  0.
        5    1    3    3  502    0  0.80685384731E+03 -0.35746720054E+03  0.16639690696E+04  0.18835103093E+04  0.46999998093E+01 0.  1.
       -5    1    3    3    0  502 -0.80685384731E+03  0.35746720054E+03 -0.13122184431E+04  0.15813713235E+04  0.46999998093E+01 0. -1.
</event>
<event>
 5   0  0.3032442E-07  0.3663956E+04  0.7818609E-02  0.8075997E-01
        2   -1    0    0  501    0  0.00000000000E+00  0.00000000000E+00  0.20612369342E+04  0.20612369342E+04  0.25500000920E-02 0. -1.
       -2   -1    0    0    0  501  0.00000000000E+00  0.00000000000E+00 -0.16282181725E+04  0.16282181725E+04  0.25500000920E-02 0.  1.
    10030    2    1    2    0    0  0.00000000000E+00  0.00000000000E+00  0.43301876174E+03  0.36894551067E+04  0.36639560227E+04 0.  0.
        3    1    3    3  502    0 -0.81823648901E+03 -0.12267535777E+04  0.13111387341E+04  0.19732004669E+04  0.10100000352E+00 0. -1.
       -3    1    3    3    0  502  0.81823648901E+03  0.12267535777E+04 -0.87811997239E+03  0.17162546398E+04  0.10100000352E+00 0.  1.
</event>
<event>
 5   0  0.2996969E-07  0.3691475E+04  0.7818609E-02  0.8069854E-01
       -2   -1    0    0    0  501  0.00000000000E+00  0.00000000000E+00  0.15257376625E+04  0.15257376626E+04  0.25500000920E-02 0.  1.
        2   -1    0    0  501    0  0.00000000000E+00  0.00000000000E+00 -0.22328529083E+04  0.22328529083E+04  0.25500000920E-02 0. -1.
    10030    2    1    2    0    0  0.00000000000E+00  0.00000000000E+00 -0.70711524572E+03  0.37585905708E+04  0.36914754650E+04 0.  0.
        1    1    3    3  502    0  0.14344447330E+04 -0.11608018004E+04 -0.39498227154E+03  0.18870886324E+04  0.50400001928E-02 0. -1.
       -1    1    3    3    0  502 -0.14344447330E+04  0.11608018004E+04 -0.31213297418E+03  0.18715019384E+04  0.50400001928E-02 0.  1.
</event>
<event>
 5   0  0.9646615E-08  0.3663159E+04  0.7818609E-02  0.8076176E-01
        1   -1    0    0  501    0  0.00000000000E+00  0.00000000000E+00  0.15494561773E+04  0.15494561773E+04  0.50400001928E-02 0.  1.
       -1   -1    0    0    0  501  0.00000000000E+00  0.00000000000E+00 -0.21650715367E+04  0.21650715367E+04  0.50400001928E-02 0. -1.
    10030    2    1    2    0    0  0.00000000000E+00  0.00000000000E+00 -0.61561535945E+03  0.37145277140E+04  0.36631590011E+04 0.  0.
        2    1    3    3  502    0 -0.55576879609E+03 -0.17299490079E+04 -0.54143151232E+03  0.18959827550E+04  0.25500000920E-02 0. -1.
       -2    1    3    3    0  502  0.55576879609E+03  0.17299490079E+04 -0.74183847131E+02  0.18185449590E+04  0.25500000920E-02 0.  1.
</event>
<event>
 5   0  0.9341000E-08  0.3684213E+04  0.7818609E-02  0.8071469E-01
        1   -1    0    0  501    0  0.00000000000E+00  0.00000000000E+00  0.17290195450E+04  0.17290195450E+04  0.50400001928E-02 0.  1.
       -1   -1    0    0    0  501  0.00000000000E+00  0.00000000000E+00 -0.19625897971E+04  0.19625897971E+04  0.50400001928E-02 0. -1.
    10030    2    1    2    0    0  0.00000000000E+00  0.00000000000E+00 -0.23357025212E+03  0.36916093422E+04  0.36842128701E+04 0.  0.
        1    1    3    3  502    0 -0.11482088008E+04  0.92678583693E+03  0.98817109870E+03  0.17758934535E+04  0.50400001928E-02 0.  1.
       -1    1    3    3    0  502  0.11482088008E+04 -0.92678583693E+03 -0.12217413508E+04  0.19157158887E+04  0.50400001928E-02 0. -1.
</event>
<event>
 5   0  0.2913025E-07  0.3680430E+04  0.7818609E-02  0.8072313E-01
        2   -1    0    0  501    0  0.00000000000E+00  0.00000000000E+00  0.20048311032E+04  0.20048311032E+04  0.25500000920E-02 0.  1.
       -2   -1    0    0    0  501  0.00000000000E+00  0.00000000000E+00 -0.16891157584E+04  0.16891157584E+04  0.25500000920E-02 0. -1.
    10030    2    1    2    0    0  0.00000000000E+00  0.00000000000E+00  0.31571534473E+03  0.36939468616E+04  0.36804303060E+04 0.  0.
        5    1    3    3  502    0 -0.18318490809E+04 -0.17064336699E+03  0.11796872014E+03  0.18435641900E+04  0.46999998093E+01 0.  1.
       -5    1    3    3    0  502  0.18318490809E+04  0.17064336699E+03  0.19774662459E+03  0.18503826716E+04  0.46999998093E+01 0. -1.
</event>
<event>
 5   0  0.9418945E-08  0.3690966E+04  0.7818609E-02  0.8069967E-01
       -1   -1    0    0    0  501  0.00000000000E+00  0.00000000000E+00  0.15026708014E+04  0.15026708014E+04  0.50400001928E-02 0.  1.
        1   -1    0    0  501    0  0.00000000000E+00  0.00000000000E+00 -0.22665028734E+04  0.22665028734E+04  0.50400001928E-02 0. -1.
    10030    2    1    2    0    0  0.00000000000E+00  0.00000000000E+00 -0.76383207201E+03  0.37691736749E+04  0.36909661008E+04 0.  0.
        5    1    3    3  502    0  0.14764659276E+04 -0.86776956633E+03  0.32026548081E+03  0.17422880714E+04  0.46999998093E+01 0.  1.
       -5    1    3    3    0  502 -0.14764659276E+04  0.86776956633E+03 -0.10840975528E+04  0.20268856035E+04  0.46999998093E+01 0. -1.
</event>
<event>
 5   0  0.9341000E-08  0.3710525E+04  0.7818609E-02  0.8065633E-01
        1   -1    0    0  501    0  0.00000000000E+00  0.00000000000E+00  0.15807879673E+04  0.15807879673E+04  0.50400001928E-02 0. -1.
       -1   -1    0    0    0  501  0.00000000000E+00  0.00000000000E+00 -0.21773948351E+04  0.21773948351E+04  0.50400001928E-02 0.  1.
    10030    2    1    2    0    0  0.00000000000E+00  0.00000000000E+00 -0.59660686784E+03  0.37581828024E+04  0.37105253296E+04 0.  0.
        4    1    3    3  502    0  0.16813317540E+04  0.76690324107E+03 -0.46467176935E+03  0.19055021685E+04  0.12699999809E+01 0. -1.
       -4    1    3    3    0  502 -0.16813317540E+04 -0.76690324107E+03 -0.13193509849E+03  0.18526806339E+04  0.12699999809E+01 0.  1.
</event>
<event>
 5   0  0.2913025E-07  0.3917453E+04  0.7818609E-02  0.8021409E-01
        2   -1    0    0  501    0  0.00000000000E+00  0.00000000000E+00  0.24631533121E+04  0.24631533121E+04  0.25500000920E-02 0. -1.
       -2   -1    0    0    0  501  0.00000000000E+00  0.00000000000E+00 -0.15576009430E+04  0.15576009430E+04  0.25500000920E-02 0.  1.
    10030    2    1    2    0    0  0.00000000000E+00  0.00000000000E+00  0.90555236910E+03  0.40207542551E+04  0.39174532144E+04 0.  0.
        5    1    3    3  502    0 -0.16593622845E+04 -0.10074294370E+04  0.18475700552E+03  0.19500139750E+04  0.46999998093E+01 0. -1.
       -5    1    3    3    0  502  0.16593622845E+04  0.10074294370E+04  0.72079536357E+03  0.20707402801E+04  0.46999998093E+01 0.  1.
</event>
<event>
 5   0  0.2913025E-07  0.3702292E+04  0.7818609E-02  0.8067454E-01
        2   -1    0    0  501    0  0.00000000000E+00  0.00000000000E+00  0.25081560933E+04  0.25081560933E+04  0.25500000920E-02 0. -1.
       -2   -1    0    0    0  501  0.00000000000E+00  0.00000000000E+00 -0.13662392538E+04  0.13662392538E+04  0.25500000920E-02 0.  1.
    10030    2    1    2    0    0  0.00000000000E+00  0.00000000000E+00  0.11419168394E+04  0.38743953471E+04  0.37022918898E+04 0.  0.
        5    1    3    3  502    0  0.10416474402E+04  0.15110283348E+03  0.21645254426E+04  0.24068763860E+04  0.46999998093E+01 0. -1.
       -5    1    3    3    0  502 -0.10416474402E+04 -0.15110283348E+03 -0.10226086031E+04  0.14675189611E+04  0.46999998093E+01 0.  1.
</event>
<event>
 5   0  0.2897133E-07  0.3656299E+04  0.7818609E-02  0.8077716E-01
       -2   -1    0    0    0  501  0.00000000000E+00  0.00000000000E+00  0.14918207504E+04  0.14918207504E+04  0.25500000920E-02 0.  1.
        2   -1    0    0  501    0  0.00000000000E+00  0.00000000000E+00 -0.22403024635E+04  0.22403024635E+04  0.25500000920E-02 0. -1.
    10030    2    1    2    0    0  0.00000000000E+00  0.00000000000E+00 -0.74848171314E+03  0.37321232139E+04  0.36562985120E+04 0.  0.
        4    1    3    3  502    0 -0.71490893080E+02 -0.50984818563E+03 -0.21647772579E+04  0.22251557944E+04  0.12699999809E+01 0. -1.
       -4    1    3    3    0  502  0.71490893080E+02  0.50984818563E+03  0.14162955448E+04  0.15069674195E+04  0.12699999809E+01 0.  1.
</event>
<event>
 5   0  0.2996969E-07  0.3718618E+04  0.7818609E-02  0.8063848E-01
        2   -1    0    0  501    0  0.00000000000E+00  0.00000000000E+00  0.16674479964E+04  0.16674479964E+04  0.25500000920E-02 0. -1.
       -2   -1    0    0    0  501  0.00000000000E+00  0.00000000000E+00 -0.20732464793E+04  0.20732464793E+04  0.25500000920E-02 0.  1.
    10030    2    1    2    0    0  0.00000000000E+00  0.00000000000E+00 -0.40579848290E+03  0.37406944757E+04  0.37186183929E+04 0.  0.
        1    1    3    3  502    0  0.86726537770E+02 -0.16550806725E+04 -0.10506461347E+04  0.19623126217E+04  0.50400001928E-02 0.  1.
       -1    1    3    3    0  502 -0.86726537770E+02  0.16550806725E+04  0.64484765177E+03  0.17783818540E+04  0.50400001928E-02 0. -1.
</event>
<event>
 5   0  0.2996969E-07  0.3706239E+04  0.7818609E-02  0.8066581E-01
        2   -1    0    0  501    0  0.00000000000E+00  0.00000000000E+00  0.17180624672E+04  0.17180624672E+04  0.25500000920E-02 0.  1.
       -2   -1    0    0    0  501  0.00000000000E+00  0.00000000000E+00 -0.19987930063E+04  0.19987930063E+04  0.25500000920E-02 0. -1.
    10030    2    1    2    0    0  0.00000000000E+00  0.00000000000E+00 -0.28073053916E+03  0.37168554735E+04  0.37062386560E+04 0.  0.
        1    1    3    3  502    0 -0.32146599085E+03 -0.15564879739E+04 -0.10960147333E+04  0.19306070268E+04  0.50400001928E-02 0. -1.
       -1    1    3    3    0  502  0.32146599085E+03  0.15564879739E+04  0.81528419416E+03  0.17862484467E+04  0.50400001928E-02 0.  1.
</event>
<event>
 5   0  0.9646615E-08  0.3779378E+04  0.7818609E-02  0.8050595E-01
       -1   -1    0    0    0  501  0.00000000000E+00  0.00000000000E+00  0.13806783301E+04  0.13806783301E+04  0.50400001928E-02 0.  1.
        1   -1    0    0  501    0  0.00000000000E+00  0.00000000000E+00 -0.25863557291E+04  0.25863557291E+04  0.50400001928E-02 0. -1.
    10030    2    1    2    0    0  0.00000000000E+00  0.00000000000E+00 -0.12056773990E+04  0.39670340592E+04  0.37793784193E+04 0.  0.
        2    1    3    3  502    0 -0.12563713907E+04 -0.12623517657E+04  0.60126562489E+02  0.17820258851E+04  0.25500000920E-02 0.  1.
       -2    1    3    3    0  502  0.12563713907E+04  0.12623517657E+04 -0.12658039615E+04  0.21850081741E+04  0.25500000920E-02 0. -1.
</event>
<event>
 5   0  0.2996969E-07  0.3719579E+04  0.7818609E-02  0.8063637E-01
       -2   -1    0    0    0  501  0.00000000000E+00  0.00000000000E+00  0.20257601703E+04  0.20257601703E+04  0.25500000920E-02 0. -1.
        2   -1    0    0  501    0  0.00000000000E+00  0.00000000000E+00 -0.17074164964E+04  0.17074164964E+04  0.25500000920E-02 0.  1.
    10030    2    1    2    0    0  0.00000000000E+00  0.00000000000E+00  0.31834367386E+03  0.37331766667E+04  0.37195786495E+04 0.  0.
        1    1    3    3  502    0  0.17996359503E+04  0.15999483455E+03  0.60183801331E+03  0.19043363398E+04  0.50400001928E-02 0.  1.
       -1    1    3    3    0  502 -0.17996359503E+04 -0.15999483455E+03 -0.28349433945E+03  0.18288403269E+04  0.50400001928E-02 0. -1.
</event>
<event>
 5   0  0.9418945E-08  0.3717531E+04  0.7818609E-02  0.8064088E-01
        1   -1    0    0  501    0  0.00000000000E+00  0.00000000000E+00  0.23717880150E+04  0.23717880150E+04  0.50400001928E-02 0.  1.
       -1   -1    0    0    0  501  0.00000000000E+00  0.00000000000E+00 -0.14567104564E+04  0.14567104564E+04  0.50400001928E-02 0. -1.
    10030    2    1    2    0    0  0.00000000000E+00  0.00000000000E+00  0.91507755860E+03  0.38284984714E+04  0.37175305792E+04 0.  0.
        5    1    3    3  502    0  0.17146044627E+04  0.63142431457E+03  0.10614834639E+03  0.18302608257E+04  0.46999998093E+01 0. -1.
       -5    1    3    3    0  502 -0.17146044627E+04 -0.63142431457E+03  0.80892921222E+03  0.19982376458E+04  0.46999998093E+01 0.  1.
</event>
<event>
 5   0  0.9341000E-08  0.3683518E+04  0.7818609E-02  0.8071624E-01
       -1   -1    0    0    0  501  0.00000000000E+00  0.00000000000E+00  0.30264968220E+04  0.30264968220E+04  0.50400001928E-02 0. -1.
        1   -1    0    0  501    0  0.00000000000E+00  0.00000000000E+00 -0.11207928669E+04  0.11207928669E+04  0.50400001928E-02 0.  1.
    10030    2    1    2    0    0  0.00000000000E+00  0.00000000000E+00  0.19057039551E+04  0.41472896889E+04  0.36835179108E+04 0.  0.
        3    1    3    3  502    0  0.11983906902E+04  0.39017276389E+03 -0.55925967444E+03  0.13788206648E+04  0.10100000352E+00 0.  1.
       -3    1    3    3    0  502 -0.11983906902E+04 -0.39017276389E+03  0.24649636295E+04  0.27684690241E+04  0.10100000352E+00 0. -1.
</event>
<event>
 5   0  0.2897133E-07  0.3771213E+04  0.7818609E-02  0.8052361E-01
        2   -1    0    0  501    0  0.00000000000E+00  0.00000000000E+00  0.24231030338E+04  0.24231030338E+04  0.25500000920E-02 0.  1.
       -2   -1    0    0    0  501  0.00000000000E+00  0.00000000000E+00 -0.14673380373E+04  0.14673380373E+04  0.25500000920E-02 0. -1.
    10030    2    1    2    0    0  0.00000000000E+00  0.00000000000E+00  0.95576499646E+03  0.38904410711E+04  0.37712126696E+04 0.  0.
        4    1    3    3  502    0  0.65604899430E+03  0.31861254391E+03  0.22717057753E+04  0.23859092561E+04  0.12699999809E+01 0.  1.
       -4    1    3    3    0  502 -0.65604899430E+03 -0.31861254391E+03 -0.13159407788E+04  0.15045318150E+04  0.12699999809E+01 0. -1.
</event>
<event>
 5   0  0.9341000E-08  0.3628975E+04  0.7818609E-02  0.8083887E-01
        1   -1    0    0  501    0  0.00000000000E+00  0.00000000000E+00  0.99841332708E+03  0.99841332709E+03  0.50400001928E-02 0. -1.
       -1   -1    0    0    0  501  0.00000000000E+00  0.00000000000E+00 -0.32975969682E+04  0.32975969682E+04  0.50400001928E-02 0.  1.
    10030    2    1    2    0    0  0.00000000000E+00  0.00000000000E+00 -0.22991836411E+04  0.42960102953E+04  0.36289749299E+04 0.  0.
        1    1    3    3  502    0  0.11148985455E+04  0.11217379717E+04 -0.22024958314E+04  0.27115093087E+04  0.50400001928E-02 0. -1.
       -1    1    3    3    0  502 -0.11148985455E+04 -0.11217379717E+04 -0.96687809714E+02  0.15845009866E+04  0.50400001928E-02 0.  1.
</event>
<event>
 5   0  0.3032442E-07  0.3468234E+04  0.7818609E-02  0.8121360E-01
        2   -1    0    0  501    0  0.00000000000E+00  0.00000000000E+00  0.16458780254E+04  0.16458780254E+04  0.25500000920E-02 0.  1.
       -2   -1    0    0    0  501  0.00000000000E+00  0.00000000000E+00 -0.18270862432E+04  0.18270862432E+04  0.25500000920E-02 0. -1.
    10030    2    1    2    0    0  0.00000000000E+00  0.00000000000E+00 -0.18120821778E+03  0.34729642685E+04  0.34682336127E+04 0.  0.
        3    1    3    3  502    0  0.34821784273E+03  0.13005467178E+03 -0.17867241298E+04  0.18249802766E+04  0.10100000352E+00 0. -1.
       -3    1    3    3    0  502 -0.34821784273E+03 -0.13005467178E+03  0.16055159120E+04  0.16479839919E+04  0.10100000352E+00 0.  1.
</event>
<event>
 5   0  0.3032442E-07  0.3717320E+04  0.7818609E-02  0.8064134E-01
       -2   -1    0    0    0  501  0.00000000000E+00  0.00000000000E+00  0.26408732241E+04  0.26408732241E+04  0.25500000920E-02 0.  1.
        2   -1    0    0  501    0  0.00000000000E+00  0.00000000000E+00 -0.13081344769E+04  0.13081344769E+04  0.25500000920E-02 0. -1.
    10030    2    1    2    0    0  0.00000000000E+00  0.00000000000E+00  0.13327387473E+04  0.39490077010E+04  0.37173201711E+04 0.  0.
        3    1    3    3  502    0 -0.16767846258E+04  0.51280912222E+02 -0.18374467675E+03  0.16876014131E+04  0.10100000352E+00 0. -1.
       -3    1    3    3    0  502  0.16767846258E+04 -0.51280912222E+02  0.15164834240E+04  0.22614062879E+04  0.10100000352E+00 0.  1.
</event>
<event>
 5   0  0.3032442E-07  0.3589722E+04  0.7818609E-02  0.8092850E-01
        2   -1    0    0  501    0  0.00000000000E+00  0.00000000000E+00  0.25716614844E+04  0.25716614844E+04  0.25500000920E-02 0. -1.
       -2   -1    0    0    0  501  0.00000000000E+00  0.00000000000E+00 -0.12527019145E+04  0.12527019145E+04  0.25500000920E-02 0.  1.
    10030    2    1    2    0    0  0.00000000000E+00  0.00000000000E+00  0.13189595698E+04  0.38243633989E+04  0.35897215853E+04 0.  0.
        3    1    3    3  502    0 -0.17282500738E+02 -0.20228849393E+03  0.25593889444E+04  0.25674288887E+04  0.10100000352E+00 0. -1.
       -3    1    3    3    0  502  0.17282500738E+02  0.20228849393E+03 -0.12404293745E+04  0.12569345102E+04  0.10100000352E+00 0.  1.
</event>
<event>
 5   0  0.9646615E-08  0.4053860E+04  0.7818609E-02  0.7993768E-01
       -1   -1    0    0    0  501  0.00000000000E+00  0.00000000000E+00  0.23545459605E+04  0.23545459605E+04  0.50400001928E-02 0. -1.
        1   -1    0    0  501    0  0.00000000000E+00  0.00000000000E+00 -0.17448995510E+04  0.17448995511E+04  0.50400001928E-02 0.  1.
    10030    2    1    2    0    0  0.00000000000E+00  0.00000000000E+00  0.60964640947E+03  0.40994455116E+04  0.40538604759E+04 0.  0.
        2    1    3    3  502    0 -0.11823000373E+03 -0.20000708788E+04  0.61516885311E+03  0.20958756098E+04  0.25500000920E-02 0. -1.
       -2    1    3    3    0  502  0.11823000373E+03  0.20000708788E+04 -0.55224436452E+01  0.20035699018E+04  0.25500000920E-02 0.  1.
</event>
<event>
 5   0  0.2913025E-07  0.3688331E+04  0.7818609E-02  0.8070553E-01
       -2   -1    0    0    0  501  0.00000000000E+00  0.00000000000E+00  0.13618755657E+04  0.13618755657E+04  0.25500000920E-02 0.  1.
        2   -1    0    0  501    0  0.00000000000E+00  0.00000000000E+00 -0.24972524227E+04  0.24972524227E+04  0.25500000920E-02 0. -1.
    10030    2    1    2    0    0  0.00000000000E+00  0.00000000000E+00 -0.11353768570E+04  0.38591279884E+04  0.36883313603E+04 0.  0.
        5    1    3    3  502    0 -0.11150402035E+03 -0.14025255466E+04  0.67975118598E+03  0.15625603413E+04  0.46999998093E+01 0.  1.
       -5    1    3    3    0  502  0.11150402035E+03  0.14025255466E+04 -0.18151280429E+04  0.22965676471E+04  0.46999998093E+01 0. -1.
</event>
<event>
 5   0  0.2913025E-07  0.3689566E+04  0.7818609E-02  0.8070278E-01
       -2   -1    0    0    0  501  0.00000000000E+00  0.00000000000E+00  0.19214872543E+04  0.19214872543E+04  0.25500000920E-02 0.  1.
        2   -1    0    0  501    0  0.00000000000E+00  0.00000000000E+00 -0.17711410407E+04  0.17711410407E+04  0.25500000920E-02 0. -1.
    10030    2    1    2    0    0  0.00000000000E+00  0.00000000000E+00  0.15034621364E+03  0.36926282950E+04  0.36895663351E+04 0.  0.
        5    1    3    3  502    0  0.21380420737E+02 -0.43758687579E+03 -0.17183139147E+04  0.17732919093E+04  0.46999998093E+01 0. -1.
       -5    1    3    3    0  502 -0.21380420737E+02  0.43758687579E+03  0.18686601283E+04  0.19193363857E+04  0.46999998093E+01 0.  1.
</event>
<event>
 5   0  0.2897133E-07  0.3756187E+04  0.7818609E-02  0.8055623E-01
       -2   -1    0    0    0  501  0.00000000000E+00  0.00000000000E+00  0.15563138309E+04  0.15563138310E+04  0.25500000920E-02 0. -1.
        2   -1    0    0  501    0  0.00000000000E+00  0.00000000000E+00 -0.22664040271E+04  0.22664040271E+04  0.25500000920E-02 0.  1.
    10030    2    1    2    0    0  0.00000000000E+00  0.00000000000E+00 -0.71009019613E+03  0.38227178580E+04  0.37561873935E+04 0.  0.
        4    1    3    3  502    0 -0.10573795482E+04 -0.54371505383E+03 -0.18346029514E+04  0.21861946781E+04  0.12699999809E+01 0.  1.
       -4    1    3    3    0  502  0.10573795482E+04  0.54371505383E+03  0.11245127553E+04  0.16365231799E+04  0.12699999809E+01 0. -1.
</event>
<event>
 5   0  0.2897133E-07  0.3735855E+04  0.7818609E-02  0.8060062E-01
        2   -1    0    0  501    0  0.00000000000E+00  0.00000000000E+00  0.21304403717E+04  0.21304403717E+04  0.25500000920E-02 0. -1.
       -2   -1    0    0    0  501  0.00000000000E+00  0.00000000000E+00 -0.16377616287E+04  0.16377616287E+04  0.25500000920E-02 0.  1.
    10030    2    1    2    0    0  0.00000000000E+00  0.00000000000E+00  0.49267874302E+03  0.37682020005E+04  0.37358551862E+04 0.  0.
        4    1    3    3  502    0 -0.12019140664E+04  0.51980046461E+03  0.15899246866E+04  0.20597699065E+04  0.12699999809E+01 0. -1.
       -4    1    3    3    0  502  0.12019140664E+04 -0.51980046461E+03 -0.10972459435E+04  0.17084320939E+04  0.12699999809E+01 0.  1.
</event>
<event>
 5   0  0.9341000E-08  0.3701967E+04  0.7818609E-02  0.8067526E-01
        1   -1    0    0  501    0  0.00000000000E+00  0.00000000000E+00  0.17095675772E+04  0.17095675772E+04  0.50400001928E-02 0. -1.
       -1   -1    0    0    0  501  0.00000000000E+00  0.00000000000E+00 -0.20040969165E+04  0.20040969165E+04  0.50400001928E-02 0.  1.
    10030    2    1    2    0    0  0.00000000000E+00  0.00000000000E+00 -0.29452933927E+03  0.37136644937E+04  0.37019665638E+04 0.  0.
        4    1    3    3  502    0 -0.10990129635E+04 -0.14888390127E+04 -0.18821519224E+03  0.18600800174E+04  0.12699999809E+01 0. -1.
       -4    1    3    3    0  502  0.10990129635E+04  0.14888390127E+04 -0.10631414703E+03  0.18535844762E+04  0.12699999809E+01 0.  1.
</event>
<event>
 5   0  0.3032442E-07  0.3687858E+04  0.7818609E-02  0.8070658E-01
       -2   -1    0    0    0  501  0.00000000000E+00  0.00000000000E+00  0.14883327334E+04  0.14883327334E+04  0.25500000920E-02 0.  1.
        2   -1    0    0  501    0  0.00000000000E+00  0.00000000000E+00 -0.22844853706E+04  0.22844853706E+04  0.25500000920E-02 0. -1.
    10030    2    1    2    0    0  0.00000000000E+00  0.00000000000E+00 -0.79615263722E+03  0.37728181041E+04  0.36878581080E+04 0.  0.
        3    1    3    3  502    0 -0.11343766151E+04 -0.38867520057E+03 -0.18311311789E+04  0.21888170597E+04  0.10100000352E+00 0. -1.
       -3    1    3    3    0  502  0.11343766151E+04  0.38867520057E+03  0.10349785417E+04  0.15840010443E+04  0.10100000352E+00 0.  1.
</event>
<event>
 5   0  0.9341000E-08  0.3700508E+04  0.7818609E-02  0.8067849E-01
       -1   -1    0    0    0  501  0.00000000000E+00  0.00000000000E+00  0.31767692998E+04  0.31767692998E+04  0.50400001928E-02 0.  1.
        1   -1    0    0  501    0  0.00000000000E+00  0.00000000000E+00 -0.10776481287E+04  0.10776481287E+04  0.50400001928E-02 0. -1.
    10030    2    1    2    0    0  0.00000000000E+00  0.00000000000E+00  0.20991211711E+04  0.42544174285E+04  0.37005077982E+04 0.  0.
        4    1    3    3  502    0  0.46352263677E+03  0.16035061389E+04  0.13171696790E+03  0.16743464829E+04  0.12699999809E+01 0. -1.
       -4    1    3    3    0  502 -0.46352263677E+03 -0.16035061389E+04  0.19674042032E+04  0.25800709455E+04  0.12699999809E+01 0.  1.
</event>
<event>
 5   0  0.2996969E-07  0.3669861E+04  0.7818609E-02  0.8074674E-01
        2   -1    0    0  501    0  0.00000000000E+00  0.00000000000E+00  0.18927746966E+04  0.18927746966E+04  0.25500000920E-02 0.  1.
       -2   -1    0    0    0  501  0.00000000000E+00  0.00000000000E+00 -0.17788537727E+04  0.17788537727E+04  0.25500000920E-02 0. -1.
    10030    2    1    2    0    0  0.00000000000E+00  0.00000000000E+00  0.11392092392E+03  0.36716284694E+04  0.36698607113E+04 0.  0.
        1    1    3    3  502    0 -0.73892665813E+03  0.84390682633E+03  0.15098232024E+04  0.18808927243E+04  0.50400001928E-02 0.  1.
       -1    1    3    3    0  502  0.73892665813E+03 -0.84390682633E+03 -0.13959022785E+04  0.17907357451E+04  0.50400001928E-02 0. -1.
</event>
<event>
 5   0  0.3008879E-07  0.3729088E+04  0.7818609E-02  0.8061546E-01
       -2   -1    0    0    0  501  0.00000000000E+00  0.00000000000E+00  0.31668178934E+04  0.31668178934E+04  0.25500000920E-02 0.  1.
        2   -1    0    0  501    0  0.00000000000E+00  0.00000000000E+00 -0.10977971034E+04  0.10977971034E+04  0.25500000920E-02 0. -1.
    10030    2    1    2    0    0  0.00000000000E+00  0.00000000000E+00  0.20690207900E+04  0.42646149968E+04  0.37290875616E+04 0.  0.
        2    1    3    3  502    0 -0.56552515001E+03 -0.12128161800E+04 -0.45032366135E+03  0.14119253456E+04  0.25500000920E-02 0. -1.
       -2    1    3    3    0  502  0.56552515001E+03  0.12128161800E+04  0.25193444513E+04  0.28526896512E+04  0.25500000920E-02 0.  1.
</event>
<event>
 5   0  0.9341000E-08  0.3684129E+04  0.7818609E-02  0.8071488E-01
        1   -1    0    0  501    0  0.00000000000E+00  0.00000000000E+00  0.10638126156E+04  0.10638126156E+04  0.50400001928E-02 0. -1.
       -1   -1    0    0    0  501  0.00000000000E+00  0.00000000000E+00 -0.31896604864E+04  0.31896604864E+04  0.50400001928E-02 0.  1.
    10030    2    1    2    0    0  0.00000000000E+00  0.00000000000E+00 -0.21258478708E+04  0.42534731020E+04  0.36841286975E+04 0.  0.
        1    1    3    3  502    0 -0.12549404336E+04  0.89721913737E+03  0.99281579772E+02  0.15458766136E+04  0.50400001928E-02 0. -1.
       -1    1    3    3    0  502  0.12549404336E+04 -0.89721913737E+03 -0.22251294505E+04  0.27075964884E+04  0.50400001928E-02 0.  1.
</event>
<event>
 5   0  0.9646615E-08  0.3598518E+04  0.7818609E-02  0.8090831E-01
        1   -1    0    0  501    0  0.00000000000E+00  0.00000000000E+00  0.16588592017E+04  0.16588592018E+04  0.50400001928E-02 0. -1.
       -1   -1    0    0    0  501  0.00000000000E+00  0.00000000000E+00 -0.19515421921E+04  0.19515421921E+04  0.50400001928E-02 0.  1.
    10030    2    1    2    0    0  0.00000000000E+00  0.00000000000E+00 -0.29268299030E+03  0.36104013938E+04  0.35985184301E+04 0.  0.
        2    1    3    3  502    0  0.17771094644E+04  0.23135207405E+03  0.14474707864E+02  0.17921638730E+04  0.25500000920E-02 0. -1.
       -2    1    3    3    0  502 -0.17771094644E+04 -0.23135207405E+03 -0.30715769817E+03  0.18182375208E+04  0.25500000920E-02 0.  1.
</event>
<event>
 5   0  0.2897133E-07  0.3690463E+04  0.7818609E-02  0.8070079E-01
       -2   -1    0    0    0  501  0.00000000000E+00  0.00000000000E+00  0.17619246951E+04  0.17619246951E+04  0.25500000920E-02 0. -1.
        2   -1    0    0  501    0  0.00000000000E+00  0.00000000000E+00 -0.19324767547E+04  0.19324767547E+04  0.25500000920E-02 0.  1.
    10030    2    1    2    0    0  0.00000000000E+00  0.00000000000E+00 -0.17055205961E+03  0.36944014498E+04  0.36904625817E+04 0.  0.
        4    1    3    3  502    0 -0.14854049211E+04 -0.78814030244E+03 -0.84587903249E+03  0.18823139659E+04  0.12699999809E+01 0.  1.
       -4    1    3    3    0  502  0.14854049211E+04  0.78814030244E+03  0.67532697288E+03  0.18120874838E+04  0.12699999809E+01 0. -1.
</event>
<event>
 5   0  0.2897133E-07  0.3702498E+04  0.7818609E-02  0.8067408E-01
       -2   -1    0    0    0  501  0.00000000000E+00  0.00000000000E+00  0.13250655044E+04  0.13250655044E+04  0.25500000920E-02 0. -1.
        2   -1    0    0  501    0  0.00000000000E+00  0.00000000000E+00 -0.25863805974E+04  0.25863805974E+04  0.25500000920E-02 0.  1.
    10030    2    1    2    0    0  0.00000000000E+00  0.00000000000E+00 -0.12613150930E+04  0.39114461018E+04  0.37024984596E+04 0.  0.
        4    1    3    3  502    0 -0.97198382646E+03  0.15751379719E+04 -0.66889271092E+03  0.19680526571E+04  0.12699999809E+01 0. -1.
       -4    1    3    3    0  502  0.97198382646E+03 -0.15751379719E+04 -0.59242238205E+03  0.19433934447E+04  0.12699999809E+01 0.  1.
</event>
<event>
 5   0  0.9341000E-08  0.3711887E+04  0.7818609E-02  0.8065333E-01
        1   -1    0    0  501    0  0.00000000000E+00  0.00000000000E+00  0.12807519579E+04  0.12807519579E+04  0.50400001928E-02 0.  1.
       -1   -1    0    0    0  501  0.00000000000E+00  0.00000000000E+00 -0.26894566334E+04  0.26894566334E+04  0.50400001928E-02 0. -1.
    10030    2    1    2    0    0  0.00000000000E+00  0.00000000000E+00 -0.14087046755E+04  0.39702085912E+04  0.37118873091E+04 0.  0.
        4    1    3    3  502    0  0.52672915588E+03  0.14069849238E+04  0.46119734348E+03  0.15715453483E+04  0.12699999809E+01 0.  1.
       -4    1    3    3    0  502 -0.52672915588E+03 -0.14069849238E+04 -0.18699020190E+04  0.23986632429E+04  0.12699999809E+01 0. -1.
</event>
<event>
 5   0  0.9646615E-08  0.3688446E+04  0.7818609E-02  0.8070527E-01
        1   -1    0    0  501    0  0.00000000000E+00  0.00000000000E+00  0.12418099602E+04  0.12418099602E+04  0.50400001928E-02 0.  1.
       -1   -1    0    0    0  501  0.00000000000E+00  0.00000000000E+00 -0.27388716778E+04  0.27388716778E+04  0.50400001928E-02 0. -1.
    10030    2    1    2    0    0  0.00000000000E+00  0.00000000000E+00 -0.14970617175E+04  0.39806816380E+04  0.36884458132E+04 0.  0.
        2    1    3    3  502    0  0.98626638208E+03  0.16759648612E+03 -0.24205881663E+04  0.26191710577E+04  0.25500000920E-02 0. -1.
       -2    1    3    3    0  502 -0.98626638208E+03 -0.16759648612E+03  0.92352644877E+03  0.13615105803E+04  0.25500000920E-02 0.  1.
</event>
<event>
 5   0  0.2913025E-07  0.3275214E+04  0.7818609E-02  0.8169231E-01
        2   -1    0    0  501    0  0.00000000000E+00  0.00000000000E+00  0.18187122593E+04  0.18187122593E+04  0.25500000920E-02 0. -1.
       -2   -1    0    0    0  501  0.00000000000E+00  0.00000000000E+00 -0.14745355612E+04  0.14745355612E+04  0.25500000920E-02 0.  1.
    10030    2    1    2    0    0  0.00000000000E+00  0.00000000000E+00  0.34417669812E+03  0.32932478205E+04  0.32752135209E+04 0.  0.
        5    1    3    3  502    0  0.53799728915E+02  0.62570322555E+03 -0.13486330972E+04  0.14876936036E+04  0.46999998093E+01 0.  1.
       -5    1    3    3    0  502 -0.53799728915E+02 -0.62570322555E+03  0.16928097953E+04  0.18055542169E+04  0.46999998093E+01 0. -1.
</event>
<event>
 5   0  0.2913025E-07  0.3689086E+04  0.7818609E-02  0.8070385E-01
       -2   -1    0    0    0  501  0.00000000000E+00  0.00000000000E+00  0.15046320852E+04  0.15046320852E+04  0.25500000920E-02 0. -1.
        2   -1    0    0  501    0  0.00000000000E+00  0.00000000000E+00 -0.22612434621E+04  0.22612434621E+04  0.25500000920E-02 0.  1.
    10030    2    1    2    0    0  0.00000000000E+00  0.00000000000E+00 -0.75661137694E+03  0.37658755473E+04  0.36890863181E+04 0.  0.
        5    1    3    3  502    0  0.17502054920E+04 -0.39131653506E+03 -0.81852388058E+03  0.19713831002E+04  0.46999998093E+01 0.  1.
       -5    1    3    3    0  502 -0.17502054920E+04  0.39131653506E+03  0.61912503638E+02  0.17944924471E+04  0.46999998093E+01 0. -1.
</event>
<event>
 5   0  0.9418945E-08  0.3700972E+04  0.7818609E-02  0.8067746E-01
       -1   -1    0    0    0  501  0.00000000000E+00  0.00000000000E+00  0.18218080591E+04  0.18218080591E+04  0.50400001928E-02 0. -1.
        1   -1    0    0  501    0  0.00000000000E+00  0.00000000000E+00 -0.18796154338E+04  0.18796154338E+04  0.50400001928E-02 0.  1.
    10030    2    1    2    0    0  0.00000000000E+00  0.00000000000E+00 -0.57807374777E+02  0.37014234929E+04  0.37009720590E+04 0.  0.
        5    1    3    3  502    0  0.13072266775E+04  0.33974850336E+03 -0.12939713439E+04  0.18704690750E+04  0.46999998093E+01 0.  1.
       -5    1    3    3    0  502 -0.13072266775E+04 -0.33974850336E+03  0.12361639691E+04  0.18309544179E+04  0.46999998093E+01 0. -1.
</event>
<event>
 5   0  0.3008879E-07  0.3690408E+04  0.7818609E-02  0.8070091E-01
        2   -1    0    0  501    0  0.00000000000E+00  0.00000000000E+00  0.19800014551E+04  0.19800014551E+04  0.25500000920E-02 0. -1.
       -2   -1    0    0    0  501  0.00000000000E+00  0.00000000000E+00 -0.17195833372E+04  0.17195833372E+04  0.25500000920E-02 0.  1.
    10030    2    1    2    0    0  0.00000000000E+00  0.00000000000E+00  0.26041811787E+03  0.36995847923E+04  0.36904078418E+04 0.  0.
        2    1    3    3  502    0  0.35531636540E+03 -0.17437774416E+04  0.61903623895E+03  0.18842015154E+04  0.25500000920E-02 0. -1.
       -2    1    3    3    0  502 -0.35531636540E+03  0.17437774416E+04 -0.35861812108E+03  0.18153832769E+04  0.25500000920E-02 0.  1.
</event>
<event>
 5   0  0.9341000E-08  0.3708421E+04  0.7818609E-02  0.8066098E-01
       -1   -1    0    0    0  501  0.00000000000E+00  0.00000000000E+00  0.30060498236E+04  0.30060498236E+04  0.50400001928E-02 0.  1.
        1   -1    0    0  501    0  0.00000000000E+00  0.00000000000E+00 -0.11437256660E+04  0.11437256660E+04  0.50400001928E-02 0. -1.
    10030    2    1    2    0    0  0.00000000000E+00  0.00000000000E+00  0.18623241577E+04  0.41497754896E+04  0.37084208696E+04 0.  0.
        4    1    3    3  502    0 -0.88201439863E+03  0.14572637197E+04  0.11150595176E+03  0.17070448554E+04  0.12699999809E+01 0. -1.
       -4    1    3    3    0  502  0.88201439863E+03 -0.14572637197E+04  0.17508182059E+04  0.24427306342E+04  0.12699999809E+01 0.  1.
</event>
<event>
 5   0  0.3032442E-07  0.3576023E+04  0.7818609E-02  0.8096006E-01
        2   -1    0    0  501    0  0.00000000000E+00  0.00000000000E+00  0.23343957882E+04  0.23343957882E+04  0.25500000920E-02 0. -1.
       -2   -1    0    0    0  501  0.00000000000E+00  0.00000000000E+00 -0.13695131429E+04  0.13695131429E+04  0.25500000920E-02 0.  1.
    10030    2    1    2    0    0  0.00000000000E+00  0.00000000000E+00  0.96488264524E+03  0.37039089311E+04  0.35760233292E+04 0.  0.
        3    1    3    3  502    0  0.10611353842E+04 -0.40021110096E+03  0.19141957538E+04  0.22249320491E+04  0.10100000352E+00 0. -1.
       -3    1    3    3    0  502 -0.10611353842E+04  0.40021110096E+03 -0.94931310860E+03  0.14789768820E+04  0.10100000352E+00 0.  1.
</event>
<event>
 5   0  0.9646615E-08  0.3487439E+04  0.7818609E-02  0.8116773E-01
        1   -1    0    0  501    0  0.00000000000E+00  0.00000000000E+00  0.16218270485E+04  0.16218270485E+04  0.50400001928E-02 0. -1.
       -1   -1    0    0    0  501  0.00000000000E+00  0.00000000000E+00 -0.18747730292E+04  0.18747730292E+04  0.50400001928E-02 0.  1.
    10030    2    1    2    0    0  0.00000000000E+00  0.00000000000E+00 -0.25294598072E+03  0.34966000777E+04  0.34874389506E+04 0.  0.
        2    1    3    3  502    0  0.27500185835E+03 -0.10468830808E+04 -0.14971660454E+04  0.18474567314E+04  0.25500000920E-02 0.  1.
       -2    1    3    3    0  502 -0.27500185835E+03  0.10468830808E+04  0.12442200647E+04  0.16491433462E+04  0.25500000920E-02 0. -1.
</event>
<event>
 5   0  0.3008879E-07  0.3687401E+04  0.7818609E-02  0.8070760E-01
       -2   -1    0    0    0  501  0.00000000000E+00  0.00000000000E+00  0.14088522146E+04  0.14088522146E+04  0.25500000920E-02 0. -1.
        2   -1    0    0  501    0  0.00000000000E+00  0.00000000000E+00 -0.24127669552E+04  0.24127669552E+04  0.25500000920E-02 0.  1.
    10030    2    1    2    0    0  0.00000000000E+00  0.00000000000E+00 -0.10039147406E+04  0.38216191698E+04  0.36874012899E+04 0.  0.
        2    1    3    3  502    0 -0.13491356253E+04  0.64022170015E+03 -0.16226020540E+04  0.22051957251E+04  0.25500000920E-02 0.  1.
       -2    1    3    3    0  502  0.13491356253E+04 -0.64022170015E+03  0.61868731340E+03  0.16164234447E+04  0.25500000920E-02 0. -1.
</event>
<event>
 5   0  0.9341000E-08  0.3738586E+04  0.7818609E-02  0.8059464E-01
        1   -1    0    0  501    0  0.00000000000E+00  0.00000000000E+00  0.18701976047E+04  0.18701976047E+04  0.50400001928E-02 0. -1.
       -1   -1    0    0    0  501  0.00000000000E+00  0.00000000000E+00 -0.18683888591E+04  0.18683888591E+04  0.50400001928E-02 0.  1.
    10030    2    1    2    0    0  0.00000000000E+00  0.00000000000E+00  0.18087456294E+01  0.37385864638E+04  0.37385860262E+04 0.  0.
        3    1    3    3  502    0 -0.11577773679E+03  0.12372421004E+04 -0.13955498211E+04  0.18686176208E+04  0.10100000352E+00 0.  1.
       -3    1    3    3    0  502  0.11577773679E+03 -0.12372421004E+04  0.13973585668E+04  0.18699688430E+04  0.10100000352E+00 0. -1.
</event>
<event>
 5   0  0.3008879E-07  0.3712491E+04  0.7818609E-02  0.8065199E-01
       -2   -1    0    0    0  501  0.00000000000E+00  0.00000000000E+00  0.27622494762E+04  0.27622494762E+04  0.25500000920E-02 0.  1.
        2   -1    0    0  501    0  0.00000000000E+00  0.00000000000E+00 -0.12474061141E+04  0.12474061141E+04  0.25500000920E-02 0. -1.
    10030    2    1    2    0    0  0.00000000000E+00  0.00000000000E+00  0.15148433621E+04  0.40096555903E+04  0.37124907463E+04 0.  0.
        2    1    3    3  502    0  0.11048996537E+04 -0.74692029335E+03 -0.63702997189E+03  0.14780055326E+04  0.25500000920E-02 0. -1.
       -2    1    3    3    0  502 -0.11048996537E+04  0.74692029335E+03  0.21518733340E+04  0.25316500577E+04  0.25500000920E-02 0.  1.
</event>
<event>
 5   0  0.9418945E-08  0.3675830E+04  0.7818609E-02  0.8073339E-01
        1   -1    0    0  501    0  0.00000000000E+00  0.00000000000E+00  0.18555961725E+04  0.18555961725E+04  0.50400001928E-02 0. -1.
       -1   -1    0    0    0  501  0.00000000000E+00  0.00000000000E+00 -0.18204019003E+04  0.18204019003E+04  0.50400001928E-02 0.  1.
    10030    2    1    2    0    0  0.00000000000E+00  0.00000000000E+00  0.35194272217E+02  0.36759980728E+04  0.36758295926E+04 0.  0.
        5    1    3    3  502    0 -0.82613964303E+02 -0.13873136329E+04 -0.11851402096E+04  0.18264839418E+04  0.46999998093E+01 0.  1.
       -5    1    3    3    0  502  0.82613964303E+02  0.13873136329E+04  0.12203344819E+04  0.18495141310E+04  0.46999998093E+01 0. -1.
</event>
<event>
 5   0  0.9341000E-08  0.3734863E+04  0.7818609E-02  0.8060279E-01
       -1   -1    0    0    0  501  0.00000000000E+00  0.00000000000E+00  0.16924364318E+04  0.16924364318E+04  0.50400001928E-02 0. -1.
        1   -1    0    0  501    0  0.00000000000E+00  0.00000000000E+00 -0.20605210225E+04  0.20605210225E+04  0.50400001928E-02 0.  1.
    10030    2    1    2    0    0  0.00000000000E+00  0.00000000000E+00 -0.36808459065E+03  0.37529574543E+04  0.37348632355E+04 0.  0.
        4    1    3    3  502    0  0.32933383365E+03 -0.70287397749E+03 -0.18907427006E+04  0.20438694124E+04  0.12699999809E+01 0.  1.
       -4    1    3    3    0  502 -0.32933383365E+03  0.70287397749E+03  0.15226581100E+04  0.17090880419E+04  0.12699999809E+01 0. -1.
</event>
<event>
 5   0  0.3032442E-07  0.3347281E+04  0.7818609E-02  0.8150968E-01
       -2   -1    0    0    0  501  0.00000000000E+00  0.00000000000E+00  0.20286944678E+04  0.20286944678E+04  0.25500000920E-02 0. -1.
        2   -1    0    0  501    0  0.00000000000E+00  0.00000000000E+00 -0.13807263581E+04  0.13807263581E+04  0.25500000920E-02 0.  1.
    10030    2    1    2    0    0  0.00000000000E+00  0.00000000000E+00  0.64796810967E+03  0.34094208259E+04  0.33472806421E+04 0.  0.
        3    1    3    3  502    0  0.40636870627E+03  0.15233870036E+04 -0.24789102268E+03  0.15960242660E+04  0.10100000352E+00 0.  1.
       -3    1    3    3    0  502 -0.40636870627E+03 -0.15233870036E+04  0.89585913235E+03  0.18133965599E+04  0.10100000352E+00 0. -1.
</event>
<event>
 5   0  0.9341000E-08  0.3698888E+04  0.7818609E-02  0.8068208E-01
       -1   -1    0    0    0  501  0.00000000000E+00  0.00000000000E+00  0.33803739745E+04  0.33803739745E+04  0.50400001928E-02 0.  1.
        1   -1    0    0  501    0  0.00000000000E+00  0.00000000000E+00 -0.10118535871E+04  0.10118535871E+04  0.50400001928E-02 0. -1.
    10030    2    1    2    0    0  0.00000000000E+00  0.00000000000E+00  0.23685203874E+04  0.43922275616E+04  0.36988882286E+04 0.  0.
        3    1    3    3  502    0  0.63477896262E+03 -0.24260492922E+03  0.32267497122E+04  0.32975316827E+04  0.10100000352E+00 0.  1.
       -3    1    3    3    0  502 -0.63477896262E+03  0.24260492922E+03 -0.85822932481E+03  0.10946958789E+04  0.10100000352E+00 0. -1.
</event>
<event>
 5   0  0.9646615E-08  0.3702483E+04  0.7818609E-02  0.8067412E-01
        1   -1    0    0  501    0  0.00000000000E+00  0.00000000000E+00  0.19130636508E+04  0.19130636508E+04  0.50400001928E-02 0.  1.
       -1   -1    0    0    0  501  0.00000000000E+00  0.00000000000E+00 -0.17914173071E+04  0.17914173071E+04  0.50400001928E-02 0. -1.
    10030    2    1    2    0    0  0.00000000000E+00  0.00000000000E+00  0.12164634368E+03  0.37044809580E+04  0.37024831310E+04 0.  0.
        2    1    3    3  502    0 -0.74419453871E+03  0.16273470095E+04  0.53543293465E+03  0.18678255348E+04  0.25500000920E-02 0. -1.
       -2    1    3    3    0  502  0.74419453871E+03 -0.16273470095E+04 -0.41378659098E+03  0.18366554232E+04  0.25500000920E-02 0.  1.
</event>
<event>
 5   0  0.9646615E-08  0.3706241E+04  0.7818609E-02  0.8066580E-01
       -1   -1    0    0    0  501  0.00000000000E+00  0.00000000000E+00  0.17727977935E+04  0.17727977936E+04  0.50400001928E-02 0. -1.
        1   -1    0    0  501    0  0.00000000000E+00  0.00000000000E+00 -0.19370823551E+04  0.19370823551E+04  0.50400001928E-02 0.  1.
    10030    2    1    2    0    0  0.00000000000E+00  0.00000000000E+00 -0.16428456160E+03  0.37098801487E+04  0.37062408584E+04 0.  0.
        2    1    3    3  502    0 -0.10157478573E+04  0.71888837066E+03 -0.14566297655E+04  0.19158064810E+04  0.25500000920E-02 0.  1.
       -2    1    3    3    0  502  0.10157478573E+04 -0.71888837066E+03  0.12923452039E+04  0.17940736677E+04  0.25500000920E-02 0. -1.
</event>
<event>
 5   0  0.2897133E-07  0.3681844E+04  0.7818609E-02  0.8071997E-01
        2   -1    0    0  501    0  0.00000000000E+00  0.00000000000E+00  0.26493718310E+04  0.26493718310E+04  0.25500000920E-02 0.  1.
       -2   -1    0    0    0  501  0.00000000000E+00  0.00000000000E+00 -0.12791687108E+04  0.12791687108E+04  0.25500000920E-02 0. -1.
    10030    2    1    2    0    0  0.00000000000E+00  0.00000000000E+00  0.13702031202E+04  0.39285405418E+04  0.36818438584E+04 0.  0.
        4    1    3    3  502    0 -0.42086846638E+03 -0.76503421488E+03  0.24143665392E+04  0.25674062815E+04  0.12699999809E+01 0.  1.
       -4    1    3    3    0  502  0.42086846638E+03  0.76503421488E+03 -0.10441634190E+04  0.13611342602E+04  0.12699999809E+01 0. -1.
</event>
<event>
 5   0  0.9341000E-08  0.3695868E+04  0.7818609E-02  0.8068878E-01
        1   -1    0    0  501    0  0.00000000000E+00  0.00000000000E+00  0.14908976781E+04  0.14908976781E+04  0.50400001928E-02 0.  1.
       -1   -1    0    0    0  501  0.00000000000E+00  0.00000000000E+00 -0.22904726625E+04  0.22904726625E+04  0.50400001928E-02 0. -1.
    10030    2    1    2    0    0  0.00000000000E+00  0.00000000000E+00 -0.79957498441E+03  0.37813703406E+04  0.36958681655E+04 0.  0.
        1    1    3    3  502    0 -0.15446744847E+04 -0.10075554773E+04 -0.28015042176E+03  0.18653877781E+04  0.50400001928E-02 0.  1.
       -1    1    3    3    0  502  0.15446744847E+04  0.10075554773E+04 -0.51942456264E+03  0.19159825625E+04  0.50400001928E-02 0. -1.
</event>
<event>
 5   0  0.9341000E-08  0.3725190E+04  0.7818609E-02  0.8062402E-01
        1   -1    0    0  501    0  0.00000000000E+00  0.00000000000E+00  0.13776930208E+04  0.13776930208E+04  0.50400001928E-02 0. -1.
       -1   -1    0    0    0  501  0.00000000000E+00  0.00000000000E+00 -0.25181660023E+04  0.25181660023E+04  0.50400001928E-02 0.  1.
    10030    2    1    2    0    0  0.00000000000E+00  0.00000000000E+00 -0.11404729814E+04  0.38958590231E+04  0.37251897813E+04 0.  0.
        1    1    3    3  502    0  0.15852000236E+04  0.84199631686E+03 -0.50010251715E+02  0.17956385877E+04  0.50400001928E-02 0. -1.
       -1    1    3    3    0  502 -0.15852000236E+04 -0.84199631686E+03 -0.10904627297E+04  0.21002204354E+04  0.50400001928E-02 0.  1.
</event>
<event>
 5   0  0.2913025E-07  0.3704218E+04  0.7818609E-02  0.8067028E-01
       -2   -1    0    0    0  501  0.00000000000E+00  0.00000000000E+00  0.15322254887E+04  0.15322254887E+04  0.25500000920E-02 0. -1.
        2   -1    0    0  501    0  0.00000000000E+00  0.00000000000E+00 -0.22387743485E+04  0.22387743485E+04  0.25500000920E-02 0.  1.
    10030    2    1    2    0    0  0.00000000000E+00  0.00000000000E+00 -0.70654885976E+03  0.37709998372E+04  0.37042176611E+04 0.  0.
        5    1    3    3  502    0 -0.10503187623E+04  0.12152292673E+04 -0.12920345314E+04  0.20613895786E+04  0.46999998093E+01 0.  1.
       -5    1    3    3    0  502  0.10503187623E+04 -0.12152292673E+04  0.58548567168E+03  0.17096102586E+04  0.46999998093E+01 0. -1.
</event>
<event>
 5   0  0.2996969E-07  0.3695083E+04  0.7818609E-02  0.8069052E-01
        2   -1    0    0  501    0  0.00000000000E+00  0.00000000000E+00  0.25291356975E+04  0.25291356975E+04  0.25500000920E-02 0. -1.
       -2   -1    0    0    0  501  0.00000000000E+00  0.00000000000E+00 -0.13496351291E+04  0.13496351291E+04  0.25500000920E-02 0.  1.
    10030    2    1    2    0    0  0.00000000000E+00  0.00000000000E+00  0.11795005684E+04  0.38787708267E+04  0.36950834273E+04 0.  0.
        1    1    3    3  502    0  0.89952604367E+03  0.88185194015E+03 -0.82895325020E+03  0.15079699727E+04  0.50400001928E-02 0.  1.
       -1    1    3    3    0  502 -0.89952604367E+03 -0.88185194015E+03  0.20084538186E+04  0.23708008539E+04  0.50400001928E-02 0. -1.
</event>
<event>
 5   0  0.2996969E-07  0.3701060E+04  0.7818609E-02  0.8067727E-01
        2   -1    0    0  501    0  0.00000000000E+00  0.00000000000E+00  0.25945224796E+04  0.25945224796E+04  0.25500000920E-02 0.  1.
       -2   -1    0    0    0  501  0.00000000000E+00  0.00000000000E+00 -0.13198810168E+04  0.13198810168E+04  0.25500000920E-02 0. -1.
    10030    2    1    2    0    0  0.00000000000E+00  0.00000000000E+00  0.12746414627E+04  0.39144034964E+04  0.37010598312E+04 0.  0.
        1    1    3    3  502    0  0.91077550601E+03  0.14401041040E+04  0.14007675969E+04  0.22058018300E+04  0.50400001928E-02 0.  1.
       -1    1    3    3    0  502 -0.91077550601E+03 -0.14401041040E+04 -0.12612613413E+03  0.17086016664E+04  0.50400001928E-02 0. -1.
</event>
<event>
 5   0  0.9341000E-08  0.3696038E+04  0.7818609E-02  0.8068840E-01
        1   -1    0    0  501    0  0.00000000000E+00  0.00000000000E+00  0.21172320301E+04  0.21172320301E+04  0.50400001928E-02 0.  1.
       -1   -1    0    0    0  501  0.00000000000E+00  0.00000000000E+00 -0.16130374499E+04  0.16130374499E+04  0.50400001928E-02 0. -1.
    10030    2    1    2    0    0  0.00000000000E+00  0.00000000000E+00  0.50419458020E+03  0.37302694800E+04  0.36960381788E+04 0.  0.
        3    1    3    3  502    0  0.99932385741E+03 -0.38504588067E+03 -0.12679277904E+04  0.16596835222E+04  0.10100000352E+00 0. -1.
       -3    1    3    3    0  502 -0.99932385741E+03  0.38504588067E+03  0.17721223706E+04  0.20705859578E+04  0.10100000352E+00 0.  1.
</event>
<event>
 5   0  0.2913025E-07  0.3706130E+04  0.7818609E-02  0.8066605E-01
        2   -1    0    0  501    0  0.00000000000E+00  0.00000000000E+00  0.19204407326E+04  0.19204407326E+04  0.25500000920E-02 0.  1.
       -2   -1    0    0    0  501  0.00000000000E+00  0.00000000000E+00 -0.17880528317E+04  0.17880528317E+04  0.25500000920E-02 0. -1.
    10030    2    1    2    0    0  0.00000000000E+00  0.00000000000E+00  0.13238790093E+03  0.37084935643E+04  0.37061297819E+04 0.  0.
        5    1    3    3  502    0 -0.10830194026E+04  0.14886601013E+04 -0.14557154726E+03  0.18466870576E+04  0.46999998093E+01 0.  1.
       -5    1    3    3    0  502  0.10830194026E+04 -0.14886601013E+04  0.27795944820E+03  0.18618065067E+04  0.46999998093E+01 0. -1.
</event>
<event>
 5   0  0.3008879E-07  0.3694618E+04  0.7818609E-02  0.8069156E-01
        2   -1    0    0  501    0  0.00000000000E+00  0.00000000000E+00  0.23998876290E+04  0.23998876290E+04  0.25500000920E-02 0. -1.
       -2   -1    0    0    0  501  0.00000000000E+00  0.00000000000E+00 -0.14219624059E+04  0.14219624059E+04  0.25500000920E-02 0.  1.
    10030    2    1    2    0    0  0.00000000000E+00  0.00000000000E+00  0.97792522314E+03  0.38218500349E+04  0.36946176997E+04 0.  0.
        2    1    3    3  502    0 -0.12519832769E+04 -0.13112628446E+04  0.12224387654E+03  0.18170899644E+04  0.25500000920E-02 0. -1.
       -2    1    3    3    0  502  0.12519832769E+04  0.13112628446E+04  0.85568134659E+03  0.20047600705E+04  0.25500000920E-02 0.  1.
</event>
<event>
 5   0  0.9418945E-08  0.3648042E+04  0.7818609E-02  0.8079575E-01
        1   -1    0    0  501    0  0.00000000000E+00  0.00000000000E+00  0.12625202031E+04  0.12625202032E+04  0.50400001928E-02 0. -1.
       -1   -1    0    0    0  501  0.00000000000E+00  0.00000000000E+00 -0.26352463194E+04  0.26352463194E+04  0.50400001928E-02 0.  1.
    10030    2    1    2    0    0  0.00000000000E+00  0.00000000000E+00 -0.13727261163E+04  0.38977665225E+04  0.36480415121E+04 0.  0.
        5    1    3    3  502    0  0.14613781928E+03 -0.89785618854E+03  0.10028522970E+04  0.13539707593E+04  0.46999998093E+01 0. -1.
       -5    1    3    3    0  502 -0.14613781928E+03  0.89785618854E+03 -0.23755784132E+04  0.25437957632E+04  0.46999998093E+01 0.  1.
</event>
<event>
 5   0  0.2996969E-07  0.3674125E+04  0.7818609E-02  0.8073720E-01
       -2   -1    0    0    0  501  0.00000000000E+00  0.00000000000E+00  0.25254925068E+04  0.25254925068E+04  0.25500000920E-02 0. -1.
        2   -1    0    0  501    0  0.00000000000E+00  0.00000000000E+00 -0.13362934576E+04  0.13362934576E+04  0.25500000920E-02 0.  1.
    10030    2    1    2    0    0  0.00000000000E+00  0.00000000000E+00  0.11891990492E+04  0.38617859645E+04  0.36741252642E+04 0.  0.
        1    1    3    3  502    0  0.50202995374E+03 -0.14432793315E+04 -0.47714262727E+03  0.16008605155E+04  0.50400001928E-02 0.  1.
       -1    1    3    3    0  502 -0.50202995374E+03  0.14432793315E+04  0.16663416765E+04  0.22609254490E+04  0.50400001928E-02 0. -1.
</event>
<event>
 5   0  0.2897133E-07  0.3780414E+04  0.7818609E-02  0.8050371E-01
       -2   -1    0    0    0  501  0.00000000000E+00  0.00000000000E+00  0.14790323767E+04  0.14790323767E+04  0.25500000920E-02 0.  1.
        2   -1    0    0  501    0  0.00000000000E+00  0.00000000000E+00 -0.24156892569E+04  0.24156892569E+04  0.25500000920E-02 0. -1.
    10030    2    1    2    0    0  0.00000000000E+00  0.00000000000E+00 -0.93665688017E+03  0.38947216336E+04  0.37804140636E+04 0.  0.
        4    1    3    3  502    0 -0.56834936701E+03 -0.91157788986E+03 -0.20706317562E+04  0.23327050253E+04  0.12699999809E+01 0. -1.
       -4    1    3    3    0  502  0.56834936701E+03  0.91157788986E+03  0.11339748761E+04  0.15620166083E+04  0.12699999809E+01 0.  1.
</event>
<event>
 5   0  0.2996969E-07  0.3699182E+04  0.7818609E-02  0.8068143E-01
        2   -1    0    0  501    0  0.00000000000E+00  0.00000000000E+00  0.21772803263E+04  0.21772803263E+04  0.25500000920E-02 0.  1.
       -2   -1    0    0    0  501  0.00000000000E+00  0.00000000000E+00 -0.15712205550E+04  0.15712205550E+04  0.25500000920E-02 0. -1.
    10030    2    1    2    0    0  0.00000000000E+00  0.00000000000E+00  0.60605977123E+03  0.37485008813E+04  0.36991823976E+04 0.  0.
        1    1    3    3  502    0  0.75310765125E+03  0.16554898899E+04  0.64392198781E+03  0.19293660712E+04  0.50400001928E-02 0.  1.
       -1    1    3    3    0  502 -0.75310765125E+03 -0.16554898899E+04 -0.37862216587E+02  0.18191348102E+04  0.50400001928E-02 0. -1.
</event>
<event>
 5   0  0.3008879E-07  0.3688355E+04  0.7818609E-02  0.8070547E-01
        2   -1    0    0  501    0  0.00000000000E+00  0.00000000000E+00  0.19091579254E+04  0.19091579254E+04  0.25500000920E-02 0. -1.
       -2   -1    0    0    0  501  0.00000000000E+00  0.00000000000E+00 -0.17814085958E+04  0.17814085958E+04  0.25500000920E-02 0.  1.
    10030    2    1    2    0    0  0.00000000000E+00  0.00000000000E+00  0.12774932961E+03  0.36905665212E+04  0.36883548305E+04 0.  0.
        2    1    3    3  502    0 -0.15543635861E+04 -0.66977593362E+03 -0.66891985036E+03  0.18199175051E+04  0.25500000920E-02 0. -1.
       -2    1    3    3    0  502  0.15543635861E+04  0.66977593362E+03  0.79666917997E+03  0.18706490161E+04  0.25500000920E-02 0.  1.
</event>
<event>
 5   0  0.9646615E-08  0.3784774E+04  0.7818609E-02  0.8049430E-01
        1   -1    0    0  501    0  0.00000000000E+00  0.00000000000E+00  0.13011857215E+04  0.13011857215E+04  0.50400001928E-02 0. -1.
       -1   -1    0    0    0  501  0.00000000000E+00  0.00000000000E+00 -0.27522039514E+04  0.27522039514E+04  0.50400001928E-02 0.  1.
    10030    2    1    2    0    0  0.00000000000E+00  0.00000000000E+00 -0.14510182299E+04  0.40533896729E+04  0.37847739611E+04 0.  0.
        2    1    3    3  502    0 -0.13214992891E+04 -0.12053809604E+04 -0.63733886788E+02  0.17897948595E+04  0.25500000920E-02 0.  1.
       -2    1    3    3    0  502  0.13214992891E+04  0.12053809604E+04 -0.13872843432E+04  0.22635948134E+04  0.25500000920E-02 0. -1.
</event>
<event>
 5   0  0.9646615E-08  0.3712180E+04  0.7818609E-02  0.8065268E-01
        1   -1    0    0  501    0  0.00000000000E+00  0.00000000000E+00  0.16455780399E+04  0.16455780400E+04  0.50400001928E-02 0.  1.
       -1   -1    0    0    0  501  0.00000000000E+00  0.00000000000E+00 -0.20935318728E+04  0.20935318728E+04  0.50400001928E-02 0. -1.
    10030    2    1    2    0    0  0.00000000000E+00  0.00000000000E+00 -0.44795383288E+03  0.37391099128E+04  0.37121799934E+04 0.  0.
        2    1    3    3  502    0 -0.62087251946E+03  0.22806395676E+03 -0.19707938075E+04  0.20788275747E+04  0.25500000920E-02 0. -1.
       -2    1    3    3    0  502  0.62087251946E+03 -0.22806395676E+03  0.15228399746E+04  0.16602823381E+04  0.25500000920E-02 0.  1.
</event>
<event>
 5   0  0.2996969E-07  0.3694951E+04  0.7818609E-02  0.8069082E-01
       -2   -1    0    0    0  501  0.00000000000E+00  0.00000000000E+00  0.12951909419E+04  0.12951909419E+04  0.25500000920E-02 0. -1.
        2   -1    0    0  501    0  0.00000000000E+00  0.00000000000E+00 -0.26352606866E+04  0.26352606866E+04  0.25500000920E-02 0.  1.
    10030    2    1    2    0    0  0.00000000000E+00  0.00000000000E+00 -0.13400697447E+04  0.39304516285E+04  0.36949510259E+04 0.  0.
        1    1    3    3  502    0  0.25548271238E+03  0.27106171661E+03 -0.25949028824E+04  0.26215008754E+04  0.50400001928E-02 0.  1.
       -1    1    3    3    0  502 -0.25548271238E+03 -0.27106171661E+03  0.12548331377E+04  0.13089507531E+04  0.50400001928E-02 0. -1.
</event>
<event>
 5   0  0.9341000E-08  0.3679550E+04  0.7818609E-02  0.8072509E-01
        1   -1    0    0  501    0  0.00000000000E+00  0.00000000000E+00  0.15417824403E+04  0.15417824403E+04  0.50400001928E-02 0.  1.
       -1   -1    0    0    0  501  0.00000000000E+00  0.00000000000E+00 -0.21953633798E+04  0.21953633798E+04  0.50400001928E-02 0. -1.
    10030    2    1    2    0    0  0.00000000000E+00  0.00000000000E+00 -0.65358093954E+03  0.37371458201E+04  0.36795503578E+04 0.  0.
        3    1    3    3  502    0 -0.68469668897E+03  0.80310051947E+03  0.12037794078E+04  0.16008950225E+04  0.10100000352E+00 0.  1.
       -3    1    3    3    0  502  0.68469668897E+03 -0.80310051947E+03 -0.18573603473E+04  0.21362507976E+04  0.10100000352E+00 0. -1.
</event>
<event>
 5   0  0.9418945E-08  0.3689778E+04  0.7818609E-02  0.8070231E-01
       -1   -1    0    0    0  501  0.00000000000E+00  0.00000000000E+00  0.18286986090E+04  0.18286986090E+04  0.50400001928E-02 0.  1.
        1   -1    0    0  501    0  0.00000000000E+00  0.00000000000E+00 -0.18612229426E+04  0.18612229426E+04  0.50400001928E-02 0. -1.
    10030    2    1    2    0    0  0.00000000000E+00  0.00000000000E+00 -0.32524333660E+02  0.36899215516E+04  0.36897782080E+04 0.  0.
        5    1    3    3  502    0  0.16229943447E+04 -0.32101126555E+03  0.80012415232E+03  0.18377648448E+04  0.46999998093E+01 0.  1.
       -5    1    3    3    0  502 -0.16229943447E+04  0.32101126555E+03 -0.83264848598E+03  0.18521567068E+04  0.46999998093E+01 0. -1.
</event>
<event>
 5   0  0.2996969E-07  0.3704572E+04  0.7818609E-02  0.8066949E-01
       -2   -1    0    0    0  501  0.00000000000E+00  0.00000000000E+00  0.22236853599E+04  0.22236853599E+04  0.25500000920E-02 0. -1.
        2   -1    0    0  501    0  0.00000000000E+00  0.00000000000E+00 -0.15429175900E+04  0.15429175900E+04  0.25500000920E-02 0.  1.
    10030    2    1    2    0    0  0.00000000000E+00  0.00000000000E+00  0.68076776989E+03  0.37666029499E+04  0.37045719086E+04 0.  0.
        1    1    3    3  502    0 -0.17729289594E+04 -0.53624163137E+03  0.32874342858E+03  0.18811976037E+04  0.50400001928E-02 0. -1.
       -1    1    3    3    0  502  0.17729289594E+04  0.53624163137E+03  0.35202434131E+03  0.18854053462E+04  0.50400001928E-02 0.  1.
</event>
<event>
 5   0  0.9341000E-08  0.3645548E+04  0.7818609E-02  0.8080137E-01
       -1   -1    0    0    0  501  0.00000000000E+00  0.00000000000E+00  0.10692505357E+04  0.10692505357E+04  0.50400001928E-02 0. -1.
        1   -1    0    0  501    0  0.00000000000E+00  0.00000000000E+00 -0.31073209933E+04  0.31073209933E+04  0.50400001928E-02 0.  1.
    10030    2    1    2    0    0  0.00000000000E+00  0.00000000000E+00 -0.20380704576E+04  0.41765715289E+04  0.36455477704E+04 0.  0.
        4    1    3    3  502    0  0.16680479709E+04 -0.43122974446E+03 -0.33723550341E+03  0.17555832431E+04  0.12699999809E+01 0. -1.
       -4    1    3    3    0  502 -0.16680479709E+04  0.43122974446E+03 -0.17008349542E+04  0.24209882858E+04  0.12699999809E+01 0.  1.
</event>
<event>
 5   0  0.3008879E-07  0.3670146E+04  0.7818609E-02  0.8074610E-01
        2   -1    0    0  501    0  0.00000000000E+00  0.00000000000E+00  0.26234418294E+04  0.26234418294E+04  0.25500000920E-02 0.  1.
       -2   -1    0    0    0  501  0.00000000000E+00  0.00000000000E+00 -0.12836166648E+04  0.12836166648E+04  0.25500000920E-02 0. -1.
    10030    2    1    2    0    0  0.00000000000E+00  0.00000000000E+00  0.13398251646E+04  0.39070584943E+04  0.36701464012E+04 0.  0.
        2    1    3    3  502    0 -0.81317260665E+03 -0.58083378857E+03 -0.96855440532E+03  0.13916591588E+04  0.25500000920E-02 0. -1.
       -2    1    3    3    0  502  0.81317260665E+03  0.58083378857E+03  0.23083795699E+04  0.25153993355E+04  0.25500000920E-02 0.  1.
</event>
<event>
 5   0  0.9341000E-08  0.3710584E+04  0.7818609E-02  0.8065620E-01
        1   -1    0    0  501    0  0.00000000000E+00  0.00000000000E+00  0.19081400858E+04  0.19081400858E+04  0.50400001928E-02 0. -1.
       -1   -1    0    0    0  501  0.00000000000E+00  0.00000000000E+00 -0.18039078363E+04  0.18039078363E+04  0.50400001928E-02 0.  1.
    10030    2    1    2    0    0  0.00000000000E+00  0.00000000000E+00  0.10423224952E+03  0.37120479220E+04  0.37105842416E+04 0.  0.
        1    1    3    3  502    0 -0.83324082780E+03 -0.20124047696E+03  0.16981589956E+04  0.19022439331E+04  0.50400001928E-02 0. -1.
       -1    1    3    3    0  502  0.83324082780E+03  0.20124047696E+03 -0.15939267461E+04  0.18098039890E+04  0.50400001928E-02 0.  1.
</event>
<event>
 5   0  0.9341000E-08  0.3698797E+04  0.7818609E-02  0.8068229E-01
       -1   -1    0    0    0  501  0.00000000000E+00  0.00000000000E+00  0.13997516492E+04  0.13997516492E+04  0.50400001928E-02 0. -1.
        1   -1    0    0  501    0  0.00000000000E+00  0.00000000000E+00 -0.24434865742E+04  0.24434865742E+04  0.50400001928E-02 0.  1.
    10030    2    1    2    0    0  0.00000000000E+00  0.00000000000E+00 -0.10437349250E+04  0.38432382234E+04  0.36987967568E+04 0.  0.
        1    1    3    3  502    0  0.14809371239E+04 -0.10415819601E+04 -0.91369661097E+03  0.20280308778E+04  0.50400001928E-02 0.  1.
       -1    1    3    3    0  502 -0.14809371239E+04  0.10415819601E+04 -0.13003831405E+03  0.18152073456E+04  0.50400001928E-02 0. -1.
</event>
<event>
 5   0  0.2913025E-07  0.3713989E+04  0.7818609E-02  0.8064869E-01
       -2   -1    0    0    0  501  0.00000000000E+00  0.00000000000E+00  0.20063077877E+04  0.20063077877E+04  0.25500000920E-02 0. -1.
        2   -1    0    0  501    0  0.00000000000E+00  0.00000000000E+00 -0.17187934822E+04  0.17187934822E+04  0.25500000920E-02 0.  1.
    10030    2    1    2    0    0  0.00000000000E+00  0.00000000000E+00  0.28751430552E+03  0.37251012700E+04  0.37139890947E+04 0.  0.
        5    1    3    3  502    0  0.14838259489E+04 -0.11164762338E+04  0.15596038989E+03  0.18634925168E+04  0.46999998093E+01 0. -1.
       -5    1    3    3    0  502 -0.14838259489E+04  0.11164762338E+04  0.13155391563E+03  0.18616087531E+04  0.46999998093E+01 0.  1.
</event>
<event>
 5   0  0.9341000E-08  0.3631699E+04  0.7818609E-02  0.8083269E-01
       -1   -1    0    0    0  501  0.00000000000E+00  0.00000000000E+00  0.19194872595E+04  0.19194872595E+04  0.50400001928E-02 0. -1.
        1   -1    0    0  501    0  0.00000000000E+00  0.00000000000E+00 -0.17178077008E+04  0.17178077008E+04  0.50400001928E-02 0.  1.
    10030    2    1    2    0    0  0.00000000000E+00  0.00000000000E+00  0.20167955872E+03  0.36372949604E+04  0.36316993246E+04 0.  0.
        3    1    3    3  502    0  0.15555113814E+03  0.36926569669E+03 -0.16729781936E+04  0.17202933929E+04  0.10100000352E+00 0.  1.
       -3    1    3    3    0  502 -0.15555113814E+03 -0.36926569669E+03  0.18746577523E+04  0.19170015675E+04  0.10100000352E+00 0. -1.
</event>
<event>
 5   0  0.9418945E-08  0.3688357E+04  0.7818609E-02  0.8070547E-01
        1   -1    0    0  501    0  0.00000000000E+00  0.00000000000E+00  0.20950692751E+04  0.20950692752E+04  0.50400001928E-02 0.  1.
       -1   -1    0    0    0  501  0.00000000000E+00  0.00000000000E+00 -0.16233330343E+04  0.16233330343E+04  0.50400001928E-02 0. -1.
    10030    2    1    2    0    0  0.00000000000E+00  0.00000000000E+00  0.47173624082E+03  0.37184023095E+04  0.36883574467E+04 0.  0.
        5    1    3    3  502    0 -0.57064080995E+03  0.17327556498E+04 -0.36331258735E+02  0.18246684977E+04  0.46999998093E+01 0. -1.
       -5    1    3    3    0  502  0.57064080995E+03 -0.17327556498E+04  0.50806749955E+03  0.18937338118E+04  0.46999998093E+01 0.  1.
</event>
<event>
 5   0  0.3008879E-07  0.3701056E+04  0.7818609E-02  0.8067728E-01
        2   -1    0    0  501    0  0.00000000000E+00  0.00000000000E+00  0.11147283309E+04  0.11147283309E+04  0.25500000920E-02 0.  1.
       -2   -1    0    0    0  501  0.00000000000E+00  0.00000000000E+00 -0.30720068482E+04  0.30720068482E+04  0.25500000920E-02 0. -1.
    10030    2    1    2    0    0  0.00000000000E+00  0.00000000000E+00 -0.19572785173E+04  0.41867351791E+04  0.37010555610E+04 0.  0.
        2    1    3    3  502    0 -0.12882398383E+04 -0.10191339585E+03  0.51975869992E+03  0.13928737658E+04  0.25500000920E-02 0.  1.
       -2    1    3    3    0  502  0.12882398383E+04  0.10191339585E+03 -0.24770372172E+04  0.27938614133E+04  0.25500000920E-02 0. -1.
</event>
<event>
 5   0  0.2897133E-07  0.3753225E+04  0.7818609E-02  0.8056268E-01
       -2   -1    0    0    0  501  0.00000000000E+00  0.00000000000E+00  0.11268685406E+04  0.11268685406E+04  0.25500000920E-02 0. -1.
        2   -1    0    0  501    0  0.00000000000E+00  0.00000000000E+00 -0.31251858252E+04  0.31251858252E+04  0.25500000920E-02 0.  1.
    10030    2    1    2    0    0  0.00000000000E+00  0.00000000000E+00 -0.19983172846E+04  0.42520543659E+04  0.37532245283E+04 0.  0.
        4    1    3    3  502    0  0.20624786578E+03 -0.17509362313E+03 -0.31029751953E+04  0.31147476036E+04  0.12699999809E+01 0.  1.
       -4    1    3    3    0  502 -0.20624786578E+03  0.17509362313E+03  0.11046579106E+04  0.11373067622E+04  0.12699999809E+01 0. -1.
</event>
<event>
 5   0  0.9341000E-08  0.3777822E+04  0.7818609E-02  0.8050931E-01
        1   -1    0    0  501    0  0.00000000000E+00  0.00000000000E+00  0.16202440330E+04  0.16202440330E+04  0.50400001928E-02 0. -1.
       -1   -1    0    0    0  501  0.00000000000E+00  0.00000000000E+00 -0.22021280478E+04  0.22021280478E+04  0.50400001928E-02 0.  1.
    10030    2    1    2    0    0  0.00000000000E+00  0.00000000000E+00 -0.58188401478E+03  0.38223720808E+04  0.37778220335E+04 0.  0.
        3    1    3    3  502    0  0.11845585075E+04  0.62925955112E+03 -0.16366026216E+04  0.21160374740E+04  0.10100000352E+00 0.  1.
       -3    1    3    3    0  502 -0.11845585075E+04 -0.62925955112E+03  0.10547186068E+04  0.17063346067E+04  0.10100000352E+00 0. -1.
</event>
<event>
 5   0  0.3008879E-07  0.3702024E+04  0.7818609E-02  0.8067513E-01
        2   -1    0    0  501    0  0.00000000000E+00  0.00000000000E+00  0.17328555864E+04  0.17328555864E+04  0.25500000920E-02 0. -1.
       -2   -1    0    0    0  501  0.00000000000E+00  0.00000000000E+00 -0.19772251774E+04  0.19772251774E+04  0.25500000920E-02 0.  1.
    10030    2    1    2    0    0  0.00000000000E+00  0.00000000000E+00 -0.24436959102E+03  0.37100807638E+04  0.37020241460E+04 0.  0.
        2    1    3    3  502    0 -0.15941462972E+04 -0.12659697851E+03 -0.10563703221E+04  0.19165718012E+04  0.25500000920E-02 0.  1.
       -2    1    3    3    0  502  0.15941462972E+04  0.12659697851E+03  0.81200073104E+03  0.17935089626E+04  0.25500000920E-02 0. -1.
</event>
<event>
 5   0  0.2897133E-07  0.3697893E+04  0.7818609E-02  0.8068429E-01
       -2   -1    0    0    0  501  0.00000000000E+00  0.00000000000E+00  0.12673727600E+04  0.12673727600E+04  0.25500000920E-02 0. -1.
        2   -1    0    0  501    0  0.00000000000E+00  0.00000000000E+00 -0.26973939519E+04  0.26973939519E+04  0.25500000920E-02 0.  1.
    10030    2    1    2    0    0  0.00000000000E+00  0.00000000000E+00 -0.14300211919E+04  0.39647667119E+04  0.36978932476E+04 0.  0.
        4    1    3    3  502    0 -0.88194079463E+03 -0.11994983220E+03  0.10225631544E+04  0.13556712526E+04  0.12699999809E+01 0. -1.
       -4    1    3    3    0  502  0.88194079463E+03  0.11994983220E+03 -0.24525843463E+04  0.26090954594E+04  0.12699999809E+01 0.  1.
</event>
<event>
 5   0  0.3032442E-07  0.3719588E+04  0.7818609E-02  0.8063635E-01
       -2   -1    0    0    0  501  0.00000000000E+00  0.00000000000E+00  0.17410155255E+04  0.17410155255E+04  0.25500000920E-02 0. -1.
        2   -1    0    0  501    0  0.00000000000E+00  0.00000000000E+00 -0.19866755830E+04  0.19866755830E+04  0.25500000920E-02 0.  1.
    10030    2    1    2    0    0  0.00000000000E+00  0.00000000000E+00 -0.24566005755E+03  0.37276911085E+04  0.37195876299E+04 0.  0.
        3    1    3    3  502    0  0.91882863927E+03  0.16049097445E+04  0.74707654041E+02  0.18508275447E+04  0.10100000352E+00 0. -1.
       -3    1    3    3    0  502 -0.91882863927E+03 -0.16049097445E+04 -0.32036771159E+03  0.18768635638E+04  0.10100000352E+00 0.  1.
</event>
<event>
 5   0  0.9418945E-08  0.3751920E+04  0.7818609E-02  0.8056552E-01
       -1   -1    0    0    0  501  0.00000000000E+00  0.00000000000E+00  0.15018653297E+04  0.15018653297E+04  0.50400001928E-02 0.  1.
        1   -1    0    0  501    0  0.00000000000E+00  0.00000000000E+00 -0.23432370001E+04  0.23432370001E+04  0.50400001928E-02 0. -1.
    10030    2    1    2    0    0  0.00000000000E+00  0.00000000000E+00 -0.84137167034E+03  0.38451023298E+04  0.37519202602E+04 0.  0.
        5    1    3    3  502    0 -0.79561437485E+03  0.11305526753E+04  0.87889843448E+03  0.16381807389E+04  0.46999998093E+01 0.  1.
       -5    1    3    3    0  502  0.79561437485E+03 -0.11305526753E+04 -0.17202701048E+04  0.22069215909E+04  0.46999998093E+01 0. -1.
</event>
<event>
 5   0  0.3008879E-07  0.3635370E+04  0.7818609E-02  0.8082437E-01
        2   -1    0    0  501    0  0.00000000000E+00  0.00000000000E+00  0.20891688859E+04  0.20891688859E+04  0.25500000920E-02 0. -1.
       -2   -1    0    0    0  501  0.00000000000E+00  0.00000000000E+00 -0.15814800173E+04  0.15814800173E+04  0.25500000920E-02 0.  1.
    10030    2    1    2    0    0  0.00000000000E+00  0.00000000000E+00  0.50768886864E+03  0.36706489032E+04  0.36353700476E+04 0.  0.
        2    1    3    3  502    0  0.15890063689E+04  0.74969679873E+03  0.72418929034E+03  0.19003780304E+04  0.25500000920E-02 0. -1.
       -2    1    3    3    0  502 -0.15890063689E+04 -0.74969679873E+03 -0.21650042170E+03  0.17702708728E+04  0.25500000920E-02 0.  1.
</event>
<event>
 5   0  0.9341000E-08  0.3725712E+04  0.7818609E-02  0.8062287E-01
        1   -1    0    0  501    0  0.00000000000E+00  0.00000000000E+00  0.33280216284E+04  0.33280216284E+04  0.50400001928E-02 0.  1.
       -1   -1    0    0    0  501  0.00000000000E+00  0.00000000000E+00 -0.10427316109E+04  0.10427316109E+04  0.50400001928E-02 0. -1.
    10030    2    1    2    0    0  0.00000000000E+00  0.00000000000E+00  0.22852900175E+04  0.43707532393E+04  0.37257124708E+04 0.  0.
        4    1    3    3  502    0  0.15388972284E+04 -0.55700267395E+03  0.21865184970E+04  0.27311758290E+04  0.12699999809E+01 0. -1.
       -4    1    3    3    0  502 -0.15388972284E+04  0.55700267395E+03  0.98771520527E+02  0.16395774103E+04  0.12699999809E+01 0.  1.
</event>
<event>
 5   0  0.3008879E-07  0.3703399E+04  0.7818609E-02  0.8067209E-01
        2   -1    0    0  501    0  0.00000000000E+00  0.00000000000E+00  0.20275207673E+04  0.20275207673E+04  0.25500000920E-02 0.  1.
       -2   -1    0    0    0  501  0.00000000000E+00  0.00000000000E+00 -0.16911252988E+04  0.16911252988E+04  0.25500000920E-02 0. -1.
    10030    2    1    2    0    0  0.00000000000E+00  0.00000000000E+00  0.33639546851E+03  0.37186460662E+04  0.37033993377E+04 0.  0.
        2    1    3    3  502    0  0.21575519418E+03 -0.18216321837E+04  0.42201805830E+03  0.18822840800E+04  0.25500000920E-02 0.  1.
       -2    1    3    3    0  502 -0.21575519418E+03  0.18216321837E+04 -0.85622589788E+02  0.18363619862E+04  0.25500000920E-02 0. -1.
</event>
<event>
 5   0  0.9418945E-08  0.3771259E+04  0.7818609E-02  0.8052351E-01
        1   -1    0    0  501    0  0.00000000000E+00  0.00000000000E+00  0.22567476531E+04  0.22567476531E+04  0.50400001928E-02 0. -1.
       -1   -1    0    0    0  501  0.00000000000E+00  0.00000000000E+00 -0.15755407383E+04  0.15755407383E+04  0.50400001928E-02 0.  1.
    10030    2    1    2    0    0  0.00000000000E+00  0.00000000000E+00  0.68120691474E+03  0.38322883914E+04  0.37712586034E+04 0.  0.
        5    1    3    3  502    0 -0.80153782446E+03  0.84204777458E+03  0.18492392497E+04  0.21843111572E+04  0.46999998093E+01 0. -1.
       -5    1    3    3    0  502  0.80153782446E+03 -0.84204777458E+03 -0.11680323350E+04  0.16479772342E+04  0.46999998093E+01 0.  1.
</event>
<event>
 5   0  0.9418945E-08  0.3686754E+04  0.7818609E-02  0.8070904E-01
        1   -1    0    0  501    0  0.00000000000E+00  0.00000000000E+00  0.18524131325E+04  0.18524131325E+04  0.50400001928E-02 0.  1.
       -1   -1    0    0    0  501  0.00000000000E+00  0.00000000000E+00 -0.18343854174E+04  0.18343854174E+04  0.50400001928E-02 0. -1.
    10030    2    1    2    0    0  0.00000000000E+00  0.00000000000E+00  0.18027715056E+02  0.36867985499E+04  0.36867544737E+04 0.  0.
        5    1    3    3  502    0  0.66386802880E+03  0.13749464491E+04  0.10418955343E+04  0.18484498619E+04  0.46999998093E+01 0.  1.
       -5    1    3    3    0  502 -0.66386802880E+03 -0.13749464491E+04 -0.10238678192E+04  0.18383486880E+04  0.46999998093E+01 0. -1.
</event>
<event>
 5   0  0.9341000E-08  0.3709517E+04  0.7818609E-02  0.8065856E-01
        1   -1    0    0  501    0  0.00000000000E+00  0.00000000000E+00  0.23997710680E+04  0.23997710680E+04  0.50400001928E-02 0.  1.
       -1   -1    0    0    0  501  0.00000000000E+00  0.00000000000E+00 -0.14335241540E+04  0.14335241540E+04  0.50400001928E-02 0. -1.
    10030    2    1    2    0    0  0.00000000000E+00  0.00000000000E+00  0.96624691402E+03  0.38332952221E+04  0.37095173757E+04 0.  0.
        3    1    3    3  502    0 -0.13314533730E+04 -0.12551644449E+04  0.16981717217E+03  0.18376734613E+04  0.10100000352E+00 0.  1.
       -3    1    3    3    0  502  0.13314533730E+04  0.12551644449E+04  0.79642974186E+03  0.19956217608E+04  0.10100000352E+00 0. -1.
</event>
<event>
 5   0  0.9646615E-08  0.3688520E+04  0.7818609E-02  0.8070511E-01
        1   -1    0    0  501    0  0.00000000000E+00  0.00000000000E+00  0.22608118701E+04  0.22608118701E+04  0.50400001928E-02 0.  1.
       -1   -1    0    0    0  501  0.00000000000E+00  0.00000000000E+00 -0.15044575215E+04  0.15044575215E+04  0.50400001928E-02 0. -1.
    10030    2    1    2    0    0  0.00000000000E+00  0.00000000000E+00  0.75635434856E+03  0.37652693917E+04  0.36885202577E+04 0.  0.
        2    1    3    3  502    0 -0.48151084624E+03  0.56801442003E+03 -0.13441773034E+04  0.15366540598E+04  0.25500000920E-02 0. -1.
       -2    1    3    3    0  502  0.48151084624E+03 -0.56801442003E+03  0.21005316520E+04  0.22286153319E+04  0.25500000920E-02 0.  1.
</event>
<event>
 5   0  0.2913025E-07  0.3705415E+04  0.7818609E-02  0.8066763E-01
       -2   -1    0    0    0  501  0.00000000000E+00  0.00000000000E+00  0.31999606092E+04  0.31999606092E+04  0.25500000920E-02 0. -1.
        2   -1    0    0  501    0  0.00000000000E+00  0.00000000000E+00 -0.10726771571E+04  0.10726771572E+04  0.25500000920E-02 0.  1.
    10030    2    1    2    0    0  0.00000000000E+00  0.00000000000E+00  0.21272834520E+04  0.42726377663E+04  0.37054147672E+04 0.  0.
        5    1    3    3  502    0 -0.39144379942E+03  0.83413777025E+03  0.29170133633E+04  0.30590853403E+04  0.46999998093E+01 0. -1.
       -5    1    3    3    0  502  0.39144379942E+03 -0.83413777025E+03 -0.78972991127E+03  0.12135524260E+04  0.46999998093E+01 0.  1.
</event>
<event>
 5   0  0.9341000E-08  0.3706870E+04  0.7818609E-02  0.8066441E-01
       -1   -1    0    0    0  501  0.00000000000E+00  0.00000000000E+00  0.18656290438E+04  0.18656290438E+04  0.50400001928E-02 0.  1.
        1   -1    0    0  501    0  0.00000000000E+00  0.00000000000E+00 -0.18413208600E+04  0.18413208600E+04  0.50400001928E-02 0. -1.
    10030    2    1    2    0    0  0.00000000000E+00  0.00000000000E+00  0.24308183744E+02  0.37069499038E+04  0.37068702030E+04 0.  0.
        4    1    3    3  502    0  0.15270831495E+04  0.76279253327E+03 -0.70993114470E+03  0.18487399053E+04  0.12699999809E+01 0. -1.
       -4    1    3    3    0  502 -0.15270831495E+04 -0.76279253327E+03  0.73423932844E+03  0.18582099985E+04  0.12699999809E+01 0.  1.
</event>
<event>
 5   0  0.9418945E-08  0.3706789E+04  0.7818609E-02  0.8066459E-01
       -1   -1    0    0    0  501  0.00000000000E+00  0.00000000000E+00  0.28936539173E+04  0.28936539173E+04  0.50400001928E-02 0.  1.
        1   -1    0    0  501    0  0.00000000000E+00  0.00000000000E+00 -0.11871051276E+04  0.11871051276E+04  0.50400001928E-02 0. -1.
    10030    2    1    2    0    0  0.00000000000E+00  0.00000000000E+00  0.17065487897E+04  0.40807590450E+04  0.37067891242E+04 0.  0.
        5    1    3    3  502    0  0.93630009411E+01  0.13743766326E+04 -0.51557261688E+03  0.14679359684E+04  0.46999998093E+01 0. -1.
       -5    1    3    3    0  502 -0.93630009411E+01 -0.13743766326E+04  0.22221214066E+04  0.26128230766E+04  0.46999998093E+01 0.  1.
</event>
<event>
 5   0  0.3008879E-07  0.3702554E+04  0.7818609E-02  0.8067396E-01
       -2   -1    0    0    0  501  0.00000000000E+00  0.00000000000E+00  0.18894951353E+04  0.18894951353E+04  0.25500000920E-02 0. -1.
        2   -1    0    0  501    0  0.00000000000E+00  0.00000000000E+00 -0.18138322345E+04  0.18138322345E+04  0.25500000920E-02 0.  1.
    10030    2    1    2    0    0  0.00000000000E+00  0.00000000000E+00  0.75662900763E+02  0.37033273698E+04  0.37025543525E+04 0.  0.
        2    1    3    3  502    0 -0.11513632428E+04  0.98394240385E+03  0.11026885031E+04  0.18734198424E+04  0.25500000920E-02 0. -1.
       -2    1    3    3    0  502  0.11513632428E+04 -0.98394240385E+03 -0.10270256023E+04  0.18299075274E+04  0.25500000920E-02 0.  1.
</event>
<event>
 5   0  0.9646615E-08  0.3800057E+04  0.7818609E-02  0.8046143E-01
        1   -1    0    0  501    0  0.00000000000E+00  0.00000000000E+00  0.27977950371E+04  0.27977950371E+04  0.50400001928E-02 0. -1.
       -1   -1    0    0    0  501  0.00000000000E+00  0.00000000000E+00 -0.12903405451E+04  0.12903405451E+04  0.50400001928E-02 0.  1.
    10030    2    1    2    0    0  0.00000000000E+00  0.00000000000E+00  0.15074544920E+04  0.40881355822E+04  0.38000570381E+04 0.  0.
        2    1    3    3  502    0 -0.49986787720E+03  0.12323373397E+04 -0.70619954587E+03  0.15057360366E+04  0.25500000920E-02 0.  1.
       -2    1    3    3    0  502  0.49986787720E+03 -0.12323373397E+04  0.22136540379E+04  0.25823995456E+04  0.25500000920E-02 0. -1.
</event>
<event>
 5   0  0.2913025E-07  0.3617099E+04  0.7818609E-02  0.8086586E-01
       -2   -1    0    0    0  501  0.00000000000E+00  0.00000000000E+00  0.15529759850E+04  0.15529759850E+04  0.25500000920E-02 0.  1.
        2   -1    0    0  501    0  0.00000000000E+00  0.00000000000E+00 -0.21061829488E+04  0.21061829488E+04  0.25500000920E-02 0. -1.
    10030    2    1    2    0    0  0.00000000000E+00  0.00000000000E+00 -0.55320696385E+03  0.36591589338E+04  0.36170991358E+04 0.  0.
        5    1    3    3  502    0  0.54880046076E+03  0.17192502204E+04 -0.39555555669E+03  0.18475631395E+04  0.46999998093E+01 0.  1.
       -5    1    3    3    0  502 -0.54880046076E+03 -0.17192502204E+04 -0.15765140717E+03  0.18115957944E+04  0.46999998093E+01 0. -1.
</event>
<event>
 5   0  0.9341000E-08  0.3691376E+04  0.7818609E-02  0.8069876E-01
        1   -1    0    0  501    0  0.00000000000E+00  0.00000000000E+00  0.14588919853E+04  0.14588919853E+04  0.50400001928E-02 0. -1.
       -1   -1    0    0    0  501  0.00000000000E+00  0.00000000000E+00 -0.23350352324E+04  0.23350352324E+04  0.50400001928E-02 0.  1.
    10030    2    1    2    0    0  0.00000000000E+00  0.00000000000E+00 -0.87614324712E+03  0.37939272177E+04  0.36913759959E+04 0.  0.
        1    1    3    3  502    0 -0.60053767041E+03  0.57901379681E+03 -0.21302197303E+04  0.22877365604E+04  0.50400001928E-02 0.  1.
       -1    1    3    3    0  502  0.60053767041E+03 -0.57901379681E+03  0.12540764831E+04  0.15061906573E+04  0.50400001928E-02 0. -1.
</event>
<event>
 5   0  0.3032442E-07  0.3680894E+04  0.7818609E-02  0.8072209E-01
       -2   -1    0    0    0  501  0.00000000000E+00  0.00000000000E+00  0.25875503093E+04  0.25875503093E+04  0.25500000920E-02 0.  1.
        2   -1    0    0  501    0  0.00000000000E+00  0.00000000000E+00 -0.13090551376E+04  0.13090551377E+04  0.25500000920E-02 0. -1.
    10030    2    1    2    0    0  0.00000000000E+00  0.00000000000E+00  0.12784951716E+04  0.38966054469E+04  0.36808944708E+04 0.  0.
        3    1    3    3  502    0  0.17509684953E+04 -0.22057838289E+02  0.39599006220E+02  0.17515551122E+04  0.10100000352E+00 0. -1.
       -3    1    3    3    0  502 -0.17509684953E+04  0.22057838289E+02  0.12388961654E+04  0.21450503347E+04  0.10100000352E+00 0.  1.
</event>
<event>
 5   0  0.2913025E-07  0.3694186E+04  0.7818609E-02  0.8069251E-01
       -2   -1    0    0    0  501  0.00000000000E+00  0.00000000000E+00  0.16703762635E+04  0.16703762635E+04  0.25500000920E-02 0.  1.
        2   -1    0    0  501    0  0.00000000000E+00  0.00000000000E+00 -0.20425055503E+04  0.20425055503E+04  0.25500000920E-02 0. -1.
    10030    2    1    2    0    0  0.00000000000E+00  0.00000000000E+00 -0.37212928686E+03  0.37128818138E+04  0.36941861292E+04 0.  0.
        5    1    3    3  502    0  0.66252446043E+03 -0.96442677531E+03  0.12503895442E+04  0.17124700780E+04  0.46999998093E+01 0.  1.
       -5    1    3    3    0  502 -0.66252446043E+03  0.96442677531E+03 -0.16225188311E+04  0.20004117358E+04  0.46999998093E+01 0. -1.
</event>
<event>
 5   0  0.9341000E-08  0.3668209E+04  0.7818609E-02  0.8075044E-01
       -1   -1    0    0    0  501  0.00000000000E+00  0.00000000000E+00  0.16405724559E+04  0.16405724559E+04  0.50400001928E-02 0.  1.
        1   -1    0    0  501    0  0.00000000000E+00  0.00000000000E+00 -0.20504662336E+04  0.20504662336E+04  0.50400001928E-02 0. -1.
    10030    2    1    2    0    0  0.00000000000E+00  0.00000000000E+00 -0.40989377768E+03  0.36910386895E+04  0.36682085135E+04 0.  0.
        1    1    3    3  502    0  0.44641515076E+03  0.53398065074E+03  0.15025282008E+04  0.16559024175E+04  0.50400001928E-02 0.  1.
       -1    1    3    3    0  502 -0.44641515076E+03 -0.53398065074E+03 -0.19124219784E+04  0.20351362720E+04  0.50400001928E-02 0. -1.
</event>
<event>
 5   0  0.3008879E-07  0.3693223E+04  0.7818609E-02  0.8069465E-01
        2   -1    0    0  501    0  0.00000000000E+00  0.00000000000E+00  0.19362682742E+04  0.19362682742E+04  0.25500000920E-02 0. -1.
       -2   -1    0    0    0  501  0.00000000000E+00  0.00000000000E+00 -0.17611063827E+04  0.17611063827E+04  0.25500000920E-02 0.  1.
    10030    2    1    2    0    0  0.00000000000E+00  0.00000000000E+00  0.17516189147E+03  0.36973746568E+04  0.36932232081E+04 0.  0.
        2    1    3    3  502    0 -0.11629091702E+04 -0.12827262439E+04  0.73035410532E+03  0.18791384925E+04  0.25500000920E-02 0. -1.
       -2    1    3    3    0  502  0.11629091702E+04  0.12827262439E+04 -0.55519221385E+03  0.18182361643E+04  0.25500000920E-02 0.  1.
</event>
<event>
 5   0  0.2913025E-07  0.3700919E+04  0.7818609E-02  0.8067758E-01
        2   -1    0    0  501    0  0.00000000000E+00  0.00000000000E+00  0.14932238267E+04  0.14932238267E+04  0.25500000920E-02 0. -1.
       -2   -1    0    0    0  501  0.00000000000E+00  0.00000000000E+00 -0.22931593873E+04  0.22931593873E+04  0.25500000920E-02 0.  1.
    10030    2    1    2    0    0  0.00000000000E+00  0.00000000000E+00 -0.79993556063E+03  0.37863832140E+04  0.37009189321E+04 0.  0.
        5    1    3    3  502    0 -0.15757790180E+04 -0.29204473797E+03 -0.13464300216E+04  0.20931472800E+04  0.46999998093E+01 0.  1.
       -5    1    3    3    0  502  0.15757790180E+04  0.29204473797E+03  0.54649446097E+03  0.16932359341E+04  0.46999998093E+01 0. -1.
</event>
<event>
 5   0  0.9341000E-08  0.3669597E+04  0.7818609E-02  0.8074733E-01
        1   -1    0    0  501    0  0.00000000000E+00  0.00000000000E+00  0.28524332798E+04  0.28524332798E+04  0.50400001928E-02 0. -1.
       -1   -1    0    0    0  501  0.00000000000E+00  0.00000000000E+00 -0.11802155258E+04  0.11802155258E+04  0.50400001928E-02 0.  1.
    10030    2    1    2    0    0  0.00000000000E+00  0.00000000000E+00  0.16722177540E+04  0.40326488056E+04  0.36695972766E+04 0.  0.
        4    1    3    3  502    0 -0.16811535900E+04  0.72638513117E+03  0.95932530771E+03  0.20674185379E+04  0.12699999809E+01 0.  1.
       -4    1    3    3    0  502  0.16811535900E+04 -0.72638513117E+03  0.71289244625E+03  0.19652302676E+04  0.12699999809E+01 0. -1.
</event>
<event>
 5   0  0.2913025E-07  0.3698791E+04  0.7818609E-02  0.8068230E-01
        2   -1    0    0  501    0  0.00000000000E+00  0.00000000000E+00  0.23133527345E+04  0.23133527345E+04  0.25500000920E-02 0. -1.
       -2   -1    0    0    0  501  0.00000000000E+00  0.00000000000E+00 -0.14784874689E+04  0.14784874689E+04  0.25500000920E-02 0.  1.
    10030    2    1    2    0    0  0.00000000000E+00  0.00000000000E+00  0.83486526553E+03  0.37918402034E+04  0.36987906289E+04 0.  0.
        5    1    3    3  502    0  0.18106684577E+04  0.46967515729E+02  0.34519460395E+02  0.18116125122E+04  0.46999998093E+01 0.  1.
       -5    1    3    3    0  502 -0.18106684577E+04 -0.46967515729E+02  0.80034580514E+03  0.19802276912E+04  0.46999998093E+01 0. -1.
</event>
<event>
 5   0  0.9341000E-08  0.3726632E+04  0.7818609E-02  0.8062085E-01
       -1   -1    0    0    0  501  0.00000000000E+00  0.00000000000E+00  0.19144551688E+04  0.19144551688E+04  0.50400001928E-02 0. -1.
        1   -1    0    0  501    0  0.00000000000E+00  0.00000000000E+00 -0.18135430050E+04  0.18135430050E+04  0.50400001928E-02 0.  1.
    10030    2    1    2    0    0  0.00000000000E+00  0.00000000000E+00  0.10091216376E+03  0.37279981738E+04  0.37266321416E+04 0.  0.
        4    1    3    3  502    0 -0.11360216134E+04  0.14658723245E+04 -0.13021573816E+03  0.18591085308E+04  0.12699999809E+01 0. -1.
       -4    1    3    3    0  502  0.11360216134E+04 -0.14658723245E+04  0.23112790192E+03  0.18688896430E+04  0.12699999809E+01 0.  1.
</event>
<event>
 5   0  0.9418945E-08  0.3697154E+04  0.7818609E-02  0.8068593E-01
        1   -1    0    0  501    0  0.00000000000E+00  0.00000000000E+00  0.20116986846E+04  0.20116986846E+04  0.50400001928E-02 0. -1.
       -1   -1    0    0    0  501  0.00000000000E+00  0.00000000000E+00 -0.16986823670E+04  0.16986823670E+04  0.50400001928E-02 0.  1.
    10030    2    1    2    0    0  0.00000000000E+00  0.00000000000E+00  0.31301631763E+03  0.37103810516E+04  0.36971540856E+04 0.  0.
        5    1    3    3  502    0  0.59566527390E+03  0.15744775774E+04  0.92305899406E+03  0.19198585252E+04  0.46999998093E+01 0.  1.
       -5    1    3    3    0  502 -0.59566527390E+03 -0.15744775774E+04 -0.61004267643E+03  0.17905225264E+04  0.46999998093E+01 0. -1.
</event>
<event>
 5   0  0.9418945E-08  0.3706546E+04  0.7818609E-02  0.8066513E-01
        1   -1    0    0  501    0  0.00000000000E+00  0.00000000000E+00  0.20151257559E+04  0.20151257559E+04  0.50400001928E-02 0.  1.
       -1   -1    0    0    0  501  0.00000000000E+00  0.00000000000E+00 -0.17044197848E+04  0.17044197848E+04  0.50400001928E-02 0. -1.
    10030    2    1    2    0    0  0.00000000000E+00  0.00000000000E+00  0.31070597108E+03  0.37195455407E+04  0.37065456734E+04 0.  0.
        5    1    3    3  502    0  0.16151947227E+04 -0.74878807285E+03  0.67199898314E+03  0.19029299235E+04  0.46999998093E+01 0.  1.
       -5    1    3    3    0  502 -0.16151947227E+04  0.74878807285E+03 -0.36129301205E+03  0.18166156173E+04  0.46999998093E+01 0. -1.
</event>
<event>
 5   0  0.3032442E-07  0.3701613E+04  0.7818609E-02  0.8067604E-01
        2   -1    0    0  501    0  0.00000000000E+00  0.00000000000E+00  0.24298264178E+04  0.24298264178E+04  0.25500000920E-02 0. -1.
       -2   -1    0    0    0  501  0.00000000000E+00  0.00000000000E+00 -0.14097651337E+04  0.14097651337E+04  0.25500000920E-02 0.  1.
    10030    2    1    2    0    0  0.00000000000E+00  0.00000000000E+00  0.10200612842E+04  0.38395915515E+04  0.37016129267E+04 0.  0.
        3    1    3    3  502    0  0.46068518906E+03 -0.12859897960E+04 -0.78531145486E+03  0.15756632541E+04  0.10100000352E+00 0.  1.
       -3    1    3    3    0  502 -0.46068518906E+03  0.12859897960E+04  0.18053727390E+04  0.22639282974E+04  0.10100000352E+00 0. -1.
</event>
<event>
 5   0  0.9418945E-08  0.3730029E+04  0.7818609E-02  0.8061339E-01
       -1   -1    0    0    0  501  0.00000000000E+00  0.00000000000E+00  0.20143710480E+04  0.20143710480E+04  0.50400001928E-02 0.  1.
        1   -1    0    0  501    0  0.00000000000E+00  0.00000000000E+00 -0.17267320820E+04  0.17267320820E+04  0.50400001928E-02 0. -1.
    10030    2    1    2    0    0  0.00000000000E+00  0.00000000000E+00  0.28763896600E+03  0.37411031300E+04  0.37300290152E+04 0.  0.
        5    1    3    3  502    0 -0.16830488804E+03 -0.10289125254E+04  0.16947835385E+04  0.19897991991E+04  0.46999998093E+01 0.  1.
       -5    1    3    3    0  502  0.16830488804E+03  0.10289125254E+04 -0.14071445725E+04  0.17513039309E+04  0.46999998093E+01 0. -1.
</event>
<event>
 5   0  0.9418945E-08  0.3693186E+04  0.7818609E-02  0.8069474E-01
       -1   -1    0    0    0  501  0.00000000000E+00  0.00000000000E+00  0.16129029532E+04  0.16129029532E+04  0.50400001928E-02 0. -1.
        1   -1    0    0  501    0  0.00000000000E+00  0.00000000000E+00 -0.21141422318E+04  0.21141422318E+04  0.50400001928E-02 0.  1.
    10030    2    1    2    0    0  0.00000000000E+00  0.00000000000E+00 -0.50123927864E+03  0.37270451850E+04  0.36931862932E+04 0.  0.
        5    1    3    3  502    0  0.48506828050E+03 -0.17805661367E+04 -0.18539619144E+03  0.18547508840E+04  0.46999998093E+01 0.  1.
       -5    1    3    3    0  502 -0.48506828050E+03  0.17805661367E+04 -0.31584308719E+03  0.18722943010E+04  0.46999998093E+01 0. -1.
</event>
<event>
 5   0  0.3032442E-07  0.3673403E+04  0.7818609E-02  0.8073882E-01
       -2   -1    0    0    0  501  0.00000000000E+00  0.00000000000E+00  0.13967936768E+04  0.13967936768E+04  0.25500000920E-02 0. -1.
        2   -1    0    0  501    0  0.00000000000E+00  0.00000000000E+00 -0.24151544820E+04  0.24151544820E+04  0.25500000920E-02 0.  1.
    10030    2    1    2    0    0  0.00000000000E+00  0.00000000000E+00 -0.10183608053E+04  0.38119481588E+04  0.36734030593E+04 0.  0.
        3    1    3    3  502    0 -0.76100290546E+03  0.57439212432E+03  0.11198749158E+04  0.14707724406E+04  0.10100000352E+00 0. -1.
       -3    1    3    3    0  502  0.76100290546E+03 -0.57439212432E+03 -0.21382357211E+04  0.23411757183E+04  0.10100000352E+00 0.  1.
</event>
<event>
 5   0  0.2996969E-07  0.3643646E+04  0.7818609E-02  0.8080567E-01
       -2   -1    0    0    0  501  0.00000000000E+00  0.00000000000E+00  0.29508220678E+04  0.29508220678E+04  0.25500000920E-02 0.  1.
        2   -1    0    0  501    0  0.00000000000E+00  0.00000000000E+00 -0.11247846748E+04  0.11247846748E+04  0.25500000920E-02 0. -1.
    10030    2    1    2    0    0  0.00000000000E+00  0.00000000000E+00  0.18260373930E+04  0.40756067426E+04  0.36436462177E+04 0.  0.
        1    1    3    3  502    0  0.40937359902E+03 -0.61324169678E+03 -0.95043184096E+03  0.12029018275E+04  0.50400001928E-02 0. -1.
       -1    1    3    3    0  502 -0.40937359902E+03  0.61324169678E+03  0.27764692339E+04  0.28727049151E+04  0.50400001928E-02 0.  1.
</event>
<event>
 5   0  0.2897133E-07  0.3666273E+04  0.7818609E-02  0.8075478E-01
       -2   -1    0    0    0  501  0.00000000000E+00  0.00000000000E+00  0.16796365151E+04  0.16796365151E+04  0.25500000920E-02 0.  1.
        2   -1    0    0  501    0  0.00000000000E+00  0.00000000000E+00 -0.20006642375E+04  0.20006642375E+04  0.25500000920E-02 0. -1.
    10030    2    1    2    0    0  0.00000000000E+00  0.00000000000E+00 -0.32102772238E+03  0.36803007525E+04  0.36662726072E+04 0.  0.
        4    1    3    3  502    0 -0.52718817469E+03 -0.17418263098E+04 -0.38158555631E+03  0.18594341652E+04  0.12699999809E+01 0. -1.
       -4    1    3    3    0  502  0.52718817469E+03  0.17418263098E+04  0.60557833937E+02  0.18208665874E+04  0.12699999809E+01 0.  1.
</event>
<event>
 5   0  0.9646615E-08  0.3791384E+04  0.7818609E-02  0.8048006E-01
        1   -1    0    0  501    0  0.00000000000E+00  0.00000000000E+00  0.19670168966E+04  0.19670168966E+04  0.50400001928E-02 0. -1.
       -1   -1    0    0    0  501  0.00000000000E+00  0.00000000000E+00 -0.18269529759E+04  0.18269529759E+04  0.50400001928E-02 0.  1.
    10030    2    1    2    0    0  0.00000000000E+00  0.00000000000E+00  0.14006392075E+03  0.37939698725E+04  0.37913835853E+04 0.  0.
        2    1    3    3  502    0 -0.82464512038E+03 -0.97302886159E+02  0.17753481798E+04  0.19599409648E+04  0.25500000920E-02 0. -1.
       -2    1    3    3    0  502  0.82464512038E+03  0.97302886159E+02 -0.16352842590E+04  0.18340289076E+04  0.25500000920E-02 0.  1.
</event>
<event>
 5   0  0.2913025E-07  0.3717871E+04  0.7818609E-02  0.8064013E-01
        2   -1    0    0  501    0  0.00000000000E+00  0.00000000000E+00  0.34398501578E+04  0.34398501578E+04  0.25500000920E-02 0. -1.
       -2   -1    0    0    0  501  0.00000000000E+00  0.00000000000E+00 -0.10045907430E+04  0.10045907430E+04  0.25500000920E-02 0.  1.
    10030    2    1    2    0    0  0.00000000000E+00  0.00000000000E+00  0.24352594148E+04  0.44444409008E+04  0.37178712327E+04 0.  0.
        5    1    3    3  502    0  0.10541944288E+04  0.90365812538E+03 -0.25991697252E+03  0.14126226757E+04  0.46999998093E+01 0.  1.
       -5    1    3    3    0  502 -0.10541944288E+04 -0.90365812538E+03  0.26951763873E+04  0.30318182251E+04  0.46999998093E+01 0. -1.
</event>
<event>
 5   0  0.9341000E-08  0.3280883E+04  0.7818609E-02  0.8167777E-01
        1   -1    0    0  501    0  0.00000000000E+00  0.00000000000E+00  0.19864982055E+04  0.19864982055E+04  0.50400001928E-02 0.  1.
       -1   -1    0    0    0  501  0.00000000000E+00  0.00000000000E+00 -0.13546696222E+04  0.13546696222E+04  0.50400001928E-02 0. -1.
    10030    2    1    2    0    0  0.00000000000E+00  0.00000000000E+00  0.63182858330E+03  0.33411678278E+04  0.32808832796E+04 0.  0.
        4    1    3    3  502    0 -0.12200542979E+04 -0.10129258033E+04 -0.11191934831E+03  0.15896788123E+04  0.12699999809E+01 0. -1.
       -4    1    3    3    0  502  0.12200542979E+04  0.10129258033E+04  0.74374793161E+03  0.17514890155E+04  0.12699999809E+01 0.  1.
</event>
<event>
 5   0  0.2996969E-07  0.3544623E+04  0.7818609E-02  0.8103296E-01
       -2   -1    0    0    0  501  0.00000000000E+00  0.00000000000E+00  0.18582357578E+04  0.18582357578E+04  0.25500000920E-02 0.  1.
        2   -1    0    0  501    0  0.00000000000E+00  0.00000000000E+00 -0.16903599866E+04  0.16903599866E+04  0.25500000920E-02 0. -1.
    10030    2    1    2    0    0  0.00000000000E+00  0.00000000000E+00  0.16787577126E+03  0.35485957444E+04  0.35446226150E+04 0.  0.
        1    1    3    3  502    0 -0.42695227906E+03 -0.97831706681E+03 -0.13324606142E+04  0.17072913695E+04  0.50400001928E-02 0. -1.
       -1    1    3    3    0  502  0.42695227906E+03  0.97831706681E+03  0.15003363854E+04  0.18413043750E+04  0.50400001928E-02 0.  1.
</event>
<event>
 5   0  0.2913025E-07  0.3698713E+04  0.7818609E-02  0.8068247E-01
       -2   -1    0    0    0  501  0.00000000000E+00  0.00000000000E+00  0.15977223647E+04  0.15977223647E+04  0.25500000920E-02 0. -1.
        2   -1    0    0  501    0  0.00000000000E+00  0.00000000000E+00 -0.21406215371E+04  0.21406215371E+04  0.25500000920E-02 0.  1.
    10030    2    1    2    0    0  0.00000000000E+00  0.00000000000E+00 -0.54289917236E+03  0.37383439018E+04  0.36987126972E+04 0.  0.
        5    1    3    3  502    0 -0.17257941452E+03  0.17471138551E+04 -0.85897522192E+03  0.19544950752E+04  0.46999998093E+01 0.  1.
       -5    1    3    3    0  502  0.17257941452E+03 -0.17471138551E+04  0.31607604956E+03  0.17838488266E+04  0.46999998093E+01 0. -1.
</event>
<event>
 5   0  0.3008879E-07  0.3787690E+04  0.7818609E-02  0.8048802E-01
        2   -1    0    0  501    0  0.00000000000E+00  0.00000000000E+00  0.22753171795E+04  0.22753171795E+04  0.25500000920E-02 0. -1.
       -2   -1    0    0    0  501  0.00000000000E+00  0.00000000000E+00 -0.15763294229E+04  0.15763294229E+04  0.25500000920E-02 0.  1.
    10030    2    1    2    0    0  0.00000000000E+00  0.00000000000E+00  0.69898775661E+03  0.38516466024E+04  0.37876902811E+04 0.  0.
        2    1    3    3  502    0  0.95658651090E+03  0.73471786185E+03  0.18342095751E+04  0.21952660100E+04  0.25500000920E-02 0. -1.
       -2    1    3    3    0  502 -0.95658651090E+03 -0.73471786185E+03 -0.11352218185E+04  0.16563805923E+04  0.25500000920E-02 0.  1.
</event>
<event>
 5   0  0.9341000E-08  0.3730216E+04  0.7818609E-02  0.8061298E-01
       -1   -1    0    0    0  501  0.00000000000E+00  0.00000000000E+00  0.30581620280E+04  0.30581620280E+04  0.50400001928E-02 0. -1.
        1   -1    0    0  501    0  0.00000000000E+00  0.00000000000E+00 -0.11374899978E+04  0.11374899978E+04  0.50400001928E-02 0.  1.
    10030    2    1    2    0    0  0.00000000000E+00  0.00000000000E+00  0.19206720302E+04  0.41956520258E+04  0.37302164648E+04 0.  0.
        1    1    3    3  502    0 -0.10065381626E+03 -0.16540329841E+03 -0.11261551621E+04  0.11426788223E+04  0.50400001928E-02 0.  1.
       -1    1    3    3    0  502  0.10065381626E+03  0.16540329841E+03  0.30468271922E+04  0.30529732035E+04  0.50400001928E-02 0. -1.
</event>
<event>
 5   0  0.9341000E-08  0.3695871E+04  0.7818609E-02  0.8068877E-01
       -1   -1    0    0    0  501  0.00000000000E+00  0.00000000000E+00  0.13564761495E+04  0.13564761495E+04  0.50400001928E-02 0. -1.
        1   -1    0    0  501    0  0.00000000000E+00  0.00000000000E+00 -0.25174537500E+04  0.25174537500E+04  0.50400001928E-02 0.  1.
    10030    2    1    2    0    0  0.00000000000E+00  0.00000000000E+00 -0.11609776006E+04  0.38739298995E+04  0.36958711933E+04 0.  0.
        4    1    3    3  502    0  0.18219152492E+04  0.30888568657E+03 -0.57118337623E+03  0.19341762083E+04  0.12699999809E+01 0.  1.
       -4    1    3    3    0  502 -0.18219152492E+04 -0.30888568657E+03 -0.58979422435E+03  0.19397536912E+04  0.12699999809E+01 0. -1.
</event>
<event>
 5   0  0.3008879E-07  0.3723420E+04  0.7818609E-02  0.8062791E-01
       -2   -1    0    0    0  501  0.00000000000E+00  0.00000000000E+00  0.15883829386E+04  0.15883829386E+04  0.25500000920E-02 0. -1.
        2   -1    0    0  501    0  0.00000000000E+00  0.00000000000E+00 -0.21820714006E+04  0.21820714006E+04  0.25500000920E-02 0.  1.
    10030    2    1    2    0    0  0.00000000000E+00  0.00000000000E+00 -0.59368846201E+03  0.37704543392E+04  0.37234204616E+04 0.  0.
        2    1    3    3  502    0 -0.29121633001E+03  0.50808764278E+03 -0.20863699446E+04  0.21670024341E+04  0.25500000920E-02 0.  1.
       -2    1    3    3    0  502  0.29121633001E+03 -0.50808764278E+03  0.14926814826E+04  0.16034519051E+04  0.25500000920E-02 0. -1.
</event>
<event>
 5   0  0.2913025E-07  0.3864956E+04  0.7818609E-02  0.8032357E-01
       -2   -1    0    0    0  501  0.00000000000E+00  0.00000000000E+00  0.18317642966E+04  0.18317642966E+04  0.25500000920E-02 0.  1.
        2   -1    0    0  501    0  0.00000000000E+00  0.00000000000E+00 -0.20387288144E+04  0.20387288144E+04  0.25500000920E-02 0. -1.
    10030    2    1    2    0    0  0.00000000000E+00  0.00000000000E+00 -0.20696451786E+03  0.38704931110E+04  0.38649557061E+04 0.  0.
        5    1    3    3  502    0 -0.76200881807E+03 -0.18874763719E+02 -0.18818178087E+04  0.20303384079E+04  0.46999998093E+01 0. -1.
       -5    1    3    3    0  502  0.76200881807E+03  0.18874763719E+02  0.16748532908E+04  0.18401547031E+04  0.46999998093E+01 0.  1.
</event>
<event>
 5   0  0.9341000E-08  0.3716830E+04  0.7818609E-02  0.8064242E-01
       -1   -1    0    0    0  501  0.00000000000E+00  0.00000000000E+00  0.27762459587E+04  0.27762459587E+04  0.50400001928E-02 0.  1.
        1   -1    0    0  501    0  0.00000000000E+00  0.00000000000E+00 -0.12440205661E+04  0.12440205661E+04  0.50400001928E-02 0. -1.
    10030    2    1    2    0    0  0.00000000000E+00  0.00000000000E+00  0.15322253926E+04  0.40202665248E+04  0.37168304073E+04 0.  0.
        1    1    3    3  502    0  0.10679538347E+04 -0.43729901283E+03 -0.80950119588E+03  0.14096269030E+04  0.50400001928E-02 0. -1.
       -1    1    3    3    0  502 -0.10679538347E+04  0.43729901283E+03  0.23417265885E+04  0.26106396218E+04  0.50400001928E-02 0.  1.
</event>
<event>
 5   0  0.9646615E-08  0.3642703E+04  0.7818609E-02  0.8080779E-01
        1   -1    0    0  501    0  0.00000000000E+00  0.00000000000E+00  0.99378717974E+03  0.99378717975E+03  0.50400001928E-02 0.  1.
       -1   -1    0    0    0  501  0.00000000000E+00  0.00000000000E+00 -0.33380609623E+04  0.33380609623E+04  0.50400001928E-02 0. -1.
    10030    2    1    2    0    0  0.00000000000E+00  0.00000000000E+00 -0.23442737825E+04  0.43318481420E+04  0.36427034958E+04 0.  0.
        2    1    3    3  502    0 -0.85720702155E+03 -0.14548869014E+04 -0.36050408543E+03  0.17266913358E+04  0.25500000920E-02 0.  1.
       -2    1    3    3    0  502  0.85720702155E+03  0.14548869014E+04 -0.19837696971E+04  0.26051568062E+04  0.25500000920E-02 0. -1.
</event>
<event>
 5   0  0.2897133E-07  0.3678223E+04  0.7818609E-02  0.8072805E-01
        2   -1    0    0  501    0  0.00000000000E+00  0.00000000000E+00  0.14802723653E+04  0.14802723653E+04  0.25500000920E-02 0.  1.
       -2   -1    0    0    0  501  0.00000000000E+00  0.00000000000E+00 -0.22849389199E+04  0.22849389199E+04  0.25500000920E-02 0. -1.
    10030    2    1    2    0    0  0.00000000000E+00  0.00000000000E+00 -0.80466655463E+03  0.37652112852E+04  0.36782234513E+04 0.  0.
        4    1    3    3  502    0  0.14870517757E+04  0.56147729368E+03 -0.13492784769E+04  0.20849781188E+04  0.12699999809E+01 0.  1.
       -4    1    3    3    0  502 -0.14870517757E+04 -0.56147729368E+03  0.54461192222E+03  0.16802331664E+04  0.12699999809E+01 0. -1.
</event>
<event>
 5   0  0.2897133E-07  0.3839153E+04  0.7818609E-02  0.8037805E-01
        2   -1    0    0  501    0  0.00000000000E+00  0.00000000000E+00  0.20050498962E+04  0.20050498962E+04  0.25500000920E-02 0.  1.
       -2   -1    0    0    0  501  0.00000000000E+00  0.00000000000E+00 -0.18377468673E+04  0.18377468673E+04  0.25500000920E-02 0. -1.
    10030    2    1    2    0    0  0.00000000000E+00  0.00000000000E+00  0.16730302897E+03  0.38427967635E+04  0.38391531178E+04 0.  0.
        4    1    3    3  502    0  0.17964987499E+04  0.64004755691E+03 -0.13496804397E+03  0.19118803883E+04  0.12699999809E+01 0.  1.
       -4    1    3    3    0  502 -0.17964987499E+04 -0.64004755691E+03  0.30227107294E+03  0.19309163752E+04  0.12699999809E+01 0. -1.
</event>
<event>
 5   0  0.2897133E-07  0.3662580E+04  0.7818609E-02  0.8076306E-01
       -2   -1    0    0    0  501  0.00000000000E+00  0.00000000000E+00  0.15497471628E+04  0.15497471628E+04  0.25500000920E-02 0. -1.
        2   -1    0    0  501    0  0.00000000000E+00  0.00000000000E+00 -0.21639806915E+04  0.21639806915E+04  0.25500000920E-02 0.  1.
    10030    2    1    2    0    0  0.00000000000E+00  0.00000000000E+00 -0.61423352869E+03  0.37137278543E+04  0.36625799306E+04 0.  0.
        4    1    3    3  502    0 -0.44810821730E+03  0.32573014583E+03 -0.20769781387E+04  0.21495908689E+04  0.12699999809E+01 0.  1.
       -4    1    3    3    0  502  0.44810821730E+03 -0.32573014583E+03  0.14627446100E+04  0.15641369854E+04  0.12699999809E+01 0. -1.
</event>
<event>
 5   0  0.3032442E-07  0.3679165E+04  0.7818609E-02  0.8072595E-01
        2   -1    0    0  501    0  0.00000000000E+00  0.00000000000E+00  0.21394071022E+04  0.21394071022E+04  0.25500000920E-02 0.  1.
       -2   -1    0    0    0  501  0.00000000000E+00  0.00000000000E+00 -0.15817768181E+04  0.15817768181E+04  0.25500000920E-02 0. -1.
    10030    2    1    2    0    0  0.00000000000E+00  0.00000000000E+00  0.55763028412E+03  0.37211839203E+04  0.36791654264E+04 0.  0.
        3    1    3    3  502    0 -0.10665034500E+04 -0.14291709512E+04 -0.17812466619E+03  0.17921181947E+04  0.10100000352E+00 0. -1.
       -3    1    3    3    0  502  0.10665034500E+04  0.14291709512E+04  0.73575495031E+03  0.19290657256E+04  0.10100000352E+00 0.  1.
</event>
<event>
 5   0  0.9646615E-08  0.3681190E+04  0.7818609E-02  0.8072143E-01
       -1   -1    0    0    0  501  0.00000000000E+00  0.00000000000E+00  0.23320651278E+04  0.23320651278E+04  0.50400001928E-02 0. -1.
        1   -1    0    0  501    0  0.00000000000E+00  0.00000000000E+00 -0.14526995188E+04  0.14526995188E+04  0.50400001928E-02 0.  1.
    10030    2    1    2    0    0  0.00000000000E+00  0.00000000000E+00  0.87936560905E+03  0.37847646466E+04  0.36811899647E+04 0.  0.
        2    1    3    3  502    0 -0.10544501791E+04  0.14926937184E+04  0.21492232769E+03  0.18401606789E+04  0.25500000920E-02 0. -1.
       -2    1    3    3    0  502  0.10544501791E+04 -0.14926937184E+04  0.66444328136E+03  0.19446039677E+04  0.25500000920E-02 0.  1.
</event>
<event>
 5   0  0.9341000E-08  0.3695368E+04  0.7818609E-02  0.8068989E-01
       -1   -1    0    0    0  501  0.00000000000E+00  0.00000000000E+00  0.15037755982E+04  0.15037755982E+04  0.50400001928E-02 0. -1.
        1   -1    0    0  501    0  0.00000000000E+00  0.00000000000E+00 -0.22702425769E+04  0.22702425770E+04  0.50400001928E-02 0.  1.
    10030    2    1    2    0    0  0.00000000000E+00  0.00000000000E+00 -0.76646697875E+03  0.37740181752E+04  0.36953675808E+04 0.  0.
        1    1    3    3  502    0 -0.42307776922E+03  0.15361517167E+04 -0.13386542222E+04  0.20810458962E+04  0.50400001928E-02 0.  1.
       -1    1    3    3    0  502  0.42307776922E+03 -0.15361517167E+04  0.57218724349E+03  0.16929722789E+04  0.50400001928E-02 0. -1.
</event>
<event>
 5   0  0.9341000E-08  0.3711726E+04  0.7818609E-02  0.8065368E-01
       -3   -1    0    0    0  501  0.00000000000E+00  0.00000000000E+00  0.23459310001E+04  0.23459310023E+04  0.10100000352E+00 0. -1.
        3   -1    0    0  501    0  0.00000000000E+00  0.00000000000E+00 -0.14681709467E+04  0.14681709502E+04  0.10100000352E+00 0.  1.
    10030    2    1    2    0    0  0.00000000000E+00  0.00000000000E+00  0.87776005340E+03  0.38141019525E+04  0.37117261473E+04 0.  0.
        1    1    3    3  502    0 -0.14898846649E+03  0.12737565088E+04  0.18173626366E+04  0.22242886863E+04  0.50400001928E-02 0. -1.
       -1    1    3    3    0  502  0.14898846649E+03 -0.12737565088E+04 -0.93960258321E+03  0.15898132662E+04  0.50400001928E-02 0.  1.
</event>
<event>
 5   0  0.2996969E-07  0.3697453E+04  0.7818609E-02  0.8068527E-01
       -2   -1    0    0    0  501  0.00000000000E+00  0.00000000000E+00  0.18369439976E+04  0.18369439976E+04  0.25500000920E-02 0.  1.
        2   -1    0    0  501    0  0.00000000000E+00  0.00000000000E+00 -0.18605844818E+04  0.18605844818E+04  0.25500000920E-02 0. -1.
    10030    2    1    2    0    0  0.00000000000E+00  0.00000000000E+00 -0.23640484238E+02  0.36975284794E+04  0.36974529049E+04 0.  0.
        1    1    3    3  502    0 -0.74644215400E+03  0.11914045600E+03 -0.16989881410E+04  0.18595513009E+04  0.50400001928E-02 0. -1.
       -1    1    3    3    0  502  0.74644215400E+03 -0.11914045600E+03  0.16753476568E+04  0.18379771785E+04  0.50400001928E-02 0.  1.
</event>
<event>
 5   0  0.2913025E-07  0.3676949E+04  0.7818609E-02  0.8073090E-01
        2   -1    0    0  501    0  0.00000000000E+00  0.00000000000E+00  0.14557371366E+04  0.14557371366E+04  0.25500000920E-02 0.  1.
       -2   -1    0    0    0  501  0.00000000000E+00  0.00000000000E+00 -0.23218393386E+04  0.23218393386E+04  0.25500000920E-02 0. -1.
    10030    2    1    2    0    0  0.00000000000E+00  0.00000000000E+00 -0.86610220201E+03  0.37775764752E+04  0.36769485993E+04 0.  0.
        5    1    3    3  502    0  0.64884631325E+03 -0.16958219514E+04 -0.72930367863E+03  0.19567114184E+04  0.46999998093E+01 0.  1.
       -5    1    3    3    0  502 -0.64884631325E+03  0.16958219514E+04 -0.13679852337E+03  0.18208650568E+04  0.46999998093E+01 0. -1.
</event>
<event>
 5   0  0.2897133E-07  0.3713726E+04  0.7818609E-02  0.8064927E-01
        2   -1    0    0  501    0  0.00000000000E+00  0.00000000000E+00  0.21972924904E+04  0.21972924904E+04  0.25500000920E-02 0. -1.
       -2   -1    0    0    0  501  0.00000000000E+00  0.00000000000E+00 -0.15691768194E+04  0.15691768194E+04  0.25500000920E-02 0.  1.
    10030    2    1    2    0    0  0.00000000000E+00  0.00000000000E+00  0.62811567100E+03  0.37664693099E+04  0.37137261296E+04 0.  0.
        4    1    3    3  502    0  0.36780688881E+03  0.15303653882E+04  0.13132599883E+04  0.20498667125E+04  0.12699999809E+01 0. -1.
       -4    1    3    3    0  502 -0.36780688881E+03 -0.15303653882E+04 -0.68514431734E+03  0.17166025974E+04  0.12699999809E+01 0.  1.
</event>
<event>
 5   0  0.9341000E-08  0.3858292E+04  0.7818609E-02  0.8033760E-01
        3   -1    0    0  501    0  0.00000000000E+00  0.00000000000E+00  0.23193560924E+04  0.23193560946E+04  0.10100000352E+00 0. -1.
       -3   -1    0    0    0  501  0.00000000000E+00  0.00000000000E+00 -0.16045853425E+04  0.16045853457E+04  0.10100000352E+00 0.  1.
    10030    2    1    2    0    0  0.00000000000E+00  0.00000000000E+00  0.71477074993E+03  0.39239414403E+04  0.38582922649E+04 0.  0.
        4    1    3    3  502    0 -0.49262491477E+03 -0.12395067259E+04  0.17748530317E+04  0.22201714185E+04  0.12699999809E+01 0. -1.
       -4    1    3    3    0  502  0.49262491477E+03  0.12395067259E+04 -0.10600822818E+04  0.17037700218E+04  0.12699999809E+01 0.  1.
</event>
<event>
 5   0  0.9341000E-08  0.3697105E+04  0.7818609E-02  0.8068604E-01
        1   -1    0    0  501    0  0.00000000000E+00  0.00000000000E+00  0.20259766035E+04  0.20259766035E+04  0.50400001928E-02 0. -1.
       -1   -1    0    0    0  501  0.00000000000E+00  0.00000000000E+00 -0.16866666156E+04  0.16866666156E+04  0.50400001928E-02 0.  1.
    10030    2    1    2    0    0  0.00000000000E+00  0.00000000000E+00  0.33930998782E+03  0.37126432191E+04  0.36971054089E+04 0.  0.
        3    1    3    3  502    0 -0.10175714371E+04 -0.60628117149E+03 -0.12555059211E+04  0.17260717298E+04  0.10100000352E+00 0.  1.
       -3    1    3    3    0  502  0.10175714371E+04  0.60628117149E+03  0.15948159089E+04  0.19865714893E+04  0.10100000352E+00 0. -1.
</event>
<event>
 5   0  0.9646615E-08  0.3750815E+04  0.7818609E-02  0.8056793E-01
       -1   -1    0    0    0  501  0.00000000000E+00  0.00000000000E+00  0.16116012494E+04  0.16116012494E+04  0.50400001928E-02 0. -1.
        1   -1    0    0  501    0  0.00000000000E+00  0.00000000000E+00 -0.21823967642E+04  0.21823967642E+04  0.50400001928E-02 0.  1.
    10030    2    1    2    0    0  0.00000000000E+00  0.00000000000E+00 -0.57079551478E+03  0.37939980135E+04  0.37508150324E+04 0.  0.
        2    1    3    3  502    0 -0.12057272489E+04  0.32040366566E+03 -0.17017747679E+04  0.21100886399E+04  0.25500000920E-02 0.  1.
       -2    1    3    3    0  502  0.12057272489E+04 -0.32040366566E+03  0.11309792531E+04  0.16839093736E+04  0.25500000920E-02 0. -1.
</event>
<event>
 5   0  0.9646615E-08  0.3682821E+04  0.7818609E-02  0.8071780E-01
       -1   -1    0    0    0  501  0.00000000000E+00  0.00000000000E+00  0.19711979568E+04  0.19711979568E+04  0.50400001928E-02 0. -1.
        1   -1    0    0  501    0  0.00000000000E+00  0.00000000000E+00 -0.17201683177E+04  0.17201683177E+04  0.50400001928E-02 0.  1.
    10030    2    1    2    0    0  0.00000000000E+00  0.00000000000E+00  0.25102963911E+03  0.36913662745E+04  0.36828208065E+04 0.  0.
        2    1    3    3  502    0  0.83817610254E+03  0.16317800422E+04 -0.34690306063E+02  0.18347884625E+04  0.25500000920E-02 0.  1.
       -2    1    3    3    0  502 -0.83817610254E+03 -0.16317800422E+04  0.28571994518E+03  0.18565778120E+04  0.25500000920E-02 0. -1.
</event>
<event>
 5   0  0.9418945E-08  0.3726552E+04  0.7818609E-02  0.8062103E-01
        1   -1    0    0  501    0  0.00000000000E+00  0.00000000000E+00  0.12817262228E+04  0.12817262229E+04  0.50400001928E-02 0.  1.
       -1   -1    0    0    0  501  0.00000000000E+00  0.00000000000E+00 -0.27086885375E+04  0.27086885375E+04  0.50400001928E-02 0. -1.
    10030    2    1    2    0    0  0.00000000000E+00  0.00000000000E+00 -0.14269623147E+04  0.39904147604E+04  0.37265518261E+04 0.  0.
        5    1    3    3  502    0 -0.12354840609E+04  0.10621344185E+04  0.25453276118E+03  0.16490480297E+04  0.46999998093E+01 0.  1.
       -5    1    3    3    0  502  0.12354840609E+04 -0.10621344185E+04 -0.16814950759E+04  0.23413667307E+04  0.46999998093E+01 0. -1.
</event>
<event>
 5   0  0.2996969E-07  0.3738688E+04  0.7818609E-02  0.8059442E-01
       -2   -1    0    0    0  501  0.00000000000E+00  0.00000000000E+00  0.19550546530E+04  0.19550546530E+04  0.25500000920E-02 0. -1.
        2   -1    0    0  501    0  0.00000000000E+00  0.00000000000E+00 -0.17873910046E+04  0.17873910046E+04  0.25500000920E-02 0.  1.
    10030    2    1    2    0    0  0.00000000000E+00  0.00000000000E+00  0.16766364840E+03  0.37424456577E+04  0.37386880589E+04 0.  0.
        1    1    3    3  502    0 -0.16735718741E+04 -0.33239279202E+03 -0.68055815560E+03  0.18369777323E+04  0.50400001928E-02 0. -1.
       -1    1    3    3    0  502  0.16735718741E+04  0.33239279202E+03  0.84822180400E+03  0.19054679254E+04  0.50400001928E-02 0.  1.
</event>
<event>
 5   0  0.9341000E-08  0.3711062E+04  0.7818609E-02  0.8065515E-01
       -1   -1    0    0    0  501  0.00000000000E+00  0.00000000000E+00  0.21598986366E+04  0.21598986366E+04  0.50400001928E-02 0.  1.
        1   -1    0    0  501    0  0.00000000000E+00  0.00000000000E+00 -0.15940536840E+04  0.15940536840E+04  0.50400001928E-02 0. -1.
    10030    2    1    2    0    0  0.00000000000E+00  0.00000000000E+00  0.56584495260E+03  0.37539523206E+04  0.37110615078E+04 0.  0.
        4    1    3    3  502    0 -0.11573170606E+04  0.23093802592E+03 -0.11655056010E+04  0.16586500744E+04  0.12699999809E+01 0. -1.
       -4    1    3    3    0  502  0.11573170606E+04 -0.23093802592E+03  0.17313505536E+04  0.20953022462E+04  0.12699999809E+01 0.  1.
</event>
<event>
 5   0  0.9341000E-08  0.3720213E+04  0.7818609E-02  0.8063497E-01
       -1   -1    0    0    0  501  0.00000000000E+00  0.00000000000E+00  0.12374993151E+04  0.12374993151E+04  0.50400001928E-02 0.  1.
        1   -1    0    0  501    0  0.00000000000E+00  0.00000000000E+00 -0.27959587881E+04  0.27959587881E+04  0.50400001928E-02 0. -1.
    10030    2    1    2    0    0  0.00000000000E+00  0.00000000000E+00 -0.15584594730E+04  0.40334581032E+04  0.37202134806E+04 0.  0.
        1    1    3    3  502    0  0.10805616560E+04  0.10295367002E+04  0.42439800465E+03  0.15516678046E+04  0.50400001928E-02 0.  1.
       -1    1    3    3    0  502 -0.10805616560E+04 -0.10295367002E+04 -0.19828574777E+04  0.24817902986E+04  0.50400001928E-02 0. -1.
</event>
<event>
 5   0  0.2897133E-07  0.3691957E+04  0.7818609E-02  0.8069747E-01
       -2   -1    0    0    0  501  0.00000000000E+00  0.00000000000E+00  0.14787060632E+04  0.14787060632E+04  0.25500000920E-02 0. -1.
        2   -1    0    0  501    0  0.00000000000E+00  0.00000000000E+00 -0.23044721014E+04  0.23044721014E+04  0.25500000920E-02 0.  1.
    10030    2    1    2    0    0  0.00000000000E+00  0.00000000000E+00 -0.82576603817E+03  0.37831781646E+04  0.36919571335E+04 0.  0.
        4    1    3    3  502    0  0.95668860632E+03 -0.15772655417E+04 -0.48249967661E+03  0.19067845262E+04  0.12699999809E+01 0. -1.
       -4    1    3    3    0  502 -0.95668860632E+03  0.15772655417E+04 -0.34326636156E+03  0.18763936384E+04  0.12699999809E+01 0.  1.
</event>
<event>
 5   0  0.9418945E-08  0.3668375E+04  0.7818609E-02  0.8075007E-01
        1   -1    0    0  501    0  0.00000000000E+00  0.00000000000E+00  0.11402372657E+04  0.11402372657E+04  0.50400001928E-02 0. -1.
       -1   -1    0    0    0  501  0.00000000000E+00  0.00000000000E+00 -0.29504763619E+04  0.29504763619E+04  0.50400001928E-02 0.  1.
    10030    2    1    2    0    0  0.00000000000E+00  0.00000000000E+00 -0.18102390962E+04  0.40907136276E+04  0.36683746261E+04 0.  0.
        5    1    3    3  502    0  0.45135490553E+03  0.60394182993E+02  0.10761908937E+04  0.11685793246E+04  0.46999998093E+01 0. -1.
       -5    1    3    3    0  502 -0.45135490553E+03 -0.60394182993E+02 -0.28864299899E+04  0.29221343030E+04  0.46999998093E+01 0.  1.
</event>
<event>
 5   0  0.9341000E-08  0.3704436E+04  0.7818609E-02  0.8066980E-01
        3   -1    0    0  501    0  0.00000000000E+00  0.00000000000E+00  0.18322724271E+04  0.18322724299E+04  0.10100000352E+00 0. -1.
       -3   -1    0    0    0  501  0.00000000000E+00  0.00000000000E+00 -0.18723803235E+04  0.18723803263E+04  0.10100000352E+00 0.  1.
    10030    2    1    2    0    0  0.00000000000E+00  0.00000000000E+00 -0.40107896401E+02  0.37046527562E+04  0.37044356386E+04 0.  0.
        1    1    3    3  502    0  0.11293395773E+04  0.12688689997E+04  0.71841632876E+03  0.18443314346E+04  0.50400001928E-02 0. -1.
       -1    1    3    3    0  502 -0.11293395773E+04 -0.12688689997E+04 -0.75852422516E+03  0.18603213216E+04  0.50400001928E-02 0.  1.
</event>
<event>
 5   0  0.9341000E-08  0.3679172E+04  0.7818609E-02  0.8072593E-01
       -1   -1    0    0    0  501  0.00000000000E+00  0.00000000000E+00  0.14246301687E+04  0.14246301687E+04  0.50400001928E-02 0.  1.
        1   -1    0    0  501    0  0.00000000000E+00  0.00000000000E+00 -0.23754067309E+04  0.23754067309E+04  0.50400001928E-02 0. -1.
    10030    2    1    2    0    0  0.00000000000E+00  0.00000000000E+00 -0.95077656224E+03  0.38000368996E+04  0.36791716957E+04 0.  0.
        4    1    3    3  502    0  0.47950929892E+03  0.17753685171E+04 -0.52396457742E+03  0.19121723328E+04  0.12699999809E+01 0. -1.
       -4    1    3    3    0  502 -0.47950929892E+03 -0.17753685171E+04 -0.42681198481E+03  0.18878645667E+04  0.12699999809E+01 0.  1.
</event>
<event>
 5   0  0.2996969E-07  0.3845617E+04  0.7818609E-02  0.8036436E-01
        2   -1    0    0  501    0  0.00000000000E+00  0.00000000000E+00  0.23699251788E+04  0.23699251788E+04  0.25500000920E-02 0. -1.
       -2   -1    0    0    0  501  0.00000000000E+00  0.00000000000E+00 -0.15600460557E+04  0.15600460557E+04  0.25500000920E-02 0.  1.
    10030    2    1    2    0    0  0.00000000000E+00  0.00000000000E+00  0.80987912311E+03  0.39299712345E+04  0.38456169479E+04 0.  0.
        1    1    3    3  502    0 -0.96174878406E+03  0.37464031131E+02  0.21060329008E+04  0.23155428859E+04  0.50400001928E-02 0. -1.
       -1    1    3    3    0  502  0.96174878406E+03 -0.37464031131E+02 -0.12961537777E+04  0.16144283486E+04  0.50400001928E-02 0.  1.
</event>
<event>
 5   0  0.9341000E-08  0.3740278E+04  0.7818609E-02  0.8059094E-01
       -1   -1    0    0    0  501  0.00000000000E+00  0.00000000000E+00  0.13905414529E+04  0.13905414529E+04  0.50400001928E-02 0. -1.
        1   -1    0    0  501    0  0.00000000000E+00  0.00000000000E+00 -0.25151496515E+04  0.25151496515E+04  0.50400001928E-02 0.  1.
    10030    2    1    2    0    0  0.00000000000E+00  0.00000000000E+00 -0.11246081986E+04  0.39056911044E+04  0.37402779847E+04 0.  0.
        4    1    3    3  502    0  0.84330598255E+03  0.71519894714E+03 -0.21372304495E+04  0.24063312576E+04  0.12699999809E+01 0.  1.
       -4    1    3    3    0  502 -0.84330598255E+03 -0.71519894714E+03  0.10126222509E+04  0.14993598468E+04  0.12699999809E+01 0. -1.
</event>
<event>
 5   0  0.2996969E-07  0.3641914E+04  0.7818609E-02  0.8080958E-01
        2   -1    0    0  501    0  0.00000000000E+00  0.00000000000E+00  0.12142695059E+04  0.12142695059E+04  0.25500000920E-02 0. -1.
       -2   -1    0    0    0  501  0.00000000000E+00  0.00000000000E+00 -0.27307653882E+04  0.27307653882E+04  0.25500000920E-02 0.  1.
    10030    2    1    2    0    0  0.00000000000E+00  0.00000000000E+00 -0.15164958824E+04  0.39450348941E+04  0.36419144079E+04 0.  0.
        1    1    3    3  502    0 -0.10923922574E+04 -0.63547562778E+03  0.66187380325E+03  0.14266138402E+04  0.50400001928E-02 0. -1.
       -1    1    3    3    0  502  0.10923922574E+04  0.63547562778E+03 -0.21783696856E+04  0.25184210539E+04  0.50400001928E-02 0.  1.
</event>
<event>
 5   0  0.3032442E-07  0.3691837E+04  0.7818609E-02  0.8069773E-01
        2   -1    0    0  501    0  0.00000000000E+00  0.00000000000E+00  0.15663034202E+04  0.15663034202E+04  0.25500000920E-02 0.  1.
       -2   -1    0    0    0  501  0.00000000000E+00  0.00000000000E+00 -0.21754498832E+04  0.21754498832E+04  0.25500000920E-02 0. -1.
    10030    2    1    2    0    0  0.00000000000E+00  0.00000000000E+00 -0.60914646302E+03  0.37417533035E+04  0.36918367205E+04 0.  0.
        3    1    3    3  502    0  0.12808820177E+04  0.31921876974E+03 -0.16123117061E+04  0.20837726397E+04  0.10100000352E+00 0. -1.
       -3    1    3    3    0  502 -0.12808820177E+04 -0.31921876974E+03  0.10031652431E+04  0.16579806637E+04  0.10100000352E+00 0.  1.
</event>
<event>
 5   0  0.3032442E-07  0.3638819E+04  0.7818609E-02  0.8081657E-01
       -2   -1    0    0    0  501  0.00000000000E+00  0.00000000000E+00  0.21032749974E+04  0.21032749974E+04  0.25500000920E-02 0.  1.
        2   -1    0    0  501    0  0.00000000000E+00  0.00000000000E+00 -0.15738558699E+04  0.15738558699E+04  0.25500000920E-02 0. -1.
    10030    2    1    2    0    0  0.00000000000E+00  0.00000000000E+00  0.52941912744E+03  0.36771308673E+04  0.36388194243E+04 0.  0.
        3    1    3    3  502    0 -0.13740402345E+04  0.82973906981E+03 -0.60092961304E+03  0.17139340419E+04  0.10100000352E+00 0. -1.
       -3    1    3    3    0  502  0.13740402345E+04 -0.82973906981E+03  0.11303487405E+04  0.19631968254E+04  0.10100000352E+00 0.  1.
</event>
<event>
 5   0  0.9341000E-08  0.3734417E+04  0.7818609E-02  0.8060377E-01
        1   -1    0    0  501    0  0.00000000000E+00  0.00000000000E+00  0.17988315090E+04  0.17988315090E+04  0.50400001928E-02 0. -1.
       -1   -1    0    0    0  501  0.00000000000E+00  0.00000000000E+00 -0.19381844342E+04  0.19381844342E+04  0.50400001928E-02 0.  1.
    10030    2    1    2    0    0  0.00000000000E+00  0.00000000000E+00 -0.13935292520E+03  0.37370159432E+04  0.37344168115E+04 0.  0.
        1    1    3    3  502    0  0.20234234321E+03  0.91844164838E+03  0.15445146488E+04  0.18083149576E+04  0.50400001928E-02 0. -1.
       -1    1    3    3    0  502 -0.20234234321E+03 -0.91844164838E+03 -0.16838675740E+04  0.19287009857E+04  0.50400001928E-02 0.  1.
</event>
<event>
 5   0  0.9418945E-08  0.3702141E+04  0.7818609E-02  0.8067488E-01
        1   -1    0    0  501    0  0.00000000000E+00  0.00000000000E+00  0.26740781362E+04  0.26740781362E+04  0.50400001928E-02 0.  1.
       -1   -1    0    0    0  501  0.00000000000E+00  0.00000000000E+00 -0.12813619208E+04  0.12813619209E+04  0.50400001928E-02 0. -1.
    10030    2    1    2    0    0  0.00000000000E+00  0.00000000000E+00  0.13927162154E+04  0.39554400571E+04  0.37021409466E+04 0.  0.
        5    1    3    3  502    0  0.23495801782E+03  0.75547556435E+03 -0.10916066950E+04  0.13481750128E+04  0.46999998093E+01 0. -1.
       -5    1    3    3    0  502 -0.23495801782E+03 -0.75547556435E+03  0.24843229104E+04  0.26072650444E+04  0.46999998093E+01 0.  1.
</event>
<event>
 5   0  0.3032442E-07  0.3693798E+04  0.7818609E-02  0.8069338E-01
        2   -1    0    0  501    0  0.00000000000E+00  0.00000000000E+00  0.19554030707E+04  0.19554030707E+04  0.25500000920E-02 0. -1.
       -2   -1    0    0    0  501  0.00000000000E+00  0.00000000000E+00 -0.17444161248E+04  0.17444161248E+04  0.25500000920E-02 0.  1.
    10030    2    1    2    0    0  0.00000000000E+00  0.00000000000E+00  0.21098694589E+03  0.36998191955E+04  0.36937983957E+04 0.  0.
        3    1    3    3  502    0  0.74389976705E+03 -0.11885423909E+04  0.13095413459E+04  0.19185719755E+04  0.10100000352E+00 0. -1.
       -3    1    3    3    0  502 -0.74389976705E+03  0.11885423909E+04 -0.10985544000E+04  0.17812472199E+04  0.10100000352E+00 0.  1.
</event>
<event>
 5   0  0.9418945E-08  0.3706352E+04  0.7818609E-02  0.8066556E-01
       -1   -1    0    0    0  501  0.00000000000E+00  0.00000000000E+00  0.16337414961E+04  0.16337414961E+04  0.50400001928E-02 0. -1.
        1   -1    0    0  501    0  0.00000000000E+00  0.00000000000E+00 -0.21020831014E+04  0.21020831014E+04  0.50400001928E-02 0.  1.
    10030    2    1    2    0    0  0.00000000000E+00  0.00000000000E+00 -0.46834160532E+03  0.37358245975E+04  0.37063515165E+04 0.  0.
        5    1    3    3  502    0 -0.13542939080E+04 -0.67990660952E+03 -0.13093553413E+04  0.20027027954E+04  0.46999998093E+01 0.  1.
       -5    1    3    3    0  502  0.13542939080E+04  0.67990660952E+03  0.84101373597E+03  0.17331218021E+04  0.46999998093E+01 0. -1.
</event>
<event>
 5   0  0.3008879E-07  0.3626041E+04  0.7818609E-02  0.8084553E-01
       -2   -1    0    0    0  501  0.00000000000E+00  0.00000000000E+00  0.14255770634E+04  0.14255770634E+04  0.25500000920E-02 0.  1.
        2   -1    0    0  501    0  0.00000000000E+00  0.00000000000E+00 -0.23057632712E+04  0.23057632712E+04  0.25500000920E-02 0. -1.
    10030    2    1    2    0    0  0.00000000000E+00  0.00000000000E+00 -0.88018620778E+03  0.37313403346E+04  0.36260409446E+04 0.  0.
        2    1    3    3  502    0  0.10094169314E+04  0.22242754909E+03 -0.19728604222E+04  0.22272347881E+04  0.25500000920E-02 0. -1.
       -2    1    3    3    0  502 -0.10094169314E+04 -0.22242754909E+03  0.10926742144E+04  0.15041055465E+04  0.25500000920E-02 0.  1.
</event>
<event>
 5   0  0.9341000E-08  0.3701445E+04  0.7818609E-02  0.8067642E-01
       -1   -1    0    0    0  501  0.00000000000E+00  0.00000000000E+00  0.17882925928E+04  0.17882925928E+04  0.50400001928E-02 0. -1.
        1   -1    0    0  501    0  0.00000000000E+00  0.00000000000E+00 -0.19153317336E+04  0.19153317336E+04  0.50400001928E-02 0.  1.
    10030    2    1    2    0    0  0.00000000000E+00  0.00000000000E+00 -0.12703914081E+03  0.37036243265E+04  0.37014448812E+04 0.  0.
        3    1    3    3  502    0 -0.20349435234E+03  0.15229213103E+04  0.96882154911E+03  0.18164015175E+04  0.10100000352E+00 0. -1.
       -3    1    3    3    0  502  0.20349435234E+03 -0.15229213103E+04 -0.10958606899E+04  0.18872228089E+04  0.10100000352E+00 0.  1.
</event>
<event>
 5   0  0.9341000E-08  0.3427166E+04  0.7818609E-02  0.8131271E-01
        1   -1    0    0  501    0  0.00000000000E+00  0.00000000000E+00  0.16306333223E+04  0.16306333223E+04  0.50400001928E-02 0. -1.
       -1   -1    0    0    0  501  0.00000000000E+00  0.00000000000E+00 -0.18007527961E+04  0.18007527961E+04  0.50400001928E-02 0.  1.
    10030    2    1    2    0    0  0.00000000000E+00  0.00000000000E+00 -0.17011947379E+03  0.34313861184E+04  0.34271664766E+04 0.  0.
        3    1    3    3  502    0 -0.87268243935E+03 -0.27186226858E+03 -0.15362869116E+04  0.17876412442E+04  0.10100000352E+00 0.  1.
       -3    1    3    3    0  502  0.87268243935E+03  0.27186226858E+03  0.13661674378E+04  0.16437448742E+04  0.10100000352E+00 0. -1.
</event>
<event>
 5   0  0.9341000E-08  0.3682185E+04  0.7818609E-02  0.8071921E-01
        1   -1    0    0  501    0  0.00000000000E+00  0.00000000000E+00  0.21982779741E+04  0.21982779741E+04  0.50400001928E-02 0.  1.
       -1   -1    0    0    0  501  0.00000000000E+00  0.00000000000E+00 -0.15419441799E+04  0.15419441799E+04  0.50400001928E-02 0. -1.
    10030    2    1    2    0    0  0.00000000000E+00  0.00000000000E+00  0.65633379421E+03  0.37402221540E+04  0.36821851817E+04 0.  0.
        4    1    3    3  502    0 -0.76323111391E+03  0.59179360882E+03  0.19203156764E+04  0.21495011791E+04  0.12699999809E+01 0.  1.
       -4    1    3    3    0  502  0.76323111391E+03 -0.59179360882E+03 -0.12639818822E+04  0.15907209750E+04  0.12699999809E+01 0. -1.
</event>
<event>
 5   0  0.2897133E-07  0.3677702E+04  0.7818609E-02  0.8072921E-01
        2   -1    0    0  501    0  0.00000000000E+00  0.00000000000E+00  0.26947352063E+04  0.26947352063E+04  0.25500000920E-02 0. -1.
       -2   -1    0    0    0  501  0.00000000000E+00  0.00000000000E+00 -0.12548072088E+04  0.12548072088E+04  0.25500000920E-02 0.  1.
    10030    2    1    2    0    0  0.00000000000E+00  0.00000000000E+00  0.14399279976E+04  0.39495424151E+04  0.36777020883E+04 0.  0.
        4    1    3    3  502    0 -0.81527848998E+03  0.51060490350E+03  0.24029566566E+04  0.25883583002E+04  0.12699999809E+01 0. -1.
       -4    1    3    3    0  502  0.81527848998E+03 -0.51060490350E+03 -0.96302865904E+03  0.13611841149E+04  0.12699999809E+01 0.  1.
</event>
<event>
 5   0  0.9418945E-08  0.3733311E+04  0.7818609E-02  0.8060620E-01
        1   -1    0    0  501    0  0.00000000000E+00  0.00000000000E+00  0.18815810611E+04  0.18815810611E+04  0.50400001928E-02 0.  1.
       -1   -1    0    0    0  501  0.00000000000E+00  0.00000000000E+00 -0.18518479355E+04  0.18518479355E+04  0.50400001928E-02 0. -1.
    10030    2    1    2    0    0  0.00000000000E+00  0.00000000000E+00  0.29733125604E+02  0.37334289967E+04  0.37333105971E+04 0.  0.
        5    1    3    3  502    0 -0.62139619050E+03  0.82730565436E+03 -0.15388274707E+04  0.18543408386E+04  0.46999998093E+01 0. -1.
       -5    1    3    3    0  502  0.62139619050E+03 -0.82730565436E+03  0.15685605963E+04  0.18790881580E+04  0.46999998093E+01 0.  1.
</event>
<event>
 5   0  0.9418945E-08  0.3708341E+04  0.7818609E-02  0.8066116E-01
        1   -1    0    0  501    0  0.00000000000E+00  0.00000000000E+00  0.16860520597E+04  0.16860520597E+04  0.50400001928E-02 0. -1.
       -1   -1    0    0    0  501  0.00000000000E+00  0.00000000000E+00 -0.20390521460E+04  0.20390521460E+04  0.50400001928E-02 0.  1.
    10030    2    1    2    0    0  0.00000000000E+00  0.00000000000E+00 -0.35300008628E+03  0.37251042058E+04  0.37083409071E+04 0.  0.
        5    1    3    3  502    0 -0.16318955657E+04  0.72073736984E+03  0.33113620976E+03  0.18144472362E+04  0.46999998093E+01 0. -1.
       -5    1    3    3    0  502  0.16318955657E+04 -0.72073736984E+03 -0.68413629604E+03  0.19106569695E+04  0.46999998093E+01 0.  1.
</event>
<event>
 5   0  0.9341000E-08  0.3646554E+04  0.7818609E-02  0.8079910E-01
        1   -1    0    0  501    0  0.00000000000E+00  0.00000000000E+00  0.24277296391E+04  0.24277296391E+04  0.50400001928E-02 0.  1.
       -1   -1    0    0    0  501  0.00000000000E+00  0.00000000000E+00 -0.13693199566E+04  0.13693199566E+04  0.50400001928E-02 0. -1.
    10030    2    1    2    0    0  0.00000000000E+00  0.00000000000E+00  0.10584096826E+04  0.37970495957E+04  0.36465537945E+04 0.  0.
        4    1    3    3  502    0  0.52307095831E+03  0.15067339250E+04 -0.39070739076E+03  0.16421035980E+04  0.12699999809E+01 0. -1.
       -4    1    3    3    0  502 -0.52307095831E+03 -0.15067339250E+04  0.14491170733E+04  0.21549459978E+04  0.12699999809E+01 0.  1.
</event>
<event>
 5   0  0.3008879E-07  0.3689981E+04  0.7818609E-02  0.8070186E-01
        2   -1    0    0  501    0  0.00000000000E+00  0.00000000000E+00  0.22544042194E+04  0.22544042194E+04  0.25500000920E-02 0. -1.
       -2   -1    0    0    0  501  0.00000000000E+00  0.00000000000E+00 -0.15099287366E+04  0.15099287366E+04  0.25500000920E-02 0.  1.
    10030    2    1    2    0    0  0.00000000000E+00  0.00000000000E+00  0.74447548285E+03  0.37643329560E+04  0.36899808751E+04 0.  0.
        2    1    3    3  502    0  0.55032913376E+02 -0.16643437351E+04  0.11825481446E+04  0.20424222884E+04  0.25500000920E-02 0. -1.
       -2    1    3    3    0  502 -0.55032913376E+02  0.16643437351E+04 -0.43807266172E+03  0.17219106675E+04  0.25500000920E-02 0.  1.
</event>
<event>
 5   0  0.2897133E-07  0.3716371E+04  0.7818609E-02  0.8064344E-01
        2   -1    0    0  501    0  0.00000000000E+00  0.00000000000E+00  0.24360547931E+04  0.24360547931E+04  0.25500000920E-02 0.  1.
       -2   -1    0    0    0  501  0.00000000000E+00  0.00000000000E+00 -0.14173955030E+04  0.14173955030E+04  0.25500000920E-02 0. -1.
    10030    2    1    2    0    0  0.00000000000E+00  0.00000000000E+00  0.10186592902E+04  0.38534502961E+04  0.37163708689E+04 0.  0.
        4    1    3    3  502    0  0.60560777463E+03 -0.77097924494E+03 -0.11274001851E+04  0.14940557430E+04  0.12699999809E+01 0. -1.
       -4    1    3    3    0  502 -0.60560777463E+03  0.77097924494E+03  0.21460594753E+04  0.23593945531E+04  0.12699999809E+01 0.  1.
</event>
<event>
 5   0  0.2897133E-07  0.3673014E+04  0.7818609E-02  0.8073969E-01
        2   -1    0    0  501    0  0.00000000000E+00  0.00000000000E+00  0.13888677150E+04  0.13888677150E+04  0.25500000920E-02 0.  1.
       -2   -1    0    0    0  501  0.00000000000E+00  0.00000000000E+00 -0.24284224490E+04  0.24284224490E+04  0.25500000920E-02 0. -1.
    10030    2    1    2    0    0  0.00000000000E+00  0.00000000000E+00 -0.10395547341E+04  0.38172901640E+04  0.36730137695E+04 0.  0.
        4    1    3    3  502    0 -0.45085883545E+03 -0.16948450126E+04 -0.10861446175E+04  0.20628827037E+04  0.12699999809E+01 0.  1.
       -4    1    3    3    0  502  0.45085883545E+03  0.16948450126E+04  0.46589883464E+02  0.17544074602E+04  0.12699999809E+01 0. -1.
</event>
<event>
 5   0  0.9341000E-08  0.3720939E+04  0.7818609E-02  0.8063337E-01
       -1   -1    0    0    0  501  0.00000000000E+00  0.00000000000E+00  0.10883448114E+04  0.10883448114E+04  0.50400001928E-02 0.  1.
        1   -1    0    0  501    0  0.00000000000E+00  0.00000000000E+00 -0.31803770724E+04  0.31803770724E+04  0.50400001928E-02 0. -1.
    10030    2    1    2    0    0  0.00000000000E+00  0.00000000000E+00 -0.20920322610E+04  0.42687218838E+04  0.37209390670E+04 0.  0.
        4    1    3    3  502    0 -0.14150874249E+04  0.99488044315E+03 -0.26028958647E+03  0.17492889407E+04  0.12699999809E+01 0.  1.
       -4    1    3    3    0  502  0.14150874249E+04 -0.99488044315E+03 -0.18317426745E+04  0.25194329431E+04  0.12699999809E+01 0. -1.
</event>
<event>
 5   0  0.3008879E-07  0.3753810E+04  0.7818609E-02  0.8056140E-01
       -2   -1    0    0    0  501  0.00000000000E+00  0.00000000000E+00  0.12093720148E+04  0.12093720148E+04  0.25500000920E-02 0.  1.
        2   -1    0    0  501    0  0.00000000000E+00  0.00000000000E+00 -0.29128936476E+04  0.29128936476E+04  0.25500000920E-02 0. -1.
    10030    2    1    2    0    0  0.00000000000E+00  0.00000000000E+00 -0.17035216328E+04  0.41222656624E+04  0.37538098297E+04 0.  0.
        2    1    3    3  502    0  0.16875224784E+04  0.48626067240E+02  0.48910845165E+02  0.16889312835E+04  0.25500000920E-02 0.  1.
       -2    1    3    3    0  502 -0.16875224784E+04 -0.48626067240E+02 -0.17524324780E+04  0.24333343789E+04  0.25500000920E-02 0. -1.
</event>
<event>
 5   0  0.2897133E-07  0.3718975E+04  0.7818609E-02  0.8063770E-01
       -2   -1    0    0    0  501  0.00000000000E+00  0.00000000000E+00  0.21468437703E+04  0.21468437703E+04  0.25500000920E-02 0.  1.
        2   -1    0    0  501    0  0.00000000000E+00  0.00000000000E+00 -0.16105942398E+04  0.16105942398E+04  0.25500000920E-02 0. -1.
    10030    2    1    2    0    0  0.00000000000E+00  0.00000000000E+00  0.53624953049E+03  0.37574380100E+04  0.37189752406E+04 0.  0.
        4    1    3    3  502    0  0.41950539876E+03 -0.87375929966E+02  0.20962785844E+04  0.21396272687E+04  0.12699999809E+01 0.  1.
       -4    1    3    3    0  502 -0.41950539876E+03  0.87375929966E+02 -0.15600290539E+04  0.16178107413E+04  0.12699999809E+01 0. -1.
</event>
<event>
 5   0  0.2913025E-07  0.3705526E+04  0.7818609E-02  0.8066738E-01
        2   -1    0    0  501    0  0.00000000000E+00  0.00000000000E+00  0.13371913101E+04  0.13371913101E+04  0.25500000920E-02 0. -1.
       -2   -1    0    0    0  501  0.00000000000E+00  0.00000000000E+00 -0.25671201284E+04  0.25671201284E+04  0.25500000920E-02 0.  1.
    10030    2    1    2    0    0  0.00000000000E+00  0.00000000000E+00 -0.12299288183E+04  0.39043114385E+04  0.37055259965E+04 0.  0.
        5    1    3    3  502    0 -0.18680052710E+03 -0.15673712038E+04 -0.16371428428E+04  0.22741604396E+04  0.46999998093E+01 0.  1.
       -5    1    3    3    0  502  0.18680052710E+03  0.15673712038E+04  0.40721402449E+03  0.16301509989E+04  0.46999998093E+01 0. -1.
</event>
<event>
 5   0  0.9646615E-08  0.3694202E+04  0.7818609E-02  0.8069248E-01
        1   -1    0    0  501    0  0.00000000000E+00  0.00000000000E+00  0.19531605794E+04  0.19531605794E+04  0.50400001928E-02 0.  1.
       -1   -1    0    0    0  501  0.00000000000E+00  0.00000000000E+00 -0.17468010376E+04  0.17468010376E+04  0.50400001928E-02 0. -1.
    10030    2    1    2    0    0  0.00000000000E+00  0.00000000000E+00  0.20635954177E+03  0.36999616171E+04  0.36942024454E+04 0.  0.
        2    1    3    3  502    0  0.75315697655E+03 -0.71949453544E+03 -0.14246048397E+04  0.17647710240E+04  0.25500000920E-02 0. -1.
       -2    1    3    3    0  502 -0.75315697655E+03  0.71949453544E+03  0.16309643815E+04  0.19351905931E+04  0.25500000920E-02 0.  1.
</event>
<event>
 5   0  0.2913025E-07  0.3518886E+04  0.7818609E-02  0.8109329E-01
        2   -1    0    0  501    0  0.00000000000E+00  0.00000000000E+00  0.27902517715E+04  0.27902517715E+04  0.25500000920E-02 0. -1.
       -2   -1    0    0    0  501  0.00000000000E+00  0.00000000000E+00 -0.11094482191E+04  0.11094482191E+04  0.25500000920E-02 0.  1.
    10030    2    1    2    0    0  0.00000000000E+00  0.00000000000E+00  0.16808035524E+04  0.38996999906E+04  0.35188861071E+04 0.  0.
        5    1    3    3  502    0 -0.19517777314E+03 -0.87813499744E+03 -0.83532154569E+03  0.12275991249E+04  0.46999998093E+01 0.  1.
       -5    1    3    3    0  502  0.19517777314E+03  0.87813499744E+03  0.25161250981E+04  0.26721008656E+04  0.46999998093E+01 0. -1.
</event>
<event>
 5   0  0.9341000E-08  0.3727669E+04  0.7818609E-02  0.8061858E-01
       -3   -1    0    0    0  501  0.00000000000E+00  0.00000000000E+00  0.20516701514E+04  0.20516701538E+04  0.10100000352E+00 0. -1.
        3   -1    0    0  501    0  0.00000000000E+00  0.00000000000E+00 -0.16931952481E+04  0.16931952511E+04  0.10100000352E+00 0.  1.
    10030    2    1    2    0    0  0.00000000000E+00  0.00000000000E+00  0.35847490323E+03  0.37448654050E+04  0.37276685267E+04 0.  0.
        3    1    3    3  502    0 -0.84970613895E+03 -0.13848329901E+04 -0.73827496184E+03  0.17846043994E+04  0.10100000352E+00 0.  1.
       -3    1    3    3    0  502  0.84970613895E+03  0.13848329901E+04  0.10967498651E+04  0.19602610055E+04  0.10100000352E+00 0. -1.
</event>
<event>
 5   0  0.9646615E-08  0.3698790E+04  0.7818609E-02  0.8068230E-01
        1   -1    0    0  501    0  0.00000000000E+00  0.00000000000E+00  0.22610777470E+04  0.22610777470E+04  0.50400001928E-02 0.  1.
       -1   -1    0    0    0  501  0.00000000000E+00  0.00000000000E+00 -0.15126690725E+04  0.15126690725E+04  0.50400001928E-02 0. -1.
    10030    2    1    2    0    0  0.00000000000E+00  0.00000000000E+00  0.74840867448E+03  0.37737468196E+04  0.36987902771E+04 0.  0.
        2    1    3    3  502    0 -0.34456930973E+03  0.98487756488E+03 -0.11836809316E+04  0.15779139314E+04  0.25500000920E-02 0. -1.
       -2    1    3    3    0  502  0.34456930973E+03 -0.98487756488E+03  0.19320896061E+04  0.21958328882E+04  0.25500000920E-02 0.  1.
</event>
<event>
 5   0  0.2996969E-07  0.3680365E+04  0.7818609E-02  0.8072327E-01
       -2   -1    0    0    0  501  0.00000000000E+00  0.00000000000E+00  0.20621790293E+04  0.20621790293E+04  0.25500000920E-02 0.  1.
        2   -1    0    0  501    0  0.00000000000E+00  0.00000000000E+00 -0.16420844674E+04  0.16420844674E+04  0.25500000920E-02 0. -1.
    10030    2    1    2    0    0  0.00000000000E+00  0.00000000000E+00  0.42009456194E+03  0.37042634967E+04  0.36803652824E+04 0.  0.
        1    1    3    3  502    0 -0.61089241576E+03  0.14807957119E+04  0.11216473765E+04  0.19555148482E+04  0.50400001928E-02 0.  1.
       -1    1    3    3    0  502  0.61089241576E+03 -0.14807957119E+04 -0.70155281456E+03  0.17487486485E+04  0.50400001928E-02 0. -1.
</event>
<event>
 5   0  0.9341000E-08  0.3703118E+04  0.7818609E-02  0.8067271E-01
        1   -1    0    0  501    0  0.00000000000E+00  0.00000000000E+00  0.14858705709E+04  0.14858705709E+04  0.50400001928E-02 0. -1.
       -1   -1    0    0    0  501  0.00000000000E+00  0.00000000000E+00 -0.23072474426E+04  0.23072474426E+04  0.50400001928E-02 0.  1.
    10030    2    1    2    0    0  0.00000000000E+00  0.00000000000E+00 -0.82137687175E+03  0.37931180135E+04  0.37031181859E+04 0.  0.
        4    1    3    3  502    0 -0.14938554266E+04 -0.26665391463E+03 -0.14973975832E+04  0.21318793307E+04  0.12699999809E+01 0. -1.
       -4    1    3    3    0  502  0.14938554266E+04  0.26665391463E+03  0.67602071144E+03  0.16612386827E+04  0.12699999809E+01 0.  1.
</event>
<event>
 5   0  0.3032442E-07  0.3685437E+04  0.7818609E-02  0.8071197E-01
       -2   -1    0    0    0  501  0.00000000000E+00  0.00000000000E+00  0.25399700403E+04  0.25399700403E+04  0.25500000920E-02 0. -1.
        2   -1    0    0  501    0  0.00000000000E+00  0.00000000000E+00 -0.13368709085E+04  0.13368709085E+04  0.25500000920E-02 0.  1.
    10030    2    1    2    0    0  0.00000000000E+00  0.00000000000E+00  0.12030991317E+04  0.38768409488E+04  0.36854373176E+04 0.  0.
        3    1    3    3  502    0  0.95672378501E+03 -0.15094343051E+04  0.12888089637E+03  0.17917373184E+04  0.10100000352E+00 0.  1.
       -3    1    3    3    0  502 -0.95672378501E+03  0.15094343051E+04  0.10742182354E+04  0.20851036305E+04  0.10100000352E+00 0. -1.
</event>
<event>
 5   0  0.9418945E-08  0.3687965E+04  0.7818609E-02  0.8070634E-01
       -1   -1    0    0    0  501  0.00000000000E+00  0.00000000000E+00  0.22856314411E+04  0.22856314411E+04  0.50400001928E-02 0. -1.
        1   -1    0    0  501    0  0.00000000000E+00  0.00000000000E+00 -0.14876723071E+04  0.14876723071E+04  0.50400001928E-02 0.  1.
    10030    2    1    2    0    0  0.00000000000E+00  0.00000000000E+00  0.79795913402E+03  0.37733037481E+04  0.36879645329E+04 0.  0.
        5    1    3    3  502    0 -0.84452291448E+03 -0.10902126817E+04  0.16514239756E+04  0.21515124637E+04  0.46999998093E+01 0. -1.
       -5    1    3    3    0  502  0.84452291448E+03  0.10902126817E+04 -0.85346484155E+03  0.16217912844E+04  0.46999998093E+01 0.  1.
</event>
<event>
 5   0  0.9341000E-08  0.3653147E+04  0.7818609E-02  0.8078425E-01
        1   -1    0    0  501    0  0.00000000000E+00  0.00000000000E+00  0.18079069141E+04  0.18079069141E+04  0.50400001928E-02 0. -1.
       -1   -1    0    0    0  501  0.00000000000E+00  0.00000000000E+00 -0.18454323222E+04  0.18454323222E+04  0.50400001928E-02 0.  1.
    10030    2    1    2    0    0  0.00000000000E+00  0.00000000000E+00 -0.37525408098E+02  0.36533392362E+04  0.36531465094E+04 0.  0.
        3    1    3    3  502    0 -0.17111165596E+04 -0.35244955167E+03  0.51439699830E+03  0.18211932487E+04  0.10100000352E+00 0. -1.
       -3    1    3    3    0  502  0.17111165596E+04  0.35244955167E+03 -0.55192240640E+03  0.18321459876E+04  0.10100000352E+00 0.  1.
</event>
<event>
 5   0  0.3008879E-07  0.3698329E+04  0.7818609E-02  0.8068332E-01
        2   -1    0    0  501    0  0.00000000000E+00  0.00000000000E+00  0.18698760138E+04  0.18698760138E+04  0.25500000920E-02 0.  1.
       -2   -1    0    0    0  501  0.00000000000E+00  0.00000000000E+00 -0.18286820994E+04  0.18286820994E+04  0.25500000920E-02 0. -1.
    10030    2    1    2    0    0  0.00000000000E+00  0.00000000000E+00  0.41193914334E+02  0.36985581132E+04  0.36983287006E+04 0.  0.
        2    1    3    3  502    0  0.11334202830E+04  0.69027700834E+03  0.13084209537E+04  0.18636226223E+04  0.25500000920E-02 0.  1.
       -2    1    3    3    0  502 -0.11334202830E+04 -0.69027700834E+03 -0.12672270394E+04  0.18349354909E+04  0.25500000920E-02 0. -1.
</event>
<event>
 5   0  0.2913025E-07  0.3723132E+04  0.7818609E-02  0.8062855E-01
        2   -1    0    0  501    0  0.00000000000E+00  0.00000000000E+00  0.20528465423E+04  0.20528465423E+04  0.25500000920E-02 0.  1.
       -2   -1    0    0    0  501  0.00000000000E+00  0.00000000000E+00 -0.16881090241E+04  0.16881090241E+04  0.25500000920E-02 0. -1.
    10030    2    1    2    0    0  0.00000000000E+00  0.00000000000E+00  0.36473751822E+03  0.37409555665E+04  0.37231324302E+04 0.  0.
        5    1    3    3  502    0 -0.10371678605E+02  0.16465199871E+04  0.10550141183E+04  0.19555593879E+04  0.46999998093E+01 0.  1.
       -5    1    3    3    0  502  0.10371678605E+02 -0.16465199871E+04 -0.69027660009E+03  0.17853961786E+04  0.46999998093E+01 0. -1.
</event>
<event>
 5   0  0.9341000E-08  0.3663296E+04  0.7818609E-02  0.8076145E-01
       -1   -1    0    0    0  501  0.00000000000E+00  0.00000000000E+00  0.15846048140E+04  0.15846048141E+04  0.50400001928E-02 0. -1.
        1   -1    0    0  501    0  0.00000000000E+00  0.00000000000E+00 -0.21172062748E+04  0.21172062748E+04  0.50400001928E-02 0.  1.
    10030    2    1    2    0    0  0.00000000000E+00  0.00000000000E+00 -0.53260146076E+03  0.37018110889E+04  0.36632964692E+04 0.  0.
        4    1    3    3  502    0  0.11311322369E+04  0.11667106571E+04 -0.11203251181E+04  0.19737790854E+04  0.12699999809E+01 0.  1.
       -4    1    3    3    0  502 -0.11311322369E+04 -0.11667106571E+04  0.58772365734E+03  0.17280320035E+04  0.12699999809E+01 0. -1.
</event>
<event>
 5   0  0.2897133E-07  0.3681533E+04  0.7818609E-02  0.8072067E-01
       -2   -1    0    0    0  501  0.00000000000E+00  0.00000000000E+00  0.18167333068E+04  0.18167333068E+04  0.25500000920E-02 0.  1.
        2   -1    0    0  501    0  0.00000000000E+00  0.00000000000E+00 -0.18651180881E+04  0.18651180881E+04  0.25500000920E-02 0. -1.
    10030    2    1    2    0    0  0.00000000000E+00  0.00000000000E+00 -0.48384781319E+02  0.36818513949E+04  0.36815334586E+04 0.  0.
        4    1    3    3  502    0 -0.84596852992E+02  0.68762855803E+03  0.16813671193E+04  0.18185122117E+04  0.12699999809E+01 0.  1.
       -4    1    3    3    0  502  0.84596852992E+02 -0.68762855803E+03 -0.17297519006E+04  0.18633391832E+04  0.12699999809E+01 0. -1.
</event>
<event>
 5   0  0.9418945E-08  0.3624315E+04  0.7818609E-02  0.8084945E-01
       -1   -1    0    0    0  501  0.00000000000E+00  0.00000000000E+00  0.24536707736E+04  0.24536707736E+04  0.50400001928E-02 0. -1.
        1   -1    0    0  501    0  0.00000000000E+00  0.00000000000E+00 -0.13383681268E+04  0.13383681268E+04  0.50400001928E-02 0.  1.
    10030    2    1    2    0    0  0.00000000000E+00  0.00000000000E+00  0.11153026468E+04  0.37920389004E+04  0.36243149736E+04 0.  0.
        5    1    3    3  502    0 -0.60283306500E+03 -0.47591272722E+03 -0.11596440685E+04  0.13909338891E+04  0.46999998093E+01 0.  1.
       -5    1    3    3    0  502  0.60283306500E+03  0.47591272722E+03  0.22749467152E+04  0.24011050113E+04  0.46999998093E+01 0. -1.
</event>
<event>
 5   0  0.3008879E-07  0.3710147E+04  0.7818609E-02  0.8065717E-01
       -2   -1    0    0    0  501  0.00000000000E+00  0.00000000000E+00  0.12218526609E+04  0.12218526609E+04  0.25500000920E-02 0. -1.
        2   -1    0    0  501    0  0.00000000000E+00  0.00000000000E+00 -0.28164583806E+04  0.28164583806E+04  0.25500000920E-02 0.  1.
    10030    2    1    2    0    0  0.00000000000E+00  0.00000000000E+00 -0.15946057197E+04  0.40383110415E+04  0.37101467177E+04 0.  0.
        2    1    3    3  502    0  0.70105249465E+02 -0.57806700430E+03 -0.27144040912E+04  0.27761602580E+04  0.25500000920E-02 0.  1.
       -2    1    3    3    0  502 -0.70105249465E+02  0.57806700430E+03  0.11197983715E+04  0.12621507835E+04  0.25500000920E-02 0. -1.
</event>
<event>
 5   0  0.3032442E-07  0.3565289E+04  0.7818609E-02  0.8098489E-01
        2   -1    0    0  501    0  0.00000000000E+00  0.00000000000E+00  0.17392034650E+04  0.17392034650E+04  0.25500000920E-02 0. -1.
       -2   -1    0    0    0  501  0.00000000000E+00  0.00000000000E+00 -0.18271702034E+04  0.18271702034E+04  0.25500000920E-02 0.  1.
    10030    2    1    2    0    0  0.00000000000E+00  0.00000000000E+00 -0.87966738397E+02  0.35663736685E+04  0.35652886273E+04 0.  0.
        3    1    3    3  502    0 -0.75204172888E+03  0.11067019806E+04 -0.12222487633E+04  0.18122494545E+04  0.10100000352E+00 0.  1.
       -3    1    3    3    0  502  0.75204172888E+03 -0.11067019806E+04  0.11342820249E+04  0.17541242140E+04  0.10100000352E+00 0. -1.
</event>
<event>
 5   0  0.9341000E-08  0.3705099E+04  0.7818609E-02  0.8066833E-01
        1   -1    0    0  501    0  0.00000000000E+00  0.00000000000E+00  0.24838946009E+04  0.24838946009E+04  0.50400001928E-02 0. -1.
       -1   -1    0    0    0  501  0.00000000000E+00  0.00000000000E+00 -0.13816767796E+04  0.13816767797E+04  0.50400001928E-02 0.  1.
    10030    2    1    2    0    0  0.00000000000E+00  0.00000000000E+00  0.11022178212E+04  0.38655713805E+04  0.37050989153E+04 0.  0.
        4    1    3    3  502    0  0.61068554678E+03  0.17420380864E+04  0.38845823045E+03  0.18864079467E+04  0.12699999809E+01 0.  1.
       -4    1    3    3    0  502 -0.61068554678E+03 -0.17420380864E+04  0.71375959078E+03  0.19791634339E+04  0.12699999809E+01 0. -1.
</event>
<event>
 5   0  0.9418945E-08  0.3685429E+04  0.7818609E-02  0.8071199E-01
       -1   -1    0    0    0  501  0.00000000000E+00  0.00000000000E+00  0.25591314566E+04  0.25591314566E+04  0.50400001928E-02 0.  1.
        1   -1    0    0  501    0  0.00000000000E+00  0.00000000000E+00 -0.13268551464E+04  0.13268551465E+04  0.50400001928E-02 0. -1.
    10030    2    1    2    0    0  0.00000000000E+00  0.00000000000E+00  0.12322763101E+04  0.38859866030E+04  0.36854290082E+04 0.  0.
        5    1    3    3  502    0 -0.11818689471E+04  0.12484675957E+04  0.13156314552E+04  0.21648080196E+04  0.46999998093E+01 0.  1.
       -5    1    3    3    0  502  0.11818689471E+04 -0.12484675957E+04 -0.83355145121E+02  0.17211785834E+04  0.46999998093E+01 0. -1.
</event>
<event>
 5   0  0.3032442E-07  0.3652559E+04  0.7818609E-02  0.8078557E-01
        2   -1    0    0  501    0  0.00000000000E+00  0.00000000000E+00  0.17764351106E+04  0.17764351106E+04  0.25500000920E-02 0.  1.
       -2   -1    0    0    0  501  0.00000000000E+00  0.00000000000E+00 -0.18775225537E+04  0.18775225537E+04  0.25500000920E-02 0. -1.
    10030    2    1    2    0    0  0.00000000000E+00  0.00000000000E+00 -0.10108744316E+03  0.36539576643E+04  0.36525590949E+04 0.  0.
        3    1    3    3  502    0  0.39306354068E+03 -0.88822578293E+03 -0.15976975680E+04  0.18697811416E+04  0.10100000352E+00 0. -1.
       -3    1    3    3    0  502 -0.39306354068E+03  0.88822578293E+03  0.14966101248E+04  0.17841765228E+04  0.10100000352E+00 0.  1.
</event>
<event>
 5   0  0.3032442E-07  0.3626779E+04  0.7818609E-02  0.8084385E-01
        2   -1    0    0  501    0  0.00000000000E+00  0.00000000000E+00  0.18185257826E+04  0.18185257826E+04  0.25500000920E-02 0.  1.
       -2   -1    0    0    0  501  0.00000000000E+00  0.00000000000E+00 -0.18082679813E+04  0.18082679813E+04  0.25500000920E-02 0. -1.
    10030    2    1    2    0    0  0.00000000000E+00  0.00000000000E+00  0.10257801295E+02  0.36267937638E+04  0.36267792575E+04 0.  0.
        3    1    3    3  502    0  0.10078664326E+04  0.12970344753E+04 -0.76317669048E+03  0.18112238534E+04  0.10100000352E+00 0. -1.
       -3    1    3    3    0  502 -0.10078664326E+04 -0.12970344753E+04  0.77343449177E+03  0.18155699104E+04  0.10100000352E+00 0.  1.
</event>
<event>
 5   0  0.3008879E-07  0.3714955E+04  0.7818609E-02  0.8064656E-01
       -2   -1    0    0    0  501  0.00000000000E+00  0.00000000000E+00  0.15576781222E+04  0.15576781222E+04  0.25500000920E-02 0.  1.
        2   -1    0    0  501    0  0.00000000000E+00  0.00000000000E+00 -0.22149777085E+04  0.22149777085E+04  0.25500000920E-02 0. -1.
    10030    2    1    2    0    0  0.00000000000E+00  0.00000000000E+00 -0.65729958637E+03  0.37726558307E+04  0.37149548141E+04 0.  0.
        2    1    3    3  502    0  0.11802186400E+04 -0.84454795073E+03 -0.15059861698E+04  0.20914520369E+04  0.25500000920E-02 0. -1.
       -2    1    3    3    0  502 -0.11802186400E+04  0.84454795073E+03  0.84868658340E+03  0.16812037937E+04  0.25500000920E-02 0.  1.
</event>
<event>
 5   0  0.9341000E-08  0.3703636E+04  0.7818609E-02  0.8067156E-01
       -1   -1    0    0    0  501  0.00000000000E+00  0.00000000000E+00  0.18770416804E+04  0.18770416804E+04  0.50400001928E-02 0. -1.
        1   -1    0    0  501    0  0.00000000000E+00  0.00000000000E+00 -0.18269334381E+04  0.18269334381E+04  0.50400001928E-02 0.  1.
    10030    2    1    2    0    0  0.00000000000E+00  0.00000000000E+00  0.50108242280E+02  0.37039751186E+04  0.37036361650E+04 0.  0.
        1    1    3    3  502    0  0.55410905624E+03  0.18761073030E+03  0.17821997163E+04  0.18757586361E+04  0.50400001928E-02 0. -1.
       -1    1    3    3    0  502 -0.55410905624E+03 -0.18761073030E+03 -0.17320914740E+04  0.18282164824E+04  0.50400001928E-02 0.  1.
</event>
<event>
 5   0  0.2897133E-07  0.3720452E+04  0.7818609E-02  0.8063445E-01
       -2   -1    0    0    0  501  0.00000000000E+00  0.00000000000E+00  0.16889349158E+04  0.16889349158E+04  0.25500000920E-02 0. -1.
        2   -1    0    0  501    0  0.00000000000E+00  0.00000000000E+00 -0.20488888952E+04  0.20488888952E+04  0.25500000920E-02 0.  1.
    10030    2    1    2    0    0  0.00000000000E+00  0.00000000000E+00 -0.35995397945E+03  0.37378238110E+04  0.37204515821E+04 0.  0.
        4    1    3    3  502    0  0.13220720485E+04  0.95970484244E+03  0.71385726632E+03  0.17828352969E+04  0.12699999809E+01 0. -1.
       -4    1    3    3    0  502 -0.13220720485E+04 -0.95970484244E+03 -0.10738112458E+04  0.19549885142E+04  0.12699999809E+01 0.  1.
</event>
<event>
 5   0  0.3032442E-07  0.3657997E+04  0.7818609E-02  0.8077335E-01
        2   -1    0    0  501    0  0.00000000000E+00  0.00000000000E+00  0.22280402221E+04  0.22280402221E+04  0.25500000920E-02 0.  1.
       -2   -1    0    0    0  501  0.00000000000E+00  0.00000000000E+00 -0.15014247389E+04  0.15014247389E+04  0.25500000920E-02 0. -1.
    10030    2    1    2    0    0  0.00000000000E+00  0.00000000000E+00  0.72661548320E+03  0.37294649610E+04  0.36579965603E+04 0.  0.
        3    1    3    3  502    0  0.13893176109E+04  0.57789826855E+02  0.15746675366E+04  0.21007429517E+04  0.10100000352E+00 0.  1.
       -3    1    3    3    0  502 -0.13893176109E+04 -0.57789826855E+02 -0.84805205341E+03  0.16287220093E+04  0.10100000352E+00 0. -1.
</event>
<event>
 5   0  0.9646615E-08  0.3651283E+04  0.7818609E-02  0.8078845E-01
        1   -1    0    0  501    0  0.00000000000E+00  0.00000000000E+00  0.23285462013E+04  0.23285462013E+04  0.50400001928E-02 0.  1.
       -1   -1    0    0    0  501  0.00000000000E+00  0.00000000000E+00 -0.14313510985E+04  0.14313510985E+04  0.50400001928E-02 0. -1.
    10030    2    1    2    0    0  0.00000000000E+00  0.00000000000E+00  0.89719510276E+03  0.37598972998E+04  0.36512831515E+04 0.  0.
        2    1    3    3  502    0  0.24358105359E+03  0.16047042669E+04 -0.41206363403E+03  0.16745757530E+04  0.25500000920E-02 0. -1.
       -2    1    3    3    0  502 -0.24358105359E+03 -0.16047042669E+04  0.13092587368E+04  0.20853215468E+04  0.25500000920E-02 0.  1.
</event>
<event>
 5   0  0.9341000E-08  0.3688931E+04  0.7818609E-02  0.8070419E-01
       -1   -1    0    0    0  501  0.00000000000E+00  0.00000000000E+00  0.13047829733E+04  0.13047829733E+04  0.50400001928E-02 0. -1.
        1   -1    0    0  501    0  0.00000000000E+00  0.00000000000E+00 -0.26073704750E+04  0.26073704750E+04  0.50400001928E-02 0.  1.
    10030    2    1    2    0    0  0.00000000000E+00  0.00000000000E+00 -0.13025875018E+04  0.39121534483E+04  0.36889307940E+04 0.  0.
        1    1    3    3  502    0 -0.61290377334E+03  0.10915371648E+04 -0.20878653481E+04  0.24343964610E+04  0.50400001928E-02 0.  1.
       -1    1    3    3    0  502  0.61290377334E+03 -0.10915371648E+04  0.78527784631E+03  0.14777569873E+04  0.50400001928E-02 0. -1.
</event>
<event>
 5   0  0.2996969E-07  0.3700605E+04  0.7818609E-02  0.8067828E-01
       -2   -1    0    0    0  501  0.00000000000E+00  0.00000000000E+00  0.13873731389E+04  0.13873731389E+04  0.25500000920E-02 0.  1.
        2   -1    0    0  501    0  0.00000000000E+00  0.00000000000E+00 -0.24676987548E+04  0.24676987548E+04  0.25500000920E-02 0. -1.
    10030    2    1    2    0    0  0.00000000000E+00  0.00000000000E+00 -0.10803256159E+04  0.38550718937E+04  0.37006047978E+04 0.  0.
        1    1    3    3  502    0 -0.10889316438E+04 -0.38949416033E+03 -0.20447993955E+04  0.23491876029E+04  0.50400001928E-02 0. -1.
       -1    1    3    3    0  502  0.10889316438E+04  0.38949416033E+03  0.96447377956E+03  0.15058842908E+04  0.50400001928E-02 0.  1.
</event>
<event>
 5   0  0.9418945E-08  0.3351081E+04  0.7818609E-02  0.8150018E-01
       -1   -1    0    0    0  501  0.00000000000E+00  0.00000000000E+00  0.86572438156E+03  0.86572438157E+03  0.50400001928E-02 0. -1.
        1   -1    0    0  501    0  0.00000000000E+00  0.00000000000E+00 -0.32428748815E+04  0.32428748815E+04  0.50400001928E-02 0.  1.
    10030    2    1    2    0    0  0.00000000000E+00  0.00000000000E+00 -0.23771504999E+04  0.41085992631E+04  0.33510809309E+04 0.  0.
        5    1    3    3  502    0  0.10030149299E+04 -0.89980935416E+03  0.32389010835E+02  0.13478749799E+04  0.46999998093E+01 0.  1.
       -5    1    3    3    0  502 -0.10030149299E+04  0.89980935416E+03 -0.24095395108E+04  0.27607242831E+04  0.46999998093E+01 0. -1.
</event>
<event>
 5   0  0.9341000E-08  0.3698129E+04  0.7818609E-02  0.8068377E-01
       -1   -1    0    0    0  501  0.00000000000E+00  0.00000000000E+00  0.14547958488E+04  0.14547958489E+04  0.50400001928E-02 0.  1.
        1   -1    0    0  501    0  0.00000000000E+00  0.00000000000E+00 -0.23501850348E+04  0.23501850348E+04  0.50400001928E-02 0. -1.
    10030    2    1    2    0    0  0.00000000000E+00  0.00000000000E+00 -0.89538918596E+03  0.38049808837E+04  0.36981289500E+04 0.  0.
        1    1    3    3  502    0 -0.12903300241E+04  0.10271509475E+04 -0.13079435875E+04  0.21049244804E+04  0.50400001928E-02 0. -1.
       -1    1    3    3    0  502  0.12903300241E+04 -0.10271509475E+04  0.41255440158E+03  0.17000564033E+04  0.50400001928E-02 0.  1.
</event>
<event>
 5   0  0.3032442E-07  0.3729031E+04  0.7818609E-02  0.8061558E-01
       -2   -1    0    0    0  501  0.00000000000E+00  0.00000000000E+00  0.33888095989E+04  0.33888095989E+04  0.25500000920E-02 0. -1.
        2   -1    0    0  501    0  0.00000000000E+00  0.00000000000E+00 -0.10258524928E+04  0.10258524928E+04  0.25500000920E-02 0.  1.
    10030    2    1    2    0    0  0.00000000000E+00  0.00000000000E+00  0.23629571062E+04  0.44146620917E+04  0.37290313887E+04 0.  0.
        3    1    3    3  502    0  0.71330896441E+02 -0.12101953895E+04 -0.49558262897E+03  0.13096805450E+04  0.10100000352E+00 0.  1.
       -3    1    3    3    0  502 -0.71330896441E+02  0.12101953895E+04  0.28585397351E+04  0.31049815467E+04  0.10100000352E+00 0. -1.
</event>
<event>
 5   0  0.9341000E-08  0.3702572E+04  0.7818609E-02  0.8067392E-01
       -1   -1    0    0    0  501  0.00000000000E+00  0.00000000000E+00  0.22572281449E+04  0.22572281449E+04  0.50400001928E-02 0.  1.
        1   -1    0    0  501    0  0.00000000000E+00  0.00000000000E+00 -0.15183491108E+04  0.15183491108E+04  0.50400001928E-02 0. -1.
    10030    2    1    2    0    0  0.00000000000E+00  0.00000000000E+00  0.73887903409E+03  0.37755772557E+04  0.37025722663E+04 0.  0.
        1    1    3    3  502    0 -0.81924550306E+03 -0.67953295451E+03  0.19140108128E+04  0.21900606435E+04  0.50400001928E-02 0.  1.
       -1    1    3    3    0  502  0.81924550306E+03  0.67953295451E+03 -0.11751317787E+04  0.15855166123E+04  0.50400001928E-02 0. -1.
</event>
<event>
 5   0  0.9341000E-08  0.3716496E+04  0.7818609E-02  0.8064316E-01
       -1   -1    0    0    0  501  0.00000000000E+00  0.00000000000E+00  0.17662861383E+04  0.17662861383E+04  0.50400001928E-02 0.  1.
        1   -1    0    0  501    0  0.00000000000E+00  0.00000000000E+00 -0.19549977765E+04  0.19549977765E+04  0.50400001928E-02 0. -1.
    10030    2    1    2    0    0  0.00000000000E+00  0.00000000000E+00 -0.18871163819E+03  0.37212839148E+04  0.37164959158E+04 0.  0.
        1    1    3    3  502    0  0.10514218436E+03  0.54190341806E+03 -0.18710067870E+04  0.19507384731E+04  0.50400001928E-02 0. -1.
       -1    1    3    3    0  502 -0.10514218436E+03 -0.54190341806E+03  0.16822951488E+04  0.17705454417E+04  0.50400001928E-02 0.  1.
</event>
<event>
 5   0  0.9646615E-08  0.3678353E+04  0.7818609E-02  0.8072776E-01
        1   -1    0    0  501    0  0.00000000000E+00  0.00000000000E+00  0.22962469581E+04  0.22962469581E+04  0.50400001928E-02 0.  1.
       -1   -1    0    0    0  501  0.00000000000E+00  0.00000000000E+00 -0.14730864999E+04  0.14730864999E+04  0.50400001928E-02 0. -1.
    10030    2    1    2    0    0  0.00000000000E+00  0.00000000000E+00  0.82316045822E+03  0.37693334579E+04  0.36783531066E+04 0.  0.
        2    1    3    3  502    0 -0.84850337392E+03  0.70060132454E+03  0.19217232405E+04  0.22144571355E+04  0.25500000920E-02 0.  1.
       -2    1    3    3    0  502  0.84850337392E+03 -0.70060132454E+03 -0.10985627823E+04  0.15548763225E+04  0.25500000920E-02 0. -1.
</event>
<event>
 5   0  0.2996969E-07  0.3695800E+04  0.7818609E-02  0.8068893E-01
        2   -1    0    0  501    0  0.00000000000E+00  0.00000000000E+00  0.26856781821E+04  0.26856781821E+04  0.25500000920E-02 0. -1.
       -2   -1    0    0    0  501  0.00000000000E+00  0.00000000000E+00 -0.12714606435E+04  0.12714606435E+04  0.25500000920E-02 0.  1.
    10030    2    1    2    0    0  0.00000000000E+00  0.00000000000E+00  0.14142175386E+04  0.39571388257E+04  0.36957998376E+04 0.  0.
        1    1    3    3  502    0 -0.90993411834E+03 -0.14318082517E+04 -0.77277896665E+02  0.16982422803E+04  0.50400001928E-02 0.  1.
       -1    1    3    3    0  502  0.90993411834E+03  0.14318082517E+04  0.14914954353E+04  0.22588965454E+04  0.50400001928E-02 0. -1.
</event>
<event>
 5   0  0.3032442E-07  0.3701953E+04  0.7818609E-02  0.8067529E-01
        2   -1    0    0  501    0  0.00000000000E+00  0.00000000000E+00  0.21819954927E+04  0.21819954927E+04  0.25500000920E-02 0. -1.
       -2   -1    0    0    0  501  0.00000000000E+00  0.00000000000E+00 -0.15701750042E+04  0.15701750042E+04  0.25500000920E-02 0.  1.
    10030    2    1    2    0    0  0.00000000000E+00  0.00000000000E+00  0.61182048843E+03  0.37521704969E+04  0.37019534206E+04 0.  0.
        3    1    3    3  502    0  0.94017528915E+03  0.30644430291E+03  0.18918325167E+04  0.21346821699E+04  0.10100000352E+00 0. -1.
       -3    1    3    3    0  502 -0.94017528915E+03 -0.30644430291E+03 -0.12800120283E+04  0.16174883270E+04  0.10100000352E+00 0.  1.
</event>
<event>
 5   0  0.3008879E-07  0.3601597E+04  0.7818609E-02  0.8090126E-01
       -2   -1    0    0    0  501  0.00000000000E+00  0.00000000000E+00  0.15785115374E+04  0.15785115374E+04  0.25500000920E-02 0. -1.
        2   -1    0    0  501    0  0.00000000000E+00  0.00000000000E+00 -0.20543875374E+04  0.20543875374E+04  0.25500000920E-02 0.  1.
    10030    2    1    2    0    0  0.00000000000E+00  0.00000000000E+00 -0.47587599995E+03  0.36328990748E+04  0.36015965516E+04 0.  0.
        2    1    3    3  502    0 -0.74089597103E+03  0.15015820220E+04 -0.90641882290E+03  0.19040143096E+04  0.25500000920E-02 0.  1.
       -2    1    3    3    0  502  0.74089597103E+03 -0.15015820220E+04  0.43054282294E+03  0.17288847651E+04  0.25500000920E-02 0. -1.
</event>
<event>
 5   0  0.2897133E-07  0.3688714E+04  0.7818609E-02  0.8070468E-01
       -2   -1    0    0    0  501  0.00000000000E+00  0.00000000000E+00  0.16947827850E+04  0.16947827850E+04  0.25500000920E-02 0.  1.
        2   -1    0    0  501    0  0.00000000000E+00  0.00000000000E+00 -0.20071315718E+04  0.20071315718E+04  0.25500000920E-02 0. -1.
    10030    2    1    2    0    0  0.00000000000E+00  0.00000000000E+00 -0.31234878676E+03  0.37019143568E+04  0.36887136160E+04 0.  0.
        4    1    3    3  502    0  0.48492409541E+03 -0.17158869210E+04  0.31692660458E+03  0.18110393120E+04  0.12699999809E+01 0.  1.
       -4    1    3    3    0  502 -0.48492409541E+03  0.17158869210E+04 -0.62927539134E+03  0.18908750448E+04  0.12699999809E+01 0. -1.
</event>
<event>
 5   0  0.3032442E-07  0.3695725E+04  0.7818609E-02  0.8068910E-01
        2   -1    0    0  501    0  0.00000000000E+00  0.00000000000E+00  0.10779793005E+04  0.10779793005E+04  0.25500000920E-02 0. -1.
       -2   -1    0    0    0  501  0.00000000000E+00  0.00000000000E+00 -0.31675886768E+04  0.31675886768E+04  0.25500000920E-02 0.  1.
    10030    2    1    2    0    0  0.00000000000E+00  0.00000000000E+00 -0.20896093763E+04  0.42455679773E+04  0.36957245710E+04 0.  0.
        3    1    3    3  502    0  0.12429700085E+04  0.11089603536E+04 -0.12590594945E+03  0.16705148387E+04  0.10100000352E+00 0. -1.
       -3    1    3    3    0  502 -0.12429700085E+04 -0.11089603536E+04 -0.19637034268E+04  0.25750531386E+04  0.10100000352E+00 0.  1.
</event>
<event>
 5   0  0.9341000E-08  0.3736655E+04  0.7818609E-02  0.8059887E-01
       -1   -1    0    0    0  501  0.00000000000E+00  0.00000000000E+00  0.20994510712E+04  0.20994510712E+04  0.50400001928E-02 0. -1.
        1   -1    0    0  501    0  0.00000000000E+00  0.00000000000E+00 -0.16626478838E+04  0.16626478838E+04  0.50400001928E-02 0.  1.
    10030    2    1    2    0    0  0.00000000000E+00  0.00000000000E+00  0.43680318736E+03  0.37620989550E+04  0.37366551249E+04 0.  0.
        3    1    3    3  502    0 -0.56814831825E+03 -0.69260962421E+03  0.18691227862E+04  0.20727085186E+04  0.10100000352E+00 0. -1.
       -3    1    3    3    0  502  0.56814831825E+03  0.69260962421E+03 -0.14323195988E+04  0.16893904364E+04  0.10100000352E+00 0.  1.
</event>
<event>
 5   0  0.2897133E-07  0.3705214E+04  0.7818609E-02  0.8066807E-01
       -2   -1    0    0    0  501  0.00000000000E+00  0.00000000000E+00  0.13759001617E+04  0.13759001617E+04  0.25500000920E-02 0. -1.
        2   -1    0    0  501    0  0.00000000000E+00  0.00000000000E+00 -0.24944783843E+04  0.24944783843E+04  0.25500000920E-02 0.  1.
    10030    2    1    2    0    0  0.00000000000E+00  0.00000000000E+00 -0.11185782226E+04  0.38703785460E+04  0.37052142784E+04 0.  0.
        4    1    3    3  502    0  0.99582798421E+03 -0.14109770075E+04  0.14113960683E+03  0.17327583476E+04  0.12699999809E+01 0. -1.
       -4    1    3    3    0  502 -0.99582798421E+03  0.14109770075E+04 -0.12597178295E+04  0.21376201984E+04  0.12699999809E+01 0.  1.
</event>
<event>
 5   0  0.3008879E-07  0.3672362E+04  0.7818609E-02  0.8074115E-01
        2   -1    0    0  501    0  0.00000000000E+00  0.00000000000E+00  0.25456866715E+04  0.25456866715E+04  0.25500000920E-02 0.  1.
       -2   -1    0    0    0  501  0.00000000000E+00  0.00000000000E+00 -0.13244208407E+04  0.13244208407E+04  0.25500000920E-02 0. -1.
    10030    2    1    2    0    0  0.00000000000E+00  0.00000000000E+00  0.12212658308E+04  0.38701075122E+04  0.36723619003E+04 0.  0.
        2    1    3    3  502    0 -0.94422840803E+03  0.14458229544E+04 -0.47147592953E+02  0.17274820397E+04  0.25500000920E-02 0. -1.
       -2    1    3    3    0  502  0.94422840803E+03 -0.14458229544E+04  0.12684134238E+04  0.21426254725E+04  0.25500000920E-02 0.  1.
</event>
<event>
 5   0  0.9646615E-08  0.3698958E+04  0.7818609E-02  0.8068193E-01
        1   -1    0    0  501    0  0.00000000000E+00  0.00000000000E+00  0.21576557328E+04  0.21576557328E+04  0.50400001928E-02 0. -1.
       -1   -1    0    0    0  501  0.00000000000E+00  0.00000000000E+00 -0.15853189305E+04  0.15853189305E+04  0.50400001928E-02 0.  1.
    10030    2    1    2    0    0  0.00000000000E+00  0.00000000000E+00  0.57233680232E+03  0.37429746634E+04  0.36989579499E+04 0.  0.
        2    1    3    3  502    0  0.50835296866E+02 -0.13241489252E+04  0.15917221917E+04  0.20711190548E+04  0.25500000920E-02 0. -1.
       -2    1    3    3    0  502 -0.50835296866E+02  0.13241489252E+04 -0.10193853894E+04  0.16718556085E+04  0.25500000920E-02 0.  1.
</event>
<event>
 5   0  0.9646615E-08  0.3376317E+04  0.7818609E-02  0.8143743E-01
        1   -1    0    0  501    0  0.00000000000E+00  0.00000000000E+00  0.19860526334E+04  0.19860526334E+04  0.50400001928E-02 0. -1.
       -1   -1    0    0    0  501  0.00000000000E+00  0.00000000000E+00 -0.14349464061E+04  0.14349464061E+04  0.50400001928E-02 0.  1.
    10030    2    1    2    0    0  0.00000000000E+00  0.00000000000E+00  0.55110622726E+03  0.34209990395E+04  0.33763169808E+04 0.  0.
        2    1    3    3  502    0  0.83031849704E+03 -0.20182654849E+03  0.17507453281E+04  0.19481457764E+04  0.25500000920E-02 0. -1.
       -2    1    3    3    0  502 -0.83031849704E+03  0.20182654849E+03 -0.11996391009E+04  0.14728532631E+04  0.25500000920E-02 0.  1.
</event>
<event>
 5   0  0.2996969E-07  0.3315151E+04  0.7818609E-02  0.8159051E-01
        2   -1    0    0  501    0  0.00000000000E+00  0.00000000000E+00  0.26690155624E+04  0.26690155624E+04  0.25500000920E-02 0.  1.
       -2   -1    0    0    0  501  0.00000000000E+00  0.00000000000E+00 -0.10294271182E+04  0.10294271182E+04  0.25500000920E-02 0. -1.
    10030    2    1    2    0    0  0.00000000000E+00  0.00000000000E+00  0.16395884442E+04  0.36984426806E+04  0.33151512779E+04 0.  0.
        1    1    3    3  502    0  0.31602981637E+03  0.16269068424E+04  0.78714871337E+03  0.18347489790E+04  0.50400001928E-02 0. -1.
       -1    1    3    3    0  502 -0.31602981637E+03 -0.16269068424E+04  0.85243973079E+03  0.18636937016E+04  0.50400001928E-02 0.  1.
</event>
<event>
 5   0  0.9341000E-08  0.3623897E+04  0.7818609E-02  0.8085040E-01
        1   -1    0    0  501    0  0.00000000000E+00  0.00000000000E+00  0.16613387525E+04  0.16613387526E+04  0.50400001928E-02 0. -1.
       -1   -1    0    0    0  501  0.00000000000E+00  0.00000000000E+00 -0.19762119299E+04  0.19762119299E+04  0.50400001928E-02 0.  1.
    10030    2    1    2    0    0  0.00000000000E+00  0.00000000000E+00 -0.31487317735E+03  0.36375506824E+04  0.36238970528E+04 0.  0.
        1    1    3    3  502    0 -0.41853772179E+03  0.13738633502E+04  0.95148054107E+03  0.17227854044E+04  0.50400001928E-02 0. -1.
       -1    1    3    3    0  502  0.41853772179E+03 -0.13738633502E+04 -0.12663537184E+04  0.19147652780E+04  0.50400001928E-02 0.  1.
</event>
<event>
 5   0  0.9418945E-08  0.3711352E+04  0.7818609E-02  0.8065451E-01
       -1   -1    0    0    0  501  0.00000000000E+00  0.00000000000E+00  0.11983754751E+04  0.11983754752E+04  0.50400001928E-02 0. -1.
        1   -1    0    0  501    0  0.00000000000E+00  0.00000000000E+00 -0.28735013929E+04  0.28735013929E+04  0.50400001928E-02 0.  1.
    10030    2    1    2    0    0  0.00000000000E+00  0.00000000000E+00 -0.16751259177E+04  0.40718768680E+04  0.37113520970E+04 0.  0.
        5    1    3    3  502    0 -0.64687045148E+03 -0.86059007516E+03 -0.24958273237E+04  0.27181303828E+04  0.46999998093E+01 0.  1.
       -5    1    3    3    0  502  0.64687045148E+03  0.86059007516E+03  0.82070140594E+03  0.13537464852E+04  0.46999998093E+01 0. -1.
</event>
<event>
 5   0  0.9341000E-08  0.3667192E+04  0.7818609E-02  0.8075272E-01
       -1   -1    0    0    0  501  0.00000000000E+00  0.00000000000E+00  0.18578282617E+04  0.18578282617E+04  0.50400001928E-02 0. -1.
        1   -1    0    0  501    0  0.00000000000E+00  0.00000000000E+00 -0.18096793914E+04  0.18096793914E+04  0.50400001928E-02 0.  1.
    10030    2    1    2    0    0  0.00000000000E+00  0.00000000000E+00  0.48148870249E+02  0.36675076531E+04  0.36671915783E+04 0.  0.
        1    1    3    3  502    0  0.95282343676E+03  0.12425832241E+04 -0.93004550095E+03  0.18212276640E+04  0.50400001928E-02 0. -1.
       -1    1    3    3    0  502 -0.95282343676E+03 -0.12425832241E+04  0.97819437120E+03  0.18462799891E+04  0.50400001928E-02 0.  1.
</event>
<event>
 5   0  0.9341000E-08  0.3625606E+04  0.7818609E-02  0.8084651E-01
       -1   -1    0    0    0  501  0.00000000000E+00  0.00000000000E+00  0.13768267645E+04  0.13768267645E+04  0.50400001928E-02 0.  1.
        1   -1    0    0  501    0  0.00000000000E+00  0.00000000000E+00 -0.23868324793E+04  0.23868324793E+04  0.50400001928E-02 0. -1.
    10030    2    1    2    0    0  0.00000000000E+00  0.00000000000E+00 -0.10100057148E+04  0.37636592438E+04  0.36256060679E+04 0.  0.
        3    1    3    3  502    0 -0.59668359740E+03 -0.17044548819E+03 -0.22731418778E+04  0.23563227679E+04  0.10100000352E+00 0. -1.
       -3    1    3    3    0  502  0.59668359740E+03  0.17044548819E+03  0.12631361630E+04  0.14073364759E+04  0.10100000352E+00 0.  1.
</event>
<event>
 5   0  0.3032442E-07  0.3465540E+04  0.7818609E-02  0.8122005E-01
       -2   -1    0    0    0  501  0.00000000000E+00  0.00000000000E+00  0.10274065598E+04  0.10274065598E+04  0.25500000920E-02 0.  1.
        2   -1    0    0  501    0  0.00000000000E+00  0.00000000000E+00 -0.29223995290E+04  0.29223995290E+04  0.25500000920E-02 0. -1.
    10030    2    1    2    0    0  0.00000000000E+00  0.00000000000E+00 -0.18949929693E+04  0.39498060888E+04  0.34655403310E+04 0.  0.
        3    1    3    3  502    0 -0.47471115058E+03  0.22102938881E+03 -0.28300611613E+04  0.28780984789E+04  0.10100000352E+00 0. -1.
       -3    1    3    3    0  502  0.47471115058E+03 -0.22102938881E+03  0.93506819203E+03  0.10717076099E+04  0.10100000352E+00 0.  1.
</event>
<event>
 5   0  0.2996969E-07  0.3697033E+04  0.7818609E-02  0.8068620E-01
       -2   -1    0    0    0  501  0.00000000000E+00  0.00000000000E+00  0.18237514396E+04  0.18237514396E+04  0.25500000920E-02 0. -1.
        2   -1    0    0  501    0  0.00000000000E+00  0.00000000000E+00 -0.18736178782E+04  0.18736178782E+04  0.25500000920E-02 0.  1.
    10030    2    1    2    0    0  0.00000000000E+00  0.00000000000E+00 -0.49866438532E+02  0.36973693178E+04  0.36970330280E+04 0.  0.
        1    1    3    3  502    0 -0.12526367865E+04  0.24874516093E+03 -0.13614829441E+04  0.18667107117E+04  0.50400001928E-02 0.  1.
       -1    1    3    3    0  502  0.12526367865E+04 -0.24874516093E+03  0.13116165056E+04  0.18306586060E+04  0.50400001928E-02 0. -1.
</event>
<event>
 5   0  0.2897133E-07  0.3695460E+04  0.7818609E-02  0.8068969E-01
        2   -1    0    0  501    0  0.00000000000E+00  0.00000000000E+00  0.16751754147E+04  0.16751754147E+04  0.25500000920E-02 0.  1.
       -2   -1    0    0    0  501  0.00000000000E+00  0.00000000000E+00 -0.20380586512E+04  0.20380586512E+04  0.25500000920E-02 0. -1.
    10030    2    1    2    0    0  0.00000000000E+00  0.00000000000E+00 -0.36288323651E+03  0.37132340659E+04  0.36954597799E+04 0.  0.
        4    1    3    3  502    0  0.39169975091E+02  0.99185488213E+02 -0.20349635291E+04  0.20377561742E+04  0.12699999809E+01 0. -1.
       -4    1    3    3    0  502 -0.39169975091E+02 -0.99185488213E+02  0.16720802925E+04  0.16754778917E+04  0.12699999809E+01 0.  1.
</event>
<event>
 5   0  0.9646615E-08  0.3707719E+04  0.7818609E-02  0.8066253E-01
       -1   -1    0    0    0  501  0.00000000000E+00  0.00000000000E+00  0.14234772943E+04  0.14234772943E+04  0.50400001928E-02 0.  1.
        1   -1    0    0  501    0  0.00000000000E+00  0.00000000000E+00 -0.24143654643E+04  0.24143654643E+04  0.50400001928E-02 0. -1.
    10030    2    1    2    0    0  0.00000000000E+00  0.00000000000E+00 -0.99088817002E+03  0.38378427586E+04  0.37077186617E+04 0.  0.
        2    1    3    3  502    0 -0.18495894328E+04 -0.93021142445E+02 -0.40785509382E+03  0.18963068793E+04  0.25500000920E-02 0. -1.
       -2    1    3    3    0  502  0.18495894328E+04  0.93021142445E+02 -0.58303307620E+03  0.19415358794E+04  0.25500000920E-02 0.  1.
</event>
<event>
 5   0  0.2913025E-07  0.3705292E+04  0.7818609E-02  0.8066790E-01
       -2   -1    0    0    0  501  0.00000000000E+00  0.00000000000E+00  0.14044669887E+04  0.14044669887E+04  0.25500000920E-02 0.  1.
        2   -1    0    0  501    0  0.00000000000E+00  0.00000000000E+00 -0.24438434029E+04  0.24438434029E+04  0.25500000920E-02 0. -1.
    10030    2    1    2    0    0  0.00000000000E+00  0.00000000000E+00 -0.10393764141E+04  0.38483103916E+04  0.37052920991E+04 0.  0.
        5    1    3    3  502    0 -0.44309026491E+03  0.12697721191E+04 -0.18430863424E+04  0.22815870733E+04  0.46999998093E+01 0. -1.
       -5    1    3    3    0  502  0.44309026491E+03 -0.12697721191E+04  0.80370992825E+03  0.15667233183E+04  0.46999998093E+01 0.  1.
</event>
<event>
 5   0  0.2913025E-07  0.3696748E+04  0.7818609E-02  0.8068683E-01
        2   -1    0    0  501    0  0.00000000000E+00  0.00000000000E+00  0.18109330560E+04  0.18109330561E+04  0.25500000920E-02 0. -1.
       -2   -1    0    0    0  501  0.00000000000E+00  0.00000000000E+00 -0.18865893186E+04  0.18865893186E+04  0.25500000920E-02 0.  1.
    10030    2    1    2    0    0  0.00000000000E+00  0.00000000000E+00 -0.75656262567E+02  0.36975223747E+04  0.36967482794E+04 0.  0.
        5    1    3    3  502    0 -0.26521795361E+03 -0.14063351685E+04 -0.12078361746E+04  0.18727011197E+04  0.46999998093E+01 0.  1.
       -5    1    3    3    0  502  0.26521795361E+03  0.14063351685E+04  0.11321799121E+04  0.18248212549E+04  0.46999998093E+01 0. -1.
</event>
<event>
 5   0  0.3032442E-07  0.3699236E+04  0.7818609E-02  0.8068131E-01
       -2   -1    0    0    0  501  0.00000000000E+00  0.00000000000E+00  0.13882789219E+04  0.13882789219E+04  0.25500000920E-02 0.  1.
        2   -1    0    0  501    0  0.00000000000E+00  0.00000000000E+00 -0.24642640761E+04  0.24642640761E+04  0.25500000920E-02 0. -1.
    10030    2    1    2    0    0  0.00000000000E+00  0.00000000000E+00 -0.10759851542E+04  0.38525429980E+04  0.36992355291E+04 0.  0.
        3    1    3    3  502    0  0.10985921265E+04 -0.12174229176E+04  0.35307293289E+03  0.16774038652E+04  0.10100000352E+00 0.  1.
       -3    1    3    3    0  502 -0.10985921265E+04  0.12174229176E+04 -0.14290580871E+04  0.21751391329E+04  0.10100000352E+00 0. -1.
</event>
<event>
 5   0  0.2913025E-07  0.3638691E+04  0.7818609E-02  0.8081686E-01
       -2   -1    0    0    0  501  0.00000000000E+00  0.00000000000E+00  0.14752357454E+04  0.14752357454E+04  0.25500000920E-02 0.  1.
        2   -1    0    0  501    0  0.00000000000E+00  0.00000000000E+00 -0.22437209959E+04  0.22437209959E+04  0.25500000920E-02 0. -1.
    10030    2    1    2    0    0  0.00000000000E+00  0.00000000000E+00 -0.76848525055E+03  0.37189567414E+04  0.36386906524E+04 0.  0.
        5    1    3    3  502    0 -0.75036851409E+03  0.16255682388E+04 -0.71459121251E+03  0.19277416054E+04  0.46999998093E+01 0. -1.
       -5    1    3    3    0  502  0.75036851409E+03 -0.16255682388E+04 -0.53894038037E+02  0.17912151360E+04  0.46999998093E+01 0.  1.
</event>
<event>
 5   0  0.3008879E-07  0.3685988E+04  0.7818609E-02  0.8071074E-01
       -2   -1    0    0    0  501  0.00000000000E+00  0.00000000000E+00  0.16554499092E+04  0.16554499092E+04  0.25500000920E-02 0. -1.
        2   -1    0    0  501    0  0.00000000000E+00  0.00000000000E+00 -0.20517846829E+04  0.20517846829E+04  0.25500000920E-02 0.  1.
    10030    2    1    2    0    0  0.00000000000E+00  0.00000000000E+00 -0.39633477370E+03  0.37072345922E+04  0.36859879366E+04 0.  0.
        2    1    3    3  502    0 -0.11205343369E+04  0.14621794488E+04 -0.25381102320E+03  0.18595660721E+04  0.25500000920E-02 0. -1.
       -2    1    3    3    0  502  0.11205343369E+04 -0.14621794488E+04 -0.14252375050E+03  0.18476685201E+04  0.25500000920E-02 0.  1.
</event>
<event>
 5   0  0.2913025E-07  0.3761547E+04  0.7818609E-02  0.8054458E-01
       -2   -1    0    0    0  501  0.00000000000E+00  0.00000000000E+00  0.23861223072E+04  0.23861223072E+04  0.25500000920E-02 0. -1.
        2   -1    0    0  501    0  0.00000000000E+00  0.00000000000E+00 -0.14824506101E+04  0.14824506101E+04  0.25500000920E-02 0.  1.
    10030    2    1    2    0    0  0.00000000000E+00  0.00000000000E+00  0.90367169710E+03  0.38685729172E+04  0.37615467403E+04 0.  0.
        5    1    3    3  502    0 -0.11301490655E+04 -0.52224911696E+03  0.19016643166E+04  0.22729562938E+04  0.46999998093E+01 0. -1.
       -5    1    3    3    0  502  0.11301490655E+04  0.52224911696E+03 -0.99799261949E+03  0.15956166234E+04  0.46999998093E+01 0.  1.
</event>
<event>
 5   0  0.3008879E-07  0.3693825E+04  0.7818609E-02  0.8069332E-01
       -2   -1    0    0    0  501  0.00000000000E+00  0.00000000000E+00  0.17817632366E+04  0.17817632366E+04  0.25500000920E-02 0.  1.
        2   -1    0    0  501    0  0.00000000000E+00  0.00000000000E+00 -0.19144438132E+04  0.19144438132E+04  0.25500000920E-02 0. -1.
    10030    2    1    2    0    0  0.00000000000E+00  0.00000000000E+00 -0.13268057662E+03  0.36962070498E+04  0.36938249038E+04 0.  0.
        2    1    3    3  502    0  0.77303528955E+02  0.18307563027E+04  0.16498217036E+03  0.18397998783E+04  0.25500000920E-02 0.  1.
       -2    1    3    3    0  502 -0.77303528955E+02 -0.18307563027E+04 -0.29766274699E+03  0.18564071715E+04  0.25500000920E-02 0. -1.
</event>
<event>
 5   0  0.2897133E-07  0.3717658E+04  0.7818609E-02  0.8064060E-01
       -2   -1    0    0    0  501  0.00000000000E+00  0.00000000000E+00  0.17319540331E+04  0.17319540331E+04  0.25500000920E-02 0. -1.
        2   -1    0    0  501    0  0.00000000000E+00  0.00000000000E+00 -0.19949977887E+04  0.19949977887E+04  0.25500000920E-02 0.  1.
    10030    2    1    2    0    0  0.00000000000E+00  0.00000000000E+00 -0.26304375554E+03  0.37269518218E+04  0.37176575776E+04 0.  0.
        4    1    3    3  502    0 -0.32396888830E+03  0.49426072224E+02  0.17027639237E+04  0.17340142358E+04  0.12699999809E+01 0. -1.
       -4    1    3    3    0  502  0.32396888830E+03 -0.49426072224E+02 -0.19658076792E+04  0.19929375860E+04  0.12699999809E+01 0.  1.
</event>
<event>
 5   0  0.2996969E-07  0.3680648E+04  0.7818609E-02  0.8072264E-01
       -2   -1    0    0    0  501  0.00000000000E+00  0.00000000000E+00  0.26570549204E+04  0.26570549204E+04  0.25500000920E-02 0. -1.
        2   -1    0    0  501    0  0.00000000000E+00  0.00000000000E+00 -0.12746417311E+04  0.12746417311E+04  0.25500000920E-02 0.  1.
    10030    2    1    2    0    0  0.00000000000E+00  0.00000000000E+00  0.13824131894E+04  0.39316966515E+04  0.36806483577E+04 0.  0.
        1    1    3    3  502    0  0.76379756459E+03  0.28772002822E+03 -0.10707284809E+04  0.13463391156E+04  0.50400001928E-02 0.  1.
       -1    1    3    3    0  502 -0.76379756459E+03 -0.28772002822E+03  0.24531416702E+04  0.25853575359E+04  0.50400001928E-02 0. -1.
</event>
<event>
 5   0  0.9341000E-08  0.3687397E+04  0.7818609E-02  0.8070761E-01
        1   -1    0    0  501    0  0.00000000000E+00  0.00000000000E+00  0.19616836146E+04  0.19616836146E+04  0.50400001928E-02 0.  1.
       -1   -1    0    0    0  501  0.00000000000E+00  0.00000000000E+00 -0.17328097721E+04  0.17328097721E+04  0.50400001928E-02 0. -1.
    10030    2    1    2    0    0  0.00000000000E+00  0.00000000000E+00  0.22887384245E+03  0.36944933867E+04  0.36873972051E+04 0.  0.
        1    1    3    3  502    0  0.18080939928E+04  0.35769831747E+03  0.16004995397E+03  0.18500724204E+04  0.50400001928E-02 0.  1.
       -1    1    3    3    0  502 -0.18080939928E+04 -0.35769831747E+03  0.68823888482E+02  0.18444209662E+04  0.50400001928E-02 0. -1.
</event>
<event>
 5   0  0.9418945E-08  0.3573524E+04  0.7818609E-02  0.8096583E-01
        1   -1    0    0  501    0  0.00000000000E+00  0.00000000000E+00  0.24685583535E+04  0.24685583535E+04  0.50400001928E-02 0. -1.
       -1   -1    0    0    0  501  0.00000000000E+00  0.00000000000E+00 -0.12932723623E+04  0.12932723623E+04  0.50400001928E-02 0.  1.
    10030    2    1    2    0    0  0.00000000000E+00  0.00000000000E+00  0.11752859912E+04  0.37618307158E+04  0.35735239153E+04 0.  0.
        5    1    3    3  502    0 -0.98304585426E+03  0.13543834858E+04  0.12465345563E+04  0.20867688583E+04  0.46999998093E+01 0. -1.
       -5    1    3    3    0  502  0.98304585426E+03 -0.13543834858E+04 -0.71248565080E+02  0.16750618574E+04  0.46999998093E+01 0.  1.
</event>
<event>
 5   0  0.9646615E-08  0.3689882E+04  0.7818609E-02  0.8070208E-01
       -1   -1    0    0    0  501  0.00000000000E+00  0.00000000000E+00  0.14750354426E+04  0.14750354426E+04  0.50400001928E-02 0.  1.
        1   -1    0    0  501    0  0.00000000000E+00  0.00000000000E+00 -0.23076099883E+04  0.23076099883E+04  0.50400001928E-02 0. -1.
    10030    2    1    2    0    0  0.00000000000E+00  0.00000000000E+00 -0.83257454571E+03  0.37826454309E+04  0.36898815810E+04 0.  0.
        2    1    3    3  502    0 -0.63865853735E+03  0.15934711925E+04  0.27655221883E+03  0.17388261266E+04  0.25500000920E-02 0.  1.
       -2    1    3    3    0  502  0.63865853735E+03 -0.15934711925E+04 -0.11091267645E+04  0.20438193043E+04  0.25500000920E-02 0. -1.
</event>
<event>
 5   0  0.9341000E-08  0.3710219E+04  0.7818609E-02  0.8065701E-01
        3   -1    0    0  501    0  0.00000000000E+00  0.00000000000E+00  0.18767262590E+04  0.18767262617E+04  0.10100000352E+00 0.  1.
       -3   -1    0    0    0  501  0.00000000000E+00  0.00000000000E+00 -0.18337415123E+04  0.18337415151E+04  0.10100000352E+00 0. -1.
    10030    2    1    2    0    0  0.00000000000E+00  0.00000000000E+00  0.42984746741E+02  0.37104677768E+04  0.37102187852E+04 0.  0.
        4    1    3    3  502    0 -0.34435171138E+03 -0.18016721263E+04 -0.25570612267E+03  0.18520226202E+04  0.12699999809E+01 0.  1.
       -4    1    3    3    0  502  0.34435171138E+03  0.18016721263E+04  0.29869086942E+03  0.18584451566E+04  0.12699999809E+01 0. -1.
</event>
<event>
 5   0  0.2996969E-07  0.3702260E+04  0.7818609E-02  0.8067461E-01
       -2   -1    0    0    0  501  0.00000000000E+00  0.00000000000E+00  0.18639221791E+04  0.18639221791E+04  0.25500000920E-02 0. -1.
        2   -1    0    0  501    0  0.00000000000E+00  0.00000000000E+00 -0.18384260475E+04  0.18384260475E+04  0.25500000920E-02 0.  1.
    10030    2    1    2    0    0  0.00000000000E+00  0.00000000000E+00  0.25496131586E+02  0.37023482266E+04  0.37022604363E+04 0.  0.
        1    1    3    3  502    0  0.13505899878E+03 -0.14012132883E+04 -0.11893800490E+04  0.18428956871E+04  0.50400001928E-02 0.  1.
       -1    1    3    3    0  502 -0.13505899878E+03  0.14012132883E+04  0.12148761806E+04  0.18594525395E+04  0.50400001928E-02 0. -1.
</event>
<event>
 5   0  0.2897133E-07  0.3680106E+04  0.7818609E-02  0.8072385E-01
        2   -1    0    0  501    0  0.00000000000E+00  0.00000000000E+00  0.19813457328E+04  0.19813457328E+04  0.25500000920E-02 0.  1.
       -2   -1    0    0    0  501  0.00000000000E+00  0.00000000000E+00 -0.17088358021E+04  0.17088358021E+04  0.25500000920E-02 0. -1.
    10030    2    1    2    0    0  0.00000000000E+00  0.00000000000E+00  0.27250993064E+03  0.36901815349E+04  0.36801057184E+04 0.  0.
        4    1    3    3  502    0  0.66873919783E+03 -0.14077990821E+04 -0.84452449201E+03  0.17726628559E+04  0.12699999809E+01 0. -1.
       -4    1    3    3    0  502 -0.66873919783E+03  0.14077990821E+04  0.11170344227E+04  0.19175186790E+04  0.12699999809E+01 0.  1.
</event>
<event>
 5   0  0.9341000E-08  0.3715284E+04  0.7818609E-02  0.8064583E-01
       -1   -1    0    0    0  501  0.00000000000E+00  0.00000000000E+00  0.19256184231E+04  0.19256184231E+04  0.50400001928E-02 0.  1.
        1   -1    0    0  501    0  0.00000000000E+00  0.00000000000E+00 -0.17920649440E+04  0.17920649440E+04  0.50400001928E-02 0. -1.
    10030    2    1    2    0    0  0.00000000000E+00  0.00000000000E+00  0.13355347904E+03  0.37176833671E+04  0.37152837154E+04 0.  0.
        4    1    3    3  502    0 -0.10960615250E+04 -0.90660591260E+03  0.12623482233E+04  0.19017912076E+04  0.12699999809E+01 0.  1.
       -4    1    3    3    0  502  0.10960615250E+04  0.90660591260E+03 -0.11287947442E+04  0.18158921595E+04  0.12699999809E+01 0. -1.
</event>
<event>
 5   0  0.9646615E-08  0.3689399E+04  0.7818609E-02  0.8070315E-01
        1   -1    0    0  501    0  0.00000000000E+00  0.00000000000E+00  0.19068966176E+04  0.19068966176E+04  0.50400001928E-02 0.  1.
       -1   -1    0    0    0  501  0.00000000000E+00  0.00000000000E+00 -0.17845308817E+04  0.17845308817E+04  0.50400001928E-02 0. -1.
    10030    2    1    2    0    0  0.00000000000E+00  0.00000000000E+00  0.12236573586E+03  0.36914274994E+04  0.36893988141E+04 0.  0.
        2    1    3    3  502    0 -0.12324795594E+04  0.10410073528E+04  0.95622141271E+03  0.18753830443E+04  0.25500000920E-02 0.  1.
       -2    1    3    3    0  502  0.12324795594E+04 -0.10410073528E+04 -0.83385567685E+03  0.18160444550E+04  0.25500000920E-02 0. -1.
</event>
<event>
 5   0  0.9646615E-08  0.3694665E+04  0.7818609E-02  0.8069145E-01
        1   -1    0    0  501    0  0.00000000000E+00  0.00000000000E+00  0.23031072760E+04  0.23031072760E+04  0.50400001928E-02 0.  1.
       -1   -1    0    0    0  501  0.00000000000E+00  0.00000000000E+00 -0.14817532428E+04  0.14817532429E+04  0.50400001928E-02 0. -1.
    10030    2    1    2    0    0  0.00000000000E+00  0.00000000000E+00  0.82135403316E+03  0.37848605189E+04  0.36946646261E+04 0.  0.
        2    1    3    3  502    0 -0.13263048893E+04 -0.13091216843E+03  0.17211300263E+04  0.21768121698E+04  0.25500000920E-02 0.  1.
       -2    1    3    3    0  502  0.13263048893E+04  0.13091216843E+03 -0.89977599311E+03  0.16080483491E+04  0.25500000920E-02 0. -1.
</event>
<event>
 5   0  0.3008879E-07  0.3694746E+04  0.7818609E-02  0.8069127E-01
        2   -1    0    0  501    0  0.00000000000E+00  0.00000000000E+00  0.16625396297E+04  0.16625396297E+04  0.25500000920E-02 0.  1.
       -2   -1    0    0    0  501  0.00000000000E+00  0.00000000000E+00 -0.20527552027E+04  0.20527552027E+04  0.25500000920E-02 0. -1.
    10030    2    1    2    0    0  0.00000000000E+00  0.00000000000E+00 -0.39021557309E+03  0.37152948324E+04  0.36947459315E+04 0.  0.
        2    1    3    3  502    0 -0.10118225183E+04 -0.19110891785E+02 -0.17492249866E+04  0.20208755747E+04  0.25500000920E-02 0. -1.
       -2    1    3    3    0  502  0.10118225183E+04  0.19110891785E+02  0.13590094135E+04  0.16944192577E+04  0.25500000920E-02 0.  1.
</event>
<event>
 5   0  0.9341000E-08  0.3691543E+04  0.7818609E-02  0.8069839E-01
       -1   -1    0    0    0  501  0.00000000000E+00  0.00000000000E+00  0.32627085725E+04  0.32627085725E+04  0.50400001928E-02 0.  1.
        1   -1    0    0  501    0  0.00000000000E+00  0.00000000000E+00 -0.10441852177E+04  0.10441852177E+04  0.50400001928E-02 0. -1.
    10030    2    1    2    0    0  0.00000000000E+00  0.00000000000E+00  0.22185233548E+04  0.43068937902E+04  0.36915428000E+04 0.  0.
        1    1    3    3  502    0 -0.79508713594E+03 -0.74981127665E+03  0.28446515753E+04  0.30473633011E+04  0.50400001928E-02 0.  1.
       -1    1    3    3    0  502  0.79508713594E+03  0.74981127665E+03 -0.62612822046E+03  0.12595304890E+04  0.50400001928E-02 0. -1.
</event>
<event>
 5   0  0.9341000E-08  0.3700449E+04  0.7818609E-02  0.8067862E-01
       -1   -1    0    0    0  501  0.00000000000E+00  0.00000000000E+00  0.24252002919E+04  0.24252002919E+04  0.50400001928E-02 0. -1.
        1   -1    0    0  501    0  0.00000000000E+00  0.00000000000E+00 -0.14115665477E+04  0.14115665477E+04  0.50400001928E-02 0.  1.
    10030    2    1    2    0    0  0.00000000000E+00  0.00000000000E+00  0.10136337442E+04  0.38367668397E+04  0.37004494882E+04 0.  0.
        4    1    3    3  502    0 -0.16014307779E+04 -0.15442448509E+03  0.14542069169E+04  0.21686739792E+04  0.12699999809E+01 0. -1.
       -4    1    3    3    0  502  0.16014307779E+04  0.15442448509E+03 -0.44057317264E+03  0.16680928605E+04  0.12699999809E+01 0.  1.
</event>
<event>
 5   0  0.9341000E-08  0.3704540E+04  0.7818609E-02  0.8066956E-01
       -1   -1    0    0    0  501  0.00000000000E+00  0.00000000000E+00  0.18782292578E+04  0.18782292578E+04  0.50400001928E-02 0.  1.
        1   -1    0    0  501    0  0.00000000000E+00  0.00000000000E+00 -0.18266696993E+04  0.18266696993E+04  0.50400001928E-02 0. -1.
    10030    2    1    2    0    0  0.00000000000E+00  0.00000000000E+00  0.51559558483E+02  0.37048989571E+04  0.37045401732E+04 0.  0.
        3    1    3    3  502    0 -0.51761549230E+03 -0.14203437867E+04 -0.10446519591E+04  0.18375527193E+04  0.10100000352E+00 0. -1.
       -3    1    3    3    0  502  0.51761549230E+03  0.14203437867E+04  0.10962115176E+04  0.18673462378E+04  0.10100000352E+00 0.  1.
</event>
<event>
 5   0  0.9341000E-08  0.3647727E+04  0.7818609E-02  0.8079646E-01
       -1   -1    0    0    0  501  0.00000000000E+00  0.00000000000E+00  0.12241363732E+04  0.12241363732E+04  0.50400001928E-02 0. -1.
        1   -1    0    0  501    0  0.00000000000E+00  0.00000000000E+00 -0.27174077366E+04  0.27174077366E+04  0.50400001928E-02 0.  1.
    10030    2    1    2    0    0  0.00000000000E+00  0.00000000000E+00 -0.14932713635E+04  0.39415441098E+04  0.36477267722E+04 0.  0.
        4    1    3    3  502    0 -0.73978891999E+03  0.72626067363E+03 -0.23680821549E+04  0.25850641999E+04  0.12699999809E+01 0.  1.
       -4    1    3    3    0  502  0.73978891999E+03 -0.72626067363E+03  0.87481079146E+03  0.13564799099E+04  0.12699999809E+01 0. -1.
</event>
<event>
 5   0  0.2897133E-07  0.3682716E+04  0.7818609E-02  0.8071803E-01
       -2   -1    0    0    0  501  0.00000000000E+00  0.00000000000E+00  0.15079125714E+04  0.15079125714E+04  0.25500000920E-02 0. -1.
        2   -1    0    0  501    0  0.00000000000E+00  0.00000000000E+00 -0.22485387478E+04  0.22485387478E+04  0.25500000920E-02 0.  1.
    10030    2    1    2    0    0  0.00000000000E+00  0.00000000000E+00 -0.74062617642E+03  0.37564513192E+04  0.36827163046E+04 0.  0.
        4    1    3    3  502    0  0.15408775520E+04  0.56238771899E+03 -0.12237335801E+04  0.20464870058E+04  0.12699999809E+01 0. -1.
       -4    1    3    3    0  502 -0.15408775520E+04 -0.56238771899E+03  0.48310740367E+03  0.17099643134E+04  0.12699999809E+01 0.  1.
</event>
<event>
 5   0  0.3008879E-07  0.3717284E+04  0.7818609E-02  0.8064142E-01
        2   -1    0    0  501    0  0.00000000000E+00  0.00000000000E+00  0.25897192372E+04  0.25897192372E+04  0.25500000920E-02 0. -1.
       -2   -1    0    0    0  501  0.00000000000E+00  0.00000000000E+00 -0.13339474805E+04  0.13339474805E+04  0.25500000920E-02 0.  1.
    10030    2    1    2    0    0  0.00000000000E+00  0.00000000000E+00  0.12557717567E+04  0.39236667177E+04  0.37172836597E+04 0.  0.
        2    1    3    3  502    0 -0.16214867988E+04 -0.74605078481E+02 -0.32779050602E+03  0.16559685904E+04  0.25500000920E-02 0.  1.
       -2    1    3    3    0  502  0.16214867988E+04  0.74605078481E+02  0.15835622628E+04  0.22676981273E+04  0.25500000920E-02 0. -1.
</event>
<event>
 5   0  0.2913025E-07  0.3695631E+04  0.7818609E-02  0.8068931E-01
        2   -1    0    0  501    0  0.00000000000E+00  0.00000000000E+00  0.18036328905E+04  0.18036328905E+04  0.25500000920E-02 0.  1.
       -2   -1    0    0    0  501  0.00000000000E+00  0.00000000000E+00 -0.18930804984E+04  0.18930804985E+04  0.25500000920E-02 0. -1.
    10030    2    1    2    0    0  0.00000000000E+00  0.00000000000E+00 -0.89447607983E+02  0.36967133889E+04  0.36956310700E+04 0.  0.
        5    1    3    3  502    0 -0.10956955293E+04  0.10760562572E+04 -0.10726211691E+04  0.18732282360E+04  0.46999998093E+01 0. -1.
       -5    1    3    3    0  502  0.10956955293E+04 -0.10760562572E+04  0.98317356114E+03  0.18234851529E+04  0.46999998093E+01 0.  1.
</event>
<event>
 5   0  0.3032442E-07  0.3707122E+04  0.7818609E-02  0.8066385E-01
        2   -1    0    0  501    0  0.00000000000E+00  0.00000000000E+00  0.18052360514E+04  0.18052360514E+04  0.25500000920E-02 0.  1.
       -2   -1    0    0    0  501  0.00000000000E+00  0.00000000000E+00 -0.19031791482E+04  0.19031791482E+04  0.25500000920E-02 0. -1.
    10030    2    1    2    0    0  0.00000000000E+00  0.00000000000E+00 -0.97943096720E+02  0.37084151996E+04  0.37071215845E+04 0.  0.
        3    1    3    3  502    0 -0.99643309274E+03  0.68117218439E+03  0.13582222613E+04  0.18170421499E+04  0.10100000352E+00 0.  1.
       -3    1    3    3    0  502  0.99643309274E+03 -0.68117218439E+03 -0.14561653580E+04  0.18913730497E+04  0.10100000352E+00 0. -1.
</event>
<event>
 5   0  0.2996969E-07  0.3713621E+04  0.7818609E-02  0.8064950E-01
       -2   -1    0    0    0  501  0.00000000000E+00  0.00000000000E+00  0.22424900293E+04  0.22424900293E+04  0.25500000920E-02 0. -1.
        2   -1    0    0  501    0  0.00000000000E+00  0.00000000000E+00 -0.15374628489E+04  0.15374628489E+04  0.25500000920E-02 0.  1.
    10030    2    1    2    0    0  0.00000000000E+00  0.00000000000E+00  0.70502718040E+03  0.37799528782E+04  0.37136209333E+04 0.  0.
        1    1    3    3  502    0 -0.17887709141E+04  0.14078083382E+03  0.83877514044E+03  0.19806727046E+04  0.50400001928E-02 0. -1.
       -1    1    3    3    0  502  0.17887709141E+04 -0.14078083382E+03 -0.13374796004E+03  0.17992801736E+04  0.50400001928E-02 0.  1.
</event>
<event>
 5   0  0.9341000E-08  0.3699652E+04  0.7818609E-02  0.8068039E-01
        1   -1    0    0  501    0  0.00000000000E+00  0.00000000000E+00  0.27734210974E+04  0.27734210974E+04  0.50400001928E-02 0. -1.
       -1   -1    0    0    0  501  0.00000000000E+00  0.00000000000E+00 -0.12338033005E+04  0.12338033005E+04  0.50400001928E-02 0.  1.
    10030    2    1    2    0    0  0.00000000000E+00  0.00000000000E+00  0.15396177969E+04  0.40072243980E+04  0.36996519316E+04 0.  0.
        3    1    3    3  502    0  0.17695739114E+04 -0.48900963914E+03  0.10152146094E+04  0.20978996564E+04  0.10100000352E+00 0. -1.
       -3    1    3    3    0  502 -0.17695739114E+04  0.48900963914E+03  0.52440318755E+03  0.19093247415E+04  0.10100000352E+00 0.  1.
</event>
<event>
 5   0  0.9341000E-08  0.3702900E+04  0.7818609E-02  0.8067320E-01
       -1   -1    0    0    0  501  0.00000000000E+00  0.00000000000E+00  0.31258755617E+04  0.31258755617E+04  0.50400001928E-02 0. -1.
        1   -1    0    0  501    0  0.00000000000E+00  0.00000000000E+00 -0.10966099594E+04  0.10966099595E+04  0.50400001928E-02 0.  1.
    10030    2    1    2    0    0  0.00000000000E+00  0.00000000000E+00  0.20292656023E+04  0.42224855212E+04  0.37028995520E+04 0.  0.
        3    1    3    3  502    0 -0.11002496561E+04 -0.11736928991E+04 -0.30338421243E+02  0.16090446722E+04  0.10100000352E+00 0.  1.
       -3    1    3    3    0  502  0.11002496561E+04  0.11736928991E+04  0.20596040235E+04  0.26134408490E+04  0.10100000352E+00 0. -1.
</event>
<event>
 5   0  0.2913025E-07  0.3707840E+04  0.7818609E-02  0.8066227E-01
       -2   -1    0    0    0  501  0.00000000000E+00  0.00000000000E+00  0.15356405222E+04  0.15356405222E+04  0.25500000920E-02 0.  1.
        2   -1    0    0  501    0  0.00000000000E+00  0.00000000000E+00 -0.22381662459E+04  0.22381662459E+04  0.25500000920E-02 0. -1.
    10030    2    1    2    0    0  0.00000000000E+00  0.00000000000E+00 -0.70252572377E+03  0.37738067681E+04  0.37078396851E+04 0.  0.
        5    1    3    3  502    0  0.40203255669E+03  0.10994559744E+03 -0.21898566108E+04  0.22291730029E+04  0.46999998093E+01 0. -1.
       -5    1    3    3    0  502 -0.40203255669E+03 -0.10994559744E+03  0.14873308870E+04  0.15446337652E+04  0.46999998093E+01 0.  1.
</event>
<event>
 5   0  0.9341000E-08  0.3689924E+04  0.7818609E-02  0.8070198E-01
        1   -1    0    0  501    0  0.00000000000E+00  0.00000000000E+00  0.26434403709E+04  0.26434403709E+04  0.50400001928E-02 0.  1.
       -1   -1    0    0    0  501  0.00000000000E+00  0.00000000000E+00 -0.12876724686E+04  0.12876724686E+04  0.50400001928E-02 0. -1.
    10030    2    1    2    0    0  0.00000000000E+00  0.00000000000E+00  0.13557679023E+04  0.39311128395E+04  0.36899243287E+04 0.  0.
        4    1    3    3  502    0  0.15154205515E+04 -0.38663603995E+02  0.17982344406E+04  0.23519445228E+04  0.12699999809E+01 0.  1.
       -4    1    3    3    0  502 -0.15154205515E+04  0.38663603995E+02 -0.44246653828E+03  0.15791683167E+04  0.12699999809E+01 0. -1.
</event>
<event>
 5   0  0.2996969E-07  0.3663676E+04  0.7818609E-02  0.8076060E-01
        2   -1    0    0  501    0  0.00000000000E+00  0.00000000000E+00  0.26328181602E+04  0.26328181602E+04  0.25500000920E-02 0.  1.
       -2   -1    0    0    0  501  0.00000000000E+00  0.00000000000E+00 -0.12745396023E+04  0.12745396023E+04  0.25500000920E-02 0. -1.
    10030    2    1    2    0    0  0.00000000000E+00  0.00000000000E+00  0.13582785579E+04  0.39073577626E+04  0.36636763017E+04 0.  0.
        1    1    3    3  502    0  0.50524085283E+03  0.17567078412E+04  0.55142352357E+03  0.19092822372E+04  0.50400001928E-02 0.  1.
       -1    1    3    3    0  502 -0.50524085283E+03 -0.17567078412E+04  0.80685503431E+03  0.19980755254E+04  0.50400001928E-02 0. -1.
</event>
<event>
 5   0  0.3032442E-07  0.3700685E+04  0.7818609E-02  0.8067810E-01
        2   -1    0    0  501    0  0.00000000000E+00  0.00000000000E+00  0.23191100404E+04  0.23191100404E+04  0.25500000920E-02 0. -1.
       -2   -1    0    0    0  501  0.00000000000E+00  0.00000000000E+00 -0.14763279986E+04  0.14763279986E+04  0.25500000920E-02 0.  1.
    10030    2    1    2    0    0  0.00000000000E+00  0.00000000000E+00  0.84278204183E+03  0.37954380389E+04  0.37006848471E+04 0.  0.
        3    1    3    3  502    0 -0.19516110766E+03 -0.18384231861E+04  0.50003156199E+03  0.19151812557E+04  0.10100000352E+00 0.  1.
       -3    1    3    3    0  502  0.19516110766E+03  0.18384231861E+04  0.34275047984E+03  0.18802567832E+04  0.10100000352E+00 0. -1.
</event>
<event>
 5   0  0.9341000E-08  0.3703000E+04  0.7818609E-02  0.8067297E-01
       -1   -1    0    0    0  501  0.00000000000E+00  0.00000000000E+00  0.24785524086E+04  0.24785524086E+04  0.50400001928E-02 0. -1.
        1   -1    0    0  501    0  0.00000000000E+00  0.00000000000E+00 -0.13830862954E+04  0.13830862954E+04  0.50400001928E-02 0.  1.
    10030    2    1    2    0    0  0.00000000000E+00  0.00000000000E+00  0.10954661132E+04  0.38616387040E+04  0.37029997941E+04 0.  0.
        3    1    3    3  502    0  0.85073447740E+03 -0.14489540615E+04  0.13587619916E+04  0.21608912938E+04  0.10100000352E+00 0. -1.
       -3    1    3    3    0  502 -0.85073447740E+03  0.14489540615E+04 -0.26329587844E+03  0.17007474102E+04  0.10100000352E+00 0.  1.
</event>
<event>
 5   0  0.3032442E-07  0.3711693E+04  0.7818609E-02  0.8065375E-01
        2   -1    0    0  501    0  0.00000000000E+00  0.00000000000E+00  0.17303409326E+04  0.17303409326E+04  0.25500000920E-02 0. -1.
       -2   -1    0    0    0  501  0.00000000000E+00  0.00000000000E+00 -0.19904554261E+04  0.19904554261E+04  0.25500000920E-02 0.  1.
    10030    2    1    2    0    0  0.00000000000E+00  0.00000000000E+00 -0.26011449348E+03  0.37207963588E+04  0.37116931438E+04 0.  0.
        3    1    3    3  502    0 -0.11736305215E+04 -0.14368745298E+04 -0.83581130202E+02  0.18571491138E+04  0.10100000352E+00 0. -1.
       -3    1    3    3    0  502  0.11736305215E+04  0.14368745298E+04 -0.17653336328E+03  0.18636472450E+04  0.10100000352E+00 0.  1.
</event>
<event>
 5   0  0.2996969E-07  0.3709521E+04  0.7818609E-02  0.8065855E-01
        2   -1    0    0  501    0  0.00000000000E+00  0.00000000000E+00  0.15461168929E+04  0.15461168929E+04  0.25500000920E-02 0.  1.
       -2   -1    0    0    0  501  0.00000000000E+00  0.00000000000E+00 -0.22250172286E+04  0.22250172286E+04  0.25500000920E-02 0. -1.
    10030    2    1    2    0    0  0.00000000000E+00  0.00000000000E+00 -0.67890033567E+03  0.37711341215E+04  0.37095211141E+04 0.  0.
        1    1    3    3  502    0 -0.18931109458E+03  0.50439971332E+03 -0.21437182401E+04  0.22103813369E+04  0.50400001928E-02 0. -1.
       -1    1    3    3    0  502  0.18931109458E+03 -0.50439971332E+03  0.14648179045E+04  0.15607527846E+04  0.50400001928E-02 0.  1.
</event>
<event>
 5   0  0.9341000E-08  0.3682330E+04  0.7818609E-02  0.8071889E-01
        1   -1    0    0  501    0  0.00000000000E+00  0.00000000000E+00  0.24157631132E+04  0.24157631132E+04  0.50400001928E-02 0.  1.
       -1   -1    0    0    0  501  0.00000000000E+00  0.00000000000E+00 -0.14032374168E+04  0.14032374169E+04  0.50400001928E-02 0. -1.
    10030    2    1    2    0    0  0.00000000000E+00  0.00000000000E+00  0.10125256963E+04  0.38190005300E+04  0.36823303440E+04 0.  0.
        4    1    3    3  502    0 -0.12335192370E+04  0.11754068329E+04  0.12298219231E+04  0.21013363620E+04  0.12699999809E+01 0.  1.
       -4    1    3    3    0  502  0.12335192370E+04 -0.11754068329E+04 -0.21729622677E+03  0.17176641680E+04  0.12699999809E+01 0. -1.
</event>
<event>
 5   0  0.2897133E-07  0.3709163E+04  0.7818609E-02  0.8065934E-01
        2   -1    0    0  501    0  0.00000000000E+00  0.00000000000E+00  0.24690667658E+04  0.24690667659E+04  0.25500000920E-02 0. -1.
       -2   -1    0    0    0  501  0.00000000000E+00  0.00000000000E+00 -0.13930253106E+04  0.13930253106E+04  0.25500000920E-02 0.  1.
    10030    2    1    2    0    0  0.00000000000E+00  0.00000000000E+00  0.10760414552E+04  0.38620920765E+04  0.37091629775E+04 0.  0.
        4    1    3    3  502    0  0.23967525544E+03  0.10510755518E+04  0.21093010388E+04  0.23688302027E+04  0.12699999809E+01 0. -1.
       -4    1    3    3    0  502 -0.23967525544E+03 -0.10510755518E+04 -0.10332595836E+04  0.14932618738E+04  0.12699999809E+01 0.  1.
</event>
<event>
 5   0  0.3008879E-07  0.3695650E+04  0.7818609E-02  0.8068926E-01
       -2   -1    0    0    0  501  0.00000000000E+00  0.00000000000E+00  0.25861263876E+04  0.25861263876E+04  0.25500000920E-02 0. -1.
        2   -1    0    0  501    0  0.00000000000E+00  0.00000000000E+00 -0.13202982447E+04  0.13202982447E+04  0.25500000920E-02 0.  1.
    10030    2    1    2    0    0  0.00000000000E+00  0.00000000000E+00  0.12658281429E+04  0.39064246322E+04  0.36956504867E+04 0.  0.
        2    1    3    3  502    0  0.13924676436E+04 -0.94840841643E+03  0.14351551145E+04  0.22131685127E+04  0.25500000920E-02 0. -1.
       -2    1    3    3    0  502 -0.13924676436E+04  0.94840841643E+03 -0.16932697165E+03  0.16932561195E+04  0.25500000920E-02 0.  1.
</event>
<event>
 5   0  0.9341000E-08  0.3755864E+04  0.7818609E-02  0.8055693E-01
        1   -1    0    0  501    0  0.00000000000E+00  0.00000000000E+00  0.24312917565E+04  0.24312917565E+04  0.50400001928E-02 0.  1.
       -1   -1    0    0    0  501  0.00000000000E+00  0.00000000000E+00 -0.14505167632E+04  0.14505167632E+04  0.50400001928E-02 0. -1.
    10030    2    1    2    0    0  0.00000000000E+00  0.00000000000E+00  0.98077499326E+03  0.38818085197E+04  0.37558644539E+04 0.  0.
        3    1    3    3  502    0 -0.63871976373E+03  0.19342569234E+03 -0.13238238479E+04  0.14825269055E+04  0.10100000352E+00 0. -1.
       -3    1    3    3    0  502  0.63871976373E+03 -0.19342569234E+03  0.23045988412E+04  0.23992816142E+04  0.10100000352E+00 0.  1.
</event>
<event>
 5   0  0.9341000E-08  0.3691122E+04  0.7818609E-02  0.8069932E-01
        1   -1    0    0  501    0  0.00000000000E+00  0.00000000000E+00  0.23629074716E+04  0.23629074716E+04  0.50400001928E-02 0. -1.
       -1   -1    0    0    0  501  0.00000000000E+00  0.00000000000E+00 -0.14414852309E+04  0.14414852309E+04  0.50400001928E-02 0.  1.
    10030    2    1    2    0    0  0.00000000000E+00  0.00000000000E+00  0.92142224076E+03  0.38043927025E+04  0.36911224430E+04 0.  0.
        4    1    3    3  502    0 -0.59674135455E+03 -0.75161305189E+03 -0.11640757173E+04  0.15086736932E+04  0.12699999809E+01 0.  1.
       -4    1    3    3    0  502  0.59674135455E+03  0.75161305189E+03  0.20854979580E+04  0.22957190094E+04  0.12699999809E+01 0. -1.
</event>
<event>
 5   0  0.9418945E-08  0.3745921E+04  0.7818609E-02  0.8057861E-01
       -1   -1    0    0    0  501  0.00000000000E+00  0.00000000000E+00  0.16309620607E+04  0.16309620607E+04  0.50400001928E-02 0. -1.
        1   -1    0    0  501    0  0.00000000000E+00  0.00000000000E+00 -0.21508662701E+04  0.21508662701E+04  0.50400001928E-02 0.  1.
    10030    2    1    2    0    0  0.00000000000E+00  0.00000000000E+00 -0.51990420941E+03  0.37818283308E+04  0.37459211333E+04 0.  0.
        5    1    3    3  502    0  0.13147983685E+04 -0.72181646835E+03  0.87251569531E+03  0.17352289453E+04  0.46999998093E+01 0. -1.
       -5    1    3    3    0  502 -0.13147983685E+04  0.72181646835E+03 -0.13924199047E+04  0.20465993856E+04  0.46999998093E+01 0.  1.
</event>
<event>
 5   0  0.9341000E-08  0.3667528E+04  0.7818609E-02  0.8075196E-01
       -1   -1    0    0    0  501  0.00000000000E+00  0.00000000000E+00  0.15918407723E+04  0.15918407723E+04  0.50400001928E-02 0. -1.
        1   -1    0    0  501    0  0.00000000000E+00  0.00000000000E+00 -0.21124541157E+04  0.21124541157E+04  0.50400001928E-02 0.  1.
    10030    2    1    2    0    0  0.00000000000E+00  0.00000000000E+00 -0.52061334334E+03  0.37042948880E+04  0.36675281000E+04 0.  0.
        4    1    3    3  502    0 -0.16653214102E+04  0.74714217003E+03 -0.43863302396E+03  0.18772099947E+04  0.12699999809E+01 0.  1.
       -4    1    3    3    0  502  0.16653214102E+04 -0.74714217003E+03 -0.81980319381E+02  0.18270848933E+04  0.12699999809E+01 0. -1.
</event>
<event>
 5   0  0.9341000E-08  0.3677063E+04  0.7818609E-02  0.8073064E-01
        1   -1    0    0  501    0  0.00000000000E+00  0.00000000000E+00  0.19815082709E+04  0.19815082709E+04  0.50400001928E-02 0. -1.
       -1   -1    0    0    0  501  0.00000000000E+00  0.00000000000E+00 -0.17058711963E+04  0.17058711963E+04  0.50400001928E-02 0.  1.
    10030    2    1    2    0    0  0.00000000000E+00  0.00000000000E+00  0.27563707460E+03  0.36873794673E+04  0.36770628957E+04 0.  0.
        1    1    3    3  502    0  0.24628905276E+02  0.10451951157E+04  0.16543970657E+04  0.19570562240E+04  0.50400001928E-02 0. -1.
       -1    1    3    3    0  502 -0.24628905276E+02 -0.10451951157E+04 -0.13787599912E+04  0.17303232432E+04  0.50400001928E-02 0.  1.
</event>
<event>
 5   0  0.2913025E-07  0.3689839E+04  0.7818609E-02  0.8070217E-01
       -2   -1    0    0    0  501  0.00000000000E+00  0.00000000000E+00  0.18464234880E+04  0.18464234880E+04  0.25500000920E-02 0.  1.
        2   -1    0    0  501    0  0.00000000000E+00  0.00000000000E+00 -0.18434162381E+04  0.18434162381E+04  0.25500000920E-02 0. -1.
    10030    2    1    2    0    0  0.00000000000E+00  0.00000000000E+00  0.30072498457E+01  0.36898397261E+04  0.36898385006E+04 0.  0.
        5    1    3    3  502    0  0.13883024851E+04  0.11631248923E+04 -0.34986758458E+03  0.18446334926E+04  0.46999998093E+01 0.  1.
       -5    1    3    3    0  502 -0.13883024851E+04 -0.11631248923E+04  0.35287483442E+03  0.18452062335E+04  0.46999998093E+01 0. -1.
</event>
<event>
 5   0  0.9341000E-08  0.3632534E+04  0.7818609E-02  0.8083080E-01
       -1   -1    0    0    0  501  0.00000000000E+00  0.00000000000E+00  0.26192501473E+04  0.26192501473E+04  0.50400001928E-02 0. -1.
        1   -1    0    0  501    0  0.00000000000E+00  0.00000000000E+00 -0.12594544339E+04  0.12594544339E+04  0.50400001928E-02 0.  1.
    10030    2    1    2    0    0  0.00000000000E+00  0.00000000000E+00  0.13597957134E+04  0.38787045813E+04  0.36325342182E+04 0.  0.
        4    1    3    3  502    0  0.25050449694E+03  0.59447595365E+03 -0.11330048033E+04  0.13037851279E+04  0.12699999809E+01 0.  1.
       -4    1    3    3    0  502 -0.25050449694E+03 -0.59447595365E+03  0.24928005167E+04  0.25749194534E+04  0.12699999809E+01 0. -1.
</event>
<event>
 5   0  0.9646615E-08  0.3703469E+04  0.7818609E-02  0.8067193E-01
       -1   -1    0    0    0  501  0.00000000000E+00  0.00000000000E+00  0.17357548538E+04  0.17357548538E+04  0.50400001928E-02 0. -1.
        1   -1    0    0  501    0  0.00000000000E+00  0.00000000000E+00 -0.19754637852E+04  0.19754637853E+04  0.50400001928E-02 0.  1.
    10030    2    1    2    0    0  0.00000000000E+00  0.00000000000E+00 -0.23970893142E+03  0.37112186391E+04  0.37034691055E+04 0.  0.
        2    1    3    3  502    0  0.11949467320E+04  0.12276864901E+04  0.58433144951E+03  0.18101257009E+04  0.25500000920E-02 0. -1.
       -2    1    3    3    0  502 -0.11949467320E+04 -0.12276864901E+04 -0.82404038093E+03  0.19010929382E+04  0.25500000920E-02 0.  1.
</event>
<event>
 5   0  0.3032442E-07  0.3711644E+04  0.7818609E-02  0.8065386E-01
       -2   -1    0    0    0  501  0.00000000000E+00  0.00000000000E+00  0.20740284117E+04  0.20740284117E+04  0.25500000920E-02 0. -1.
        2   -1    0    0  501    0  0.00000000000E+00  0.00000000000E+00 -0.16605724653E+04  0.16605724653E+04  0.25500000920E-02 0.  1.
    10030    2    1    2    0    0  0.00000000000E+00  0.00000000000E+00  0.41345594647E+03  0.37346008770E+04  0.37116435566E+04 0.  0.
        3    1    3    3  502    0  0.11364212398E+04 -0.10115981136E+04 -0.86252573904E+03  0.17489238515E+04  0.10100000352E+00 0. -1.
       -3    1    3    3    0  502 -0.11364212398E+04  0.10115981136E+04  0.12759816855E+04  0.19856770255E+04  0.10100000352E+00 0.  1.
</event>
<event>
 5   0  0.3032442E-07  0.3677770E+04  0.7818609E-02  0.8072906E-01
       -2   -1    0    0    0  501  0.00000000000E+00  0.00000000000E+00  0.13753013318E+04  0.13753013318E+04  0.25500000920E-02 0.  1.
        2   -1    0    0  501    0  0.00000000000E+00  0.00000000000E+00 -0.24587323754E+04  0.24587323754E+04  0.25500000920E-02 0. -1.
    10030    2    1    2    0    0  0.00000000000E+00  0.00000000000E+00 -0.10834310436E+04  0.38340337072E+04  0.36777699278E+04 0.  0.
        3    1    3    3  502    0  0.15119120531E+04  0.70302729038E+03 -0.13501468628E+04  0.21454654480E+04  0.10100000352E+00 0.  1.
       -3    1    3    3    0  502 -0.15119120531E+04 -0.70302729038E+03  0.26671581919E+03  0.16885682592E+04  0.10100000352E+00 0. -1.
</event>
<event>
 5   0  0.9418945E-08  0.3657660E+04  0.7818609E-02  0.8077410E-01
        1   -1    0    0  501    0  0.00000000000E+00  0.00000000000E+00  0.20596946318E+04  0.20596946319E+04  0.50400001928E-02 0. -1.
       -1   -1    0    0    0  501  0.00000000000E+00  0.00000000000E+00 -0.16238420439E+04  0.16238420439E+04  0.50400001928E-02 0.  1.
    10030    2    1    2    0    0  0.00000000000E+00  0.00000000000E+00  0.43585258792E+03  0.36835366758E+04  0.36576597660E+04 0.  0.
        5    1    3    3  502    0  0.13708380301E+04 -0.95011094667E+03 -0.53750658149E+03  0.17523821304E+04  0.46999998093E+01 0.  1.
       -5    1    3    3    0  502 -0.13708380301E+04  0.95011094667E+03  0.97335916941E+03  0.19311545454E+04  0.46999998093E+01 0. -1.
</event>
<event>
 5   0  0.2913025E-07  0.3693964E+04  0.7818609E-02  0.8069301E-01
       -2   -1    0    0    0  501  0.00000000000E+00  0.00000000000E+00  0.17021136863E+04  0.17021136863E+04  0.25500000920E-02 0. -1.
        2   -1    0    0  501    0  0.00000000000E+00  0.00000000000E+00 -0.20041806902E+04  0.20041806902E+04  0.25500000920E-02 0.  1.
    10030    2    1    2    0    0  0.00000000000E+00  0.00000000000E+00 -0.30206700385E+03  0.37062943765E+04  0.36939644733E+04 0.  0.
        5    1    3    3  502    0  0.79470257083E+02 -0.35827257480E+03 -0.19672264859E+04  0.20011688825E+04  0.46999998093E+01 0.  1.
       -5    1    3    3    0  502 -0.79470257083E+02  0.35827257480E+03  0.16651594820E+04  0.17051254940E+04  0.46999998093E+01 0. -1.
</event>
<event>
 5   0  0.3032442E-07  0.3700885E+04  0.7818609E-02  0.8067766E-01
        2   -1    0    0  501    0  0.00000000000E+00  0.00000000000E+00  0.20801198106E+04  0.20801198107E+04  0.25500000920E-02 0. -1.
       -2   -1    0    0    0  501  0.00000000000E+00  0.00000000000E+00 -0.16461252634E+04  0.16461252634E+04  0.25500000920E-02 0.  1.
    10030    2    1    2    0    0  0.00000000000E+00  0.00000000000E+00  0.43399454730E+03  0.37262450740E+04  0.37008851758E+04 0.  0.
        3    1    3    3  502    0  0.15493387219E+04  0.96198762106E+03 -0.98626624791E+02  0.18263619246E+04  0.10100000352E+00 0.  1.
       -3    1    3    3    0  502 -0.15493387219E+04 -0.96198762106E+03  0.53262117209E+03  0.18998831494E+04  0.10100000352E+00 0. -1.
</event>
<event>
 5   0  0.9341000E-08  0.3236639E+04  0.7818609E-02  0.8179207E-01
        1   -1    0    0  501    0  0.00000000000E+00  0.00000000000E+00  0.21352774635E+04  0.21352774635E+04  0.50400001928E-02 0. -1.
       -1   -1    0    0    0  501  0.00000000000E+00  0.00000000000E+00 -0.12265190555E+04  0.12265190555E+04  0.50400001928E-02 0.  1.
    10030    2    1    2    0    0  0.00000000000E+00  0.00000000000E+00  0.90875840801E+03  0.33617965191E+04  0.32366393051E+04 0.  0.
        3    1    3    3  502    0 -0.14508902837E+04 -0.58159023807E+03  0.19093080778E+02  0.15632320289E+04  0.10100000352E+00 0.  1.
       -3    1    3    3    0  502  0.14508902837E+04  0.58159023807E+03  0.88966532724E+03  0.17985644901E+04  0.10100000352E+00 0. -1.
</event>
<event>
 5   0  0.9341000E-08  0.3713650E+04  0.7818609E-02  0.8064944E-01
        1   -1    0    0  501    0  0.00000000000E+00  0.00000000000E+00  0.23728349526E+04  0.23728349526E+04  0.50400001928E-02 0.  1.
       -1   -1    0    0    0  501  0.00000000000E+00  0.00000000000E+00 -0.14530290704E+04  0.14530290704E+04  0.50400001928E-02 0. -1.
    10030    2    1    2    0    0  0.00000000000E+00  0.00000000000E+00  0.91980588217E+03  0.38258640230E+04  0.37136495071E+04 0.  0.
        3    1    3    3  502    0  0.11643539255E+04  0.14090560889E+04  0.12347914272E+03  0.18320497358E+04  0.10100000352E+00 0. -1.
       -3    1    3    3    0  502 -0.11643539255E+04 -0.14090560889E+04  0.79632673945E+03  0.19938142872E+04  0.10100000352E+00 0.  1.
</event>
<event>
 5   0  0.9341000E-08  0.3667296E+04  0.7818609E-02  0.8075248E-01
        1   -1    0    0  501    0  0.00000000000E+00  0.00000000000E+00  0.14693970989E+04  0.14693970989E+04  0.50400001928E-02 0. -1.
       -1   -1    0    0    0  501  0.00000000000E+00  0.00000000000E+00 -0.22881933949E+04  0.22881933949E+04  0.50400001928E-02 0.  1.
    10030    2    1    2    0    0  0.00000000000E+00  0.00000000000E+00 -0.81879629600E+03  0.37575904937E+04  0.36672958626E+04 0.  0.
        4    1    3    3  502    0  0.11547896656E+04  0.13696952461E+03  0.10432403974E+04  0.15622586092E+04  0.12699999809E+01 0. -1.
       -4    1    3    3    0  502 -0.11547896656E+04 -0.13696952461E+03 -0.18620366934E+04  0.21953318845E+04  0.12699999809E+01 0.  1.
</event>
<event>
 5   0  0.2996969E-07  0.3699910E+04  0.7818609E-02  0.8067982E-01
        2   -1    0    0  501    0  0.00000000000E+00  0.00000000000E+00  0.12220091806E+04  0.12220091806E+04  0.25500000920E-02 0.  1.
       -2   -1    0    0    0  501  0.00000000000E+00  0.00000000000E+00 -0.28005788216E+04  0.28005788216E+04  0.25500000920E-02 0. -1.
    10030    2    1    2    0    0  0.00000000000E+00  0.00000000000E+00 -0.15785696410E+04  0.40225880021E+04  0.36999097453E+04 0.  0.
        1    1    3    3  502    0 -0.92889319334E+03 -0.13678447397E+04  0.11283376746E+03  0.16572788708E+04  0.50400001928E-02 0.  1.
       -1    1    3    3    0  502  0.92889319334E+03  0.13678447397E+04 -0.16914034085E+04  0.23653091313E+04  0.50400001928E-02 0. -1.
</event>
<event>
 5   0  0.2913025E-07  0.3682943E+04  0.7818609E-02  0.8071752E-01
        2   -1    0    0  501    0  0.00000000000E+00  0.00000000000E+00  0.28306945373E+04  0.28306945373E+04  0.25500000920E-02 0.  1.
       -2   -1    0    0    0  501  0.00000000000E+00  0.00000000000E+00 -0.11979450558E+04  0.11979450558E+04  0.25500000920E-02 0. -1.
    10030    2    1    2    0    0  0.00000000000E+00  0.00000000000E+00  0.16327494815E+04  0.40286395931E+04  0.36829425873E+04 0.  0.
        5    1    3    3  502    0  0.93460749460E+03 -0.10605887850E+04 -0.47450323665E+03  0.14911455836E+04  0.46999998093E+01 0. -1.
       -5    1    3    3    0  502 -0.93460749460E+03  0.10605887850E+04  0.21072527182E+04  0.25374940095E+04  0.46999998093E+01 0.  1.
</event>
<event>
 5   0  0.3008879E-07  0.3701214E+04  0.7818609E-02  0.8067693E-01
        2   -1    0    0  501    0  0.00000000000E+00  0.00000000000E+00  0.25069076330E+04  0.25069076330E+04  0.25500000920E-02 0. -1.
       -2   -1    0    0    0  501  0.00000000000E+00  0.00000000000E+00 -0.13661236680E+04  0.13661236680E+04  0.25500000920E-02 0.  1.
    10030    2    1    2    0    0  0.00000000000E+00  0.00000000000E+00  0.11407839650E+04  0.38730313010E+04  0.37012137744E+04 0.  0.
        2    1    3    3  502    0  0.16435432440E+04  0.54134146126E+03 -0.11616040361E+03  0.17342947304E+04  0.25500000920E-02 0.  1.
       -2    1    3    3    0  502 -0.16435432440E+04 -0.54134146126E+03  0.12569443686E+04  0.21387365706E+04  0.25500000920E-02 0. -1.
</event>
<event>
 5   0  0.3032442E-07  0.3698756E+04  0.7818609E-02  0.8068238E-01
        2   -1    0    0  501    0  0.00000000000E+00  0.00000000000E+00  0.22390024096E+04  0.22390024096E+04  0.25500000920E-02 0. -1.
       -2   -1    0    0    0  501  0.00000000000E+00  0.00000000000E+00 -0.15275549030E+04  0.15275549030E+04  0.25500000920E-02 0.  1.
    10030    2    1    2    0    0  0.00000000000E+00  0.00000000000E+00  0.71144750657E+03  0.37665573126E+04  0.36987560658E+04 0.  0.
        3    1    3    3  502    0 -0.52731699357E+03 -0.14286360727E+04 -0.71286142331E+03  0.16814385683E+04  0.10100000352E+00 0.  1.
       -3    1    3    3    0  502  0.52731699357E+03  0.14286360727E+04  0.14243089299E+04  0.20851187443E+04  0.10100000352E+00 0. -1.
</event>
<event>
 5   0  0.9341000E-08  0.3704810E+04  0.7818609E-02  0.8066897E-01
        1   -1    0    0  501    0  0.00000000000E+00  0.00000000000E+00  0.23337615868E+04  0.23337615868E+04  0.50400001928E-02 0.  1.
       -1   -1    0    0    0  501  0.00000000000E+00  0.00000000000E+00 -0.14703317034E+04  0.14703317034E+04  0.50400001928E-02 0. -1.
    10030    2    1    2    0    0  0.00000000000E+00  0.00000000000E+00  0.86342988336E+03  0.38040932902E+04  0.37048096573E+04 0.  0.
        4    1    3    3  502    0 -0.68322397877E+03 -0.39303280376E+03  0.21529835092E+04  0.22927296818E+04  0.12699999809E+01 0.  1.
       -4    1    3    3    0  502  0.68322397877E+03  0.39303280376E+03 -0.12895536258E+04  0.15113636084E+04  0.12699999809E+01 0. -1.
</event>
<event>
 5   0  0.9341000E-08  0.3694375E+04  0.7818609E-02  0.8069209E-01
        1   -1    0    0  501    0  0.00000000000E+00  0.00000000000E+00  0.13216009901E+04  0.13216009901E+04  0.50400001928E-02 0. -1.
       -1   -1    0    0    0  501  0.00000000000E+00  0.00000000000E+00 -0.25817948058E+04  0.25817948058E+04  0.50400001928E-02 0.  1.
    10030    2    1    2    0    0  0.00000000000E+00  0.00000000000E+00 -0.12601938157E+04  0.39033957959E+04  0.36943754934E+04 0.  0.
        1    1    3    3  502    0  0.16181058140E+04  0.81441210451E+03 -0.10118844133E+04  0.20749562808E+04  0.50400001928E-02 0.  1.
       -1    1    3    3    0  502 -0.16181058140E+04 -0.81441210451E+03 -0.24830940234E+03  0.18284395151E+04  0.50400001928E-02 0. -1.
</event>
<event>
 5   0  0.3032442E-07  0.3658681E+04  0.7818609E-02  0.8077181E-01
        2   -1    0    0  501    0  0.00000000000E+00  0.00000000000E+00  0.23507870539E+04  0.23507870539E+04  0.25500000920E-02 0. -1.
       -2   -1    0    0    0  501  0.00000000000E+00  0.00000000000E+00 -0.14235598570E+04  0.14235598570E+04  0.25500000920E-02 0.  1.
    10030    2    1    2    0    0  0.00000000000E+00  0.00000000000E+00  0.92722719686E+03  0.37743469109E+04  0.36586806815E+04 0.  0.
        3    1    3    3  502    0  0.25876049546E+03 -0.16706196651E+03 -0.13966186082E+04  0.14301783950E+04  0.10100000352E+00 0.  1.
       -3    1    3    3    0  502 -0.25876049546E+03  0.16706196651E+03  0.23238458051E+04  0.23441685158E+04  0.10100000352E+00 0. -1.
</event>
<event>
 5   0  0.2913025E-07  0.3731883E+04  0.7818609E-02  0.8060933E-01
       -2   -1    0    0    0  501  0.00000000000E+00  0.00000000000E+00  0.12803692098E+04  0.12803692098E+04  0.25500000920E-02 0. -1.
        2   -1    0    0  501    0  0.00000000000E+00  0.00000000000E+00 -0.27193235521E+04  0.27193235521E+04  0.25500000920E-02 0.  1.
    10030    2    1    2    0    0  0.00000000000E+00  0.00000000000E+00 -0.14389543423E+04  0.39996927619E+04  0.37318832498E+04 0.  0.
        5    1    3    3  502    0 -0.88116315901E+03 -0.16433473375E+04 -0.64618026154E+03  0.19734766289E+04  0.46999998093E+01 0.  1.
       -5    1    3    3    0  502  0.88116315901E+03  0.16433473375E+04 -0.79277408078E+03  0.20262161330E+04  0.46999998093E+01 0. -1.
</event>
<event>
 5   0  0.9341000E-08  0.3738375E+04  0.7818609E-02  0.8059510E-01
        1   -1    0    0  501    0  0.00000000000E+00  0.00000000000E+00  0.10639462576E+04  0.10639462576E+04  0.50400001928E-02 0. -1.
       -1   -1    0    0    0  501  0.00000000000E+00  0.00000000000E+00 -0.32838707297E+04  0.32838707297E+04  0.50400001928E-02 0.  1.
    10030    2    1    2    0    0  0.00000000000E+00  0.00000000000E+00 -0.22199244721E+04  0.43478169873E+04  0.37383750338E+04 0.  0.
        3    1    3    3  502    0 -0.85109017329E+03  0.23712693749E+03 -0.30256977831E+04  0.31520518321E+04  0.10100000352E+00 0.  1.
       -3    1    3    3    0  502  0.85109017329E+03 -0.23712693749E+03  0.80577331096E+03  0.11957651552E+04  0.10100000352E+00 0. -1.
</event>
<event>
 5   0  0.9341000E-08  0.3686436E+04  0.7818609E-02  0.8070974E-01
       -1   -1    0    0    0  501  0.00000000000E+00  0.00000000000E+00  0.17233833254E+04  0.17233833254E+04  0.50400001928E-02 0.  1.
        1   -1    0    0  501    0  0.00000000000E+00  0.00000000000E+00 -0.19713852200E+04  0.19713852200E+04  0.50400001928E-02 0. -1.
    10030    2    1    2    0    0  0.00000000000E+00  0.00000000000E+00 -0.24800189457E+03  0.36947685454E+04  0.36864359027E+04 0.  0.
        4    1    3    3  502    0  0.53168119748E+03  0.15555341303E+04 -0.95959970077E+03  0.19034717032E+04  0.12699999809E+01 0. -1.
       -4    1    3    3    0  502 -0.53168119748E+03 -0.15555341303E+04  0.71159780619E+03  0.17912968422E+04  0.12699999809E+01 0.  1.
</event>
<event>
 5   0  0.9646615E-08  0.3694657E+04  0.7818609E-02  0.8069147E-01
        1   -1    0    0  501    0  0.00000000000E+00  0.00000000000E+00  0.10297070226E+04  0.10297070226E+04  0.50400001928E-02 0.  1.
       -1   -1    0    0    0  501  0.00000000000E+00  0.00000000000E+00 -0.33141676729E+04  0.33141676729E+04  0.50400001928E-02 0. -1.
    10030    2    1    2    0    0  0.00000000000E+00  0.00000000000E+00 -0.22844606504E+04  0.43438746955E+04  0.36946565344E+04 0.  0.
        2    1    3    3  502    0 -0.69657301744E+03 -0.14358116798E+04 -0.22362501574E+04  0.27472866460E+04  0.25500000920E-02 0. -1.
       -2    1    3    3    0  502  0.69657301744E+03  0.14358116798E+04 -0.48210492932E+02  0.15965880496E+04  0.25500000920E-02 0.  1.
</event>
<event>
 5   0  0.2897133E-07  0.3701620E+04  0.7818609E-02  0.8067603E-01
        2   -1    0    0  501    0  0.00000000000E+00  0.00000000000E+00  0.14225166922E+04  0.14225166922E+04  0.25500000920E-02 0.  1.
       -2   -1    0    0    0  501  0.00000000000E+00  0.00000000000E+00 -0.24080546647E+04  0.24080546647E+04  0.25500000920E-02 0. -1.
    10030    2    1    2    0    0  0.00000000000E+00  0.00000000000E+00 -0.98553797254E+03  0.38305713569E+04  0.37016201622E+04 0.  0.
        4    1    3    3  502    0  0.90070422295E+03 -0.13617979849E+04 -0.13947608654E+04  0.21473521680E+04  0.12699999809E+01 0. -1.
       -4    1    3    3    0  502 -0.90070422295E+03  0.13617979849E+04  0.40922289290E+03  0.16832191889E+04  0.12699999809E+01 0.  1.
</event>
<event>
 5   0  0.9418945E-08  0.3635000E+04  0.7818609E-02  0.8082521E-01
       -1   -1    0    0    0  501  0.00000000000E+00  0.00000000000E+00  0.12888310766E+04  0.12888310767E+04  0.50400001928E-02 0. -1.
        1   -1    0    0  501    0  0.00000000000E+00  0.00000000000E+00 -0.25630249186E+04  0.25630249186E+04  0.50400001928E-02 0.  1.
    10030    2    1    2    0    0  0.00000000000E+00  0.00000000000E+00 -0.12741938420E+04  0.38518559953E+04  0.36349999534E+04 0.  0.
        5    1    3    3  502    0  0.11346798661E+04  0.37770208558E+02 -0.21410492786E+04  0.24234353902E+04  0.46999998093E+01 0. -1.
       -5    1    3    3    0  502 -0.11346798661E+04 -0.37770208558E+02  0.86685543657E+03  0.14284206051E+04  0.46999998093E+01 0.  1.
</event>
<event>
 5   0  0.2913025E-07  0.3706614E+04  0.7818609E-02  0.8066498E-01
        2   -1    0    0  501    0  0.00000000000E+00  0.00000000000E+00  0.19181093995E+04  0.19181093995E+04  0.25500000920E-02 0.  1.
       -2   -1    0    0    0  501  0.00000000000E+00  0.00000000000E+00 -0.17906941808E+04  0.17906941808E+04  0.25500000920E-02 0. -1.
    10030    2    1    2    0    0  0.00000000000E+00  0.00000000000E+00  0.12741521875E+03  0.37088035803E+04  0.37066142717E+04 0.  0.
        5    1    3    3  502    0 -0.56720086425E+03 -0.88178403510E+03  0.15928331899E+04  0.19069345992E+04  0.46999998093E+01 0.  1.
       -5    1    3    3    0  502  0.56720086425E+03  0.88178403510E+03 -0.14654179711E+04  0.18018689811E+04  0.46999998093E+01 0. -1.
</event>
<event>
 5   0  0.9646615E-08  0.3825994E+04  0.7818609E-02  0.8040599E-01
       -1   -1    0    0    0  501  0.00000000000E+00  0.00000000000E+00  0.14289875080E+04  0.14289875080E+04  0.50400001928E-02 0.  1.
        1   -1    0    0  501    0  0.00000000000E+00  0.00000000000E+00 -0.25609450357E+04  0.25609450357E+04  0.50400001928E-02 0. -1.
    10030    2    1    2    0    0  0.00000000000E+00  0.00000000000E+00 -0.11319575277E+04  0.39899325437E+04  0.38259944928E+04 0.  0.
        2    1    3    3  502    0 -0.13547156770E+03 -0.54130947388E+03  0.13422316359E+04  0.14536004460E+04  0.25500000920E-02 0.  1.
       -2    1    3    3    0  502  0.13547156770E+03  0.54130947388E+03 -0.24741891636E+04  0.25363320976E+04  0.25500000920E-02 0. -1.
</event>
<event>
 5   0  0.2996969E-07  0.3682096E+04  0.7818609E-02  0.8071941E-01
        2   -1    0    0  501    0  0.00000000000E+00  0.00000000000E+00  0.15408771865E+04  0.15408771865E+04  0.25500000920E-02 0.  1.
       -2   -1    0    0    0  501  0.00000000000E+00  0.00000000000E+00 -0.21996937642E+04  0.21996937642E+04  0.25500000920E-02 0. -1.
    10030    2    1    2    0    0  0.00000000000E+00  0.00000000000E+00 -0.65881657772E+03  0.37405709507E+04  0.36820961088E+04 0.  0.
        1    1    3    3  502    0  0.30318076485E+03 -0.42472639210E+03  0.14641744193E+04  0.15543866361E+04  0.50400001928E-02 0.  1.
       -1    1    3    3    0  502 -0.30318076485E+03  0.42472639210E+03 -0.21229909970E+04  0.21861843147E+04  0.50400001928E-02 0. -1.
</event>
<event>
 5   0  0.9418945E-08  0.3654841E+04  0.7818609E-02  0.8078044E-01
       -1   -1    0    0    0  501  0.00000000000E+00  0.00000000000E+00  0.18493154249E+04  0.18493154249E+04  0.50400001928E-02 0.  1.
        1   -1    0    0  501    0  0.00000000000E+00  0.00000000000E+00 -0.18057852011E+04  0.18057852011E+04  0.50400001928E-02 0. -1.
    10030    2    1    2    0    0  0.00000000000E+00  0.00000000000E+00  0.43530223755E+02  0.36551006260E+04  0.36548414064E+04 0.  0.
        5    1    3    3  502    0 -0.87558547738E+03 -0.44230257185E+03  0.15636795245E+04  0.18459136595E+04  0.46999998093E+01 0.  1.
       -5    1    3    3    0  502  0.87558547738E+03  0.44230257185E+03 -0.15201493007E+04  0.18091869665E+04  0.46999998093E+01 0. -1.
</event>
<event>
 5   0  0.9646615E-08  0.3557827E+04  0.7818609E-02  0.8100221E-01
       -1   -1    0    0    0  501  0.00000000000E+00  0.00000000000E+00  0.14213757520E+04  0.14213757520E+04  0.50400001928E-02 0.  1.
        1   -1    0    0  501    0  0.00000000000E+00  0.00000000000E+00 -0.22263870214E+04  0.22263870214E+04  0.50400001928E-02 0. -1.
    10030    2    1    2    0    0  0.00000000000E+00  0.00000000000E+00 -0.80501126939E+03  0.36477627734E+04  0.35578265988E+04 0.  0.
        2    1    3    3  502    0  0.61410129428E+03 -0.72675139433E+03 -0.19435794090E+04  0.21639752558E+04  0.25500000920E-02 0. -1.
       -2    1    3    3    0  502 -0.61410129428E+03  0.72675139433E+03  0.11385681396E+04  0.14837875176E+04  0.25500000920E-02 0.  1.
</event>
<event>
 5   0  0.3008879E-07  0.3721081E+04  0.7818609E-02  0.8063306E-01
       -2   -1    0    0    0  501  0.00000000000E+00  0.00000000000E+00  0.27345761719E+04  0.27345761719E+04  0.25500000920E-02 0. -1.
        2   -1    0    0  501    0  0.00000000000E+00  0.00000000000E+00 -0.12658675455E+04  0.12658675455E+04  0.25500000920E-02 0.  1.
    10030    2    1    2    0    0  0.00000000000E+00  0.00000000000E+00  0.14687086264E+04  0.40004437174E+04  0.37210811476E+04 0.  0.
        2    1    3    3  502    0 -0.45431415845E+03  0.12944153067E+04 -0.61686604388E+03  0.15041396401E+04  0.25500000920E-02 0.  1.
       -2    1    3    3    0  502  0.45431415845E+03 -0.12944153067E+04  0.20855746703E+04  0.24963040773E+04  0.25500000920E-02 0. -1.
</event>
<event>
 5   0  0.3008879E-07  0.3704523E+04  0.7818609E-02  0.8066960E-01
        2   -1    0    0  501    0  0.00000000000E+00  0.00000000000E+00  0.18061682031E+04  0.18061682031E+04  0.25500000920E-02 0.  1.
       -2   -1    0    0    0  501  0.00000000000E+00  0.00000000000E+00 -0.18995307386E+04  0.18995307386E+04  0.25500000920E-02 0. -1.
    10030    2    1    2    0    0  0.00000000000E+00  0.00000000000E+00 -0.93362535450E+02  0.37056989417E+04  0.37045226526E+04 0.  0.
        2    1    3    3  502    0  0.73459447597E+03  0.13826982649E+04 -0.10366360899E+04  0.18777907015E+04  0.25500000920E-02 0. -1.
       -2    1    3    3    0  502 -0.73459447597E+03 -0.13826982649E+04  0.94327355442E+03  0.18279082402E+04  0.25500000920E-02 0.  1.
</event>
<event>
 5   0  0.2897133E-07  0.3651909E+04  0.7818609E-02  0.8078704E-01
       -2   -1    0    0    0  501  0.00000000000E+00  0.00000000000E+00  0.21515450531E+04  0.21515450532E+04  0.25500000920E-02 0. -1.
        2   -1    0    0  501    0  0.00000000000E+00  0.00000000000E+00 -0.15496350659E+04  0.15496350659E+04  0.25500000920E-02 0.  1.
    10030    2    1    2    0    0  0.00000000000E+00  0.00000000000E+00  0.60190998727E+03  0.37011801190E+04  0.36519089037E+04 0.  0.
        4    1    3    3  502    0  0.84679344889E+03  0.82563276339E+03  0.17109038088E+04  0.20798851076E+04  0.12699999809E+01 0. -1.
       -4    1    3    3    0  502 -0.84679344889E+03 -0.82563276339E+03 -0.11089938215E+04  0.16212950114E+04  0.12699999809E+01 0.  1.
</event>
<event>
 5   0  0.3008879E-07  0.3678904E+04  0.7818609E-02  0.8072653E-01
        2   -1    0    0  501    0  0.00000000000E+00  0.00000000000E+00  0.13246123926E+04  0.13246123926E+04  0.25500000920E-02 0. -1.
       -2   -1    0    0    0  501  0.00000000000E+00  0.00000000000E+00 -0.25543946517E+04  0.25543946517E+04  0.25500000920E-02 0.  1.
    10030    2    1    2    0    0  0.00000000000E+00  0.00000000000E+00 -0.12297822591E+04  0.38790070443E+04  0.36789035385E+04 0.  0.
        2    1    3    3  502    0 -0.38564488854E+03  0.47919804387E+03  0.12129608783E+04  0.13600098668E+04  0.25500000920E-02 0. -1.
       -2    1    3    3    0  502  0.38564488854E+03 -0.47919804387E+03 -0.24427431374E+04  0.25189971776E+04  0.25500000920E-02 0.  1.
</event>
<event>
 5   0  0.3008879E-07  0.3702655E+04  0.7818609E-02  0.8067374E-01
       -2   -1    0    0    0  501  0.00000000000E+00  0.00000000000E+00  0.15893228537E+04  0.15893228537E+04  0.25500000920E-02 0.  1.
        2   -1    0    0  501    0  0.00000000000E+00  0.00000000000E+00 -0.21565241925E+04  0.21565241925E+04  0.25500000920E-02 0. -1.
    10030    2    1    2    0    0  0.00000000000E+00  0.00000000000E+00 -0.56720133884E+03  0.37458470462E+04  0.37026548225E+04 0.  0.
        2    1    3    3  502    0  0.12789592909E+04  0.47144573042E+03  0.98377610893E+03  0.16810155790E+04  0.25500000920E-02 0.  1.
       -2    1    3    3    0  502 -0.12789592909E+04 -0.47144573042E+03 -0.15509774478E+04  0.20648314672E+04  0.25500000920E-02 0. -1.
</event>
<event>
 5   0  0.3032442E-07  0.3682593E+04  0.7818609E-02  0.8071830E-01
       -2   -1    0    0    0  501  0.00000000000E+00  0.00000000000E+00  0.13791621012E+04  0.13791621012E+04  0.25500000920E-02 0.  1.
        2   -1    0    0  501    0  0.00000000000E+00  0.00000000000E+00 -0.24582843000E+04  0.24582843000E+04  0.25500000920E-02 0. -1.
    10030    2    1    2    0    0  0.00000000000E+00  0.00000000000E+00 -0.10791221988E+04  0.38374464013E+04  0.36825928586E+04 0.  0.
        3    1    3    3  502    0 -0.21993234267E+03 -0.10462078461E+04 -0.21017508143E+04  0.23580240856E+04  0.10100000352E+00 0. -1.
       -3    1    3    3    0  502  0.21993234267E+03  0.10462078461E+04  0.10226286155E+04  0.14794223157E+04  0.10100000352E+00 0.  1.
</event>
<event>
 5   0  0.9341000E-08  0.3701353E+04  0.7818609E-02  0.8067662E-01
       -1   -1    0    0    0  501  0.00000000000E+00  0.00000000000E+00  0.14957190484E+04  0.14957190484E+04  0.50400001928E-02 0. -1.
        1   -1    0    0  501    0  0.00000000000E+00  0.00000000000E+00 -0.22898707082E+04  0.22898707082E+04  0.50400001928E-02 0.  1.
    10030    2    1    2    0    0  0.00000000000E+00  0.00000000000E+00 -0.79415165981E+03  0.37855897567E+04  0.37013528536E+04 0.  0.
        4    1    3    3  502    0 -0.74890235063E+03 -0.94691442464E+03  0.10375228462E+04  0.15918407356E+04  0.12699999809E+01 0. -1.
       -4    1    3    3    0  502  0.74890235063E+03  0.94691442464E+03 -0.18316745060E+04  0.21937490210E+04  0.12699999809E+01 0.  1.
</event>
<event>
 5   0  0.9341000E-08  0.3686929E+04  0.7818609E-02  0.8070865E-01
       -1   -1    0    0    0  501  0.00000000000E+00  0.00000000000E+00  0.20030069174E+04  0.20030069174E+04  0.50400001928E-02 0. -1.
        1   -1    0    0  501    0  0.00000000000E+00  0.00000000000E+00 -0.16966299727E+04  0.16966299727E+04  0.50400001928E-02 0.  1.
    10030    2    1    2    0    0  0.00000000000E+00  0.00000000000E+00  0.30637694467E+03  0.36996368901E+04  0.36869291133E+04 0.  0.
        1    1    3    3  502    0  0.16544107393E+04 -0.73667210814E+03 -0.19238331069E+03  0.18212007104E+04  0.50400001928E-02 0. -1.
       -1    1    3    3    0  502 -0.16544107393E+04  0.73667210814E+03  0.49876025536E+03  0.18784361798E+04  0.50400001928E-02 0.  1.
</event>
<event>
 5   0  0.9341000E-08  0.3695301E+04  0.7818609E-02  0.8069004E-01
        1   -1    0    0  501    0  0.00000000000E+00  0.00000000000E+00  0.17833904536E+04  0.17833904536E+04  0.50400001928E-02 0.  1.
       -1   -1    0    0    0  501  0.00000000000E+00  0.00000000000E+00 -0.19142257352E+04  0.19142257352E+04  0.50400001928E-02 0. -1.
    10030    2    1    2    0    0  0.00000000000E+00  0.00000000000E+00 -0.13083528157E+03  0.36976161888E+04  0.36953007468E+04 0.  0.
        3    1    3    3  502    0  0.16190252553E+04  0.79682020863E+03 -0.46271386755E+03  0.18628658984E+04  0.10100000352E+00 0.  1.
       -3    1    3    3    0  502 -0.16190252553E+04 -0.79682020863E+03  0.33187858598E+03  0.18347502904E+04  0.10100000352E+00 0. -1.
</event>
<event>
 5   0  0.9646615E-08  0.3694926E+04  0.7818609E-02  0.8069087E-01
       -1   -1    0    0    0  501  0.00000000000E+00  0.00000000000E+00  0.14437989248E+04  0.14437989248E+04  0.50400001928E-02 0. -1.
        1   -1    0    0  501    0  0.00000000000E+00  0.00000000000E+00 -0.23639853464E+04  0.23639853464E+04  0.50400001928E-02 0.  1.
    10030    2    1    2    0    0  0.00000000000E+00  0.00000000000E+00 -0.92018642160E+03  0.38077842713E+04  0.36949259811E+04 0.  0.
        2    1    3    3  502    0 -0.15443671771E+04 -0.71674919417E+03  0.27897300185E+03  0.17252899237E+04  0.25500000920E-02 0. -1.
       -2    1    3    3    0  502  0.15443671771E+04  0.71674919417E+03 -0.11991594235E+04  0.20824943476E+04  0.25500000920E-02 0.  1.
</event>
<event>
 5   0  0.9341000E-08  0.3789926E+04  0.7818609E-02  0.8048320E-01
       -1   -1    0    0    0  501  0.00000000000E+00  0.00000000000E+00  0.16155360961E+04  0.16155360961E+04  0.50400001928E-02 0.  1.
        1   -1    0    0  501    0  0.00000000000E+00  0.00000000000E+00 -0.22227205231E+04  0.22227205231E+04  0.50400001928E-02 0. -1.
    10030    2    1    2    0    0  0.00000000000E+00  0.00000000000E+00 -0.60718442695E+03  0.38382566192E+04  0.37899262455E+04 0.  0.
        3    1    3    3  502    0 -0.14440723738E+04  0.94229134849E+03 -0.10995067987E+04  0.20450362385E+04  0.10100000352E+00 0. -1.
       -3    1    3    3    0  502  0.14440723738E+04 -0.94229134849E+03  0.49232237171E+03  0.17932203808E+04  0.10100000352E+00 0.  1.
</event>
<event>
 5   0  0.2897133E-07  0.3726328E+04  0.7818609E-02  0.8062152E-01
       -2   -1    0    0    0  501  0.00000000000E+00  0.00000000000E+00  0.15503694029E+04  0.15503694029E+04  0.25500000920E-02 0. -1.
        2   -1    0    0  501    0  0.00000000000E+00  0.00000000000E+00 -0.22390662842E+04  0.22390662843E+04  0.25500000920E-02 0.  1.
    10030    2    1    2    0    0  0.00000000000E+00  0.00000000000E+00 -0.68869688135E+03  0.37894356872E+04  0.37263278751E+04 0.  0.
        4    1    3    3  502    0 -0.13761428761E+04 -0.12037541996E+04 -0.70900865962E+03  0.19609916575E+04  0.12699999809E+01 0.  1.
       -4    1    3    3    0  502  0.13761428761E+04  0.12037541996E+04  0.20311778272E+02  0.18284440297E+04  0.12699999809E+01 0. -1.
</event>
<event>
 5   0  0.2897133E-07  0.3720865E+04  0.7818609E-02  0.8063354E-01
        2   -1    0    0  501    0  0.00000000000E+00  0.00000000000E+00  0.16692730010E+04  0.16692730010E+04  0.25500000920E-02 0.  1.
       -2   -1    0    0    0  501  0.00000000000E+00  0.00000000000E+00 -0.20734828098E+04  0.20734828098E+04  0.25500000920E-02 0. -1.
    10030    2    1    2    0    0  0.00000000000E+00  0.00000000000E+00 -0.40420980885E+03  0.37427558108E+04  0.37208648846E+04 0.  0.
        4    1    3    3  502    0  0.70866473431E+03 -0.16937782361E+03 -0.19239916287E+04  0.20573380746E+04  0.12699999809E+01 0. -1.
       -4    1    3    3    0  502 -0.70866473431E+03  0.16937782361E+03  0.15197818199E+04  0.16854177362E+04  0.12699999809E+01 0.  1.
</event>
<event>
 5   0  0.3008879E-07  0.3714131E+04  0.7818609E-02  0.8064837E-01
        2   -1    0    0  501    0  0.00000000000E+00  0.00000000000E+00  0.17870335797E+04  0.17870335797E+04  0.25500000920E-02 0. -1.
       -2   -1    0    0    0  501  0.00000000000E+00  0.00000000000E+00 -0.19298418863E+04  0.19298418863E+04  0.25500000920E-02 0.  1.
    10030    2    1    2    0    0  0.00000000000E+00  0.00000000000E+00 -0.14280830652E+03  0.37168754660E+04  0.37141309909E+04 0.  0.
        2    1    3    3  502    0  0.58514478895E+03 -0.14115043623E+04  0.98481558529E+03  0.18178560795E+04  0.25500000920E-02 0. -1.
       -2    1    3    3    0  502 -0.58514478895E+03  0.14115043623E+04 -0.11276238918E+04  0.18990193865E+04  0.25500000920E-02 0.  1.
</event>
<event>
 5   0  0.9341000E-08  0.3710777E+04  0.7818609E-02  0.8065578E-01
        1   -1    0    0  501    0  0.00000000000E+00  0.00000000000E+00  0.18820053080E+04  0.18820053081E+04  0.50400001928E-02 0.  1.
       -1   -1    0    0    0  501  0.00000000000E+00  0.00000000000E+00 -0.18291477762E+04  0.18291477762E+04  0.50400001928E-02 0. -1.
    10030    2    1    2    0    0  0.00000000000E+00  0.00000000000E+00  0.52857531837E+02  0.37111530843E+04  0.37107766433E+04 0.  0.
        1    1    3    3  502    0  0.42475694238E+03  0.78073627957E+03 -0.16023856557E+04  0.18323775233E+04  0.50400001928E-02 0. -1.
       -1    1    3    3    0  502 -0.42475694238E+03 -0.78073627957E+03  0.16552431876E+04  0.18787755609E+04  0.50400001928E-02 0.  1.
</event>
<event>
 5   0  0.9341000E-08  0.3765975E+04  0.7818609E-02  0.8053496E-01
        1   -1    0    0  501    0  0.00000000000E+00  0.00000000000E+00  0.22791642127E+04  0.22791642127E+04  0.50400001928E-02 0. -1.
       -1   -1    0    0    0  501  0.00000000000E+00  0.00000000000E+00 -0.15556764069E+04  0.15556764069E+04  0.50400001928E-02 0.  1.
    10030    2    1    2    0    0  0.00000000000E+00  0.00000000000E+00  0.72348780579E+03  0.38348406196E+04  0.37659750361E+04 0.  0.
        3    1    3    3  502    0 -0.63470283906E+03  0.80103856066E+03 -0.12486723544E+04  0.16135963338E+04  0.10100000352E+00 0.  1.
       -3    1    3    3    0  502  0.63470283906E+03 -0.80103856066E+03  0.19721601602E+04  0.22212442858E+04  0.10100000352E+00 0. -1.
</event>
<event>
 5   0  0.9341000E-08  0.3684888E+04  0.7818609E-02  0.8071319E-01
       -1   -1    0    0    0  501  0.00000000000E+00  0.00000000000E+00  0.13434270065E+04  0.13434270066E+04  0.50400001928E-02 0.  1.
        1   -1    0    0  501    0  0.00000000000E+00  0.00000000000E+00 -0.25268212097E+04  0.25268212097E+04  0.50400001928E-02 0. -1.
    10030    2    1    2    0    0  0.00000000000E+00  0.00000000000E+00 -0.11833942032E+04  0.38702482163E+04  0.36848879787E+04 0.  0.
        4    1    3    3  502    0 -0.13190135392E+04  0.91985141567E+03  0.35280191586E+03  0.16463274730E+04  0.12699999809E+01 0.  1.
       -4    1    3    3    0  502  0.13190135392E+04 -0.91985141567E+03 -0.15361961190E+04  0.22239207433E+04  0.12699999809E+01 0. -1.
</event>
<event>
 5   0  0.9341000E-08  0.3681337E+04  0.7818609E-02  0.8072110E-01
        1   -1    0    0  501    0  0.00000000000E+00  0.00000000000E+00  0.11442960000E+04  0.11442960000E+04  0.50400001928E-02 0. -1.
       -1   -1    0    0    0  501  0.00000000000E+00  0.00000000000E+00 -0.29608260845E+04  0.29608260845E+04  0.50400001928E-02 0.  1.
    10030    2    1    2    0    0  0.00000000000E+00  0.00000000000E+00 -0.18165300845E+04  0.41051220846E+04  0.36813374990E+04 0.  0.
        4    1    3    3  502    0  0.61459642922E+03 -0.99701761474E+03 -0.24916868099E+04  0.27532304056E+04  0.12699999809E+01 0.  1.
       -4    1    3    3    0  502 -0.61459642922E+03  0.99701761474E+03  0.67515672536E+03  0.13518916790E+04  0.12699999809E+01 0. -1.
</event>
<event>
 5   0  0.2996969E-07  0.3659393E+04  0.7818609E-02  0.8077021E-01
        2   -1    0    0  501    0  0.00000000000E+00  0.00000000000E+00  0.20249384968E+04  0.20249384968E+04  0.25500000920E-02 0. -1.
       -2   -1    0    0    0  501  0.00000000000E+00  0.00000000000E+00 -0.16532795320E+04  0.16532795320E+04  0.25500000920E-02 0.  1.
    10030    2    1    2    0    0  0.00000000000E+00  0.00000000000E+00  0.37165896484E+03  0.36782180288E+04  0.36593930482E+04 0.  0.
        1    1    3    3  502    0 -0.31663000495E+03 -0.16660098143E+04  0.87634686386E+03  0.19088811087E+04  0.50400001928E-02 0. -1.
       -1    1    3    3    0  502  0.31663000495E+03  0.16660098143E+04 -0.50468789902E+03  0.17693369201E+04  0.50400001928E-02 0.  1.
</event>
<event>
 5   0  0.3008879E-07  0.3738058E+04  0.7818609E-02  0.8059580E-01
       -2   -1    0    0    0  501  0.00000000000E+00  0.00000000000E+00  0.12628651970E+04  0.12628651970E+04  0.25500000920E-02 0.  1.
        2   -1    0    0  501    0  0.00000000000E+00  0.00000000000E+00 -0.27661459475E+04  0.27661459475E+04  0.25500000920E-02 0. -1.
    10030    2    1    2    0    0  0.00000000000E+00  0.00000000000E+00 -0.15032807506E+04  0.40290111445E+04  0.37380580236E+04 0.  0.
        2    1    3    3  502    0 -0.12867720263E+04  0.92997644415E+03  0.31134303537E+03  0.16178915044E+04  0.25500000920E-02 0. -1.
       -2    1    3    3    0  502  0.12867720263E+04 -0.92997644415E+03 -0.18146237859E+04  0.24111196401E+04  0.25500000920E-02 0.  1.
</event>
<event>
 5   0  0.3032442E-07  0.3715317E+04  0.7818609E-02  0.8064576E-01
        2   -1    0    0  501    0  0.00000000000E+00  0.00000000000E+00  0.16151959827E+04  0.16151959827E+04  0.25500000920E-02 0.  1.
       -2   -1    0    0    0  501  0.00000000000E+00  0.00000000000E+00 -0.21365174941E+04  0.21365174941E+04  0.25500000920E-02 0. -1.
    10030    2    1    2    0    0  0.00000000000E+00  0.00000000000E+00 -0.52132151136E+03  0.37517134768E+04  0.37153166613E+04 0.  0.
        3    1    3    3  502    0  0.10276718482E+04 -0.13942721497E+04  0.41732577382E+03  0.17816467289E+04  0.10100000352E+00 0.  1.
       -3    1    3    3    0  502 -0.10276718482E+04  0.13942721497E+04 -0.93864728519E+03  0.19700667479E+04  0.10100000352E+00 0. -1.
</event>
<event>
 5   0  0.2913025E-07  0.3644935E+04  0.7818609E-02  0.8080276E-01
       -2   -1    0    0    0  501  0.00000000000E+00  0.00000000000E+00  0.15841320693E+04  0.15841320693E+04  0.25500000920E-02 0. -1.
        2   -1    0    0  501    0  0.00000000000E+00  0.00000000000E+00 -0.20966612272E+04  0.20966612272E+04  0.25500000920E-02 0.  1.
    10030    2    1    2    0    0  0.00000000000E+00  0.00000000000E+00 -0.51252915785E+03  0.36807932965E+04  0.36449352743E+04 0.  0.
        5    1    3    3  502    0 -0.11301529927E+04 -0.71651525071E+03  0.99313219924E+03  0.16664253799E+04  0.46999998093E+01 0. -1.
       -5    1    3    3    0  502  0.11301529927E+04  0.71651525071E+03 -0.15056613571E+04  0.20143679167E+04  0.46999998093E+01 0.  1.
</event>
<event>
 5   0  0.9418945E-08  0.3700657E+04  0.7818609E-02  0.8067816E-01
        1   -1    0    0  501    0  0.00000000000E+00  0.00000000000E+00  0.19239396097E+04  0.19239396097E+04  0.50400001928E-02 0. -1.
       -1   -1    0    0    0  501  0.00000000000E+00  0.00000000000E+00 -0.17795339760E+04  0.17795339760E+04  0.50400001928E-02 0.  1.
    10030    2    1    2    0    0  0.00000000000E+00  0.00000000000E+00  0.14440563363E+03  0.37034735857E+04  0.37006571867E+04 0.  0.
        5    1    3    3  502    0  0.68007010703E+03  0.10001880743E+04  0.14735621558E+04  0.19063785173E+04  0.46999998093E+01 0. -1.
       -5    1    3    3    0  502 -0.68007010703E+03 -0.10001880743E+04 -0.13291565222E+04  0.17970950684E+04  0.46999998093E+01 0.  1.
</event>
<event>
 5   0  0.9646615E-08  0.3690147E+04  0.7818609E-02  0.8070149E-01
        1   -1    0    0  501    0  0.00000000000E+00  0.00000000000E+00  0.29439558529E+04  0.29439558529E+04  0.50400001928E-02 0. -1.
       -1   -1    0    0    0  501  0.00000000000E+00  0.00000000000E+00 -0.11563680096E+04  0.11563680096E+04  0.50400001928E-02 0.  1.
    10030    2    1    2    0    0  0.00000000000E+00  0.00000000000E+00  0.17875878433E+04  0.41003238625E+04  0.36901470810E+04 0.  0.
        2    1    3    3  502    0  0.60188321699E+03  0.11618803258E+04  0.23391780156E+04  0.26802953358E+04  0.25500000920E-02 0.  1.
       -2    1    3    3    0  502 -0.60188321699E+03 -0.11618803258E+04 -0.55159017231E+03  0.14200285267E+04  0.25500000920E-02 0. -1.
</event>
<event>
 5   0  0.9418945E-08  0.3700281E+04  0.7818609E-02  0.8067900E-01
       -1   -1    0    0    0  501  0.00000000000E+00  0.00000000000E+00  0.11717947497E+04  0.11717947497E+04  0.50400001928E-02 0. -1.
        1   -1    0    0  501    0  0.00000000000E+00  0.00000000000E+00 -0.29211772127E+04  0.29211772127E+04  0.50400001928E-02 0.  1.
    10030    2    1    2    0    0  0.00000000000E+00  0.00000000000E+00 -0.17493824630E+04  0.40929719624E+04  0.37002811357E+04 0.  0.
        5    1    3    3  502    0 -0.17246921296E+04  0.58443469243E+03 -0.51308629653E+03  0.18919319462E+04  0.46999998093E+01 0. -1.
       -5    1    3    3    0  502  0.17246921296E+04 -0.58443469243E+03 -0.12362961665E+04  0.22010400162E+04  0.46999998093E+01 0.  1.
</event>
<event>
 5   0  0.3008879E-07  0.3691602E+04  0.7818609E-02  0.8069826E-01
        2   -1    0    0  501    0  0.00000000000E+00  0.00000000000E+00  0.21745286434E+04  0.21745286434E+04  0.25500000920E-02 0.  1.
       -2   -1    0    0    0  501  0.00000000000E+00  0.00000000000E+00 -0.15667674619E+04  0.15667674619E+04  0.25500000920E-02 0. -1.
    10030    2    1    2    0    0  0.00000000000E+00  0.00000000000E+00  0.60776118145E+03  0.37412961053E+04  0.36916016705E+04 0.  0.
        2    1    3    3  502    0  0.27208898454E+03  0.27141847990E+02 -0.15461271083E+04  0.15701204191E+04  0.25500000920E-02 0. -1.
       -2    1    3    3    0  502 -0.27208898454E+03 -0.27141847990E+02  0.21538882898E+04  0.21711756862E+04  0.25500000920E-02 0.  1.
</event>
<event>
 5   0  0.2996969E-07  0.3715898E+04  0.7818609E-02  0.8064448E-01
        2   -1    0    0  501    0  0.00000000000E+00  0.00000000000E+00  0.15364566898E+04  0.15364566898E+04  0.25500000920E-02 0.  1.
       -2   -1    0    0    0  501  0.00000000000E+00  0.00000000000E+00 -0.22467118226E+04  0.22467118226E+04  0.25500000920E-02 0. -1.
    10030    2    1    2    0    0  0.00000000000E+00  0.00000000000E+00 -0.71025513279E+03  0.37831685124E+04  0.37158984970E+04 0.  0.
        1    1    3    3  502    0  0.33405460217E+03  0.17469217099E+04 -0.90211295227E+03  0.19942757373E+04  0.50400001928E-02 0. -1.
       -1    1    3    3    0  502 -0.33405460217E+03 -0.17469217099E+04  0.19185781949E+03  0.17888927751E+04  0.50400001928E-02 0.  1.
</event>
<event>
 5   0  0.2996969E-07  0.3506362E+04  0.7818609E-02  0.8112284E-01
       -2   -1    0    0    0  501  0.00000000000E+00  0.00000000000E+00  0.11270173614E+04  0.11270173615E+04  0.25500000920E-02 0. -1.
        2   -1    0    0  501    0  0.00000000000E+00  0.00000000000E+00 -0.27272376102E+04  0.27272376102E+04  0.25500000920E-02 0.  1.
    10030    2    1    2    0    0  0.00000000000E+00  0.00000000000E+00 -0.16002202487E+04  0.38542549716E+04  0.35063622947E+04 0.  0.
        1    1    3    3  502    0  0.73344212534E+02 -0.35003635558E+03 -0.26867143769E+04  0.27104130620E+04  0.50400001928E-02 0.  1.
       -1    1    3    3    0  502 -0.73344212534E+02  0.35003635558E+03  0.10864941281E+04  0.11438419096E+04  0.50400001928E-02 0. -1.
</event>
<event>
 5   0  0.3032442E-07  0.3697978E+04  0.7818609E-02  0.8068410E-01
        2   -1    0    0  501    0  0.00000000000E+00  0.00000000000E+00  0.20857742700E+04  0.20857742700E+04  0.25500000920E-02 0.  1.
       -2   -1    0    0    0  501  0.00000000000E+00  0.00000000000E+00 -0.16390841638E+04  0.16390841638E+04  0.25500000920E-02 0. -1.
    10030    2    1    2    0    0  0.00000000000E+00  0.00000000000E+00  0.44669010621E+03  0.37248584338E+04  0.36979775960E+04 0.  0.
        3    1    3    3  502    0  0.13535762254E+04  0.11551557404E+04 -0.28250681729E+03  0.18017667703E+04  0.10100000352E+00 0. -1.
       -3    1    3    3    0  502 -0.13535762254E+04 -0.11551557404E+04  0.72919692350E+03  0.19230916634E+04  0.10100000352E+00 0.  1.
</event>
<event>
 5   0  0.9341000E-08  0.3612626E+04  0.7818609E-02  0.8087606E-01
        1   -1    0    0  501    0  0.00000000000E+00  0.00000000000E+00  0.25072762046E+04  0.25072762046E+04  0.50400001928E-02 0.  1.
       -1   -1    0    0    0  501  0.00000000000E+00  0.00000000000E+00 -0.13013192860E+04  0.13013192860E+04  0.50400001928E-02 0. -1.
    10030    2    1    2    0    0  0.00000000000E+00  0.00000000000E+00  0.12059569186E+04  0.38085954906E+04  0.36126261254E+04 0.  0.
        4    1    3    3  502    0  0.22104041739E+03 -0.40439423165E+03 -0.12382946586E+04  0.13212754577E+04  0.12699999809E+01 0. -1.
       -4    1    3    3    0  502 -0.22104041739E+03  0.40439423165E+03  0.24442515772E+04  0.24873200329E+04  0.12699999809E+01 0.  1.
</event>
<event>
 5   0  0.3032442E-07  0.3685740E+04  0.7818609E-02  0.8071129E-01
        2   -1    0    0  501    0  0.00000000000E+00  0.00000000000E+00  0.15033590454E+04  0.15033590454E+04  0.25500000920E-02 0.  1.
       -2   -1    0    0    0  501  0.00000000000E+00  0.00000000000E+00 -0.22590543924E+04  0.22590543924E+04  0.25500000920E-02 0. -1.
    10030    2    1    2    0    0  0.00000000000E+00  0.00000000000E+00 -0.75569534696E+03  0.37624134378E+04  0.36857400098E+04 0.  0.
        3    1    3    3  502    0 -0.23516887968E+03 -0.15241879330E+04 -0.14076532669E+04  0.20880471707E+04  0.10100000352E+00 0. -1.
       -3    1    3    3    0  502  0.23516887968E+03  0.15241879330E+04  0.65195791990E+03  0.16743662672E+04  0.10100000352E+00 0.  1.
</event>
<event>
 5   0  0.9646615E-08  0.3861743E+04  0.7818609E-02  0.8033033E-01
        1   -1    0    0  501    0  0.00000000000E+00  0.00000000000E+00  0.25953918214E+04  0.25953918214E+04  0.50400001928E-02 0.  1.
       -1   -1    0    0    0  501  0.00000000000E+00  0.00000000000E+00 -0.14364938909E+04  0.14364938909E+04  0.50400001928E-02 0. -1.
    10030    2    1    2    0    0  0.00000000000E+00  0.00000000000E+00  0.11588979305E+04  0.40318857123E+04  0.38617428687E+04 0.  0.
        2    1    3    3  502    0  0.47966249654E+03  0.67350250887E+03 -0.12423009228E+04  0.14923114028E+04  0.25500000920E-02 0. -1.
       -2    1    3    3    0  502 -0.47966249654E+03 -0.67350250887E+03  0.24011988534E+04  0.25395743095E+04  0.25500000920E-02 0.  1.
</event>
<event>
 5   0  0.2913025E-07  0.3698152E+04  0.7818609E-02  0.8068372E-01
       -2   -1    0    0    0  501  0.00000000000E+00  0.00000000000E+00  0.22587845316E+04  0.22587845316E+04  0.25500000920E-02 0.  1.
        2   -1    0    0  501    0  0.00000000000E+00  0.00000000000E+00 -0.15136818999E+04  0.15136818999E+04  0.25500000920E-02 0. -1.
    10030    2    1    2    0    0  0.00000000000E+00  0.00000000000E+00  0.74510263168E+03  0.37724664315E+04  0.36981515714E+04 0.  0.
        5    1    3    3  502    0  0.74049618909E+03  0.56992808968E+03  0.20002046234E+04  0.22077122229E+04  0.46999998093E+01 0.  1.
       -5    1    3    3    0  502 -0.74049618909E+03 -0.56992808968E+03 -0.12551019918E+04  0.15647542086E+04  0.46999998093E+01 0. -1.
</event>
<event>
 5   0  0.3032442E-07  0.3715076E+04  0.7818609E-02  0.8064629E-01
        2   -1    0    0  501    0  0.00000000000E+00  0.00000000000E+00  0.15790076748E+04  0.15790076748E+04  0.25500000920E-02 0.  1.
       -2   -1    0    0    0  501  0.00000000000E+00  0.00000000000E+00 -0.21851999050E+04  0.21851999050E+04  0.25500000920E-02 0. -1.
    10030    2    1    2    0    0  0.00000000000E+00  0.00000000000E+00 -0.60619223016E+03  0.37642075798E+04  0.37150759997E+04 0.  0.
        3    1    3    3  502    0 -0.17943344198E+04  0.33084667923E+03 -0.65605905540E+03  0.19389453395E+04  0.10100000352E+00 0.  1.
       -3    1    3    3    0  502  0.17943344198E+04 -0.33084667923E+03  0.49866825235E+02  0.18252622402E+04  0.10100000352E+00 0. -1.
</event>
<event>
 5   0  0.9646615E-08  0.3670884E+04  0.7818609E-02  0.8074445E-01
       -1   -1    0    0    0  501  0.00000000000E+00  0.00000000000E+00  0.12158772011E+04  0.12158772011E+04  0.50400001928E-02 0.  1.
        1   -1    0    0  501    0  0.00000000000E+00  0.00000000000E+00 -0.27707129395E+04  0.27707129395E+04  0.50400001928E-02 0. -1.
    10030    2    1    2    0    0  0.00000000000E+00  0.00000000000E+00 -0.15548357385E+04  0.39865901406E+04  0.36708836505E+04 0.  0.
        2    1    3    3  502    0 -0.73397201810E+03 -0.15134215768E+04  0.20396598170E+02  0.16821343031E+04  0.25500000920E-02 0.  1.
       -2    1    3    3    0  502  0.73397201810E+03  0.15134215768E+04 -0.15752323366E+04  0.23044558375E+04  0.25500000920E-02 0. -1.
</event>
<event>
 5   0  0.9646615E-08  0.3509747E+04  0.7818609E-02  0.8111484E-01
        1   -1    0    0  501    0  0.00000000000E+00  0.00000000000E+00  0.24637995791E+04  0.24637995791E+04  0.50400001928E-02 0.  1.
       -1   -1    0    0    0  501  0.00000000000E+00  0.00000000000E+00 -0.12499315699E+04  0.12499315699E+04  0.50400001928E-02 0. -1.
    10030    2    1    2    0    0  0.00000000000E+00  0.00000000000E+00  0.12138680092E+04  0.37137311489E+04  0.35097469286E+04 0.  0.
        2    1    3    3  502    0  0.87990712244E+03  0.93189718769E+03  0.18753150343E+04  0.22714478621E+04  0.25500000920E-02 0.  1.
       -2    1    3    3    0  502 -0.87990712244E+03 -0.93189718769E+03 -0.66144702505E+03  0.14422832868E+04  0.25500000920E-02 0. -1.
</event>
<event>
 5   0  0.9341000E-08  0.3686790E+04  0.7818609E-02  0.8070896E-01
       -3   -1    0    0    0  501  0.00000000000E+00  0.00000000000E+00  0.15885166930E+04  0.15885166962E+04  0.10100000352E+00 0. -1.
        3   -1    0    0  501    0  0.00000000000E+00  0.00000000000E+00 -0.21391686346E+04  0.21391686370E+04  0.10100000352E+00 0.  1.
    10030    2    1    2    0    0  0.00000000000E+00  0.00000000000E+00 -0.55065194165E+03  0.37276853332E+04  0.36867899835E+04 0.  0.
        3    1    3    3  502    0 -0.59405971540E+03  0.11873847540E+04  0.10176535135E+04  0.16728443392E+04  0.10100000352E+00 0. -1.
       -3    1    3    3    0  502  0.59405971540E+03 -0.11873847540E+04 -0.15683054552E+04  0.20548409940E+04  0.10100000352E+00 0.  1.
</event>
<event>
 5   0  0.3008879E-07  0.3706039E+04  0.7818609E-02  0.8066625E-01
        2   -1    0    0  501    0  0.00000000000E+00  0.00000000000E+00  0.30675117427E+04  0.30675117427E+04  0.25500000920E-02 0.  1.
       -2   -1    0    0    0  501  0.00000000000E+00  0.00000000000E+00 -0.11193704943E+04  0.11193704943E+04  0.25500000920E-02 0. -1.
    10030    2    1    2    0    0  0.00000000000E+00  0.00000000000E+00  0.19481412484E+04  0.41868822370E+04  0.37060394687E+04 0.  0.
        2    1    3    3  502    0 -0.97792602916E+03  0.11882545545E+04  0.21401706767E+04  0.26360232795E+04  0.25500000920E-02 0.  1.
       -2    1    3    3    0  502  0.97792602916E+03 -0.11882545545E+04 -0.19202942832E+03  0.15508589575E+04  0.25500000920E-02 0. -1.
</event>
<event>
 5   0  0.3008879E-07  0.3690462E+04  0.7818609E-02  0.8070079E-01
       -2   -1    0    0    0  501  0.00000000000E+00  0.00000000000E+00  0.18862468450E+04  0.18862468450E+04  0.25500000920E-02 0.  1.
        2   -1    0    0  501    0  0.00000000000E+00  0.00000000000E+00 -0.18051070235E+04  0.18051070235E+04  0.25500000920E-02 0. -1.
    10030    2    1    2    0    0  0.00000000000E+00  0.00000000000E+00  0.81139821518E+02  0.36913538686E+04  0.36904619917E+04 0.  0.
        2    1    3    3  502    0 -0.15907691395E+04  0.29464140499E+03 -0.84706633294E+03  0.18261657606E+04  0.25500000920E-02 0. -1.
       -2    1    3    3    0  502  0.15907691395E+04 -0.29464140499E+03  0.92820615446E+03  0.18651881079E+04  0.25500000920E-02 0.  1.
</event>
<event>
 5   0  0.9341000E-08  0.3693102E+04  0.7818609E-02  0.8069492E-01
       -1   -1    0    0    0  501  0.00000000000E+00  0.00000000000E+00  0.30734706710E+04  0.30734706710E+04  0.50400001928E-02 0. -1.
        1   -1    0    0  501    0  0.00000000000E+00  0.00000000000E+00 -0.11094139149E+04  0.11094139150E+04  0.50400001928E-02 0.  1.
    10030    2    1    2    0    0  0.00000000000E+00  0.00000000000E+00  0.19640567560E+04  0.41828845859E+04  0.36931022892E+04 0.  0.
        3    1    3    3  502    0  0.17128242757E+04  0.68975688856E+03  0.96524591277E+03  0.20835621534E+04  0.10100000352E+00 0.  1.
       -3    1    3    3    0  502 -0.17128242757E+04 -0.68975688856E+03  0.99881084324E+03  0.20993224325E+04  0.10100000352E+00 0. -1.
</event>
<event>
 5   0  0.2897133E-07  0.3726065E+04  0.7818609E-02  0.8062210E-01
        2   -1    0    0  501    0  0.00000000000E+00  0.00000000000E+00  0.16193345359E+04  0.16193345359E+04  0.25500000920E-02 0. -1.
       -2   -1    0    0    0  501  0.00000000000E+00  0.00000000000E+00 -0.21434050265E+04  0.21434050265E+04  0.25500000920E-02 0.  1.
    10030    2    1    2    0    0  0.00000000000E+00  0.00000000000E+00 -0.52407049065E+03  0.37627395624E+04  0.37260648325E+04 0.  0.
        4    1    3    3  502    0  0.17591675318E+04  0.28993499824E+03  0.28379897303E+03  0.18053465535E+04  0.12699999809E+01 0.  1.
       -4    1    3    3    0  502 -0.17591675318E+04 -0.28993499824E+03 -0.80786946369E+03  0.19573930090E+04  0.12699999809E+01 0. -1.
</event>
<event>
 5   0  0.9341000E-08  0.3628909E+04  0.7818609E-02  0.8083902E-01
       -1   -1    0    0    0  501  0.00000000000E+00  0.00000000000E+00  0.23776273417E+04  0.23776273417E+04  0.50400001928E-02 0.  1.
        1   -1    0    0  501    0  0.00000000000E+00  0.00000000000E+00 -0.13846764134E+04  0.13846764134E+04  0.50400001928E-02 0. -1.
    10030    2    1    2    0    0  0.00000000000E+00  0.00000000000E+00  0.99295092832E+03  0.37623037551E+04  0.36289086513E+04 0.  0.
        1    1    3    3  502    0 -0.30479225209E+02  0.16145346388E+04  0.13542915369E+04  0.21075475439E+04  0.50400001928E-02 0.  1.
       -1    1    3    3    0  502  0.30479225209E+02 -0.16145346388E+04 -0.36134060856E+03  0.16547562112E+04  0.50400001928E-02 0. -1.
</event>
<event>
 5   0  0.3008879E-07  0.3667368E+04  0.7818609E-02  0.8075232E-01
        2   -1    0    0  501    0  0.00000000000E+00  0.00000000000E+00  0.18473512507E+04  0.18473512507E+04  0.25500000920E-02 0. -1.
       -2   -1    0    0    0  501  0.00000000000E+00  0.00000000000E+00 -0.18201178228E+04  0.18201178229E+04  0.25500000920E-02 0.  1.
    10030    2    1    2    0    0  0.00000000000E+00  0.00000000000E+00  0.27233427819E+02  0.36674690735E+04  0.36673679589E+04 0.  0.
        2    1    3    3  502    0  0.26358015435E+03 -0.18115529758E+04  0.11944143701E+03  0.18345203566E+04  0.25500000920E-02 0.  1.
       -2    1    3    3    0  502 -0.26358015435E+03  0.18115529758E+04 -0.92208009188E+02  0.18329487169E+04  0.25500000920E-02 0. -1.
</event>
<event>
 5   0  0.9418945E-08  0.3677810E+04  0.7818609E-02  0.8072897E-01
       -1   -1    0    0    0  501  0.00000000000E+00  0.00000000000E+00  0.12701549943E+04  0.12701549943E+04  0.50400001928E-02 0. -1.
        1   -1    0    0  501    0  0.00000000000E+00  0.00000000000E+00 -0.26623294325E+04  0.26623294325E+04  0.50400001928E-02 0.  1.
    10030    2    1    2    0    0  0.00000000000E+00  0.00000000000E+00 -0.13921744382E+04  0.39324844268E+04  0.36778096879E+04 0.  0.
        5    1    3    3  502    0  0.14304077487E+04 -0.76457677207E+03  0.23046574040E+03  0.16382248061E+04  0.46999998093E+01 0.  1.
       -5    1    3    3    0  502 -0.14304077487E+04  0.76457677207E+03 -0.16226401786E+04  0.22942596207E+04  0.46999998093E+01 0. -1.
</event>
<event>
 5   0  0.2996969E-07  0.3340811E+04  0.7818609E-02  0.8152588E-01
        2   -1    0    0  501    0  0.00000000000E+00  0.00000000000E+00  0.30562635845E+04  0.30562635845E+04  0.25500000920E-02 0.  1.
       -2   -1    0    0    0  501  0.00000000000E+00  0.00000000000E+00 -0.91296286176E+03  0.91296286176E+03  0.25500000920E-02 0. -1.
    10030    2    1    2    0    0  0.00000000000E+00  0.00000000000E+00  0.21433007227E+04  0.39692264462E+04  0.33408113675E+04 0.  0.
        1    1    3    3  502    0 -0.84501318195E+01 -0.70477113716E+03  0.28709418751E+04  0.29561936693E+04  0.50400001928E-02 0.  1.
       -1    1    3    3    0  502  0.84501318195E+01  0.70477113716E+03 -0.72764115235E+03  0.10130327769E+04  0.50400001928E-02 0. -1.
</event>
<event>
 5   0  0.2913025E-07  0.3692726E+04  0.7818609E-02  0.8069576E-01
        2   -1    0    0  501    0  0.00000000000E+00  0.00000000000E+00  0.18515790225E+04  0.18515790225E+04  0.25500000920E-02 0.  1.
       -2   -1    0    0    0  501  0.00000000000E+00  0.00000000000E+00 -0.18411612225E+04  0.18411612225E+04  0.25500000920E-02 0. -1.
    10030    2    1    2    0    0  0.00000000000E+00  0.00000000000E+00  0.10417799999E+02  0.36927402450E+04  0.36927255498E+04 0.  0.
        5    1    3    3  502    0  0.91587477247E+03  0.16025910382E+04 -0.38480770887E+02  0.18462468671E+04  0.46999998093E+01 0. -1.
       -5    1    3    3    0  502 -0.91587477247E+03 -0.16025910382E+04  0.48898570885E+02  0.18464933779E+04  0.46999998093E+01 0.  1.
</event>
<event>
 5   0  0.9341000E-08  0.3645078E+04  0.7818609E-02  0.8080243E-01
       -1   -1    0    0    0  501  0.00000000000E+00  0.00000000000E+00  0.22210110503E+04  0.22210110503E+04  0.50400001928E-02 0. -1.
        1   -1    0    0  501    0  0.00000000000E+00  0.00000000000E+00 -0.14955565120E+04  0.14955565120E+04  0.50400001928E-02 0.  1.
    10030    2    1    2    0    0  0.00000000000E+00  0.00000000000E+00  0.72545453829E+03  0.37165675623E+04  0.36450775242E+04 0.  0.
        3    1    3    3  502    0  0.12362336837E+04 -0.90278345907E+03 -0.64579079689E+03  0.16614263325E+04  0.10100000352E+00 0.  1.
       -3    1    3    3    0  502 -0.12362336837E+04  0.90278345907E+03  0.13712453352E+04  0.20551412298E+04  0.10100000352E+00 0. -1.
</event>
<event>
 5   0  0.9341000E-08  0.3731970E+04  0.7818609E-02  0.8060914E-01
       -1   -1    0    0    0  501  0.00000000000E+00  0.00000000000E+00  0.26765973669E+04  0.26765973669E+04  0.50400001928E-02 0.  1.
        1   -1    0    0  501    0  0.00000000000E+00  0.00000000000E+00 -0.13008678585E+04  0.13008678585E+04  0.50400001928E-02 0. -1.
    10030    2    1    2    0    0  0.00000000000E+00  0.00000000000E+00  0.13757295084E+04  0.39774652254E+04  0.37319697131E+04 0.  0.
        4    1    3    3  502    0 -0.10121846359E+04 -0.30250832584E+03 -0.95145477879E+03  0.14217231915E+04  0.12699999809E+01 0. -1.
       -4    1    3    3    0  502  0.10121846359E+04  0.30250832584E+03  0.23271842872E+04  0.25557420339E+04  0.12699999809E+01 0.  1.
</event>
<event>
 5   0  0.9341000E-08  0.3726653E+04  0.7818609E-02  0.8062081E-01
        1   -1    0    0  501    0  0.00000000000E+00  0.00000000000E+00  0.12250962883E+04  0.12250962883E+04  0.50400001928E-02 0. -1.
       -1   -1    0    0    0  501  0.00000000000E+00  0.00000000000E+00 -0.28340511849E+04  0.28340511849E+04  0.50400001928E-02 0.  1.
    10030    2    1    2    0    0  0.00000000000E+00  0.00000000000E+00 -0.16089548966E+04  0.40591474732E+04  0.37266529688E+04 0.  0.
        4    1    3    3  502    0 -0.13020792370E+03 -0.17991553087E+04 -0.13131214011E+04  0.22311887762E+04  0.12699999809E+01 0.  1.
       -4    1    3    3    0  502  0.13020792370E+03  0.17991553087E+04 -0.29583349554E+03  0.18279586970E+04  0.12699999809E+01 0. -1.
</event>
<event>
 5   0  0.3008879E-07  0.3696001E+04  0.7818609E-02  0.8068849E-01
        2   -1    0    0  501    0  0.00000000000E+00  0.00000000000E+00  0.25516668543E+04  0.25516668543E+04  0.25500000920E-02 0. -1.
       -2   -1    0    0    0  501  0.00000000000E+00  0.00000000000E+00 -0.13383825006E+04  0.13383825006E+04  0.25500000920E-02 0.  1.
    10030    2    1    2    0    0  0.00000000000E+00  0.00000000000E+00  0.12132843537E+04  0.38900493550E+04  0.36960012258E+04 0.  0.
        2    1    3    3  502    0 -0.12260050706E+04  0.29083867155E+02 -0.84839097153E+03  0.14912080824E+04  0.25500000920E-02 0.  1.
       -2    1    3    3    0  502  0.12260050706E+04 -0.29083867155E+02  0.20616753252E+04  0.23988412726E+04  0.25500000920E-02 0. -1.
</event>
<event>
 5   0  0.3008879E-07  0.3666919E+04  0.7818609E-02  0.8075333E-01
       -2   -1    0    0    0  501  0.00000000000E+00  0.00000000000E+00  0.13696419348E+04  0.13696419348E+04  0.25500000920E-02 0. -1.
        2   -1    0    0  501    0  0.00000000000E+00  0.00000000000E+00 -0.24543442611E+04  0.24543442611E+04  0.25500000920E-02 0.  1.
    10030    2    1    2    0    0  0.00000000000E+00  0.00000000000E+00 -0.10847023263E+04  0.38239861959E+04  0.36669185006E+04 0.  0.
        2    1    3    3  502    0  0.13906297597E+04 -0.61049940589E+03 -0.16134851333E+04  0.22158282714E+04  0.25500000920E-02 0.  1.
       -2    1    3    3    0  502 -0.13906297597E+04  0.61049940589E+03  0.52878280701E+03  0.16081579245E+04  0.25500000920E-02 0. -1.
</event>
<event>
 5   0  0.2897133E-07  0.3694636E+04  0.7818609E-02  0.8069152E-01
        2   -1    0    0  501    0  0.00000000000E+00  0.00000000000E+00  0.21516511578E+04  0.21516511578E+04  0.25500000920E-02 0. -1.
       -2   -1    0    0    0  501  0.00000000000E+00  0.00000000000E+00 -0.15860302023E+04  0.15860302023E+04  0.25500000920E-02 0.  1.
    10030    2    1    2    0    0  0.00000000000E+00  0.00000000000E+00  0.56562095550E+03  0.37376813601E+04  0.36946359610E+04 0.  0.
        4    1    3    3  502    0  0.13732908678E+04 -0.58126143573E+03  0.13858297273E+04  0.20357598852E+04  0.12699999809E+01 0. -1.
       -4    1    3    3    0  502 -0.13732908678E+04  0.58126143573E+03 -0.82020877176E+03  0.17019214748E+04  0.12699999809E+01 0.  1.
</event>
<event>
 5   0  0.2913025E-07  0.3837710E+04  0.7818609E-02  0.8038110E-01
        2   -1    0    0  501    0  0.00000000000E+00  0.00000000000E+00  0.15343622777E+04  0.15343622777E+04  0.25500000920E-02 0.  1.
       -2   -1    0    0    0  501  0.00000000000E+00  0.00000000000E+00 -0.23996974318E+04  0.23996974318E+04  0.25500000920E-02 0. -1.
    10030    2    1    2    0    0  0.00000000000E+00  0.00000000000E+00 -0.86533515408E+03  0.39340597095E+04  0.38377103681E+04 0.  0.
        5    1    3    3  502    0  0.52489750609E+03 -0.72217612400E+03 -0.21738176067E+04  0.23500129410E+04  0.46999998093E+01 0. -1.
       -5    1    3    3    0  502 -0.52489750609E+03  0.72217612400E+03  0.13084824526E+04  0.15840467685E+04  0.46999998093E+01 0.  1.
</event>
<event>
 5   0  0.3008879E-07  0.3456589E+04  0.7818609E-02  0.8124156E-01
       -2   -1    0    0    0  501  0.00000000000E+00  0.00000000000E+00  0.21751629919E+04  0.21751629919E+04  0.25500000920E-02 0.  1.
        2   -1    0    0  501    0  0.00000000000E+00  0.00000000000E+00 -0.13732312341E+04  0.13732312341E+04  0.25500000920E-02 0. -1.
    10030    2    1    2    0    0  0.00000000000E+00  0.00000000000E+00  0.80193175777E+03  0.35483942260E+04  0.34565889311E+04 0.  0.
        2    1    3    3  502    0  0.12072239446E+04  0.10548249334E+04 -0.26190583352E+03  0.16243891030E+04  0.25500000920E-02 0. -1.
       -2    1    3    3    0  502 -0.12072239446E+04 -0.10548249334E+04  0.10638375913E+04  0.19240051229E+04  0.25500000920E-02 0.  1.
</event>
<event>
 5   0  0.2996969E-07  0.3539020E+04  0.7818609E-02  0.8104605E-01
       -2   -1    0    0    0  501  0.00000000000E+00  0.00000000000E+00  0.17148836396E+04  0.17148836396E+04  0.25500000920E-02 0. -1.
        2   -1    0    0  501    0  0.00000000000E+00  0.00000000000E+00 -0.18258762675E+04  0.18258762675E+04  0.25500000920E-02 0.  1.
    10030    2    1    2    0    0  0.00000000000E+00  0.00000000000E+00 -0.11099262792E+03  0.35407599070E+04  0.35390198298E+04 0.  0.
        1    1    3    3  502    0  0.13521024890E+04  0.24533683931E+03 -0.11708511706E+04  0.18053431168E+04  0.50400001928E-02 0.  1.
       -1    1    3    3    0  502 -0.13521024890E+04 -0.24533683931E+03  0.10598585427E+04  0.17354167903E+04  0.50400001928E-02 0. -1.
</event>
<event>
 5   0  0.2897133E-07  0.3677578E+04  0.7818609E-02  0.8072949E-01
       -2   -1    0    0    0  501  0.00000000000E+00  0.00000000000E+00  0.17632466097E+04  0.17632466097E+04  0.25500000920E-02 0.  1.
        2   -1    0    0  501    0  0.00000000000E+00  0.00000000000E+00 -0.19175674818E+04  0.19175674818E+04  0.25500000920E-02 0. -1.
    10030    2    1    2    0    0  0.00000000000E+00  0.00000000000E+00 -0.15432087207E+03  0.36808140915E+04  0.36775776599E+04 0.  0.
        4    1    3    3  502    0  0.71630065241E+03  0.76938250368E+03 -0.15871652702E+04  0.19037151230E+04  0.12699999809E+01 0. -1.
       -4    1    3    3    0  502 -0.71630065241E+03 -0.76938250368E+03  0.14328443982E+04  0.17770989685E+04  0.12699999809E+01 0.  1.
</event>
<event>
 5   0  0.2897133E-07  0.3665870E+04  0.7818609E-02  0.8075568E-01
        2   -1    0    0  501    0  0.00000000000E+00  0.00000000000E+00  0.21053639955E+04  0.21053639955E+04  0.25500000920E-02 0. -1.
       -2   -1    0    0    0  501  0.00000000000E+00  0.00000000000E+00 -0.15957573581E+04  0.15957573581E+04  0.25500000920E-02 0.  1.
    10030    2    1    2    0    0  0.00000000000E+00  0.00000000000E+00  0.50960663744E+03  0.37011213536E+04  0.36658696580E+04 0.  0.
        4    1    3    3  502    0  0.64811208239E+02 -0.44820921404E+03  0.20479898150E+04  0.20974641564E+04  0.12699999809E+01 0. -1.
       -4    1    3    3    0  502 -0.64811208239E+02  0.44820921404E+03 -0.15383831776E+04  0.16036571972E+04  0.12699999809E+01 0.  1.
</event>
<event>
 5   0  0.2913025E-07  0.3688436E+04  0.7818609E-02  0.8070529E-01
       -2   -1    0    0    0  501  0.00000000000E+00  0.00000000000E+00  0.15547220740E+04  0.15547220740E+04  0.25500000920E-02 0.  1.
        2   -1    0    0  501    0  0.00000000000E+00  0.00000000000E+00 -0.21876197785E+04  0.21876197785E+04  0.25500000920E-02 0. -1.
    10030    2    1    2    0    0  0.00000000000E+00  0.00000000000E+00 -0.63289770443E+03  0.37423418525E+04  0.36884363946E+04 0.  0.
        5    1    3    3  502    0  0.12558359532E+04  0.11577724487E+04 -0.10219948014E+04  0.19904915092E+04  0.46999998093E+01 0. -1.
       -5    1    3    3    0  502 -0.12558359532E+04 -0.11577724487E+04  0.38909709693E+03  0.17518503433E+04  0.46999998093E+01 0.  1.
</event>
<event>
 5   0  0.9341000E-08  0.3693860E+04  0.7818609E-02  0.8069324E-01
        1   -1    0    0  501    0  0.00000000000E+00  0.00000000000E+00  0.30080767237E+04  0.30080767237E+04  0.50400001928E-02 0.  1.
       -1   -1    0    0    0  501  0.00000000000E+00  0.00000000000E+00 -0.11339970273E+04  0.11339970273E+04  0.50400001928E-02 0. -1.
    10030    2    1    2    0    0  0.00000000000E+00  0.00000000000E+00  0.18740796964E+04  0.41420737509E+04  0.36938598037E+04 0.  0.
        4    1    3    3  502    0  0.11102234857E+04  0.84989493649E+03  0.22902103876E+04  0.26832783724E+04  0.12699999809E+01 0.  1.
       -4    1    3    3    0  502 -0.11102234857E+04 -0.84989493649E+03 -0.41613069122E+03  0.14587953785E+04  0.12699999809E+01 0. -1.
</event>
<event>
 5   0  0.2913025E-07  0.3669681E+04  0.7818609E-02  0.8074714E-01
       -2   -1    0    0    0  501  0.00000000000E+00  0.00000000000E+00  0.16451236949E+04  0.16451236949E+04  0.25500000920E-02 0. -1.
        2   -1    0    0  501    0  0.00000000000E+00  0.00000000000E+00 -0.20464361080E+04  0.20464361080E+04  0.25500000920E-02 0.  1.
    10030    2    1    2    0    0  0.00000000000E+00  0.00000000000E+00 -0.40131241314E+03  0.36915598029E+04  0.36696814746E+04 0.  0.
        5    1    3    3  502    0  0.17178837790E+04  0.26715766939E+03 -0.79077145729E+03  0.19099318014E+04  0.46999998093E+01 0.  1.
       -5    1    3    3    0  502 -0.17178837790E+04 -0.26715766939E+03  0.38945904415E+03  0.17816280014E+04  0.46999998093E+01 0. -1.
</event>
<event>
 5   0  0.3032442E-07  0.3688308E+04  0.7818609E-02  0.8070558E-01
        2   -1    0    0  501    0  0.00000000000E+00  0.00000000000E+00  0.20901230903E+04  0.20901230903E+04  0.25500000920E-02 0. -1.
       -2   -1    0    0    0  501  0.00000000000E+00  0.00000000000E+00 -0.16271311104E+04  0.16271311104E+04  0.25500000920E-02 0.  1.
    10030    2    1    2    0    0  0.00000000000E+00  0.00000000000E+00  0.46299197987E+03  0.37172542007E+04  0.36883081784E+04 0.  0.
        3    1    3    3  502    0  0.87701590833E+03  0.15764986067E+04 -0.15412876603E+03  0.18105967103E+04  0.10100000352E+00 0.  1.
       -3    1    3    3    0  502 -0.87701590833E+03 -0.15764986067E+04  0.61712074591E+03  0.19066574904E+04  0.10100000352E+00 0. -1.
</event>
<event>
 5   0  0.9646615E-08  0.3720491E+04  0.7818609E-02  0.8063436E-01
        1   -1    0    0  501    0  0.00000000000E+00  0.00000000000E+00  0.29624722403E+04  0.29624722403E+04  0.50400001928E-02 0. -1.
       -1   -1    0    0    0  501  0.00000000000E+00  0.00000000000E+00 -0.11681164245E+04  0.11681164245E+04  0.50400001928E-02 0.  1.
    10030    2    1    2    0    0  0.00000000000E+00  0.00000000000E+00  0.17943558158E+04  0.41305886648E+04  0.37204905489E+04 0.  0.
        2    1    3    3  502    0  0.24877599124E+03 -0.83137832400E+03 -0.92962043043E+03  0.12717207068E+04  0.25500000920E-02 0.  1.
       -2    1    3    3    0  502 -0.24877599124E+03  0.83137832400E+03  0.27239762462E+04  0.28588679580E+04  0.25500000920E-02 0. -1.
</event>
<event>
 5   0  0.9341000E-08  0.3762024E+04  0.7818609E-02  0.8054354E-01
       -1   -1    0    0    0  501  0.00000000000E+00  0.00000000000E+00  0.20476718323E+04  0.20476718323E+04  0.50400001928E-02 0. -1.
        1   -1    0    0  501    0  0.00000000000E+00  0.00000000000E+00 -0.17279168442E+04  0.17279168442E+04  0.50400001928E-02 0.  1.
    10030    2    1    2    0    0  0.00000000000E+00  0.00000000000E+00  0.31975498808E+03  0.37755886766E+04  0.37620242692E+04 0.  0.
        1    1    3    3  502    0 -0.15217580682E+04 -0.10112302224E+04 -0.28880546108E+03  0.18497953333E+04  0.50400001928E-02 0.  1.
       -1    1    3    3    0  502  0.15217580682E+04  0.10112302224E+04  0.60856044915E+03  0.19257933433E+04  0.50400001928E-02 0. -1.
</event>
<event>
 5   0  0.9418945E-08  0.3753720E+04  0.7818609E-02  0.8056160E-01
        1   -1    0    0  501    0  0.00000000000E+00  0.00000000000E+00  0.17623826800E+04  0.17623826800E+04  0.50400001928E-02 0. -1.
       -1   -1    0    0    0  501  0.00000000000E+00  0.00000000000E+00 -0.19987735591E+04  0.19987735591E+04  0.50400001928E-02 0.  1.
    10030    2    1    2    0    0  0.00000000000E+00  0.00000000000E+00 -0.23639087905E+03  0.37611562391E+04  0.37537202357E+04 0.  0.
        5    1    3    3  502    0 -0.59680015358E+03  0.16916275275E+04  0.43499216156E+03  0.18458099539E+04  0.46999998093E+01 0. -1.
       -5    1    3    3    0  502  0.59680015358E+03 -0.16916275275E+04 -0.67138304061E+03  0.19153462853E+04  0.46999998093E+01 0.  1.
</event>
<event>
 5   0  0.9418945E-08  0.3694630E+04  0.7818609E-02  0.8069153E-01
       -1   -1    0    0    0  501  0.00000000000E+00  0.00000000000E+00  0.20250057211E+04  0.20250057211E+04  0.50400001928E-02 0.  1.
        1   -1    0    0  501    0  0.00000000000E+00  0.00000000000E+00 -0.16852159415E+04  0.16852159415E+04  0.50400001928E-02 0. -1.
    10030    2    1    2    0    0  0.00000000000E+00  0.00000000000E+00  0.33978977964E+03  0.37102216626E+04  0.36946295743E+04 0.  0.
        5    1    3    3  502    0  0.15258205101E+04 -0.93171317293E+03  0.63697298985E+03  0.18978868105E+04  0.46999998093E+01 0.  1.
       -5    1    3    3    0  502 -0.15258205101E+04  0.93171317293E+03 -0.29718321021E+03  0.18123348521E+04  0.46999998093E+01 0. -1.
</event>
<event>
 5   0  0.2996969E-07  0.3699204E+04  0.7818609E-02  0.8068138E-01
       -2   -1    0    0    0  501  0.00000000000E+00  0.00000000000E+00  0.26431843589E+04  0.26431843589E+04  0.25500000920E-02 0.  1.
        2   -1    0    0  501    0  0.00000000000E+00  0.00000000000E+00 -0.12942824670E+04  0.12942824670E+04  0.25500000920E-02 0. -1.
    10030    2    1    2    0    0  0.00000000000E+00  0.00000000000E+00  0.13489018918E+04  0.39374668259E+04  0.36992037915E+04 0.  0.
        1    1    3    3  502    0  0.94189389945E+03  0.15247308960E+04  0.18777170225E+03  0.18020062806E+04  0.50400001928E-02 0. -1.
       -1    1    3    3    0  502 -0.94189389945E+03 -0.15247308960E+04  0.11611301896E+04  0.21354605453E+04  0.50400001928E-02 0.  1.
</event>
<event>
 5   0  0.2996969E-07  0.3605590E+04  0.7818609E-02  0.8089212E-01
       -2   -1    0    0    0  501  0.00000000000E+00  0.00000000000E+00  0.12363358211E+04  0.12363358211E+04  0.25500000920E-02 0.  1.
        2   -1    0    0  501    0  0.00000000000E+00  0.00000000000E+00 -0.26287917542E+04  0.26287917542E+04  0.25500000920E-02 0. -1.
    10030    2    1    2    0    0  0.00000000000E+00  0.00000000000E+00 -0.13924559331E+04  0.38651275753E+04  0.36055897781E+04 0.  0.
        1    1    3    3  502    0 -0.76398018764E+02  0.55080724947E+03  0.11421022366E+04  0.12702845359E+04  0.50400001928E-02 0.  1.
       -1    1    3    3    0  502  0.76398018764E+02 -0.55080724947E+03 -0.25345581697E+04  0.25948430394E+04  0.50400001928E-02 0. -1.
</event>
<event>
 5   0  0.9341000E-08  0.3680378E+04  0.7818609E-02  0.8072324E-01
        1   -1    0    0  501    0  0.00000000000E+00  0.00000000000E+00  0.15410184674E+04  0.15410184674E+04  0.50400001928E-02 0.  1.
       -1   -1    0    0    0  501  0.00000000000E+00  0.00000000000E+00 -0.21974402162E+04  0.21974402162E+04  0.50400001928E-02 0. -1.
    10030    2    1    2    0    0  0.00000000000E+00  0.00000000000E+00 -0.65642174878E+03  0.37384586836E+04  0.36803782166E+04 0.  0.
        1    1    3    3  502    0 -0.13256549773E+04  0.77030073306E+03 -0.13619006080E+04  0.20507309926E+04  0.50400001928E-02 0. -1.
       -1    1    3    3    0  502  0.13256549773E+04 -0.77030073306E+03  0.70547885921E+03  0.16877276910E+04  0.50400001928E-02 0.  1.
</event>
<event>
 5   0  0.3008879E-07  0.3348473E+04  0.7818609E-02  0.8150670E-01
       -2   -1    0    0    0  501  0.00000000000E+00  0.00000000000E+00  0.12871752487E+04  0.12871752487E+04  0.25500000920E-02 0. -1.
        2   -1    0    0  501    0  0.00000000000E+00  0.00000000000E+00 -0.21776889601E+04  0.21776889601E+04  0.25500000920E-02 0.  1.
    10030    2    1    2    0    0  0.00000000000E+00  0.00000000000E+00 -0.89051371141E+03  0.34648642089E+04  0.33484726840E+04 0.  0.
        2    1    3    3  502    0 -0.64444029779E+03  0.15076256190E+04 -0.79589995473E+03  0.18225517942E+04  0.25500000920E-02 0.  1.
       -2    1    3    3    0  502  0.64444029779E+03 -0.15076256190E+04 -0.94613756674E+02  0.16423124147E+04  0.25500000920E-02 0. -1.
</event>
<event>
 5   0  0.2913025E-07  0.3654893E+04  0.7818609E-02  0.8078032E-01
       -2   -1    0    0    0  501  0.00000000000E+00  0.00000000000E+00  0.15111005366E+04  0.15111005366E+04  0.25500000920E-02 0.  1.
        2   -1    0    0  501    0  0.00000000000E+00  0.00000000000E+00 -0.22100193026E+04  0.22100193026E+04  0.25500000920E-02 0. -1.
    10030    2    1    2    0    0  0.00000000000E+00  0.00000000000E+00 -0.69891876600E+03  0.37211198392E+04  0.36548933522E+04 0.  0.
        5    1    3    3  502    0  0.10832906879E+04 -0.12670239985E+04 -0.11118067286E+04  0.20037476935E+04  0.46999998093E+01 0. -1.
       -5    1    3    3    0  502 -0.10832906879E+04  0.12670239985E+04  0.41288796260E+03  0.17173721457E+04  0.46999998093E+01 0.  1.
</event>
<event>
 5   0  0.2913025E-07  0.3650827E+04  0.7818609E-02  0.8078947E-01
        2   -1    0    0  501    0  0.00000000000E+00  0.00000000000E+00  0.18733875669E+04  0.18733875669E+04  0.25500000920E-02 0.  1.
       -2   -1    0    0    0  501  0.00000000000E+00  0.00000000000E+00 -0.17786681981E+04  0.17786681981E+04  0.25500000920E-02 0. -1.
    10030    2    1    2    0    0  0.00000000000E+00  0.00000000000E+00  0.94719368861E+02  0.36520557650E+04  0.36508272421E+04 0.  0.
        5    1    3    3  502    0  0.44837504820E+03 -0.10716264726E+04  0.14559135219E+04  0.18625600001E+04  0.46999998093E+01 0.  1.
       -5    1    3    3    0  502 -0.44837504820E+03  0.10716264726E+04 -0.13611941530E+04  0.17894957650E+04  0.46999998093E+01 0. -1.
</event>
<event>
 5   0  0.9341000E-08  0.3592119E+04  0.7818609E-02  0.8092299E-01
       -1   -1    0    0    0  501  0.00000000000E+00  0.00000000000E+00  0.20894511289E+04  0.20894511289E+04  0.50400001928E-02 0.  1.
        1   -1    0    0  501    0  0.00000000000E+00  0.00000000000E+00 -0.15438646429E+04  0.15438646429E+04  0.50400001928E-02 0. -1.
    10030    2    1    2    0    0  0.00000000000E+00  0.00000000000E+00  0.54558648603E+03  0.36333157718E+04  0.35921189963E+04 0.  0.
        1    1    3    3  502    0 -0.17717010889E+04  0.51744475061E+02  0.56634138620E+03  0.18607377044E+04  0.50400001928E-02 0.  1.
       -1    1    3    3    0  502  0.17717010889E+04 -0.51744475061E+02 -0.20754900172E+02  0.17725780673E+04  0.50400001928E-02 0. -1.
</event>
<event>
 5   0  0.9341000E-08  0.3678413E+04  0.7818609E-02  0.8072763E-01
        1   -1    0    0  501    0  0.00000000000E+00  0.00000000000E+00  0.14135922652E+04  0.14135922653E+04  0.50400001928E-02 0. -1.
       -1   -1    0    0    0  501  0.00000000000E+00  0.00000000000E+00 -0.23929673762E+04  0.23929673762E+04  0.50400001928E-02 0.  1.
    10030    2    1    2    0    0  0.00000000000E+00  0.00000000000E+00 -0.97937511098E+03  0.38065596415E+04  0.36784127958E+04 0.  0.
        4    1    3    3  502    0  0.98078029101E+02  0.11660810901E+04  0.97865689871E+03  0.15254951153E+04  0.12699999809E+01 0. -1.
       -4    1    3    3    0  502 -0.98078029101E+02 -0.11660810901E+04 -0.19580320097E+04  0.22810645262E+04  0.12699999809E+01 0.  1.
</event>
<event>
 5   0  0.3032442E-07  0.3640309E+04  0.7818609E-02  0.8081320E-01
       -2   -1    0    0    0  501  0.00000000000E+00  0.00000000000E+00  0.13813711780E+04  0.13813711780E+04  0.25500000920E-02 0. -1.
        2   -1    0    0  501    0  0.00000000000E+00  0.00000000000E+00 -0.23983146916E+04  0.23983146916E+04  0.25500000920E-02 0.  1.
    10030    2    1    2    0    0  0.00000000000E+00  0.00000000000E+00 -0.10169435137E+04  0.37796858696E+04  0.36403092126E+04 0.  0.
        3    1    3    3  502    0 -0.77753040908E+03 -0.65056475356E+03 -0.20780289303E+04  0.23121401949E+04  0.10100000352E+00 0.  1.
       -3    1    3    3    0  502  0.77753040908E+03  0.65056475356E+03  0.10610854166E+04  0.14675456747E+04  0.10100000352E+00 0. -1.
</event>
<event>
 5   0  0.2996969E-07  0.3518432E+04  0.7818609E-02  0.8109436E-01
       -2   -1    0    0    0  501  0.00000000000E+00  0.00000000000E+00  0.13196679838E+04  0.13196679838E+04  0.25500000920E-02 0.  1.
        2   -1    0    0  501    0  0.00000000000E+00  0.00000000000E+00 -0.23451669999E+04  0.23451669999E+04  0.25500000920E-02 0. -1.
    10030    2    1    2    0    0  0.00000000000E+00  0.00000000000E+00 -0.10254990161E+04  0.36648349837E+04  0.35184324956E+04 0.  0.
        1    1    3    3  502    0 -0.17199712826E+02  0.45460995758E+03 -0.22828358632E+04  0.23277254181E+04  0.50400001928E-02 0. -1.
       -1    1    3    3    0  502  0.17199712826E+02 -0.45460995758E+03  0.12573368470E+04  0.13371095657E+04  0.50400001928E-02 0.  1.
</event>
<event>
 5   0  0.2913025E-07  0.3684249E+04  0.7818609E-02  0.8071461E-01
       -2   -1    0    0    0  501  0.00000000000E+00  0.00000000000E+00  0.30972361172E+04  0.30972361172E+04  0.25500000920E-02 0. -1.
        2   -1    0    0  501    0  0.00000000000E+00  0.00000000000E+00 -0.10956291592E+04  0.10956291592E+04  0.25500000920E-02 0.  1.
    10030    2    1    2    0    0  0.00000000000E+00  0.00000000000E+00  0.20016069579E+04  0.41928652764E+04  0.36842487446E+04 0.  0.
        5    1    3    3  502    0  0.55929148367E+03 -0.41824337636E+02  0.29977010889E+04  0.30497196834E+04  0.46999998093E+01 0. -1.
       -5    1    3    3    0  502 -0.55929148367E+03  0.41824337636E+02 -0.99609413098E+03  0.11431455930E+04  0.46999998093E+01 0.  1.
</event>
<event>
 5   0  0.9646615E-08  0.3702049E+04  0.7818609E-02  0.8067508E-01
       -1   -1    0    0    0  501  0.00000000000E+00  0.00000000000E+00  0.17269362557E+04  0.17269362557E+04  0.50400001928E-02 0. -1.
        1   -1    0    0  501    0  0.00000000000E+00  0.00000000000E+00 -0.19840286445E+04  0.19840286445E+04  0.50400001928E-02 0.  1.
    10030    2    1    2    0    0  0.00000000000E+00  0.00000000000E+00 -0.25709238882E+03  0.37109649003E+04  0.37020486213E+04 0.  0.
        2    1    3    3  502    0  0.23246994415E+03 -0.12941513309E+04 -0.14345352003E+04  0.19459602214E+04  0.25500000920E-02 0.  1.
       -2    1    3    3    0  502 -0.23246994415E+03  0.12941513309E+04  0.11774428115E+04  0.17650046789E+04  0.25500000920E-02 0. -1.
</event>
<event>
 5   0  0.3032442E-07  0.3701166E+04  0.7818609E-02  0.8067704E-01
        2   -1    0    0  501    0  0.00000000000E+00  0.00000000000E+00  0.29172424089E+04  0.29172424089E+04  0.25500000920E-02 0. -1.
       -2   -1    0    0    0  501  0.00000000000E+00  0.00000000000E+00 -0.11739363191E+04  0.11739363191E+04  0.25500000920E-02 0.  1.
    10030    2    1    2    0    0  0.00000000000E+00  0.00000000000E+00  0.17433060898E+04  0.40911787281E+04  0.37011656626E+04 0.  0.
        3    1    3    3  502    0 -0.90460195509E+03 -0.15847385490E+04  0.53103255681E+03  0.19004464087E+04  0.10100000352E+00 0.  1.
       -3    1    3    3    0  502  0.90460195509E+03  0.15847385490E+04  0.12122735330E+04  0.21907323193E+04  0.10100000352E+00 0. -1.
</event>
<event>
 5   0  0.2897133E-07  0.3670761E+04  0.7818609E-02  0.8074473E-01
        2   -1    0    0  501    0  0.00000000000E+00  0.00000000000E+00  0.30626376610E+04  0.30626376610E+04  0.25500000920E-02 0.  1.
       -2   -1    0    0    0  501  0.00000000000E+00  0.00000000000E+00 -0.10999084304E+04  0.10999084304E+04  0.25500000920E-02 0. -1.
    10030    2    1    2    0    0  0.00000000000E+00  0.00000000000E+00  0.19627292306E+04  0.41625460914E+04  0.36707606746E+04 0.  0.
        4    1    3    3  502    0  0.88517767674E+03  0.45939413064E+03  0.27285810896E+04  0.29051228653E+04  0.12699999809E+01 0.  1.
       -4    1    3    3    0  502 -0.88517767674E+03 -0.45939413064E+03 -0.76585185903E+03  0.12574232261E+04  0.12699999809E+01 0. -1.
</event>
<event>
 5   0  0.3032442E-07  0.3674809E+04  0.7818609E-02  0.8073567E-01
        2   -1    0    0  501    0  0.00000000000E+00  0.00000000000E+00  0.22740696410E+04  0.22740696410E+04  0.25500000920E-02 0. -1.
       -2   -1    0    0    0  501  0.00000000000E+00  0.00000000000E+00 -0.14845877943E+04  0.14845877943E+04  0.25500000920E-02 0.  1.
    10030    2    1    2    0    0  0.00000000000E+00  0.00000000000E+00  0.78948184673E+03  0.37586574353E+04  0.36748094004E+04 0.  0.
        3    1    3    3  502    0  0.13531719045E+04  0.63266691937E+03 -0.69958452297E+03  0.16494726881E+04  0.10100000352E+00 0.  1.
       -3    1    3    3    0  502 -0.13531719045E+04 -0.63266691937E+03  0.14890663697E+04  0.21091847471E+04  0.10100000352E+00 0. -1.
</event>
<event>
 5   0  0.2897133E-07  0.3701424E+04  0.7818609E-02  0.8067646E-01
        2   -1    0    0  501    0  0.00000000000E+00  0.00000000000E+00  0.22136835163E+04  0.22136835163E+04  0.25500000920E-02 0. -1.
       -2   -1    0    0    0  501  0.00000000000E+00  0.00000000000E+00 -0.15472559610E+04  0.15472559610E+04  0.25500000920E-02 0.  1.
    10030    2    1    2    0    0  0.00000000000E+00  0.00000000000E+00  0.66642755524E+03  0.37609394773E+04  0.37014240592E+04 0.  0.
        4    1    3    3  502    0  0.89715960208E+03  0.61784692640E+03  0.18534335036E+04  0.21498482601E+04  0.12699999809E+01 0. -1.
       -4    1    3    3    0  502 -0.89715960208E+03 -0.61784692640E+03 -0.11870059484E+04  0.16110912173E+04  0.12699999809E+01 0.  1.
</event>
<event>
 5   0  0.2996969E-07  0.3687834E+04  0.7818609E-02  0.8070663E-01
        2   -1    0    0  501    0  0.00000000000E+00  0.00000000000E+00  0.15114471979E+04  0.15114471979E+04  0.25500000920E-02 0.  1.
       -2   -1    0    0    0  501  0.00000000000E+00  0.00000000000E+00 -0.22495199040E+04  0.22495199040E+04  0.25500000920E-02 0. -1.
    10030    2    1    2    0    0  0.00000000000E+00  0.00000000000E+00 -0.73807270616E+03  0.37609671019E+04  0.36878343540E+04 0.  0.
        1    1    3    3  502    0 -0.15716092587E+04  0.69823362143E+03 -0.10474689439E+04  0.20136228645E+04  0.50400001928E-02 0.  1.
       -1    1    3    3    0  502  0.15716092587E+04 -0.69823362143E+03  0.30939623773E+03  0.17473442374E+04  0.50400001928E-02 0. -1.
</event>
<event>
 5   0  0.9341000E-08  0.3708526E+04  0.7818609E-02  0.8066075E-01
        1   -1    0    0  501    0  0.00000000000E+00  0.00000000000E+00  0.16596484364E+04  0.16596484364E+04  0.50400001928E-02 0. -1.
       -1   -1    0    0    0  501  0.00000000000E+00  0.00000000000E+00 -0.20716990953E+04  0.20716990953E+04  0.50400001928E-02 0.  1.
    10030    2    1    2    0    0  0.00000000000E+00  0.00000000000E+00 -0.41205065895E+03  0.37313475317E+04  0.37085264805E+04 0.  0.
        4    1    3    3  502    0 -0.15707685457E+04  0.74817099894E+03  0.43918273158E+03  0.17944237940E+04  0.12699999809E+01 0. -1.
       -4    1    3    3    0  502  0.15707685457E+04 -0.74817099894E+03 -0.85123339053E+03  0.19369237377E+04  0.12699999809E+01 0.  1.
</event>
<event>
 5   0  0.3032442E-07  0.3667224E+04  0.7818609E-02  0.8075264E-01
       -2   -1    0    0    0  501  0.00000000000E+00  0.00000000000E+00  0.14511603143E+04  0.14511603143E+04  0.25500000920E-02 0.  1.
        2   -1    0    0  501    0  0.00000000000E+00  0.00000000000E+00 -0.23168586907E+04  0.23168586907E+04  0.25500000920E-02 0. -1.
    10030    2    1    2    0    0  0.00000000000E+00  0.00000000000E+00 -0.86569837646E+03  0.37680190050E+04  0.36672242286E+04 0.  0.
        3    1    3    3  502    0 -0.78189927122E+03 -0.11113322386E+04 -0.16978282231E+04  0.21746370963E+04  0.10100000352E+00 0.  1.
       -3    1    3    3    0  502  0.78189927122E+03  0.11113322386E+04  0.83212984669E+03  0.15933819087E+04  0.10100000352E+00 0. -1.
</event>
<event>
 5   0  0.2913025E-07  0.3685131E+04  0.7818609E-02  0.8071265E-01
        2   -1    0    0  501    0  0.00000000000E+00  0.00000000000E+00  0.17924931374E+04  0.17924931374E+04  0.25500000920E-02 0.  1.
       -2   -1    0    0    0  501  0.00000000000E+00  0.00000000000E+00 -0.18940370968E+04  0.18940370968E+04  0.25500000920E-02 0. -1.
    10030    2    1    2    0    0  0.00000000000E+00  0.00000000000E+00 -0.10154395944E+03  0.36865302342E+04  0.36851314755E+04 0.  0.
        5    1    3    3  502    0  0.39563548311E+03 -0.16453014645E+04  0.67853289982E+03  0.18231767141E+04  0.46999998093E+01 0.  1.
       -5    1    3    3    0  502 -0.39563548311E+03  0.16453014645E+04 -0.78007685926E+03  0.18633535201E+04  0.46999998093E+01 0. -1.
</event>
<event>
 5   0  0.9341000E-08  0.3696421E+04  0.7818609E-02  0.8068756E-01
        1   -1    0    0  501    0  0.00000000000E+00  0.00000000000E+00  0.17505804347E+04  0.17505804347E+04  0.50400001928E-02 0. -1.
       -1   -1    0    0    0  501  0.00000000000E+00  0.00000000000E+00 -0.19512849344E+04  0.19512849345E+04  0.50400001928E-02 0.  1.
    10030    2    1    2    0    0  0.00000000000E+00  0.00000000000E+00 -0.20070449975E+03  0.37018653692E+04  0.36964205544E+04 0.  0.
        3    1    3    3  502    0 -0.45120792537E+03  0.11167062203E+04  0.13035899676E+04  0.17748149730E+04  0.10100000352E+00 0. -1.
       -3    1    3    3    0  502  0.45120792537E+03 -0.11167062203E+04 -0.15042944674E+04  0.19270503962E+04  0.10100000352E+00 0.  1.
</event>
<event>
 5   0  0.9341000E-08  0.3687481E+04  0.7818609E-02  0.8070742E-01
        1   -1    0    0  501    0  0.00000000000E+00  0.00000000000E+00  0.17631728305E+04  0.17631728305E+04  0.50400001928E-02 0. -1.
       -1   -1    0    0    0  501  0.00000000000E+00  0.00000000000E+00 -0.19279896856E+04  0.19279896856E+04  0.50400001928E-02 0.  1.
    10030    2    1    2    0    0  0.00000000000E+00  0.00000000000E+00 -0.16481685509E+03  0.36911625162E+04  0.36874810000E+04 0.  0.
        4    1    3    3  502    0 -0.39361095392E+03  0.16771321701E+04 -0.74008456682E+03  0.18749476467E+04  0.12699999809E+01 0.  1.
       -4    1    3    3    0  502  0.39361095392E+03 -0.16771321701E+04  0.57526771173E+03  0.18162148695E+04  0.12699999809E+01 0. -1.
</event>
<event>
 5   0  0.2897133E-07  0.3712698E+04  0.7818609E-02  0.8065154E-01
        2   -1    0    0  501    0  0.00000000000E+00  0.00000000000E+00  0.18352194111E+04  0.18352194111E+04  0.25500000920E-02 0. -1.
       -2   -1    0    0    0  501  0.00000000000E+00  0.00000000000E+00 -0.18777223519E+04  0.18777223519E+04  0.25500000920E-02 0.  1.
    10030    2    1    2    0    0  0.00000000000E+00  0.00000000000E+00 -0.42502940783E+02  0.37129417630E+04  0.37126984843E+04 0.  0.
        4    1    3    3  502    0  0.37766502444E+03 -0.99772505175E+03  0.14980402125E+04  0.18390791828E+04  0.12699999809E+01 0. -1.
       -4    1    3    3    0  502 -0.37766502444E+03  0.99772505175E+03 -0.15405431533E+04  0.18738625802E+04  0.12699999809E+01 0.  1.
</event>
<event>
 5   0  0.9341000E-08  0.3622826E+04  0.7818609E-02  0.8085283E-01
        1   -1    0    0  501    0  0.00000000000E+00  0.00000000000E+00  0.18169700793E+04  0.18169700794E+04  0.50400001928E-02 0. -1.
       -1   -1    0    0    0  501  0.00000000000E+00  0.00000000000E+00 -0.18058728900E+04  0.18058728900E+04  0.50400001928E-02 0.  1.
    10030    2    1    2    0    0  0.00000000000E+00  0.00000000000E+00  0.11097189347E+02  0.36228429694E+04  0.36228259733E+04 0.  0.
        3    1    3    3  502    0  0.75893586947E+03 -0.64092775255E+03 -0.15092010508E+04  0.18067816303E+04  0.10100000352E+00 0.  1.
       -3    1    3    3    0  502 -0.75893586947E+03  0.64092775255E+03  0.15202982401E+04  0.18160613390E+04  0.10100000352E+00 0. -1.
</event>
<event>
 5   0  0.2913025E-07  0.3717286E+04  0.7818609E-02  0.8064142E-01
       -2   -1    0    0    0  501  0.00000000000E+00  0.00000000000E+00  0.15542702191E+04  0.15542702191E+04  0.25500000920E-02 0. -1.
        2   -1    0    0  501    0  0.00000000000E+00  0.00000000000E+00 -0.22226210977E+04  0.22226210977E+04  0.25500000920E-02 0.  1.
    10030    2    1    2    0    0  0.00000000000E+00  0.00000000000E+00 -0.66835087861E+03  0.37768913168E+04  0.37172859887E+04 0.  0.
        5    1    3    3  502    0  0.10299690530E+04  0.92153785342E+03 -0.15968671433E+04  0.21118889717E+04  0.46999998093E+01 0.  1.
       -5    1    3    3    0  502 -0.10299690530E+04 -0.92153785342E+03  0.92851626472E+03  0.16650023451E+04  0.46999998093E+01 0. -1.
</event>
<event>
 5   0  0.3008879E-07  0.3700440E+04  0.7818609E-02  0.8067864E-01
       -2   -1    0    0    0  501  0.00000000000E+00  0.00000000000E+00  0.14593950832E+04  0.14593950832E+04  0.25500000920E-02 0. -1.
        2   -1    0    0  501    0  0.00000000000E+00  0.00000000000E+00 -0.23457072192E+04  0.23457072193E+04  0.25500000920E-02 0.  1.
    10030    2    1    2    0    0  0.00000000000E+00  0.00000000000E+00 -0.88631213610E+03  0.38051023024E+04  0.37004397481E+04 0.  0.
        2    1    3    3  502    0  0.37360285245E+03 -0.67278335964E+03  0.12870203097E+04  0.14995458706E+04  0.25500000920E-02 0. -1.
       -2    1    3    3    0  502 -0.37360285245E+03  0.67278335964E+03 -0.21733324458E+04  0.23055564318E+04  0.25500000920E-02 0.  1.
</event>
<event>
 5   0  0.2913025E-07  0.3774327E+04  0.7818609E-02  0.8051687E-01
       -2   -1    0    0    0  501  0.00000000000E+00  0.00000000000E+00  0.16649421836E+04  0.16649421836E+04  0.25500000920E-02 0.  1.
        2   -1    0    0  501    0  0.00000000000E+00  0.00000000000E+00 -0.21390453181E+04  0.21390453181E+04  0.25500000920E-02 0. -1.
    10030    2    1    2    0    0  0.00000000000E+00  0.00000000000E+00 -0.47410313444E+03  0.38039875017E+04  0.37743273747E+04 0.  0.
        5    1    3    3  502    0 -0.59828567872E+03 -0.56048349235E+03  0.14760934176E+04  0.16884790096E+04  0.46999998093E+01 0.  1.
       -5    1    3    3    0  502  0.59828567872E+03  0.56048349235E+03 -0.19501965520E+04  0.21155084921E+04  0.46999998093E+01 0. -1.
</event>
<event>
 5   0  0.9418945E-08  0.3717244E+04  0.7818609E-02  0.8064151E-01
       -1   -1    0    0    0  501  0.00000000000E+00  0.00000000000E+00  0.13428075075E+04  0.13428075075E+04  0.50400001928E-02 0. -1.
        1   -1    0    0  501    0  0.00000000000E+00  0.00000000000E+00 -0.25725771590E+04  0.25725771590E+04  0.50400001928E-02 0.  1.
    10030    2    1    2    0    0  0.00000000000E+00  0.00000000000E+00 -0.12297696514E+04  0.39153846665E+04  0.37172440989E+04 0.  0.
        5    1    3    3  502    0 -0.67141395061E+03  0.54126040813E+02 -0.24394804752E+04  0.25307732811E+04  0.46999998093E+01 0.  1.
       -5    1    3    3    0  502  0.67141395061E+03 -0.54126040813E+02  0.12097108238E+04  0.13846113854E+04  0.46999998093E+01 0. -1.
</event>
<event>
 5   0  0.9341000E-08  0.3708991E+04  0.7818609E-02  0.8065972E-01
        1   -1    0    0  501    0  0.00000000000E+00  0.00000000000E+00  0.18251925319E+04  0.18251925319E+04  0.50400001928E-02 0.  1.
       -1   -1    0    0    0  501  0.00000000000E+00  0.00000000000E+00 -0.18842688947E+04  0.18842688947E+04  0.50400001928E-02 0. -1.
    10030    2    1    2    0    0  0.00000000000E+00  0.00000000000E+00 -0.59076362731E+02  0.37094614266E+04  0.37089909758E+04 0.  0.
        4    1    3    3  502    0 -0.11731961993E+04  0.10226590540E+04 -0.10380960784E+04  0.18707928650E+04  0.12699999809E+01 0. -1.
       -4    1    3    3    0  502  0.11731961993E+04 -0.10226590540E+04  0.97901971565E+03  0.18386685616E+04  0.12699999809E+01 0.  1.
</event>
<event>
 5   0  0.3032442E-07  0.3699721E+04  0.7818609E-02  0.8068024E-01
        2   -1    0    0  501    0  0.00000000000E+00  0.00000000000E+00  0.25227142988E+04  0.25227142988E+04  0.25500000920E-02 0.  1.
       -2   -1    0    0    0  501  0.00000000000E+00  0.00000000000E+00 -0.13564692170E+04  0.13564692170E+04  0.25500000920E-02 0. -1.
    10030    2    1    2    0    0  0.00000000000E+00  0.00000000000E+00  0.11662450818E+04  0.38791835158E+04  0.36997212271E+04 0.  0.
        3    1    3    3  502    0  0.96987922919E+02 -0.34789174526E+03 -0.13191445018E+04  0.13676905901E+04  0.10100000352E+00 0. -1.
       -3    1    3    3    0  502 -0.96987922919E+02  0.34789174526E+03  0.24853895835E+04  0.25114929257E+04  0.10100000352E+00 0.  1.
</event>
<event>
 5   0  0.9646615E-08  0.3698668E+04  0.7818609E-02  0.8068257E-01
        1   -1    0    0  501    0  0.00000000000E+00  0.00000000000E+00  0.25694961842E+04  0.25694961842E+04  0.50400001928E-02 0. -1.
       -1   -1    0    0    0  501  0.00000000000E+00  0.00000000000E+00 -0.13310143080E+04  0.13310143081E+04  0.50400001928E-02 0.  1.
    10030    2    1    2    0    0  0.00000000000E+00  0.00000000000E+00  0.12384818762E+04  0.39005104923E+04  0.36986679687E+04 0.  0.
        2    1    3    3  502    0  0.33596007936E+03 -0.18137097868E+04  0.47924155273E+03  0.19058029362E+04  0.25500000920E-02 0.  1.
       -2    1    3    3    0  502 -0.33596007936E+03  0.18137097868E+04  0.75924032343E+03  0.19947075561E+04  0.25500000920E-02 0. -1.
</event>
<event>
 5   0  0.2897133E-07  0.3678177E+04  0.7818609E-02  0.8072815E-01
       -2   -1    0    0    0  501  0.00000000000E+00  0.00000000000E+00  0.14439081324E+04  0.14439081324E+04  0.25500000920E-02 0.  1.
        2   -1    0    0  501    0  0.00000000000E+00  0.00000000000E+00 -0.23424253281E+04  0.23424253281E+04  0.25500000920E-02 0. -1.
    10030    2    1    2    0    0  0.00000000000E+00  0.00000000000E+00 -0.89851719564E+03  0.37863334605E+04  0.36781772556E+04 0.  0.
        4    1    3    3  502    0  0.47805175908E+03  0.98715937141E+03 -0.19688875732E+04  0.22537828196E+04  0.12699999809E+01 0. -1.
       -4    1    3    3    0  502 -0.47805175908E+03 -0.98715937141E+03  0.10703703776E+04  0.15325506409E+04  0.12699999809E+01 0.  1.
</event>
<event>
 5   0  0.9341000E-08  0.3738118E+04  0.7818609E-02  0.8059567E-01
        1   -1    0    0  501    0  0.00000000000E+00  0.00000000000E+00  0.11585072110E+04  0.11585072110E+04  0.50400001928E-02 0. -1.
       -1   -1    0    0    0  501  0.00000000000E+00  0.00000000000E+00 -0.30154165112E+04  0.30154165112E+04  0.50400001928E-02 0.  1.
    10030    2    1    2    0    0  0.00000000000E+00  0.00000000000E+00 -0.18569093002E+04  0.41739237223E+04  0.37381181215E+04 0.  0.
        4    1    3    3  502    0  0.97405015714E+03  0.15457717700E+04 -0.48857702692E+03  0.18912676166E+04  0.12699999809E+01 0. -1.
       -4    1    3    3    0  502 -0.97405015714E+03 -0.15457717700E+04 -0.13683322733E+04  0.22826561057E+04  0.12699999809E+01 0.  1.
</event>
<event>
 5   0  0.9341000E-08  0.3711716E+04  0.7818609E-02  0.8065370E-01
       -1   -1    0    0    0  501  0.00000000000E+00  0.00000000000E+00  0.11008725765E+04  0.11008725765E+04  0.50400001928E-02 0. -1.
        1   -1    0    0  501    0  0.00000000000E+00  0.00000000000E+00 -0.31286170951E+04  0.31286170951E+04  0.50400001928E-02 0.  1.
    10030    2    1    2    0    0  0.00000000000E+00  0.00000000000E+00 -0.20277445187E+04  0.42294896716E+04  0.37117159171E+04 0.  0.
        1    1    3    3  502    0  0.63301180907E+03  0.80942897368E+03  0.74713183352E+03  0.12704665248E+04  0.50400001928E-02 0. -1.
       -1    1    3    3    0  502 -0.63301180907E+03 -0.80942897368E+03 -0.27748763522E+04  0.29590231469E+04  0.50400001928E-02 0.  1.
</event>
<event>
 5   0  0.9418945E-08  0.3694433E+04  0.7818609E-02  0.8069197E-01
       -1   -1    0    0    0  501  0.00000000000E+00  0.00000000000E+00  0.16361202326E+04  0.16361202326E+04  0.50400001928E-02 0.  1.
        1   -1    0    0  501    0  0.00000000000E+00  0.00000000000E+00 -0.20855487974E+04  0.20855487974E+04  0.50400001928E-02 0. -1.
    10030    2    1    2    0    0  0.00000000000E+00  0.00000000000E+00 -0.44942856481E+03  0.37216690301E+04  0.36944328840E+04 0.  0.
        5    1    3    3  502    0  0.93833162967E+03 -0.31434705380E+03  0.13465623350E+04  0.16710872298E+04  0.46999998093E+01 0.  1.
       -5    1    3    3    0  502 -0.93833162967E+03  0.31434705380E+03 -0.17959908998E+04  0.20505818003E+04  0.46999998093E+01 0. -1.
</event>
<event>
 5   0  0.9341000E-08  0.3693148E+04  0.7818609E-02  0.8069482E-01
       -1   -1    0    0    0  501  0.00000000000E+00  0.00000000000E+00  0.23877794233E+04  0.23877794233E+04  0.50400001928E-02 0.  1.
        1   -1    0    0  501    0  0.00000000000E+00  0.00000000000E+00 -0.14280364503E+04  0.14280364503E+04  0.50400001928E-02 0. -1.
    10030    2    1    2    0    0  0.00000000000E+00  0.00000000000E+00  0.95974297305E+03  0.38158158736E+04  0.36931482785E+04 0.  0.
        3    1    3    3  502    0  0.82909637839E+03  0.15565226152E+04 -0.85734728348E+02  0.17656482974E+04  0.10100000352E+00 0. -1.
       -3    1    3    3    0  502 -0.82909637839E+03 -0.15565226152E+04  0.10454777014E+04  0.20501675762E+04  0.10100000352E+00 0.  1.
</event>
<event>
 5   0  0.3008879E-07  0.3716243E+04  0.7818609E-02  0.8064372E-01
       -2   -1    0    0    0  501  0.00000000000E+00  0.00000000000E+00  0.12127674187E+04  0.12127674187E+04  0.25500000920E-02 0.  1.
        2   -1    0    0  501    0  0.00000000000E+00  0.00000000000E+00 -0.28468901182E+04  0.28468901182E+04  0.25500000920E-02 0. -1.
    10030    2    1    2    0    0  0.00000000000E+00  0.00000000000E+00 -0.16341226995E+04  0.40596575370E+04  0.37162430384E+04 0.  0.
        2    1    3    3  502    0 -0.15141968002E+04 -0.59478353106E+02  0.35761416369E+03  0.15569898890E+04  0.25500000920E-02 0.  1.
       -2    1    3    3    0  502  0.15141968002E+04  0.59478353106E+02 -0.19917368632E+04  0.25026676480E+04  0.25500000920E-02 0. -1.
</event>
<event>
 5   0  0.9341000E-08  0.3685034E+04  0.7818609E-02  0.8071287E-01
        1   -1    0    0  501    0  0.00000000000E+00  0.00000000000E+00  0.15861772757E+04  0.15861772757E+04  0.50400001928E-02 0.  1.
       -1   -1    0    0    0  501  0.00000000000E+00  0.00000000000E+00 -0.21402835987E+04  0.21402835987E+04  0.50400001928E-02 0. -1.
    10030    2    1    2    0    0  0.00000000000E+00  0.00000000000E+00 -0.55410632303E+03  0.37264608745E+04  0.36850341697E+04 0.  0.
        4    1    3    3  502    0  0.10106367546E+04  0.15405666227E+04 -0.26528505219E+03  0.18614805775E+04  0.12699999809E+01 0. -1.
       -4    1    3    3    0  502 -0.10106367546E+04 -0.15405666227E+04 -0.28882127084E+03  0.18649802970E+04  0.12699999809E+01 0.  1.
</event>
<event>
 5   0  0.2913025E-07  0.3720780E+04  0.7818609E-02  0.8063372E-01
       -2   -1    0    0    0  501  0.00000000000E+00  0.00000000000E+00  0.17582313568E+04  0.17582313568E+04  0.25500000920E-02 0.  1.
        2   -1    0    0  501    0  0.00000000000E+00  0.00000000000E+00 -0.19684840110E+04  0.19684840110E+04  0.25500000920E-02 0. -1.
    10030    2    1    2    0    0  0.00000000000E+00  0.00000000000E+00 -0.21025265420E+03  0.37267153678E+04  0.37207796568E+04 0.  0.
        5    1    3    3  502    0  0.17499486631E+03 -0.65489592981E+03 -0.18403786256E+04  0.19612566017E+04  0.46999998093E+01 0. -1.
       -5    1    3    3    0  502 -0.17499486631E+03  0.65489592981E+03  0.16301259714E+04  0.17654587661E+04  0.46999998093E+01 0.  1.
</event>
<event>
 5   0  0.2897133E-07  0.3701598E+04  0.7818609E-02  0.8067608E-01
       -2   -1    0    0    0  501  0.00000000000E+00  0.00000000000E+00  0.17955121857E+04  0.17955121857E+04  0.25500000920E-02 0. -1.
        2   -1    0    0  501    0  0.00000000000E+00  0.00000000000E+00 -0.19077879145E+04  0.19077879145E+04  0.25500000920E-02 0.  1.
    10030    2    1    2    0    0  0.00000000000E+00  0.00000000000E+00 -0.11227572880E+03  0.37033001002E+04  0.37015977352E+04 0.  0.
        4    1    3    3  502    0 -0.12404561724E+04 -0.17067029196E+02 -0.14302439649E+04  0.18933098562E+04  0.12699999809E+01 0.  1.
       -4    1    3    3    0  502  0.12404561724E+04  0.17067029196E+02  0.13179682361E+04  0.18099902441E+04  0.12699999809E+01 0. -1.
</event>
<event>
 5   0  0.9341000E-08  0.3715439E+04  0.7818609E-02  0.8064549E-01
        1   -1    0    0  501    0  0.00000000000E+00  0.00000000000E+00  0.16923934942E+04  0.16923934943E+04  0.50400001928E-02 0. -1.
       -1   -1    0    0    0  501  0.00000000000E+00  0.00000000000E+00 -0.20391953353E+04  0.20391953353E+04  0.50400001928E-02 0.  1.
    10030    2    1    2    0    0  0.00000000000E+00  0.00000000000E+00 -0.34680184103E+03  0.37315888295E+04  0.37154385577E+04 0.  0.
        3    1    3    3  502    0  0.55096217953E+03 -0.17681437966E+04 -0.27065489093E+02  0.18521944713E+04  0.10100000352E+00 0. -1.
       -3    1    3    3    0  502 -0.55096217953E+03  0.17681437966E+04 -0.31973635194E+03  0.18793943582E+04  0.10100000352E+00 0.  1.
</event>
<event>
 5   0  0.2913025E-07  0.3674726E+04  0.7818609E-02  0.8073586E-01
       -2   -1    0    0    0  501  0.00000000000E+00  0.00000000000E+00  0.18291239110E+04  0.18291239110E+04  0.25500000920E-02 0.  1.
        2   -1    0    0  501    0  0.00000000000E+00  0.00000000000E+00 -0.18456396568E+04  0.18456396568E+04  0.25500000920E-02 0. -1.
    10030    2    1    2    0    0  0.00000000000E+00  0.00000000000E+00 -0.16515745804E+02  0.36747635678E+04  0.36747264537E+04 0.  0.
        5    1    3    3  502    0  0.96211962122E+02  0.69203839330E+03 -0.17076006838E+04  0.18450192586E+04  0.46999998093E+01 0. -1.
       -5    1    3    3    0  502 -0.96211962122E+02 -0.69203839330E+03  0.16910849380E+04  0.18297443092E+04  0.46999998093E+01 0.  1.
</event>
<event>
 5   0  0.2996969E-07  0.3699379E+04  0.7818609E-02  0.8068099E-01
       -2   -1    0    0    0  501  0.00000000000E+00  0.00000000000E+00  0.20764427796E+04  0.20764427796E+04  0.25500000920E-02 0.  1.
        2   -1    0    0  501    0  0.00000000000E+00  0.00000000000E+00 -0.16476981649E+04  0.16476981649E+04  0.25500000920E-02 0. -1.
    10030    2    1    2    0    0  0.00000000000E+00  0.00000000000E+00  0.42874461467E+03  0.37241409445E+04  0.36993788438E+04 0.  0.
        1    1    3    3  502    0 -0.17190437311E+04  0.28433516668E+03 -0.41058345919E+03  0.17901219549E+04  0.50400001928E-02 0. -1.
       -1    1    3    3    0  502  0.17190437311E+04 -0.28433516668E+03  0.83932807387E+03  0.19340189896E+04  0.50400001928E-02 0.  1.
</event>
<event>
 5   0  0.3032442E-07  0.3712358E+04  0.7818609E-02  0.8065229E-01
       -2   -1    0    0    0  501  0.00000000000E+00  0.00000000000E+00  0.12923714192E+04  0.12923714192E+04  0.25500000920E-02 0.  1.
        2   -1    0    0  501    0  0.00000000000E+00  0.00000000000E+00 -0.26659525017E+04  0.26659525017E+04  0.25500000920E-02 0. -1.
    10030    2    1    2    0    0  0.00000000000E+00  0.00000000000E+00 -0.13735810824E+04  0.39583239209E+04  0.37123581822E+04 0.  0.
        3    1    3    3  502    0 -0.13442051861E+04  0.10361960020E+04 -0.14881235994E+04  0.22572331723E+04  0.10100000352E+00 0. -1.
       -3    1    3    3    0  502  0.13442051861E+04 -0.10361960020E+04  0.11454251694E+03  0.17010907486E+04  0.10100000352E+00 0.  1.
</event>
<event>
 5   0  0.9341000E-08  0.3711302E+04  0.7818609E-02  0.8065462E-01
       -1   -1    0    0    0  501  0.00000000000E+00  0.00000000000E+00  0.18761000289E+04  0.18761000289E+04  0.50400001928E-02 0. -1.
        1   -1    0    0  501    0  0.00000000000E+00  0.00000000000E+00 -0.18354246998E+04  0.18354246998E+04  0.50400001928E-02 0.  1.
    10030    2    1    2    0    0  0.00000000000E+00  0.00000000000E+00  0.40675329070E+02  0.37115247288E+04  0.37113018376E+04 0.  0.
        1    1    3    3  502    0 -0.12065311889E+04  0.96805616539E+03 -0.10047068607E+04  0.18445286999E+04  0.50400001928E-02 0.  1.
       -1    1    3    3    0  502  0.12065311889E+04 -0.96805616539E+03  0.10453821897E+04  0.18669960288E+04  0.50400001928E-02 0. -1.
</event>
<event>
 5   0  0.9646615E-08  0.3772143E+04  0.7818609E-02  0.8052159E-01
        1   -1    0    0  501    0  0.00000000000E+00  0.00000000000E+00  0.17980054055E+04  0.17980054055E+04  0.50400001928E-02 0.  1.
       -1   -1    0    0    0  501  0.00000000000E+00  0.00000000000E+00 -0.19784515183E+04  0.19784515183E+04  0.50400001928E-02 0. -1.
    10030    2    1    2    0    0  0.00000000000E+00  0.00000000000E+00 -0.18044611277E+03  0.37764569239E+04  0.37721434355E+04 0.  0.
        2    1    3    3  502    0 -0.14116397522E+03  0.15674447517E+04 -0.11308616332E+04  0.19379521023E+04  0.25500000920E-02 0. -1.
       -2    1    3    3    0  502  0.14116397522E+03 -0.15674447517E+04  0.95041552043E+03  0.18385048216E+04  0.25500000920E-02 0.  1.
</event>
<event>
 5   0  0.2996969E-07  0.3693628E+04  0.7818609E-02  0.8069376E-01
        2   -1    0    0  501    0  0.00000000000E+00  0.00000000000E+00  0.12731185586E+04  0.12731185586E+04  0.25500000920E-02 0.  1.
       -2   -1    0    0    0  501  0.00000000000E+00  0.00000000000E+00 -0.26790286237E+04  0.26790286237E+04  0.25500000920E-02 0. -1.
    10030    2    1    2    0    0  0.00000000000E+00  0.00000000000E+00 -0.14059100650E+04  0.39521471823E+04  0.36936275177E+04 0.  0.
        1    1    3    3  502    0 -0.52220020064E+03  0.13963284598E+04 -0.18693405508E+04  0.23909956738E+04  0.50400001928E-02 0. -1.
       -1    1    3    3    0  502  0.52220020064E+03 -0.13963284598E+04  0.46343048576E+03  0.15611515085E+04  0.50400001928E-02 0.  1.
</event>
<event>
 5   0  0.3032442E-07  0.3709660E+04  0.7818609E-02  0.8065824E-01
        2   -1    0    0  501    0  0.00000000000E+00  0.00000000000E+00  0.26114062040E+04  0.26114062040E+04  0.25500000920E-02 0. -1.
       -2   -1    0    0    0  501  0.00000000000E+00  0.00000000000E+00 -0.13174490388E+04  0.13174490388E+04  0.25500000920E-02 0.  1.
    10030    2    1    2    0    0  0.00000000000E+00  0.00000000000E+00  0.12939571653E+04  0.39288552428E+04  0.37096601426E+04 0.  0.
        3    1    3    3  502    0 -0.12482043062E+04 -0.92641443290E+03  0.17187715649E+04  0.23174195550E+04  0.10100000352E+00 0. -1.
       -3    1    3    3    0  502  0.12482043062E+04  0.92641443290E+03 -0.42481439958E+03  0.16114356878E+04  0.10100000352E+00 0.  1.
</event>
<event>
 5   0  0.9418945E-08  0.3711145E+04  0.7818609E-02  0.8065496E-01
       -1   -1    0    0    0  501  0.00000000000E+00  0.00000000000E+00  0.20616527795E+04  0.20616527795E+04  0.50400001928E-02 0.  1.
        1   -1    0    0  501    0  0.00000000000E+00  0.00000000000E+00 -0.16700915880E+04  0.16700915880E+04  0.50400001928E-02 0. -1.
    10030    2    1    2    0    0  0.00000000000E+00  0.00000000000E+00  0.39156119155E+03  0.37317443675E+04  0.37111448177E+04 0.  0.
        5    1    3    3  502    0 -0.17236254104E+04  0.17735496532E+03 -0.47182295288E+03  0.17958224656E+04  0.46999998093E+01 0. -1.
       -5    1    3    3    0  502  0.17236254104E+04 -0.17735496532E+03  0.86338414442E+03  0.19359219019E+04  0.46999998093E+01 0.  1.
</event>
<event>
 5   0  0.3032442E-07  0.3620525E+04  0.7818609E-02  0.8085806E-01
       -2   -1    0    0    0  501  0.00000000000E+00  0.00000000000E+00  0.19359543036E+04  0.19359543036E+04  0.25500000920E-02 0.  1.
        2   -1    0    0  501    0  0.00000000000E+00  0.00000000000E+00 -0.16927316177E+04  0.16927316177E+04  0.25500000920E-02 0. -1.
    10030    2    1    2    0    0  0.00000000000E+00  0.00000000000E+00  0.24322268588E+03  0.36286859213E+04  0.36205254094E+04 0.  0.
        3    1    3    3  502    0  0.14748078611E+04  0.64739241768E+03  0.94983697427E+03  0.18698570687E+04  0.10100000352E+00 0.  1.
       -3    1    3    3    0  502 -0.14748078611E+04 -0.64739241768E+03 -0.70661428840E+03  0.17588288525E+04  0.10100000352E+00 0. -1.
</event>
<event>
 5   0  0.9341000E-08  0.3725312E+04  0.7818609E-02  0.8062375E-01
        1   -1    0    0  501    0  0.00000000000E+00  0.00000000000E+00  0.13977338234E+04  0.13977338234E+04  0.50400001928E-02 0. -1.
       -1   -1    0    0    0  501  0.00000000000E+00  0.00000000000E+00 -0.24822234649E+04  0.24822234649E+04  0.50400001928E-02 0.  1.
    10030    2    1    2    0    0  0.00000000000E+00  0.00000000000E+00 -0.10844896415E+04  0.38799572884E+04  0.37253121718E+04 0.  0.
        4    1    3    3  502    0 -0.11384448005E+04  0.79921382961E+03 -0.18324956543E+04  0.23006175791E+04  0.12699999809E+01 0.  1.
       -4    1    3    3    0  502  0.11384448005E+04 -0.79921382961E+03  0.74800601281E+03  0.15793397093E+04  0.12699999809E+01 0. -1.
</event>
<event>
 5   0  0.9341000E-08  0.3728025E+04  0.7818609E-02  0.8061779E-01
        1   -1    0    0  501    0  0.00000000000E+00  0.00000000000E+00  0.27201740485E+04  0.27201740485E+04  0.50400001928E-02 0.  1.
       -1   -1    0    0    0  501  0.00000000000E+00  0.00000000000E+00 -0.12773237973E+04  0.12773237973E+04  0.50400001928E-02 0. -1.
    10030    2    1    2    0    0  0.00000000000E+00  0.00000000000E+00  0.14428502512E+04  0.39974978459E+04  0.37280252387E+04 0.  0.
        4    1    3    3  502    0 -0.10572187645E+04  0.73026084701E+03 -0.72657338348E+03  0.14761107395E+04  0.12699999809E+01 0. -1.
       -4    1    3    3    0  502  0.10572187645E+04 -0.73026084701E+03  0.21694236347E+04  0.25213871064E+04  0.12699999809E+01 0.  1.
</event>
<event>
 5   0  0.3032442E-07  0.3487705E+04  0.7818609E-02  0.8116710E-01
       -2   -1    0    0    0  501  0.00000000000E+00  0.00000000000E+00  0.16153888301E+04  0.16153888301E+04  0.25500000920E-02 0. -1.
        2   -1    0    0  501    0  0.00000000000E+00  0.00000000000E+00 -0.18825318240E+04  0.18825318240E+04  0.25500000920E-02 0.  1.
    10030    2    1    2    0    0  0.00000000000E+00  0.00000000000E+00 -0.26714299393E+03  0.34979206541E+04  0.34877046209E+04 0.  0.
        3    1    3    3  502    0 -0.83221424536E+03  0.97346448814E+03 -0.13205953371E+04  0.18396156431E+04  0.10100000352E+00 0.  1.
       -3    1    3    3    0  502  0.83221424536E+03 -0.97346448814E+03  0.10534523432E+04  0.16583050110E+04  0.10100000352E+00 0. -1.
</event>
<event>
 5   0  0.9418945E-08  0.3696400E+04  0.7818609E-02  0.8068760E-01
       -1   -1    0    0    0  501  0.00000000000E+00  0.00000000000E+00  0.12310507967E+04  0.12310507967E+04  0.50400001928E-02 0. -1.
        1   -1    0    0  501    0  0.00000000000E+00  0.00000000000E+00 -0.27747376308E+04  0.27747376308E+04  0.50400001928E-02 0.  1.
    10030    2    1    2    0    0  0.00000000000E+00  0.00000000000E+00 -0.15436868341E+04  0.40057884275E+04  0.36963998545E+04 0.  0.
        5    1    3    3  502    0  0.16893600576E+04  0.73688696962E+03 -0.92075290588E+03  0.20602785768E+04  0.46999998093E+01 0. -1.
       -5    1    3    3    0  502 -0.16893600576E+04 -0.73688696962E+03 -0.62293392820E+03  0.19455098507E+04  0.46999998093E+01 0.  1.
</event>
<event>
 5   0  0.9341000E-08  0.3735027E+04  0.7818609E-02  0.8060243E-01
       -1   -1    0    0    0  501  0.00000000000E+00  0.00000000000E+00  0.31026535619E+04  0.31026535619E+04  0.50400001928E-02 0. -1.
        1   -1    0    0  501    0  0.00000000000E+00  0.00000000000E+00 -0.11240721074E+04  0.11240721074E+04  0.50400001928E-02 0.  1.
    10030    2    1    2    0    0  0.00000000000E+00  0.00000000000E+00  0.19785814545E+04  0.42267256693E+04  0.37350268153E+04 0.  0.
        1    1    3    3  502    0  0.39923750601E+03  0.18015789251E+04  0.13143884590E+04  0.22655450185E+04  0.50400001928E-02 0. -1.
       -1    1    3    3    0  502 -0.39923750601E+03 -0.18015789251E+04  0.66419299550E+03  0.19611806508E+04  0.50400001928E-02 0.  1.
</event>
<event>
 5   0  0.9341000E-08  0.3558651E+04  0.7818609E-02  0.8100029E-01
        1   -1    0    0  501    0  0.00000000000E+00  0.00000000000E+00  0.24836371956E+04  0.24836371956E+04  0.50400001928E-02 0.  1.
       -1   -1    0    0    0  501  0.00000000000E+00  0.00000000000E+00 -0.12747431342E+04  0.12747431342E+04  0.50400001928E-02 0. -1.
    10030    2    1    2    0    0  0.00000000000E+00  0.00000000000E+00  0.12088940614E+04  0.37583803298E+04  0.35586511281E+04 0.  0.
        4    1    3    3  502    0 -0.66569400391E+03  0.16500703883E+04  0.59302051563E+03  0.18755147928E+04  0.12699999809E+01 0.  1.
       -4    1    3    3    0  502  0.66569400391E+03 -0.16500703883E+04  0.61587354580E+03  0.18828655370E+04  0.12699999809E+01 0. -1.
</event>
<event>
 5   0  0.3008879E-07  0.3709131E+04  0.7818609E-02  0.8065941E-01
        2   -1    0    0  501    0  0.00000000000E+00  0.00000000000E+00  0.21113365146E+04  0.21113365146E+04  0.25500000920E-02 0. -1.
       -2   -1    0    0    0  501  0.00000000000E+00  0.00000000000E+00 -0.16290215653E+04  0.16290215653E+04  0.25500000920E-02 0.  1.
    10030    2    1    2    0    0  0.00000000000E+00  0.00000000000E+00  0.48231494930E+03  0.37403580799E+04  0.37091307412E+04 0.  0.
        2    1    3    3  502    0  0.40730287815E+03  0.18089257371E+04  0.27758300283E+03  0.18748760707E+04  0.25500000920E-02 0.  1.
       -2    1    3    3    0  502 -0.40730287815E+03 -0.18089257371E+04  0.20473194647E+03  0.18654820092E+04  0.25500000920E-02 0. -1.
</event>
<event>
 5   0  0.3008879E-07  0.3723464E+04  0.7818609E-02  0.8062782E-01
        2   -1    0    0  501    0  0.00000000000E+00  0.00000000000E+00  0.27626548633E+04  0.27626548633E+04  0.25500000920E-02 0. -1.
       -2   -1    0    0    0  501  0.00000000000E+00  0.00000000000E+00 -0.12546071606E+04  0.12546071607E+04  0.25500000920E-02 0.  1.
    10030    2    1    2    0    0  0.00000000000E+00  0.00000000000E+00  0.15080477026E+04  0.40172620239E+04  0.37234642869E+04 0.  0.
        2    1    3    3  502    0  0.12556273721E+04 -0.13735673105E+04  0.69734983534E+03  0.19873560443E+04  0.25500000920E-02 0.  1.
       -2    1    3    3    0  502 -0.12556273721E+04  0.13735673105E+04  0.81069786728E+03  0.20299059796E+04  0.25500000920E-02 0. -1.
</event>
<event>
 5   0  0.3008879E-07  0.3703444E+04  0.7818609E-02  0.8067199E-01
       -2   -1    0    0    0  501  0.00000000000E+00  0.00000000000E+00  0.18645516480E+04  0.18645516480E+04  0.25500000920E-02 0. -1.
        2   -1    0    0  501    0  0.00000000000E+00  0.00000000000E+00 -0.18389807256E+04  0.18389807256E+04  0.25500000920E-02 0.  1.
    10030    2    1    2    0    0  0.00000000000E+00  0.00000000000E+00  0.25570922409E+02  0.37035323736E+04  0.37034440957E+04 0.  0.
        2    1    3    3  502    0 -0.12983108091E+04 -0.88457506861E+03  0.99300805746E+03  0.18585341028E+04  0.25500000920E-02 0. -1.
       -2    1    3    3    0  502  0.12983108091E+04  0.88457506861E+03 -0.96743713505E+03  0.18449982708E+04  0.25500000920E-02 0.  1.
</event>
<event>
 5   0  0.9646615E-08  0.3665773E+04  0.7818609E-02  0.8075590E-01
        1   -1    0    0  501    0  0.00000000000E+00  0.00000000000E+00  0.14933331589E+04  0.14933331590E+04  0.50400001928E-02 0.  1.
       -1   -1    0    0    0  501  0.00000000000E+00  0.00000000000E+00 -0.22496475463E+04  0.22496475463E+04  0.50400001928E-02 0. -1.
    10030    2    1    2    0    0  0.00000000000E+00  0.00000000000E+00 -0.75631438732E+03  0.37429807052E+04  0.36657731936E+04 0.  0.
        2    1    3    3  502    0 -0.11201525398E+04 -0.13082451774E+04  0.26212758348E+03  0.17421130923E+04  0.25500000920E-02 0.  1.
       -2    1    3    3    0  502  0.11201525398E+04  0.13082451774E+04 -0.10184419708E+04  0.20008676129E+04  0.25500000920E-02 0. -1.
</event>
<event>
 5   0  0.9341000E-08  0.3687183E+04  0.7818609E-02  0.8070808E-01
       -1   -1    0    0    0  501  0.00000000000E+00  0.00000000000E+00  0.14745276846E+04  0.14745276846E+04  0.50400001928E-02 0. -1.
        1   -1    0    0  501    0  0.00000000000E+00  0.00000000000E+00 -0.23050289292E+04  0.23050289292E+04  0.50400001928E-02 0.  1.
    10030    2    1    2    0    0  0.00000000000E+00  0.00000000000E+00 -0.83050124457E+03  0.37795566139E+04  0.36871826481E+04 0.  0.
        4    1    3    3  502    0  0.98717062000E+03 -0.12029336218E+04 -0.14285878123E+04  0.21124440541E+04  0.12699999809E+01 0.  1.
       -4    1    3    3    0  502 -0.98717062000E+03  0.12029336218E+04  0.59808656768E+03  0.16671125597E+04  0.12699999809E+01 0. -1.
</event>
<event>
 5   0  0.9341000E-08  0.3730506E+04  0.7818609E-02  0.8061235E-01
       -1   -1    0    0    0  501  0.00000000000E+00  0.00000000000E+00  0.12693562385E+04  0.12693562385E+04  0.50400001928E-02 0. -1.
        1   -1    0    0  501    0  0.00000000000E+00  0.00000000000E+00 -0.27408916375E+04  0.27408916375E+04  0.50400001928E-02 0.  1.
    10030    2    1    2    0    0  0.00000000000E+00  0.00000000000E+00 -0.14715353990E+04  0.40102478761E+04  0.37305055418E+04 0.  0.
        3    1    3    3  502    0 -0.69158826916E+03 -0.52550869996E+03 -0.25102186639E+04  0.26562476313E+04  0.10100000352E+00 0.  1.
       -3    1    3    3    0  502  0.69158826916E+03  0.52550869996E+03  0.10386832649E+04  0.13540002448E+04  0.10100000352E+00 0. -1.
</event>
<event>
 5   0  0.2913025E-07  0.3680411E+04  0.7818609E-02  0.8072317E-01
       -2   -1    0    0    0  501  0.00000000000E+00  0.00000000000E+00  0.15268660378E+04  0.15268660378E+04  0.25500000920E-02 0.  1.
        2   -1    0    0  501    0  0.00000000000E+00  0.00000000000E+00 -0.22178475809E+04  0.22178475809E+04  0.25500000920E-02 0. -1.
    10030    2    1    2    0    0  0.00000000000E+00  0.00000000000E+00 -0.69098154312E+03  0.37447136187E+04  0.36804109272E+04 0.  0.
        5    1    3    3  502    0  0.91114857032E+03  0.82807190977E+03 -0.17370256706E+04  0.21291254250E+04  0.46999998093E+01 0. -1.
       -5    1    3    3    0  502 -0.91114857032E+03 -0.82807190977E+03  0.10460441275E+04  0.16155881937E+04  0.46999998093E+01 0.  1.
</event>
<event>
 5   0  0.9341000E-08  0.3668556E+04  0.7818609E-02  0.8074966E-01
        1   -1    0    0  501    0  0.00000000000E+00  0.00000000000E+00  0.22251988626E+04  0.22251988626E+04  0.50400001928E-02 0. -1.
       -1   -1    0    0    0  501  0.00000000000E+00  0.00000000000E+00 -0.15120336079E+04  0.15120336079E+04  0.50400001928E-02 0.  1.
    10030    2    1    2    0    0  0.00000000000E+00  0.00000000000E+00  0.71316525469E+03  0.37372324704E+04  0.36685558272E+04 0.  0.
        4    1    3    3  502    0 -0.47925706052E+02 -0.12294272064E+04  0.17424863181E+04  0.21330842249E+04  0.12699999809E+01 0. -1.
       -4    1    3    3    0  502  0.47925706052E+02  0.12294272064E+04 -0.10293210634E+04  0.16041482455E+04  0.12699999809E+01 0.  1.
</event>
<event>
 5   0  0.2913025E-07  0.3649529E+04  0.7818609E-02  0.8079240E-01
       -2   -1    0    0    0  501  0.00000000000E+00  0.00000000000E+00  0.13034233216E+04  0.13034233216E+04  0.25500000920E-02 0.  1.
        2   -1    0    0  501    0  0.00000000000E+00  0.00000000000E+00 -0.25546309715E+04  0.25546309715E+04  0.25500000920E-02 0. -1.
    10030    2    1    2    0    0  0.00000000000E+00  0.00000000000E+00 -0.12512076499E+04  0.38580542931E+04  0.36495290580E+04 0.  0.
        5    1    3    3  502    0  0.30576390582E+02 -0.20361344968E+03 -0.25423053627E+04  0.25506336467E+04  0.46999998093E+01 0. -1.
       -5    1    3    3    0  502 -0.30576390582E+02  0.20361344968E+03  0.12910977128E+04  0.13074206464E+04  0.46999998093E+01 0.  1.
</event>
<event>
 5   0  0.9341000E-08  0.3671404E+04  0.7818609E-02  0.8074329E-01
       -1   -1    0    0    0  501  0.00000000000E+00  0.00000000000E+00  0.16596107589E+04  0.16596107589E+04  0.50400001928E-02 0.  1.
        1   -1    0    0  501    0  0.00000000000E+00  0.00000000000E+00 -0.20304767103E+04  0.20304767103E+04  0.50400001928E-02 0. -1.
    10030    2    1    2    0    0  0.00000000000E+00  0.00000000000E+00 -0.37086595135E+03  0.36900874692E+04  0.36714035431E+04 0.  0.
        4    1    3    3  502    0  0.11203336173E+04 -0.12072458552E+04  0.62937716496E+03  0.17631526302E+04  0.12699999809E+01 0.  1.
       -4    1    3    3    0  502 -0.11203336173E+04  0.12072458552E+04 -0.10002431163E+04  0.19269348389E+04  0.12699999809E+01 0. -1.
</event>
<event>
 5   0  0.9341000E-08  0.3687871E+04  0.7818609E-02  0.8070655E-01
       -3   -1    0    0    0  501  0.00000000000E+00  0.00000000000E+00  0.17036306956E+04  0.17036306986E+04  0.10100000352E+00 0.  1.
        3   -1    0    0  501    0  0.00000000000E+00  0.00000000000E+00 -0.19957947993E+04  0.19957948018E+04  0.10100000352E+00 0. -1.
    10030    2    1    2    0    0  0.00000000000E+00  0.00000000000E+00 -0.29216410368E+03  0.36994255004E+04  0.36878705467E+04 0.  0.
        5    1    3    3  502    0 -0.81858575254E+03 -0.12499225393E+04  0.93789900918E+03  0.17641047673E+04  0.46999998093E+01 0.  1.
       -5    1    3    3    0  502  0.81858575254E+03  0.12499225393E+04 -0.12300631129E+04  0.19353207331E+04  0.46999998093E+01 0. -1.
</event>
<event>
 5   0  0.9341000E-08  0.3700210E+04  0.7818609E-02  0.8067915E-01
        1   -1    0    0  501    0  0.00000000000E+00  0.00000000000E+00  0.22132430135E+04  0.22132430135E+04  0.50400001928E-02 0.  1.
       -1   -1    0    0    0  501  0.00000000000E+00  0.00000000000E+00 -0.15465485288E+04  0.15465485288E+04  0.50400001928E-02 0. -1.
    10030    2    1    2    0    0  0.00000000000E+00  0.00000000000E+00  0.66669448471E+03  0.37597915424E+04  0.37002095760E+04 0.  0.
        3    1    3    3  502    0  0.71665692483E+03 -0.14874201156E+04 -0.51488336919E+03  0.17294856583E+04  0.10100000352E+00 0. -1.
       -3    1    3    3    0  502 -0.71665692483E+03  0.14874201156E+04  0.11815778539E+04  0.20303058841E+04  0.10100000352E+00 0.  1.
</event>
<event>
 5   0  0.9341000E-08  0.3507683E+04  0.7818609E-02  0.8111972E-01
        1   -1    0    0  501    0  0.00000000000E+00  0.00000000000E+00  0.30222428211E+04  0.30222428211E+04  0.50400001928E-02 0.  1.
       -1   -1    0    0    0  501  0.00000000000E+00  0.00000000000E+00 -0.10177737103E+04  0.10177737104E+04  0.50400001928E-02 0. -1.
    10030    2    1    2    0    0  0.00000000000E+00  0.00000000000E+00  0.20044691108E+04  0.40400165315E+04  0.35076825909E+04 0.  0.
        3    1    3    3  502    0  0.16401950119E+04  0.28762632512E+03  0.16362173965E+04  0.23345611919E+04  0.10100000352E+00 0.  1.
       -3    1    3    3    0  502 -0.16401950119E+04 -0.28762632512E+03  0.36825171433E+03  0.17054553396E+04  0.10100000352E+00 0. -1.
</event>
<event>
 5   0  0.2897133E-07  0.3671871E+04  0.7818609E-02  0.8074224E-01
       -2   -1    0    0    0  501  0.00000000000E+00  0.00000000000E+00  0.20006399107E+04  0.20006399107E+04  0.25500000920E-02 0. -1.
        2   -1    0    0  501    0  0.00000000000E+00  0.00000000000E+00 -0.16847904348E+04  0.16847904348E+04  0.25500000920E-02 0.  1.
    10030    2    1    2    0    0  0.00000000000E+00  0.00000000000E+00  0.31584947590E+03  0.36854303455E+04  0.36718709046E+04 0.  0.
        4    1    3    3  502    0 -0.80226757982E+03 -0.11132075472E+04  0.13821802491E+04  0.19476365592E+04  0.12699999809E+01 0. -1.
       -4    1    3    3    0  502  0.80226757982E+03  0.11132075472E+04 -0.10663307732E+04  0.17377937863E+04  0.12699999809E+01 0.  1.
</event>
<event>
 5   0  0.3008879E-07  0.3698742E+04  0.7818609E-02  0.8068241E-01
        2   -1    0    0  501    0  0.00000000000E+00  0.00000000000E+00  0.22467507432E+04  0.22467507432E+04  0.25500000920E-02 0.  1.
       -2   -1    0    0    0  501  0.00000000000E+00  0.00000000000E+00 -0.15222754111E+04  0.15222754111E+04  0.25500000920E-02 0. -1.
    10030    2    1    2    0    0  0.00000000000E+00  0.00000000000E+00  0.72447533211E+03  0.37690261543E+04  0.36987421706E+04 0.  0.
        2    1    3    3  502    0 -0.64745923078E+03 -0.51730393934E+03 -0.13224679870E+04  0.15606820297E+04  0.25500000920E-02 0. -1.
       -2    1    3    3    0  502  0.64745923078E+03  0.51730393934E+03  0.20469433191E+04  0.22083441246E+04  0.25500000920E-02 0.  1.
</event>
<event>
 5   0  0.9341000E-08  0.3592407E+04  0.7818609E-02  0.8092233E-01
       -1   -1    0    0    0  501  0.00000000000E+00  0.00000000000E+00  0.17217151217E+04  0.17217151217E+04  0.50400001928E-02 0.  1.
        1   -1    0    0  501    0  0.00000000000E+00  0.00000000000E+00 -0.18739141966E+04  0.18739141966E+04  0.50400001928E-02 0. -1.
    10030    2    1    2    0    0  0.00000000000E+00  0.00000000000E+00 -0.15219907495E+03  0.35956293183E+04  0.35924066635E+04 0.  0.
        3    1    3    3  502    0 -0.50456625967E+03  0.25038220302E+03  0.16310295381E+04  0.17255537437E+04  0.10100000352E+00 0.  1.
       -3    1    3    3    0  502  0.50456625967E+03 -0.25038220302E+03 -0.17832286131E+04  0.18700755746E+04  0.10100000352E+00 0. -1.
</event>
<event>
 5   0  0.3032442E-07  0.3704540E+04  0.7818609E-02  0.8066957E-01
       -2   -1    0    0    0  501  0.00000000000E+00  0.00000000000E+00  0.20476638080E+04  0.20476638080E+04  0.25500000920E-02 0. -1.
        2   -1    0    0  501    0  0.00000000000E+00  0.00000000000E+00 -0.16755208687E+04  0.16755208687E+04  0.25500000920E-02 0.  1.
    10030    2    1    2    0    0  0.00000000000E+00  0.00000000000E+00  0.37214293930E+03  0.37231846767E+04  0.37045396164E+04 0.  0.
        3    1    3    3  502    0 -0.27449520009E+03  0.17703665230E+03  0.20184905774E+04  0.20447478603E+04  0.10100000352E+00 0. -1.
       -3    1    3    3    0  502  0.27449520009E+03 -0.17703665230E+03 -0.16463476381E+04  0.16784368164E+04  0.10100000352E+00 0.  1.
</event>
<event>
 5   0  0.9341000E-08  0.3631844E+04  0.7818609E-02  0.8083236E-01
        1   -1    0    0  501    0  0.00000000000E+00  0.00000000000E+00  0.19969691332E+04  0.19969691332E+04  0.50400001928E-02 0. -1.
       -1   -1    0    0    0  501  0.00000000000E+00  0.00000000000E+00 -0.16512887818E+04  0.16512887818E+04  0.50400001928E-02 0.  1.
    10030    2    1    2    0    0  0.00000000000E+00  0.00000000000E+00  0.34568035135E+03  0.36482579150E+04  0.36318440094E+04 0.  0.
        1    1    3    3  502    0 -0.30591928211E+03  0.67345700215E+03  0.18387810165E+04  0.19819804660E+04  0.50400001928E-02 0. -1.
       -1    1    3    3    0  502  0.30591928211E+03 -0.67345700215E+03 -0.14931006651E+04  0.16662774490E+04  0.50400001928E-02 0.  1.
</event>
<event>
 5   0  0.9341000E-08  0.3696699E+04  0.7818609E-02  0.8068694E-01
        1   -1    0    0  501    0  0.00000000000E+00  0.00000000000E+00  0.17686344737E+04  0.17686344737E+04  0.50400001928E-02 0. -1.
       -1   -1    0    0    0  501  0.00000000000E+00  0.00000000000E+00 -0.19316578094E+04  0.19316578094E+04  0.50400001928E-02 0.  1.
    10030    2    1    2    0    0  0.00000000000E+00  0.00000000000E+00 -0.16302333565E+03  0.37002922831E+04  0.36966993890E+04 0.  0.
        4    1    3    3  502    0  0.12768419286E+04  0.33274426758E+03 -0.13771231517E+04  0.19072267421E+04  0.12699999809E+01 0.  1.
       -4    1    3    3    0  502 -0.12768419286E+04 -0.33274426758E+03  0.12140998160E+04  0.17930655410E+04  0.12699999809E+01 0. -1.
</event>
<event>
 5   0  0.9418945E-08  0.3689184E+04  0.7818609E-02  0.8070363E-01
       -1   -1    0    0    0  501  0.00000000000E+00  0.00000000000E+00  0.14008253702E+04  0.14008253702E+04  0.50400001928E-02 0. -1.
        1   -1    0    0  501    0  0.00000000000E+00  0.00000000000E+00 -0.24289387618E+04  0.24289387618E+04  0.50400001928E-02 0.  1.
    10030    2    1    2    0    0  0.00000000000E+00  0.00000000000E+00 -0.10281133915E+04  0.38297641320E+04  0.36891836714E+04 0.  0.
        5    1    3    3  502    0 -0.11096988539E+03 -0.17970318298E+04 -0.97700767888E+02  0.18031098810E+04  0.46999998093E+01 0.  1.
       -5    1    3    3    0  502  0.11096988539E+03  0.17970318298E+04 -0.93041262364E+03  0.20266542510E+04  0.46999998093E+01 0. -1.
</event>
<event>
 5   0  0.3032442E-07  0.3701079E+04  0.7818609E-02  0.8067723E-01
        2   -1    0    0  501    0  0.00000000000E+00  0.00000000000E+00  0.15667714259E+04  0.15667714259E+04  0.25500000920E-02 0. -1.
       -2   -1    0    0    0  501  0.00000000000E+00  0.00000000000E+00 -0.21857021198E+04  0.21857021198E+04  0.25500000920E-02 0.  1.
    10030    2    1    2    0    0  0.00000000000E+00  0.00000000000E+00 -0.61893069383E+03  0.37524735457E+04  0.37010785600E+04 0.  0.
        3    1    3    3  502    0 -0.69823735431E+03 -0.16964615244E+04 -0.55569266434E+03  0.19168493561E+04  0.10100000352E+00 0. -1.
       -3    1    3    3    0  502  0.69823735431E+03  0.16964615244E+04 -0.63238029494E+02  0.18356241896E+04  0.10100000352E+00 0.  1.
</event>
<event>
 5   0  0.9341000E-08  0.3498885E+04  0.7818609E-02  0.8114054E-01
       -1   -1    0    0    0  501  0.00000000000E+00  0.00000000000E+00  0.15092436362E+04  0.15092436363E+04  0.50400001928E-02 0. -1.
        1   -1    0    0  501    0  0.00000000000E+00  0.00000000000E+00 -0.20278691486E+04  0.20278691486E+04  0.50400001928E-02 0.  1.
    10030    2    1    2    0    0  0.00000000000E+00  0.00000000000E+00 -0.51862551233E+03  0.35371127848E+04  0.34988847410E+04 0.  0.
        1    1    3    3  502    0  0.16253837491E+03  0.96303583296E+03  0.12079901617E+04  0.15534146161E+04  0.50400001928E-02 0. -1.
       -1    1    3    3    0  502 -0.16253837491E+03 -0.96303583296E+03 -0.17266156740E+04  0.19836981687E+04  0.50400001928E-02 0.  1.
</event>
<event>
 5   0  0.2996969E-07  0.3699519E+04  0.7818609E-02  0.8068068E-01
        2   -1    0    0  501    0  0.00000000000E+00  0.00000000000E+00  0.14115583582E+04  0.14115583582E+04  0.25500000920E-02 0.  1.
       -2   -1    0    0    0  501  0.00000000000E+00  0.00000000000E+00 -0.24239945860E+04  0.24239945860E+04  0.25500000920E-02 0. -1.
    10030    2    1    2    0    0  0.00000000000E+00  0.00000000000E+00 -0.10124362278E+04  0.38355529442E+04  0.36995187893E+04 0.  0.
        1    1    3    3  502    0 -0.73831019344E+03  0.72990886043E+03 -0.20934396477E+04  0.23367409879E+04  0.50400001928E-02 0. -1.
       -1    1    3    3    0  502  0.73831019344E+03 -0.72990886043E+03  0.10810034199E+04  0.14988119562E+04  0.50400001928E-02 0.  1.
</event>
<event>
 5   0  0.9341000E-08  0.3711333E+04  0.7818609E-02  0.8065455E-01
       -1   -1    0    0    0  501  0.00000000000E+00  0.00000000000E+00  0.12033245410E+04  0.12033245411E+04  0.50400001928E-02 0.  1.
        1   -1    0    0  501    0  0.00000000000E+00  0.00000000000E+00 -0.28616533967E+04  0.28616533967E+04  0.50400001928E-02 0. -1.
    10030    2    1    2    0    0  0.00000000000E+00  0.00000000000E+00 -0.16583288556E+04  0.40649779377E+04  0.37113327850E+04 0.  0.
        4    1    3    3  502    0 -0.10610315877E+04  0.12420677772E+02 -0.24965775356E+04  0.27127188036E+04  0.12699999809E+01 0. -1.
       -4    1    3    3    0  502  0.10610315877E+04 -0.12420677772E+02  0.83824867999E+03  0.13522591341E+04  0.12699999809E+01 0.  1.
</event>
<event>
 5   0  0.9418945E-08  0.3667546E+04  0.7818609E-02  0.8075192E-01
       -1   -1    0    0    0  501  0.00000000000E+00  0.00000000000E+00  0.16634224993E+04  0.16634224993E+04  0.50400001928E-02 0.  1.
        1   -1    0    0  501    0  0.00000000000E+00  0.00000000000E+00 -0.20215689391E+04  0.20215689391E+04  0.50400001928E-02 0. -1.
    10030    2    1    2    0    0  0.00000000000E+00  0.00000000000E+00 -0.35814643977E+03  0.36849914384E+04  0.36675459137E+04 0.  0.
        5    1    3    3  502    0  0.13367826769E+04  0.18594587267E+03 -0.14264038870E+04  0.19637245050E+04  0.46999998093E+01 0. -1.
       -5    1    3    3    0  502 -0.13367826769E+04 -0.18594587267E+03  0.10682574472E+04  0.17212669334E+04  0.46999998093E+01 0.  1.
</event>
<event>
 5   0  0.9646615E-08  0.3711386E+04  0.7818609E-02  0.8065443E-01
       -1   -1    0    0    0  501  0.00000000000E+00  0.00000000000E+00  0.11883733382E+04  0.11883733382E+04  0.50400001928E-02 0. -1.
        1   -1    0    0  501    0  0.00000000000E+00  0.00000000000E+00 -0.28977402961E+04  0.28977402961E+04  0.50400001928E-02 0.  1.
    10030    2    1    2    0    0  0.00000000000E+00  0.00000000000E+00 -0.17093669579E+04  0.40861136343E+04  0.37113864304E+04 0.  0.
        2    1    3    3  502    0 -0.16061788808E+04  0.17287401623E+03  0.15069963448E+03  0.16224692300E+04  0.25500000920E-02 0.  1.
       -2    1    3    3    0  502  0.16061788808E+04 -0.17287401623E+03 -0.18600665924E+04  0.24636444043E+04  0.25500000920E-02 0. -1.
</event>
<event>
 5   0  0.9341000E-08  0.3715130E+04  0.7818609E-02  0.8064617E-01
        1   -1    0    0  501    0  0.00000000000E+00  0.00000000000E+00  0.20292799968E+04  0.20292799968E+04  0.50400001928E-02 0. -1.
       -1   -1    0    0    0  501  0.00000000000E+00  0.00000000000E+00 -0.17003801676E+04  0.17003801676E+04  0.50400001928E-02 0.  1.
    10030    2    1    2    0    0  0.00000000000E+00  0.00000000000E+00  0.32889982921E+03  0.37296601645E+04  0.37151298557E+04 0.  0.
        4    1    3    3  502    0 -0.25494643250E+03 -0.10978845250E+04 -0.13178743087E+04  0.17341114209E+04  0.12699999809E+01 0.  1.
       -4    1    3    3    0  502  0.25494643250E+03  0.10978845250E+04  0.16467741379E+04  0.19955487436E+04  0.12699999809E+01 0. -1.
</event>
<event>
 5   0  0.9418945E-08  0.3682918E+04  0.7818609E-02  0.8071758E-01
       -1   -1    0    0    0  501  0.00000000000E+00  0.00000000000E+00  0.25132075532E+04  0.25132075532E+04  0.50400001928E-02 0. -1.
        1   -1    0    0  501    0  0.00000000000E+00  0.00000000000E+00 -0.13492600604E+04  0.13492600605E+04  0.50400001928E-02 0.  1.
    10030    2    1    2    0    0  0.00000000000E+00  0.00000000000E+00  0.11639474928E+04  0.38624676137E+04  0.36829176343E+04 0.  0.
        5    1    3    3  502    0 -0.44721472013E+03 -0.14669236720E+04  0.16510233164E+04  0.22533899234E+04  0.46999998093E+01 0. -1.
       -5    1    3    3    0  502  0.44721472013E+03  0.14669236720E+04 -0.48707582363E+03  0.16090776903E+04  0.46999998093E+01 0.  1.
</event>
<event>
 5   0  0.3008879E-07  0.3648396E+04  0.7818609E-02  0.8079495E-01
        2   -1    0    0  501    0  0.00000000000E+00  0.00000000000E+00  0.20770703370E+04  0.20770703370E+04  0.25500000920E-02 0. -1.
       -2   -1    0    0    0  501  0.00000000000E+00  0.00000000000E+00 -0.16021118287E+04  0.16021118287E+04  0.25500000920E-02 0.  1.
    10030    2    1    2    0    0  0.00000000000E+00  0.00000000000E+00  0.47495850827E+03  0.36791821657E+04  0.36483963359E+04 0.  0.
        2    1    3    3  502    0  0.62117463314E+03 -0.14588436618E+04  0.11470973143E+04  0.19570168632E+04  0.25500000920E-02 0. -1.
       -2    1    3    3    0  502 -0.62117463314E+03  0.14588436618E+04 -0.67213880603E+03  0.17221653025E+04  0.25500000920E-02 0.  1.
</event>
<event>
 5   0  0.9341000E-08  0.3722555E+04  0.7818609E-02  0.8062982E-01
       -1   -1    0    0    0  501  0.00000000000E+00  0.00000000000E+00  0.26638306393E+04  0.26638306393E+04  0.50400001928E-02 0. -1.
        1   -1    0    0  501    0  0.00000000000E+00  0.00000000000E+00 -0.13005161161E+04  0.13005161161E+04  0.50400001928E-02 0.  1.
    10030    2    1    2    0    0  0.00000000000E+00  0.00000000000E+00  0.13633145232E+04  0.39643467554E+04  0.37225554002E+04 0.  0.
        1    1    3    3  502    0 -0.87224481009E+03 -0.14537556476E+04  0.14997590144E+04  0.22635135505E+04  0.50400001928E-02 0. -1.
       -1    1    3    3    0  502  0.87224481009E+03  0.14537556476E+04 -0.13644449118E+03  0.17008332049E+04  0.50400001928E-02 0.  1.
</event>
<event>
 5   0  0.9341000E-08  0.3696812E+04  0.7818609E-02  0.8068669E-01
       -1   -1    0    0    0  501  0.00000000000E+00  0.00000000000E+00  0.15995597172E+04  0.15995597172E+04  0.50400001928E-02 0.  1.
        1   -1    0    0  501    0  0.00000000000E+00  0.00000000000E+00 -0.21359658113E+04  0.21359658113E+04  0.50400001928E-02 0. -1.
    10030    2    1    2    0    0  0.00000000000E+00  0.00000000000E+00 -0.53640609415E+03  0.37355255285E+04  0.36968120693E+04 0.  0.
        1    1    3    3  502    0  0.27338366546E+03  0.54592887024E+03 -0.20311302642E+04  0.21209118581E+04  0.50400001928E-02 0. -1.
       -1    1    3    3    0  502 -0.27338366546E+03 -0.54592887024E+03  0.14947241700E+04  0.16146136703E+04  0.50400001928E-02 0.  1.
</event>
<event>
 5   0  0.9341000E-08  0.3688972E+04  0.7818609E-02  0.8070410E-01
        1   -1    0    0  501    0  0.00000000000E+00  0.00000000000E+00  0.25729935755E+04  0.25729935755E+04  0.50400001928E-02 0. -1.
       -1   -1    0    0    0  501  0.00000000000E+00  0.00000000000E+00 -0.13222451089E+04  0.13222451089E+04  0.50400001928E-02 0.  1.
    10030    2    1    2    0    0  0.00000000000E+00  0.00000000000E+00  0.12507484666E+04  0.38952386844E+04  0.36889717649E+04 0.  0.
        3    1    3    3  502    0 -0.17751219813E+04 -0.19563968556E+03  0.11124647595E+04  0.21040225252E+04  0.10100000352E+00 0. -1.
       -3    1    3    3    0  502  0.17751219813E+04  0.19563968556E+03  0.13828370709E+03  0.17912161592E+04  0.10100000352E+00 0.  1.
</event>
<event>
 5   0  0.2897133E-07  0.3566232E+04  0.7818609E-02  0.8098271E-01
       -2   -1    0    0    0  501  0.00000000000E+00  0.00000000000E+00  0.11266045545E+04  0.11266045545E+04  0.25500000920E-02 0. -1.
        2   -1    0    0  501    0  0.00000000000E+00  0.00000000000E+00 -0.28221987342E+04  0.28221987342E+04  0.25500000920E-02 0.  1.
    10030    2    1    2    0    0  0.00000000000E+00  0.00000000000E+00 -0.16955941797E+04  0.39488032887E+04  0.35662315952E+04 0.  0.
        4    1    3    3  502    0  0.17763199661E+04 -0.20317907769E+02 -0.67706495785E+03  0.19010902160E+04  0.12699999809E+01 0.  1.
       -4    1    3    3    0  502 -0.17763199661E+04  0.20317907769E+02 -0.10185292219E+04  0.20477130727E+04  0.12699999809E+01 0. -1.
</event>
<event>
 5   0  0.9341000E-08  0.3693283E+04  0.7818609E-02  0.8069452E-01
        1   -1    0    0  501    0  0.00000000000E+00  0.00000000000E+00  0.18067293868E+04  0.18067293868E+04  0.50400001928E-02 0.  1.
       -1   -1    0    0    0  501  0.00000000000E+00  0.00000000000E+00 -0.18874351691E+04  0.18874351691E+04  0.50400001928E-02 0. -1.
    10030    2    1    2    0    0  0.00000000000E+00  0.00000000000E+00 -0.80705782286E+02  0.36941645560E+04  0.36932828680E+04 0.  0.
        3    1    3    3  502    0  0.13110578885E+04 -0.67965636458E+03  0.10686403505E+04  0.18228542920E+04  0.10100000352E+00 0.  1.
       -3    1    3    3    0  502 -0.13110578885E+04  0.67965636458E+03 -0.11493461328E+04  0.18713102640E+04  0.10100000352E+00 0. -1.
</event>
<event>
 5   0  0.2897133E-07  0.3689103E+04  0.7818609E-02  0.8070381E-01
        2   -1    0    0  501    0  0.00000000000E+00  0.00000000000E+00  0.15413685271E+04  0.15413685271E+04  0.25500000920E-02 0. -1.
       -2   -1    0    0    0  501  0.00000000000E+00  0.00000000000E+00 -0.22073692613E+04  0.22073692613E+04  0.25500000920E-02 0.  1.
    10030    2    1    2    0    0  0.00000000000E+00  0.00000000000E+00 -0.66600073419E+03  0.37487377885E+04  0.36891026048E+04 0.  0.
        4    1    3    3  502    0 -0.12190060683E+04 -0.77282328639E+02 -0.17375228823E+04  0.21238963563E+04  0.12699999809E+01 0.  1.
       -4    1    3    3    0  502  0.12190060683E+04  0.77282328639E+02  0.10715221481E+04  0.16248414322E+04  0.12699999809E+01 0. -1.
</event>
<event>
 5   0  0.3032442E-07  0.3698742E+04  0.7818609E-02  0.8068241E-01
        2   -1    0    0  501    0  0.00000000000E+00  0.00000000000E+00  0.27279137639E+04  0.27279137639E+04  0.25500000920E-02 0.  1.
       -2   -1    0    0    0  501  0.00000000000E+00  0.00000000000E+00 -0.12537685061E+04  0.12537685061E+04  0.25500000920E-02 0. -1.
    10030    2    1    2    0    0  0.00000000000E+00  0.00000000000E+00  0.14741452578E+04  0.39816822701E+04  0.36987416048E+04 0.  0.
        3    1    3    3  502    0 -0.85163091987E+03 -0.11488640968E+04  0.19993804915E+04  0.24581876040E+04  0.10100000352E+00 0.  1.
       -3    1    3    3    0  502  0.85163091987E+03  0.11488640968E+04 -0.52523523371E+03  0.15234946661E+04  0.10100000352E+00 0. -1.
</event>
<event>
 5   0  0.2996969E-07  0.3689806E+04  0.7818609E-02  0.8070225E-01
        2   -1    0    0  501    0  0.00000000000E+00  0.00000000000E+00  0.21754754554E+04  0.21754754554E+04  0.25500000920E-02 0. -1.
       -2   -1    0    0    0  501  0.00000000000E+00  0.00000000000E+00 -0.15645624465E+04  0.15645624465E+04  0.25500000920E-02 0.  1.
    10030    2    1    2    0    0  0.00000000000E+00  0.00000000000E+00  0.61091300895E+03  0.37400379019E+04  0.36898060658E+04 0.  0.
        1    1    3    3  502    0  0.83274495159E+03 -0.16461798244E+04  0.28804617137E+03  0.18671750763E+04  0.50400001928E-02 0.  1.
       -1    1    3    3    0  502 -0.83274495159E+03  0.16461798244E+04  0.32286683759E+03  0.18728628256E+04  0.50400001928E-02 0. -1.
</event>
<event>
 5   0  0.2897133E-07  0.3669709E+04  0.7818609E-02  0.8074708E-01
        2   -1    0    0  501    0  0.00000000000E+00  0.00000000000E+00  0.23537661480E+04  0.23537661480E+04  0.25500000920E-02 0.  1.
       -2   -1    0    0    0  501  0.00000000000E+00  0.00000000000E+00 -0.14303419751E+04  0.14303419751E+04  0.25500000920E-02 0. -1.
    10030    2    1    2    0    0  0.00000000000E+00  0.00000000000E+00  0.92342417294E+03  0.37841081232E+04  0.36697087193E+04 0.  0.
        4    1    3    3  502    0  0.72307342990E+03 -0.11145451105E+04  0.17667249493E+04  0.22105123044E+04  0.12699999809E+01 0.  1.
       -4    1    3    3    0  502 -0.72307342990E+03  0.11145451105E+04 -0.84330077640E+03  0.15735958188E+04  0.12699999809E+01 0. -1.
</event>
<event>
 5   0  0.9341000E-08  0.3708351E+04  0.7818609E-02  0.8066114E-01
       -1   -1    0    0    0  501  0.00000000000E+00  0.00000000000E+00  0.16797590366E+04  0.16797590366E+04  0.50400001928E-02 0. -1.
        1   -1    0    0  501    0  0.00000000000E+00  0.00000000000E+00 -0.20467020969E+04  0.20467020969E+04  0.50400001928E-02 0.  1.
    10030    2    1    2    0    0  0.00000000000E+00  0.00000000000E+00 -0.36694306029E+03  0.37264611334E+04  0.37083507614E+04 0.  0.
        3    1    3    3  502    0 -0.83003810655E+03  0.16250626285E+04 -0.51397672737E+03  0.18957752745E+04  0.10100000352E+00 0. -1.
       -3    1    3    3    0  502  0.83003810655E+03 -0.16250626285E+04  0.14703366708E+03  0.18306858590E+04  0.10100000352E+00 0.  1.
</event>
<event>
 5   0  0.3032442E-07  0.3484235E+04  0.7818609E-02  0.8117536E-01
        2   -1    0    0  501    0  0.00000000000E+00  0.00000000000E+00  0.12912286556E+04  0.12912286556E+04  0.25500000920E-02 0. -1.
       -2   -1    0    0    0  501  0.00000000000E+00  0.00000000000E+00 -0.23504542262E+04  0.23504542262E+04  0.25500000920E-02 0.  1.
    10030    2    1    2    0    0  0.00000000000E+00  0.00000000000E+00 -0.10592255706E+04  0.36416828818E+04  0.34842352680E+04 0.  0.
        3    1    3    3  502    0  0.10273828510E+04  0.12589160386E+04  0.12693597928E+03  0.16298766419E+04  0.10100000352E+00 0. -1.
       -3    1    3    3    0  502 -0.10273828510E+04 -0.12589160386E+04 -0.11861615499E+04  0.20118062400E+04  0.10100000352E+00 0.  1.
</event>
<event>
 5   0  0.9341000E-08  0.3716670E+04  0.7818609E-02  0.8064278E-01
       -1   -1    0    0    0  501  0.00000000000E+00  0.00000000000E+00  0.12487519316E+04  0.12487519316E+04  0.50400001928E-02 0. -1.
        1   -1    0    0  501    0  0.00000000000E+00  0.00000000000E+00 -0.27654881055E+04  0.27654881055E+04  0.50400001928E-02 0.  1.
    10030    2    1    2    0    0  0.00000000000E+00  0.00000000000E+00 -0.15167361740E+04  0.40142400371E+04  0.37166698070E+04 0.  0.
        3    1    3    3  502    0  0.88704418899E+03  0.16124047388E+04 -0.10373344803E+04  0.21125243831E+04  0.10100000352E+00 0. -1.
       -3    1    3    3    0  502 -0.88704418899E+03 -0.16124047388E+04 -0.47940169361E+03  0.19017156540E+04  0.10100000352E+00 0.  1.
</event>
<event>
 5   0  0.2897133E-07  0.3701325E+04  0.7818609E-02  0.8067668E-01
       -2   -1    0    0    0  501  0.00000000000E+00  0.00000000000E+00  0.20373275340E+04  0.20373275340E+04  0.25500000920E-02 0. -1.
        2   -1    0    0  501    0  0.00000000000E+00  0.00000000000E+00 -0.16811002608E+04  0.16811002608E+04  0.25500000920E-02 0.  1.
    10030    2    1    2    0    0  0.00000000000E+00  0.00000000000E+00  0.35622727322E+03  0.37184277949E+04  0.37013250864E+04 0.  0.
        4    1    3    3  502    0 -0.14808328452E+04 -0.11169094560E+03  0.12875758436E+04  0.19655009409E+04  0.12699999809E+01 0. -1.
       -4    1    3    3    0  502  0.14808328452E+04  0.11169094560E+03 -0.93134857042E+03  0.17529268539E+04  0.12699999809E+01 0.  1.
</event>
<event>
 5   0  0.3008879E-07  0.3801103E+04  0.7818609E-02  0.8045918E-01
       -2   -1    0    0    0  501  0.00000000000E+00  0.00000000000E+00  0.28394636409E+04  0.28394636409E+04  0.25500000920E-02 0. -1.
        2   -1    0    0  501    0  0.00000000000E+00  0.00000000000E+00 -0.12721050339E+04  0.12721050339E+04  0.25500000920E-02 0.  1.
    10030    2    1    2    0    0  0.00000000000E+00  0.00000000000E+00  0.15673586070E+04  0.41115686748E+04  0.38011029931E+04 0.  0.
        2    1    3    3  502    0 -0.22073386759E+03  0.70285669982E+03  0.26787358805E+04  0.27781930995E+04  0.25500000920E-02 0. -1.
       -2    1    3    3    0  502  0.22073386759E+03 -0.70285669982E+03 -0.11113772734E+04  0.13333755753E+04  0.25500000920E-02 0.  1.
</event>
<event>
 5   0  0.2996969E-07  0.3703809E+04  0.7818609E-02  0.8067118E-01
       -2   -1    0    0    0  501  0.00000000000E+00  0.00000000000E+00  0.15019895020E+04  0.15019895020E+04  0.25500000920E-02 0. -1.
        2   -1    0    0  501    0  0.00000000000E+00  0.00000000000E+00 -0.22833382020E+04  0.22833382020E+04  0.25500000920E-02 0.  1.
    10030    2    1    2    0    0  0.00000000000E+00  0.00000000000E+00 -0.78134870004E+03  0.37853277040E+04  0.37038088552E+04 0.  0.
        1    1    3    3  502    0 -0.11336646381E+04 -0.14189774270E+04 -0.76037849924E+03  0.19689763615E+04  0.50400001928E-02 0. -1.
       -1    1    3    3    0  502  0.11336646381E+04  0.14189774270E+04 -0.20970200806E+02  0.18163513425E+04  0.50400001928E-02 0.  1.
</event>
<event>
 5   0  0.3032442E-07  0.3700146E+04  0.7818609E-02  0.8067930E-01
       -2   -1    0    0    0  501  0.00000000000E+00  0.00000000000E+00  0.22042577633E+04  0.22042577633E+04  0.25500000920E-02 0.  1.
        2   -1    0    0  501    0  0.00000000000E+00  0.00000000000E+00 -0.15527990901E+04  0.15527990901E+04  0.25500000920E-02 0. -1.
    10030    2    1    2    0    0  0.00000000000E+00  0.00000000000E+00  0.65145867321E+03  0.37570568534E+04  0.37001456454E+04 0.  0.
        3    1    3    3  502    0  0.62369006817E+03 -0.98243722157E+03 -0.11346541677E+04  0.16253037519E+04  0.10100000352E+00 0. -1.
       -3    1    3    3    0  502 -0.62369006817E+03  0.98243722157E+03  0.17861128409E+04  0.21317531016E+04  0.10100000352E+00 0.  1.
</event>
<event>
 5   0  0.3008879E-07  0.3656975E+04  0.7818609E-02  0.8077564E-01
       -2   -1    0    0    0  501  0.00000000000E+00  0.00000000000E+00  0.14209719022E+04  0.14209719022E+04  0.25500000920E-02 0.  1.
        2   -1    0    0  501    0  0.00000000000E+00  0.00000000000E+00 -0.23528729980E+04  0.23528729980E+04  0.25500000920E-02 0. -1.
    10030    2    1    2    0    0  0.00000000000E+00  0.00000000000E+00 -0.93190109584E+03  0.37738449002E+04  0.36569749354E+04 0.  0.
        2    1    3    3  502    0  0.13295252763E+04  0.11665525409E+04  0.12419779626E+02  0.17687952233E+04  0.25500000920E-02 0. -1.
       -2    1    3    3    0  502 -0.13295252763E+04 -0.11665525409E+04 -0.94432087546E+03  0.20050496769E+04  0.25500000920E-02 0.  1.
</event>
<event>
 5   0  0.9341000E-08  0.3707121E+04  0.7818609E-02  0.8066386E-01
       -1   -1    0    0    0  501  0.00000000000E+00  0.00000000000E+00  0.13335678654E+04  0.13335678655E+04  0.50400001928E-02 0. -1.
        1   -1    0    0  501    0  0.00000000000E+00  0.00000000000E+00 -0.25763115902E+04  0.25763115902E+04  0.50400001928E-02 0.  1.
    10030    2    1    2    0    0  0.00000000000E+00  0.00000000000E+00 -0.12427437248E+04  0.39098794557E+04  0.37071209034E+04 0.  0.
        4    1    3    3  502    0 -0.83436768243E+03 -0.74282161573E+03  0.93862459873E+03  0.14590994252E+04  0.12699999809E+01 0. -1.
       -4    1    3    3    0  502  0.83436768243E+03  0.74282161573E+03 -0.21813683235E+04  0.24507800305E+04  0.12699999809E+01 0.  1.
</event>
<event>
 5   0  0.9646615E-08  0.3631753E+04  0.7818609E-02  0.8083257E-01
        1   -1    0    0  501    0  0.00000000000E+00  0.00000000000E+00  0.25135224228E+04  0.25135224228E+04  0.50400001928E-02 0.  1.
       -1   -1    0    0    0  501  0.00000000000E+00  0.00000000000E+00 -0.13118669140E+04  0.13118669140E+04  0.50400001928E-02 0. -1.
    10030    2    1    2    0    0  0.00000000000E+00  0.00000000000E+00  0.12016555088E+04  0.38253893368E+04  0.36317526921E+04 0.  0.
        2    1    3    3  502    0  0.16082734641E+04 -0.12769243627E+03  0.14786642614E+04  0.21884462277E+04  0.25500000920E-02 0.  1.
       -2    1    3    3    0  502 -0.16082734641E+04  0.12769243627E+03 -0.27700875260E+03  0.16369431091E+04  0.25500000920E-02 0. -1.
</event>
<event>
 5   0  0.9341000E-08  0.3568489E+04  0.7818609E-02  0.8097748E-01
        1   -1    0    0  501    0  0.00000000000E+00  0.00000000000E+00  0.16883132177E+04  0.16883132177E+04  0.50400001928E-02 0.  1.
       -1   -1    0    0    0  501  0.00000000000E+00  0.00000000000E+00 -0.18856261893E+04  0.18856261893E+04  0.50400001928E-02 0. -1.
    10030    2    1    2    0    0  0.00000000000E+00  0.00000000000E+00 -0.19731297161E+03  0.35739394070E+04  0.35684885422E+04 0.  0.
        4    1    3    3  502    0 -0.39470032719E+02 -0.16686951281E+04  0.53272275970E+03  0.17521120014E+04  0.12699999809E+01 0.  1.
       -4    1    3    3    0  502  0.39470032719E+02  0.16686951281E+04 -0.73003573131E+03  0.18218274056E+04  0.12699999809E+01 0. -1.
</event>
<event>
 5   0  0.9418945E-08  0.3708432E+04  0.7818609E-02  0.8066096E-01
        1   -1    0    0  501    0  0.00000000000E+00  0.00000000000E+00  0.17321328745E+04  0.17321328745E+04  0.50400001928E-02 0.  1.
       -1   -1    0    0    0  501  0.00000000000E+00  0.00000000000E+00 -0.19849038867E+04  0.19849038867E+04  0.50400001928E-02 0. -1.
    10030    2    1    2    0    0  0.00000000000E+00  0.00000000000E+00 -0.25277101222E+03  0.37170367612E+04  0.37084321619E+04 0.  0.
        5    1    3    3  502    0  0.17500034847E+04 -0.56138106131E+03  0.12001876902E+03  0.18417620604E+04  0.46999998093E+01 0.  1.
       -5    1    3    3    0  502 -0.17500034847E+04  0.56138106131E+03 -0.37278978124E+03  0.18752747008E+04  0.46999998093E+01 0. -1.
</event>
<event>
 5   0  0.9418945E-08  0.3736705E+04  0.7818609E-02  0.8059876E-01
        1   -1    0    0  501    0  0.00000000000E+00  0.00000000000E+00  0.19673256232E+04  0.19673256232E+04  0.50400001928E-02 0.  1.
       -1   -1    0    0    0  501  0.00000000000E+00  0.00000000000E+00 -0.17743581509E+04  0.17743581509E+04  0.50400001928E-02 0. -1.
    10030    2    1    2    0    0  0.00000000000E+00  0.00000000000E+00  0.19296747222E+03  0.37416837741E+04  0.37367045669E+04 0.  0.
        5    1    3    3  502    0 -0.13653404543E+04 -0.54433711149E+03 -0.10584224329E+04  0.18112806474E+04  0.46999998093E+01 0. -1.
       -5    1    3    3    0  502  0.13653404543E+04  0.54433711149E+03  0.12513899051E+04  0.19304031267E+04  0.46999998093E+01 0.  1.
</event>
<event>
 5   0  0.3032442E-07  0.3712082E+04  0.7818609E-02  0.8065290E-01
       -2   -1    0    0    0  501  0.00000000000E+00  0.00000000000E+00  0.14157514931E+04  0.14157514931E+04  0.25500000920E-02 0.  1.
        2   -1    0    0  501    0  0.00000000000E+00  0.00000000000E+00 -0.24332580713E+04  0.24332580713E+04  0.25500000920E-02 0. -1.
    10030    2    1    2    0    0  0.00000000000E+00  0.00000000000E+00 -0.10175065782E+04  0.38490095644E+04  0.37120822984E+04 0.  0.
        3    1    3    3  502    0  0.13580067607E+04  0.10923627842E+04 -0.11706169149E+04  0.20994720256E+04  0.10100000352E+00 0. -1.
       -3    1    3    3    0  502 -0.13580067607E+04 -0.10923627842E+04  0.15311033665E+03  0.17495375389E+04  0.10100000352E+00 0.  1.
</event>
<event>
 5   0  0.3032442E-07  0.3700924E+04  0.7818609E-02  0.8067757E-01
       -2   -1    0    0    0  501  0.00000000000E+00  0.00000000000E+00  0.15484071674E+04  0.15484071674E+04  0.25500000920E-02 0.  1.
        2   -1    0    0  501    0  0.00000000000E+00  0.00000000000E+00 -0.22114401528E+04  0.22114401528E+04  0.25500000920E-02 0. -1.
    10030    2    1    2    0    0  0.00000000000E+00  0.00000000000E+00 -0.66303298536E+03  0.37598473203E+04  0.37009240916E+04 0.  0.
        3    1    3    3  502    0 -0.13136288740E+04 -0.83802019498E+03  0.68252918423E+03  0.17011010444E+04  0.10100000352E+00 0.  1.
       -3    1    3    3    0  502  0.13136288740E+04  0.83802019498E+03 -0.13455621696E+04  0.20587462758E+04  0.10100000352E+00 0. -1.
</event>
<event>
 5   0  0.9341000E-08  0.3718679E+04  0.7818609E-02  0.8063835E-01
        3   -1    0    0  501    0  0.00000000000E+00  0.00000000000E+00  0.15669724831E+04  0.15669724864E+04  0.10100000352E+00 0.  1.
       -3   -1    0    0    0  501  0.00000000000E+00  0.00000000000E+00 -0.22062570543E+04  0.22062570567E+04  0.10100000352E+00 0. -1.
    10030    2    1    2    0    0  0.00000000000E+00  0.00000000000E+00 -0.63928457120E+03  0.37732295431E+04  0.37186793921E+04 0.  0.
        5    1    3    3  502    0  0.75532331934E+03  0.82869591986E+03  0.11853115304E+04  0.16316359148E+04  0.46999998093E+01 0.  1.
       -5    1    3    3    0  502 -0.75532331934E+03 -0.82869591986E+03 -0.18245961016E+04  0.21415936282E+04  0.46999998093E+01 0. -1.
</event>
<event>
 5   0  0.2996969E-07  0.3692091E+04  0.7818609E-02  0.8069717E-01
       -2   -1    0    0    0  501  0.00000000000E+00  0.00000000000E+00  0.20808257033E+04  0.20808257033E+04  0.25500000920E-02 0. -1.
        2   -1    0    0  501    0  0.00000000000E+00  0.00000000000E+00 -0.16377556550E+04  0.16377556550E+04  0.25500000920E-02 0.  1.
    10030    2    1    2    0    0  0.00000000000E+00  0.00000000000E+00  0.44307004836E+03  0.37185813583E+04  0.36920910404E+04 0.  0.
        1    1    3    3  502    0 -0.13609548809E+04  0.95319352812E+03 -0.58866688397E+03  0.17627548866E+04  0.50400001928E-02 0.  1.
       -1    1    3    3    0  502  0.13609548809E+04 -0.95319352812E+03  0.10317369323E+04  0.19558264717E+04  0.50400001928E-02 0. -1.
</event>
<event>
 5   0  0.9646615E-08  0.3665508E+04  0.7818609E-02  0.8075649E-01
        1   -1    0    0  501    0  0.00000000000E+00  0.00000000000E+00  0.20743820538E+04  0.20743820538E+04  0.50400001928E-02 0.  1.
       -1   -1    0    0    0  501  0.00000000000E+00  0.00000000000E+00 -0.16192715550E+04  0.16192715550E+04  0.50400001928E-02 0. -1.
    10030    2    1    2    0    0  0.00000000000E+00  0.00000000000E+00  0.45511049878E+03  0.36936536087E+04  0.36655083434E+04 0.  0.
        2    1    3    3  502    0 -0.14680738184E+04  0.10289584944E+03 -0.87315045049E+03  0.17112042547E+04  0.25500000920E-02 0. -1.
       -2    1    3    3    0  502  0.14680738184E+04 -0.10289584944E+03  0.13282609493E+04  0.19824493541E+04  0.25500000920E-02 0.  1.
</event>
<event>
 5   0  0.3032442E-07  0.3685712E+04  0.7818609E-02  0.8071136E-01
       -2   -1    0    0    0  501  0.00000000000E+00  0.00000000000E+00  0.15375458916E+04  0.15375458916E+04  0.25500000920E-02 0. -1.
        2   -1    0    0  501    0  0.00000000000E+00  0.00000000000E+00 -0.22087913025E+04  0.22087913025E+04  0.25500000920E-02 0.  1.
    10030    2    1    2    0    0  0.00000000000E+00  0.00000000000E+00 -0.67124541089E+03  0.37463371941E+04  0.36857118675E+04 0.  0.
        3    1    3    3  502    0 -0.31570479562E+03 -0.15849475029E+04  0.56460313163E+03  0.17118717275E+04  0.10100000352E+00 0. -1.
       -3    1    3    3    0  502  0.31570479562E+03  0.15849475029E+04 -0.12358485425E+04  0.20344654667E+04  0.10100000352E+00 0.  1.
</event>
<event>
 5   0  0.2897133E-07  0.3701501E+04  0.7818609E-02  0.8067629E-01
       -2   -1    0    0    0  501  0.00000000000E+00  0.00000000000E+00  0.12192671743E+04  0.12192671743E+04  0.25500000920E-02 0. -1.
        2   -1    0    0  501    0  0.00000000000E+00  0.00000000000E+00 -0.28092919680E+04  0.28092919680E+04  0.25500000920E-02 0.  1.
    10030    2    1    2    0    0  0.00000000000E+00  0.00000000000E+00 -0.15900247938E+04  0.40285591423E+04  0.37015010358E+04 0.  0.
        4    1    3    3  502    0 -0.84652435573E+02 -0.59751147707E+02 -0.28061322234E+04  0.28080448541E+04  0.12699999809E+01 0.  1.
       -4    1    3    3    0  502  0.84652435573E+02  0.59751147707E+02  0.12161074296E+04  0.12205142882E+04  0.12699999809E+01 0. -1.
</event>
<event>
 5   0  0.2913025E-07  0.3757347E+04  0.7818609E-02  0.8055371E-01
        2   -1    0    0  501    0  0.00000000000E+00  0.00000000000E+00  0.22443965918E+04  0.22443965918E+04  0.25500000920E-02 0.  1.
       -2   -1    0    0    0  501  0.00000000000E+00  0.00000000000E+00 -0.15725446517E+04  0.15725446517E+04  0.25500000920E-02 0. -1.
    10030    2    1    2    0    0  0.00000000000E+00  0.00000000000E+00  0.67185194018E+03  0.38169412435E+04  0.37573468601E+04 0.  0.
        5    1    3    3  502    0  0.11839926474E+04 -0.14582124500E+04  0.37066823211E+03  0.19145858996E+04  0.46999998093E+01 0.  1.
       -5    1    3    3    0  502 -0.11839926474E+04  0.14582124500E+04  0.30118370807E+03  0.19023553439E+04  0.46999998093E+01 0. -1.
</event>
<event>
 5   0  0.9341000E-08  0.3683631E+04  0.7818609E-02  0.8071599E-01
       -1   -1    0    0    0  501  0.00000000000E+00  0.00000000000E+00  0.22644587151E+04  0.22644587151E+04  0.50400001928E-02 0.  1.
        1   -1    0    0  501    0  0.00000000000E+00  0.00000000000E+00 -0.14980553638E+04  0.14980553638E+04  0.50400001928E-02 0. -1.
    10030    2    1    2    0    0  0.00000000000E+00  0.00000000000E+00  0.76640335131E+03  0.37625140789E+04  0.36836311022E+04 0.  0.
        1    1    3    3  502    0 -0.14223115240E+04 -0.97581540414E+01  0.15783959327E+04  0.21247115129E+04  0.50400001928E-02 0.  1.
       -1    1    3    3    0  502  0.14223115240E+04  0.97581540414E+01 -0.81199258137E+03  0.16378025660E+04  0.50400001928E-02 0. -1.
</event>
<event>
 5   0  0.9341000E-08  0.3682936E+04  0.7818609E-02  0.8071754E-01
       -1   -1    0    0    0  501  0.00000000000E+00  0.00000000000E+00  0.20643154744E+04  0.20643154745E+04  0.50400001928E-02 0.  1.
        1   -1    0    0  501    0  0.00000000000E+00  0.00000000000E+00 -0.16426777108E+04  0.16426777108E+04  0.50400001928E-02 0. -1.
    10030    2    1    2    0    0  0.00000000000E+00  0.00000000000E+00  0.42163776368E+03  0.37069931852E+04  0.36829363382E+04 0.  0.
        3    1    3    3  502    0 -0.28368693230E+03 -0.86659864601E+03  0.18211233071E+04  0.20366545114E+04  0.10100000352E+00 0.  1.
       -3    1    3    3    0  502  0.28368693230E+03  0.86659864601E+03 -0.13994855434E+04  0.16703386738E+04  0.10100000352E+00 0. -1.
</event>
<event>
 5   0  0.9341000E-08  0.3689333E+04  0.7818609E-02  0.8070330E-01
        1   -1    0    0  501    0  0.00000000000E+00  0.00000000000E+00  0.24365438411E+04  0.24365438411E+04  0.50400001928E-02 0.  1.
       -1   -1    0    0    0  501  0.00000000000E+00  0.00000000000E+00 -0.13965658474E+04  0.13965658474E+04  0.50400001928E-02 0. -1.
    10030    2    1    2    0    0  0.00000000000E+00  0.00000000000E+00  0.10399779937E+04  0.38331096886E+04  0.36893326845E+04 0.  0.
        4    1    3    3  502    0 -0.11371538500E+03  0.84509413583E+03  0.22194854860E+04  0.23776527759E+04  0.12699999809E+01 0.  1.
       -4    1    3    3    0  502  0.11371538500E+03 -0.84509413583E+03 -0.11795074923E+04  0.14554569127E+04  0.12699999809E+01 0. -1.
</event>
<event>
 5   0  0.9418945E-08  0.3702383E+04  0.7818609E-02  0.8067434E-01
        1   -1    0    0  501    0  0.00000000000E+00  0.00000000000E+00  0.19495488509E+04  0.19495488509E+04  0.50400001928E-02 0.  1.
       -1   -1    0    0    0  501  0.00000000000E+00  0.00000000000E+00 -0.17577965711E+04  0.17577965711E+04  0.50400001928E-02 0. -1.
    10030    2    1    2    0    0  0.00000000000E+00  0.00000000000E+00  0.19175227981E+03  0.37073454220E+04  0.37023831705E+04 0.  0.
        5    1    3    3  502    0  0.17489909121E+04 -0.59281393269E+03 -0.32711805516E+02  0.18470218520E+04  0.46999998093E+01 0. -1.
       -5    1    3    3    0  502 -0.17489909121E+04  0.59281393269E+03  0.22446408533E+03  0.18603235700E+04  0.46999998093E+01 0.  1.
</event>
<event>
 5   0  0.3032442E-07  0.3754010E+04  0.7818609E-02  0.8056097E-01
       -2   -1    0    0    0  501  0.00000000000E+00  0.00000000000E+00  0.13777537955E+04  0.13777537955E+04  0.25500000920E-02 0.  1.
        2   -1    0    0  501    0  0.00000000000E+00  0.00000000000E+00 -0.25571684529E+04  0.25571684529E+04  0.25500000920E-02 0. -1.
    10030    2    1    2    0    0  0.00000000000E+00  0.00000000000E+00 -0.11794146574E+04  0.39349222484E+04  0.37540104112E+04 0.  0.
        3    1    3    3  502    0  0.94602232665E+03 -0.21305512109E+03 -0.22742650123E+04  0.24723737751E+04  0.10100000352E+00 0. -1.
       -3    1    3    3    0  502 -0.94602232665E+03  0.21305512109E+03  0.10948503549E+04  0.14625484734E+04  0.10100000352E+00 0.  1.
</event>
<event>
 5   0  0.9646615E-08  0.3705037E+04  0.7818609E-02  0.8066847E-01
        1   -1    0    0  501    0  0.00000000000E+00  0.00000000000E+00  0.10582514100E+04  0.10582514100E+04  0.50400001928E-02 0.  1.
       -1   -1    0    0    0  501  0.00000000000E+00  0.00000000000E+00 -0.32429196692E+04  0.32429196692E+04  0.50400001928E-02 0. -1.
    10030    2    1    2    0    0  0.00000000000E+00  0.00000000000E+00 -0.21846682592E+04  0.43011710792E+04  0.37050367406E+04 0.  0.
        2    1    3    3  502    0 -0.12696677161E+04  0.75201528159E+03 -0.23924580018E+04  0.28109497298E+04  0.25500000920E-02 0. -1.
       -2    1    3    3    0  502  0.12696677161E+04 -0.75201528159E+03  0.20778974263E+03  0.14902213494E+04  0.25500000920E-02 0.  1.
</event>
<event>
 5   0  0.9341000E-08  0.3672786E+04  0.7818609E-02  0.8074020E-01
        1   -1    0    0  501    0  0.00000000000E+00  0.00000000000E+00  0.16840522041E+04  0.16840522041E+04  0.50400001928E-02 0.  1.
       -1   -1    0    0    0  501  0.00000000000E+00  0.00000000000E+00 -0.20025151652E+04  0.20025151652E+04  0.50400001928E-02 0. -1.
    10030    2    1    2    0    0  0.00000000000E+00  0.00000000000E+00 -0.31846296112E+03  0.36865673693E+04  0.36727864505E+04 0.  0.
        4    1    3    3  502    0  0.40307913763E+03  0.10436796878E+04  0.13024599812E+04  0.17170159281E+04  0.12699999809E+01 0.  1.
       -4    1    3    3    0  502 -0.40307913763E+03 -0.10436796878E+04 -0.16209229423E+04  0.19695514412E+04  0.12699999809E+01 0. -1.
</event>
<event>
 5   0  0.9341000E-08  0.3710363E+04  0.7818609E-02  0.8065669E-01
        1   -1    0    0  501    0  0.00000000000E+00  0.00000000000E+00  0.13321921823E+04  0.13321921823E+04  0.50400001928E-02 0.  1.
       -1   -1    0    0    0  501  0.00000000000E+00  0.00000000000E+00 -0.25834845853E+04  0.25834845853E+04  0.50400001928E-02 0. -1.
    10030    2    1    2    0    0  0.00000000000E+00  0.00000000000E+00 -0.12512924030E+04  0.39156767677E+04  0.37103627681E+04 0.  0.
        3    1    3    3  502    0  0.50263317812E+03 -0.11212541856E+02 -0.25102197830E+04  0.25600721088E+04  0.10100000352E+00 0. -1.
       -3    1    3    3    0  502 -0.50263317812E+03  0.11212541856E+02  0.12589273800E+04  0.13556046589E+04  0.10100000352E+00 0.  1.
</event>
<event>
 5   0  0.9341000E-08  0.3707319E+04  0.7818609E-02  0.8066342E-01
       -1   -1    0    0    0  501  0.00000000000E+00  0.00000000000E+00  0.15383750427E+04  0.15383750427E+04  0.50400001928E-02 0. -1.
        1   -1    0    0  501    0  0.00000000000E+00  0.00000000000E+00 -0.22335600596E+04  0.22335600596E+04  0.50400001928E-02 0.  1.
    10030    2    1    2    0    0  0.00000000000E+00  0.00000000000E+00 -0.69518501687E+03  0.37719351023E+04  0.37073187357E+04 0.  0.
        4    1    3    3  502    0 -0.50330338089E+03 -0.14314735468E+04  0.73568108451E+03  0.16863152373E+04  0.12699999809E+01 0. -1.
       -4    1    3    3    0  502  0.50330338089E+03  0.14314735468E+04 -0.14308661014E+04  0.20856198650E+04  0.12699999809E+01 0.  1.
</event>
<event>
 5   0  0.3008879E-07  0.3699309E+04  0.7818609E-02  0.8068115E-01
       -2   -1    0    0    0  501  0.00000000000E+00  0.00000000000E+00  0.22687944622E+04  0.22687944622E+04  0.25500000920E-02 0. -1.
        2   -1    0    0  501    0  0.00000000000E+00  0.00000000000E+00 -0.15079469359E+04  0.15079469359E+04  0.25500000920E-02 0.  1.
    10030    2    1    2    0    0  0.00000000000E+00  0.00000000000E+00  0.76084752629E+03  0.37767413981E+04  0.36993089394E+04 0.  0.
        2    1    3    3  502    0  0.16088041133E+04 -0.79761162271E+03  0.83331560558E+03  0.19796085154E+04  0.25500000920E-02 0. -1.
       -2    1    3    3    0  502 -0.16088041133E+04  0.79761162271E+03 -0.72468079285E+02  0.17971328827E+04  0.25500000920E-02 0.  1.
</event>
<event>
 5   0  0.2913025E-07  0.3696201E+04  0.7818609E-02  0.8068804E-01
        2   -1    0    0  501    0  0.00000000000E+00  0.00000000000E+00  0.23661522148E+04  0.23661522148E+04  0.25500000920E-02 0. -1.
       -2   -1    0    0    0  501  0.00000000000E+00  0.00000000000E+00 -0.14434720372E+04  0.14434720372E+04  0.25500000920E-02 0.  1.
    10030    2    1    2    0    0  0.00000000000E+00  0.00000000000E+00  0.92268017759E+03  0.38096242519E+04  0.36962005128E+04 0.  0.
        5    1    3    3  502    0  0.17857137118E+03  0.96053922998E+02  0.23546466305E+04  0.23633655949E+04  0.46999998093E+01 0. -1.
       -5    1    3    3    0  502 -0.17857137118E+03 -0.96053922998E+02 -0.14319664529E+04  0.14462586570E+04  0.46999998093E+01 0.  1.
</event>
<event>
 5   0  0.3032442E-07  0.3675599E+04  0.7818609E-02  0.8073391E-01
        2   -1    0    0  501    0  0.00000000000E+00  0.00000000000E+00  0.25525400476E+04  0.25525400476E+04  0.25500000920E-02 0.  1.
       -2   -1    0    0    0  501  0.00000000000E+00  0.00000000000E+00 -0.13231946832E+04  0.13231946832E+04  0.25500000920E-02 0. -1.
    10030    2    1    2    0    0  0.00000000000E+00  0.00000000000E+00  0.12293453644E+04  0.38757347308E+04  0.36755992271E+04 0.  0.
        3    1    3    3  502    0 -0.23792071497E+03 -0.12395290351E+04 -0.79390364923E+03  0.14910806517E+04  0.10100000352E+00 0. -1.
       -3    1    3    3    0  502  0.23792071497E+03  0.12395290351E+04  0.20232490136E+04  0.23846540791E+04  0.10100000352E+00 0.  1.
</event>
<event>
 5   0  0.2913025E-07  0.3690325E+04  0.7818609E-02  0.8070109E-01
       -2   -1    0    0    0  501  0.00000000000E+00  0.00000000000E+00  0.12139233776E+04  0.12139233776E+04  0.25500000920E-02 0. -1.
        2   -1    0    0  501    0  0.00000000000E+00  0.00000000000E+00 -0.28046452205E+04  0.28046452205E+04  0.25500000920E-02 0.  1.
    10030    2    1    2    0    0  0.00000000000E+00  0.00000000000E+00 -0.15907218430E+04  0.40185685981E+04  0.36903248632E+04 0.  0.
        5    1    3    3  502    0  0.86015260541E+03  0.67958690405E+03 -0.24115952276E+04  0.26490591720E+04  0.46999998093E+01 0.  1.
       -5    1    3    3    0  502 -0.86015260541E+03 -0.67958690405E+03  0.82087338463E+03  0.13695094262E+04  0.46999998093E+01 0. -1.
</event>
<event>
 5   0  0.9341000E-08  0.3736020E+04  0.7818609E-02  0.8060026E-01
        1   -1    0    0  501    0  0.00000000000E+00  0.00000000000E+00  0.28505898304E+04  0.28505898304E+04  0.50400001928E-02 0. -1.
       -1   -1    0    0    0  501  0.00000000000E+00  0.00000000000E+00 -0.12241193572E+04  0.12241193572E+04  0.50400001928E-02 0.  1.
    10030    2    1    2    0    0  0.00000000000E+00  0.00000000000E+00  0.16264704732E+04  0.40747091876E+04  0.37360204448E+04 0.  0.
        4    1    3    3  502    0  0.76719766166E+03 -0.16769072080E+04  0.11383355696E+04  0.21671224050E+04  0.12699999809E+01 0. -1.
       -4    1    3    3    0  502 -0.76719766166E+03  0.16769072080E+04  0.48813490357E+03  0.19075867826E+04  0.12699999809E+01 0.  1.
</event>
<event>
 5   0  0.9418945E-08  0.3702087E+04  0.7818609E-02  0.8067499E-01
       -1   -1    0    0    0  501  0.00000000000E+00  0.00000000000E+00  0.16430096897E+04  0.16430096897E+04  0.50400001928E-02 0. -1.
        1   -1    0    0  501    0  0.00000000000E+00  0.00000000000E+00 -0.20854180662E+04  0.20854180662E+04  0.50400001928E-02 0.  1.
    10030    2    1    2    0    0  0.00000000000E+00  0.00000000000E+00 -0.44240837651E+03  0.37284277560E+04  0.37020870276E+04 0.  0.
        5    1    3    3  502    0 -0.15018507799E+04 -0.75819986784E+03 -0.99865347087E+03  0.19564645792E+04  0.46999998093E+01 0.  1.
       -5    1    3    3    0  502  0.15018507799E+04  0.75819986784E+03  0.55624509436E+03  0.17719631768E+04  0.46999998093E+01 0. -1.
</event>
<event>
 5   0  0.9341000E-08  0.3792204E+04  0.7818609E-02  0.8047830E-01
        1   -1    0    0  501    0  0.00000000000E+00  0.00000000000E+00  0.23810123613E+04  0.23810123613E+04  0.50400001928E-02 0.  1.
       -1   -1    0    0    0  501  0.00000000000E+00  0.00000000000E+00 -0.15099467925E+04  0.15099467925E+04  0.50400001928E-02 0. -1.
    10030    2    1    2    0    0  0.00000000000E+00  0.00000000000E+00  0.87106556880E+03  0.38909591537E+04  0.37922035693E+04 0.  0.
        3    1    3    3  502    0 -0.18446825165E+04 -0.25084947045E+03  0.66410187466E+02  0.18628444290E+04  0.10100000352E+00 0. -1.
       -3    1    3    3    0  502  0.18446825165E+04  0.25084947045E+03  0.80465538134E+03  0.20281147247E+04  0.10100000352E+00 0.  1.
</event>
<event>
 5   0  0.9418945E-08  0.3701270E+04  0.7818609E-02  0.8067680E-01
       -1   -1    0    0    0  501  0.00000000000E+00  0.00000000000E+00  0.17508282088E+04  0.17508282088E+04  0.50400001928E-02 0.  1.
        1   -1    0    0  501    0  0.00000000000E+00  0.00000000000E+00 -0.19561315220E+04  0.19561315220E+04  0.50400001928E-02 0. -1.
    10030    2    1    2    0    0  0.00000000000E+00  0.00000000000E+00 -0.20530331317E+03  0.37069597309E+04  0.37012701868E+04 0.  0.
        5    1    3    3  502    0 -0.31691465276E+03 -0.17109961177E+04 -0.73360859595E+03  0.18884242834E+04  0.46999998093E+01 0. -1.
       -5    1    3    3    0  502  0.31691465276E+03  0.17109961177E+04  0.52830528278E+03  0.18185354475E+04  0.46999998093E+01 0.  1.
</event>
<event>
 5   0  0.3008879E-07  0.3701114E+04  0.7818609E-02  0.8067715E-01
       -2   -1    0    0    0  501  0.00000000000E+00  0.00000000000E+00  0.14601321771E+04  0.14601321771E+04  0.25500000920E-02 0. -1.
        2   -1    0    0  501    0  0.00000000000E+00  0.00000000000E+00 -0.23453779849E+04  0.23453779849E+04  0.25500000920E-02 0.  1.
    10030    2    1    2    0    0  0.00000000000E+00  0.00000000000E+00 -0.88524580781E+03  0.38055101619E+04  0.37011143528E+04 0.  0.
        2    1    3    3  502    0 -0.84325086657E+03  0.24978957038E+03  0.12315219354E+04  0.15133119741E+04  0.25500000920E-02 0. -1.
       -2    1    3    3    0  502  0.84325086657E+03 -0.24978957038E+03 -0.21167677432E+04  0.22921981878E+04  0.25500000920E-02 0.  1.
</event>
<event>
 5   0  0.3032442E-07  0.3666222E+04  0.7818609E-02  0.8075489E-01
        2   -1    0    0  501    0  0.00000000000E+00  0.00000000000E+00  0.30135601280E+04  0.30135601280E+04  0.25500000920E-02 0. -1.
       -2   -1    0    0    0  501  0.00000000000E+00  0.00000000000E+00 -0.11150585419E+04  0.11150585419E+04  0.25500000920E-02 0.  1.
    10030    2    1    2    0    0  0.00000000000E+00  0.00000000000E+00  0.18985015862E+04  0.41286186699E+04  0.36662220130E+04 0.  0.
        3    1    3    3  502    0 -0.66851596252E+03  0.91443219379E+02 -0.97012764609E+03  0.11817034799E+04  0.10100000352E+00 0.  1.
       -3    1    3    3    0  502  0.66851596252E+03 -0.91443219379E+02  0.28686292322E+04  0.29469151900E+04  0.10100000352E+00 0. -1.
</event>
<event>
 5   0  0.3032442E-07  0.3705700E+04  0.7818609E-02  0.8066700E-01
       -2   -1    0    0    0  501  0.00000000000E+00  0.00000000000E+00  0.15769746828E+04  0.15769746828E+04  0.25500000920E-02 0.  1.
        2   -1    0    0  501    0  0.00000000000E+00  0.00000000000E+00 -0.21769871461E+04  0.21769871461E+04  0.25500000920E-02 0. -1.
    10030    2    1    2    0    0  0.00000000000E+00  0.00000000000E+00 -0.60001246329E+03  0.37539618290E+04  0.37057002654E+04 0.  0.
        3    1    3    3  502    0  0.15745421082E+04 -0.84565075930E+03  0.19497325804E+03  0.17978661348E+04  0.10100000352E+00 0.  1.
       -3    1    3    3    0  502 -0.15745421082E+04  0.84565075930E+03 -0.79498572133E+03  0.19560956941E+04  0.10100000352E+00 0. -1.
</event>
<event>
 5   0  0.9646615E-08  0.3687033E+04  0.7818609E-02  0.8070842E-01
       -1   -1    0    0    0  501  0.00000000000E+00  0.00000000000E+00  0.15969255672E+04  0.15969255672E+04  0.50400001928E-02 0. -1.
        1   -1    0    0  501    0  0.00000000000E+00  0.00000000000E+00 -0.21281850135E+04  0.21281850135E+04  0.50400001928E-02 0.  1.
    10030    2    1    2    0    0  0.00000000000E+00  0.00000000000E+00 -0.53125944636E+03  0.37251105807E+04  0.36870329859E+04 0.  0.
        2    1    3    3  502    0  0.40995241626E+03 -0.17703453836E+04  0.48010314006E+02  0.18178252806E+04  0.25500000920E-02 0. -1.
       -2    1    3    3    0  502 -0.40995241626E+03  0.17703453836E+04 -0.57926976036E+03  0.19072853001E+04  0.25500000920E-02 0.  1.
</event>
<event>
 5   0  0.2897133E-07  0.3675127E+04  0.7818609E-02  0.8073496E-01
       -2   -1    0    0    0  501  0.00000000000E+00  0.00000000000E+00  0.17347296278E+04  0.17347296278E+04  0.25500000920E-02 0. -1.
        2   -1    0    0  501    0  0.00000000000E+00  0.00000000000E+00 -0.19464934100E+04  0.19464934100E+04  0.25500000920E-02 0.  1.
    10030    2    1    2    0    0  0.00000000000E+00  0.00000000000E+00 -0.21176378227E+03  0.36812230378E+04  0.36751270936E+04 0.  0.
        4    1    3    3  502    0 -0.14478383386E+04 -0.10015178642E+04 -0.63340931389E+03  0.18709577384E+04  0.12699999809E+01 0.  1.
       -4    1    3    3    0  502  0.14478383386E+04  0.10015178642E+04  0.42164553162E+03  0.18102652994E+04  0.12699999809E+01 0. -1.
</event>
<event>
 5   0  0.3032442E-07  0.3609732E+04  0.7818609E-02  0.8088266E-01
        2   -1    0    0  501    0  0.00000000000E+00  0.00000000000E+00  0.22234370889E+04  0.22234370889E+04  0.25500000920E-02 0.  1.
       -2   -1    0    0    0  501  0.00000000000E+00  0.00000000000E+00 -0.14650927483E+04  0.14650927483E+04  0.25500000920E-02 0. -1.
    10030    2    1    2    0    0  0.00000000000E+00  0.00000000000E+00  0.75834434055E+03  0.36885298372E+04  0.36097321537E+04 0.  0.
        3    1    3    3  502    0  0.17707535870E+04 -0.13736717547E+03  0.51065463222E+02  0.17768077269E+04  0.10100000352E+00 0. -1.
       -3    1    3    3    0  502 -0.17707535870E+04  0.13736717547E+03  0.70727887733E+03  0.19117221103E+04  0.10100000352E+00 0.  1.
</event>
<event>
 5   0  0.3032442E-07  0.3705874E+04  0.7818609E-02  0.8066661E-01
        2   -1    0    0  501    0  0.00000000000E+00  0.00000000000E+00  0.18093938812E+04  0.18093938812E+04  0.25500000920E-02 0.  1.
       -2   -1    0    0    0  501  0.00000000000E+00  0.00000000000E+00 -0.18975284685E+04  0.18975284685E+04  0.25500000920E-02 0. -1.
    10030    2    1    2    0    0  0.00000000000E+00  0.00000000000E+00 -0.88134587221E+02  0.37069223497E+04  0.37058744719E+04 0.  0.
        3    1    3    3  502    0 -0.10368457573E+04 -0.23321382727E+03  0.14742349457E+04  0.18173625117E+04  0.10100000352E+00 0.  1.
       -3    1    3    3    0  502  0.10368457573E+04  0.23321382727E+03 -0.15623695329E+04  0.18895598380E+04  0.10100000352E+00 0. -1.
</event>
<event>
 5   0  0.3032442E-07  0.3693966E+04  0.7818609E-02  0.8069300E-01
       -2   -1    0    0    0  501  0.00000000000E+00  0.00000000000E+00  0.13910924763E+04  0.13910924763E+04  0.25500000920E-02 0.  1.
        2   -1    0    0  501    0  0.00000000000E+00  0.00000000000E+00 -0.24522787630E+04  0.24522787630E+04  0.25500000920E-02 0. -1.
    10030    2    1    2    0    0  0.00000000000E+00  0.00000000000E+00 -0.10611862866E+04  0.38433712393E+04  0.36939661813E+04 0.  0.
        3    1    3    3  502    0  0.50995066764E+03 -0.67997065972E+03  0.11755274058E+04  0.14506117584E+04  0.10100000352E+00 0.  1.
       -3    1    3    3    0  502 -0.50995066764E+03  0.67997065972E+03 -0.22367136924E+04  0.23927594809E+04  0.10100000352E+00 0. -1.
</event>
<event>
 5   0  0.2913025E-07  0.3552137E+04  0.7818609E-02  0.8101544E-01
        2   -1    0    0  501    0  0.00000000000E+00  0.00000000000E+00  0.19524303993E+04  0.19524303993E+04  0.25500000920E-02 0.  1.
       -2   -1    0    0    0  501  0.00000000000E+00  0.00000000000E+00 -0.16156371374E+04  0.16156371374E+04  0.25500000920E-02 0. -1.
    10030    2    1    2    0    0  0.00000000000E+00  0.00000000000E+00  0.33679326185E+03  0.35680675367E+04  0.35521368562E+04 0.  0.
        5    1    3    3  502    0 -0.16926507560E+04 -0.44452908618E+02  0.70685514466E+03  0.18348593756E+04  0.46999998093E+01 0.  1.
       -5    1    3    3    0  502  0.16926507560E+04  0.44452908618E+02 -0.37006188280E+03  0.17332081611E+04  0.46999998093E+01 0. -1.
</event>
<event>
 5   0  0.9341000E-08  0.3773046E+04  0.7818609E-02  0.8051964E-01
        1   -1    0    0  501    0  0.00000000000E+00  0.00000000000E+00  0.21249931492E+04  0.21249931492E+04  0.50400001928E-02 0. -1.
       -1   -1    0    0    0  501  0.00000000000E+00  0.00000000000E+00 -0.16748140422E+04  0.16748140422E+04  0.50400001928E-02 0.  1.
    10030    2    1    2    0    0  0.00000000000E+00  0.00000000000E+00  0.45017910696E+03  0.37998071914E+04  0.37730456482E+04 0.  0.
        3    1    3    3  502    0  0.26176423237E+03 -0.18393028858E+04 -0.10497386336E+03  0.18607995973E+04  0.10100000352E+00 0.  1.
       -3    1    3    3    0  502 -0.26176423237E+03  0.18393028858E+04  0.55515297033E+03  0.19390075941E+04  0.10100000352E+00 0. -1.
</event>
<event>
 5   0  0.9646615E-08  0.3706928E+04  0.7818609E-02  0.8066428E-01
       -1   -1    0    0    0  501  0.00000000000E+00  0.00000000000E+00  0.15304468192E+04  0.15304468192E+04  0.50400001928E-02 0. -1.
        1   -1    0    0  501    0  0.00000000000E+00  0.00000000000E+00 -0.22446573658E+04  0.22446573658E+04  0.50400001928E-02 0.  1.
    10030    2    1    2    0    0  0.00000000000E+00  0.00000000000E+00 -0.71421054657E+03  0.37751041850E+04  0.37069279603E+04 0.  0.
        2    1    3    3  502    0  0.34122998546E+03  0.17862662684E+04 -0.72166049722E+03  0.19565221588E+04  0.25500000920E-02 0. -1.
       -2    1    3    3    0  502 -0.34122998546E+03 -0.17862662684E+04  0.74499506484E+01  0.18185820263E+04  0.25500000920E-02 0.  1.
</event>
<event>
 5   0  0.9341000E-08  0.3700779E+04  0.7818609E-02  0.8067789E-01
       -1   -1    0    0    0  501  0.00000000000E+00  0.00000000000E+00  0.19009692129E+04  0.19009692129E+04  0.50400001928E-02 0.  1.
        1   -1    0    0  501    0  0.00000000000E+00  0.00000000000E+00 -0.18011552112E+04  0.18011552113E+04  0.50400001928E-02 0. -1.
    10030    2    1    2    0    0  0.00000000000E+00  0.00000000000E+00  0.99814001675E+02  0.37021244242E+04  0.37007786231E+04 0.  0.
        4    1    3    3  502    0  0.46379311750E+03  0.17619029640E+04 -0.27352602511E+03  0.18423420447E+04  0.12699999809E+01 0. -1.
       -4    1    3    3    0  502 -0.46379311750E+03 -0.17619029640E+04  0.37334002678E+03  0.18597823795E+04  0.12699999809E+01 0.  1.
</event>
<event>
 5   0  0.3032442E-07  0.3479139E+04  0.7818609E-02  0.8118752E-01
        2   -1    0    0  501    0  0.00000000000E+00  0.00000000000E+00  0.20441200985E+04  0.20441200985E+04  0.25500000920E-02 0.  1.
       -2   -1    0    0    0  501  0.00000000000E+00  0.00000000000E+00 -0.14803933895E+04  0.14803933895E+04  0.25500000920E-02 0. -1.
    10030    2    1    2    0    0  0.00000000000E+00  0.00000000000E+00  0.56372670903E+03  0.35245134880E+04  0.34791389056E+04 0.  0.
        3    1    3    3  502    0  0.64500923256E+03 -0.14616028839E+04 -0.41543184186E+03  0.16507281805E+04  0.10100000352E+00 0. -1.
       -3    1    3    3    0  502 -0.64500923256E+03  0.14616028839E+04  0.97915855089E+03  0.18737853075E+04  0.10100000352E+00 0.  1.
</event>
<event>
 5   0  0.3032442E-07  0.3596531E+04  0.7818609E-02  0.8091287E-01
       -2   -1    0    0    0  501  0.00000000000E+00  0.00000000000E+00  0.13863922251E+04  0.13863922251E+04  0.25500000920E-02 0.  1.
        2   -1    0    0  501    0  0.00000000000E+00  0.00000000000E+00 -0.23324993839E+04  0.23324993839E+04  0.25500000920E-02 0. -1.
    10030    2    1    2    0    0  0.00000000000E+00  0.00000000000E+00 -0.94610715878E+03  0.37188916090E+04  0.35965311125E+04 0.  0.
        3    1    3    3  502    0 -0.17061611684E+04 -0.16492926012E+03  0.89107673845E+02  0.17164287871E+04  0.10100000352E+00 0.  1.
       -3    1    3    3    0  502  0.17061611684E+04  0.16492926012E+03 -0.10352148326E+04  0.20024628219E+04  0.10100000352E+00 0. -1.
</event>
<event>
 5   0  0.2996969E-07  0.3707937E+04  0.7818609E-02  0.8066205E-01
       -2   -1    0    0    0  501  0.00000000000E+00  0.00000000000E+00  0.20804275704E+04  0.20804275704E+04  0.25500000920E-02 0.  1.
        2   -1    0    0  501    0  0.00000000000E+00  0.00000000000E+00 -0.16521600671E+04  0.16521600671E+04  0.25500000920E-02 0. -1.
    10030    2    1    2    0    0  0.00000000000E+00  0.00000000000E+00  0.42826750330E+03  0.37325876376E+04  0.37079370838E+04 0.  0.
        1    1    3    3  502    0 -0.22779845786E+03 -0.14413489194E+04  0.13653362642E+04  0.19983798336E+04  0.50400001928E-02 0.  1.
       -1    1    3    3    0  502  0.22779845786E+03  0.14413489194E+04 -0.93706876089E+03  0.17342078040E+04  0.50400001928E-02 0. -1.
</event>
<event>
 5   0  0.9341000E-08  0.3729732E+04  0.7818609E-02  0.8061405E-01
        1   -1    0    0  501    0  0.00000000000E+00  0.00000000000E+00  0.25459710426E+04  0.25459710426E+04  0.50400001928E-02 0. -1.
       -1   -1    0    0    0  501  0.00000000000E+00  0.00000000000E+00 -0.13659716878E+04  0.13659716878E+04  0.50400001928E-02 0.  1.
    10030    2    1    2    0    0  0.00000000000E+00  0.00000000000E+00  0.11799993548E+04  0.39119427305E+04  0.37297315519E+04 0.  0.
        1    1    3    3  502    0 -0.13019333260E+04  0.12808175625E+04  0.98551675868E+03  0.20752752336E+04  0.50400001928E-02 0.  1.
       -1    1    3    3    0  502  0.13019333260E+04 -0.12808175625E+04  0.19448259612E+03  0.18366674968E+04  0.50400001928E-02 0. -1.
</event>
<event>
 5   0  0.3008879E-07  0.3696442E+04  0.7818609E-02  0.8068751E-01
        2   -1    0    0  501    0  0.00000000000E+00  0.00000000000E+00  0.11023961460E+04  0.11023961460E+04  0.25500000920E-02 0.  1.
       -2   -1    0    0    0  501  0.00000000000E+00  0.00000000000E+00 -0.30986321786E+04  0.30986321786E+04  0.25500000920E-02 0. -1.
    10030    2    1    2    0    0  0.00000000000E+00  0.00000000000E+00 -0.19962360326E+04  0.42010283247E+04  0.36964416250E+04 0.  0.
        2    1    3    3  502    0 -0.14281608121E+04  0.93608085089E+03 -0.19446315852E+03  0.17186350935E+04  0.25500000920E-02 0. -1.
       -2    1    3    3    0  502  0.14281608121E+04 -0.93608085089E+03 -0.18017728740E+04  0.24823932312E+04  0.25500000920E-02 0.  1.
</event>
<event>
 5   0  0.3032442E-07  0.3696259E+04  0.7818609E-02  0.8068791E-01
       -2   -1    0    0    0  501  0.00000000000E+00  0.00000000000E+00  0.18988506155E+04  0.18988506155E+04  0.25500000920E-02 0. -1.
        2   -1    0    0  501    0  0.00000000000E+00  0.00000000000E+00 -0.17987631412E+04  0.17987631412E+04  0.25500000920E-02 0.  1.
    10030    2    1    2    0    0  0.00000000000E+00  0.00000000000E+00  0.10008747430E+03  0.36976137568E+04  0.36962589184E+04 0.  0.
        3    1    3    3  502    0  0.71388262365E+02  0.46712253033E+03  0.18373946800E+04  0.18971871185E+04  0.10100000352E+00 0. -1.
       -3    1    3    3    0  502 -0.71388262365E+02 -0.46712253033E+03 -0.17373072057E+04  0.18004266382E+04  0.10100000352E+00 0.  1.
</event>
<event>
 5   0  0.9341000E-08  0.3808555E+04  0.7818609E-02  0.8044322E-01
        1   -1    0    0  501    0  0.00000000000E+00  0.00000000000E+00  0.29621750158E+04  0.29621750158E+04  0.50400001928E-02 0. -1.
       -1   -1    0    0    0  501  0.00000000000E+00  0.00000000000E+00 -0.12241925758E+04  0.12241925759E+04  0.50400001928E-02 0.  1.
    10030    2    1    2    0    0  0.00000000000E+00  0.00000000000E+00  0.17379824399E+04  0.41863675916E+04  0.38085549295E+04 0.  0.
        1    1    3    3  502    0 -0.15890953279E+04 -0.85509654971E+03  0.20050110131E+03  0.18156582174E+04  0.50400001928E-02 0. -1.
       -1    1    3    3    0  502  0.15890953279E+04  0.85509654971E+03  0.15374813386E+04  0.23707093743E+04  0.50400001928E-02 0.  1.
</event>
<event>
 5   0  0.2897133E-07  0.3699561E+04  0.7818609E-02  0.8068059E-01
       -2   -1    0    0    0  501  0.00000000000E+00  0.00000000000E+00  0.14354701886E+04  0.14354701886E+04  0.25500000920E-02 0. -1.
        2   -1    0    0  501    0  0.00000000000E+00  0.00000000000E+00 -0.23836709524E+04  0.23836709524E+04  0.25500000920E-02 0.  1.
    10030    2    1    2    0    0  0.00000000000E+00  0.00000000000E+00 -0.94820076372E+03  0.38191411410E+04  0.36995613749E+04 0.  0.
        4    1    3    3  502    0  0.88296466612E+03  0.15646953504E+04 -0.19656929239E+02  0.17967432062E+04  0.12699999809E+01 0. -1.
       -4    1    3    3    0  502 -0.88296466612E+03 -0.15646953504E+04 -0.92854383448E+03  0.20223979348E+04  0.12699999809E+01 0.  1.
</event>
<event>
 5   0  0.2913025E-07  0.3671418E+04  0.7818609E-02  0.8074326E-01
       -2   -1    0    0    0  501  0.00000000000E+00  0.00000000000E+00  0.21063510088E+04  0.21063510089E+04  0.25500000920E-02 0. -1.
        2   -1    0    0  501    0  0.00000000000E+00  0.00000000000E+00 -0.15998414047E+04  0.15998414047E+04  0.25500000920E-02 0.  1.
    10030    2    1    2    0    0  0.00000000000E+00  0.00000000000E+00  0.50650960411E+03  0.37061924136E+04  0.36714180132E+04 0.  0.
        5    1    3    3  502    0  0.26659097272E+03  0.15479793087E+04  0.12122500997E+04  0.19841580283E+04  0.46999998093E+01 0. -1.
       -5    1    3    3    0  502 -0.26659097272E+03 -0.15479793087E+04 -0.70574049559E+03  0.17220343853E+04  0.46999998093E+01 0.  1.
</event>
<event>
 5   0  0.2897133E-07  0.3726910E+04  0.7818609E-02  0.8062024E-01
       -2   -1    0    0    0  501  0.00000000000E+00  0.00000000000E+00  0.14708233236E+04  0.14708233236E+04  0.25500000920E-02 0. -1.
        2   -1    0    0  501    0  0.00000000000E+00  0.00000000000E+00 -0.23608986034E+04  0.23608986034E+04  0.25500000920E-02 0.  1.
    10030    2    1    2    0    0  0.00000000000E+00  0.00000000000E+00 -0.89007527979E+03  0.38317219270E+04  0.37269101038E+04 0.  0.
        4    1    3    3  502    0  0.69060178494E+03  0.55224444543E+03 -0.21314597039E+04  0.23076019664E+04  0.12699999809E+01 0.  1.
       -4    1    3    3    0  502 -0.69060178494E+03 -0.55224444543E+03  0.12413844241E+04  0.15241199606E+04  0.12699999809E+01 0. -1.
</event>
<event>
 5   0  0.3032442E-07  0.3695290E+04  0.7818609E-02  0.8069006E-01
        2   -1    0    0  501    0  0.00000000000E+00  0.00000000000E+00  0.32470843034E+04  0.32470843034E+04  0.25500000920E-02 0. -1.
       -2   -1    0    0    0  501  0.00000000000E+00  0.00000000000E+00 -0.10513407117E+04  0.10513407117E+04  0.25500000920E-02 0.  1.
    10030    2    1    2    0    0  0.00000000000E+00  0.00000000000E+00  0.21957435918E+04  0.42984250151E+04  0.36952899331E+04 0.  0.
        3    1    3    3  502    0 -0.11471230254E+04 -0.14257052999E+04  0.80070433367E+03  0.19974118949E+04  0.10100000352E+00 0.  1.
       -3    1    3    3    0  502  0.11471230254E+04  0.14257052999E+04  0.13950392581E+04  0.23010131202E+04  0.10100000352E+00 0. -1.
</event>
<event>
 5   0  0.3032442E-07  0.3663539E+04  0.7818609E-02  0.8076090E-01
        2   -1    0    0  501    0  0.00000000000E+00  0.00000000000E+00  0.26341839710E+04  0.26341839710E+04  0.25500000920E-02 0.  1.
       -2   -1    0    0    0  501  0.00000000000E+00  0.00000000000E+00 -0.12737833326E+04  0.12737833326E+04  0.25500000920E-02 0. -1.
    10030    2    1    2    0    0  0.00000000000E+00  0.00000000000E+00  0.13604006384E+04  0.39079673036E+04  0.36635390743E+04 0.  0.
        3    1    3    3  502    0 -0.57887266019E+03  0.74133071208E+02  0.25323609656E+04  0.25987384130E+04  0.10100000352E+00 0.  1.
       -3    1    3    3    0  502  0.57887266019E+03 -0.74133071208E+02 -0.11719603273E+04  0.13092288905E+04  0.10100000352E+00 0. -1.
</event>
<event>
 5   0  0.2897133E-07  0.3705241E+04  0.7818609E-02  0.8066801E-01
       -2   -1    0    0    0  501  0.00000000000E+00  0.00000000000E+00  0.12324163109E+04  0.12324163109E+04  0.25500000920E-02 0.  1.
        2   -1    0    0  501    0  0.00000000000E+00  0.00000000000E+00 -0.27849381680E+04  0.27849381680E+04  0.25500000920E-02 0. -1.
    10030    2    1    2    0    0  0.00000000000E+00  0.00000000000E+00 -0.15525218572E+04  0.40173544789E+04  0.37052412731E+04 0.  0.
        4    1    3    3  502    0  0.32536082181E+03  0.16375514549E+04 -0.16468738769E+04  0.23451289115E+04  0.12699999809E+01 0. -1.
       -4    1    3    3    0  502 -0.32536082181E+03 -0.16375514549E+04  0.94352019753E+02  0.16722255674E+04  0.12699999809E+01 0.  1.
</event>
<event>
 5   0  0.3032442E-07  0.3693761E+04  0.7818609E-02  0.8069346E-01
        2   -1    0    0  501    0  0.00000000000E+00  0.00000000000E+00  0.19159190967E+04  0.19159190967E+04  0.25500000920E-02 0. -1.
       -2   -1    0    0    0  501  0.00000000000E+00  0.00000000000E+00 -0.17803298768E+04  0.17803298768E+04  0.25500000920E-02 0.  1.
    10030    2    1    2    0    0  0.00000000000E+00  0.00000000000E+00  0.13558921988E+03  0.36962489735E+04  0.36937612318E+04 0.  0.
        3    1    3    3  502    0  0.13854270820E+04 -0.26386494882E+03  0.12610469198E+04  0.18918964704E+04  0.10100000352E+00 0. -1.
       -3    1    3    3    0  502 -0.13854270820E+04  0.26386494882E+03 -0.11254576999E+04  0.18043525030E+04  0.10100000352E+00 0.  1.
</event>
<event>
 5   0  0.9418945E-08  0.3940140E+04  0.7818609E-02  0.8016732E-01
       -1   -1    0    0    0  501  0.00000000000E+00  0.00000000000E+00  0.15721492817E+04  0.15721492817E+04  0.50400001928E-02 0. -1.
        1   -1    0    0  501    0  0.00000000000E+00  0.00000000000E+00 -0.24687072515E+04  0.24687072515E+04  0.50400001928E-02 0.  1.
    10030    2    1    2    0    0  0.00000000000E+00  0.00000000000E+00 -0.89655796980E+03  0.40408565331E+04  0.39401402676E+04 0.  0.
        5    1    3    3  502    0  0.64858829109E+03 -0.18040828667E+04 -0.91349579106E+03  0.21236474311E+04  0.46999998093E+01 0.  1.
       -5    1    3    3    0  502 -0.64858829109E+03  0.18040828667E+04  0.16937821262E+02  0.19172091021E+04  0.46999998093E+01 0. -1.
</event>
<event>
 5   0  0.2996969E-07  0.3707388E+04  0.7818609E-02  0.8066327E-01
       -2   -1    0    0    0  501  0.00000000000E+00  0.00000000000E+00  0.13976605849E+04  0.13976605849E+04  0.25500000920E-02 0.  1.
        2   -1    0    0  501    0  0.00000000000E+00  0.00000000000E+00 -0.24585233746E+04  0.24585233746E+04  0.25500000920E-02 0. -1.
    10030    2    1    2    0    0  0.00000000000E+00  0.00000000000E+00 -0.10608627897E+04  0.38561839595E+04  0.37073878771E+04 0.  0.
        1    1    3    3  502    0  0.38698802303E+03 -0.18106866697E+04 -0.43836168965E+03  0.19027629692E+04  0.50400001928E-02 0.  1.
       -1    1    3    3    0  502 -0.38698802303E+03  0.18106866697E+04 -0.62250110002E+03  0.19534209903E+04  0.50400001928E-02 0. -1.
</event>
<event>
 5   0  0.9341000E-08  0.3683032E+04  0.7818609E-02  0.8071733E-01
       -1   -1    0    0    0  501  0.00000000000E+00  0.00000000000E+00  0.13890179281E+04  0.13890179281E+04  0.50400001928E-02 0. -1.
        1   -1    0    0  501    0  0.00000000000E+00  0.00000000000E+00 -0.24414234556E+04  0.24414234556E+04  0.50400001928E-02 0.  1.
    10030    2    1    2    0    0  0.00000000000E+00  0.00000000000E+00 -0.10524055275E+04  0.38304413837E+04  0.36830318760E+04 0.  0.
        3    1    3    3  502    0  0.71294122654E+03  0.27258659220E+03  0.12167583319E+04  0.14363458815E+04  0.10100000352E+00 0. -1.
       -3    1    3    3    0  502 -0.71294122654E+03 -0.27258659220E+03 -0.22691638594E+04  0.23940955022E+04  0.10100000352E+00 0.  1.
</event>
<event>
 5   0  0.2897133E-07  0.3667668E+04  0.7818609E-02  0.8075165E-01
        2   -1    0    0  501    0  0.00000000000E+00  0.00000000000E+00  0.26384341399E+04  0.26384341399E+04  0.25500000920E-02 0. -1.
       -2   -1    0    0    0  501  0.00000000000E+00  0.00000000000E+00 -0.12745996618E+04  0.12745996618E+04  0.25500000920E-02 0.  1.
    10030    2    1    2    0    0  0.00000000000E+00  0.00000000000E+00  0.13638344781E+04  0.39130338017E+04  0.36676680670E+04 0.  0.
        4    1    3    3  502    0  0.14219531428E+04 -0.25995756946E+03 -0.52203398394E+03  0.15368961485E+04  0.12699999809E+01 0.  1.
       -4    1    3    3    0  502 -0.14219531428E+04  0.25995756946E+03  0.18858684620E+04  0.23761376532E+04  0.12699999809E+01 0. -1.
</event>
<event>
 5   0  0.2897133E-07  0.3736947E+04  0.7818609E-02  0.8059823E-01
        2   -1    0    0  501    0  0.00000000000E+00  0.00000000000E+00  0.19938198296E+04  0.19938198296E+04  0.25500000920E-02 0. -1.
       -2   -1    0    0    0  501  0.00000000000E+00  0.00000000000E+00 -0.17510074505E+04  0.17510074505E+04  0.25500000920E-02 0.  1.
    10030    2    1    2    0    0  0.00000000000E+00  0.00000000000E+00  0.24281237913E+03  0.37448272801E+04  0.37369470837E+04 0.  0.
        4    1    3    3  502    0  0.15130173575E+04 -0.87054699508E+03  0.78923340576E+03  0.19157151606E+04  0.12699999809E+01 0. -1.
       -4    1    3    3    0  502 -0.15130173575E+04  0.87054699508E+03 -0.54642102663E+03  0.18291121196E+04  0.12699999809E+01 0.  1.
</event>
<event>
 5   0  0.2897133E-07  0.3985575E+04  0.7818609E-02  0.8007463E-01
        2   -1    0    0  501    0  0.00000000000E+00  0.00000000000E+00  0.30472434858E+04  0.30472434858E+04  0.25500000920E-02 0. -1.
       -2   -1    0    0    0  501  0.00000000000E+00  0.00000000000E+00 -0.13032110544E+04  0.13032110544E+04  0.25500000920E-02 0.  1.
    10030    2    1    2    0    0  0.00000000000E+00  0.00000000000E+00  0.17440324314E+04  0.43504545401E+04  0.39855746868E+04 0.  0.
        4    1    3    3  502    0  0.62668985304E+03 -0.18704676706E+04  0.11803869583E+04  0.22988485081E+04  0.12699999809E+01 0.  1.
       -4    1    3    3    0  502 -0.62668985304E+03  0.18704676706E+04  0.56364547303E+03  0.20516060321E+04  0.12699999809E+01 0. -1.
</event>
<event>
 5   0  0.2996969E-07  0.3693743E+04  0.7818609E-02  0.8069350E-01
        2   -1    0    0  501    0  0.00000000000E+00  0.00000000000E+00  0.23976209157E+04  0.23976209157E+04  0.25500000920E-02 0.  1.
       -2   -1    0    0    0  501  0.00000000000E+00  0.00000000000E+00 -0.14226329342E+04  0.14226329342E+04  0.25500000920E-02 0. -1.
    10030    2    1    2    0    0  0.00000000000E+00  0.00000000000E+00  0.97498798148E+03  0.38202538499E+04  0.36937430763E+04 0.  0.
        1    1    3    3  502    0 -0.17199517835E+04 -0.25446606626E+03 -0.15669298419E+03  0.17457204266E+04  0.50400001928E-02 0. -1.
       -1    1    3    3    0  502  0.17199517835E+04  0.25446606626E+03  0.11316809657E+04  0.20745334233E+04  0.50400001928E-02 0.  1.
</event>
<event>
 5   0  0.9341000E-08  0.3697233E+04  0.7818609E-02  0.8068575E-01
       -1   -1    0    0    0  501  0.00000000000E+00  0.00000000000E+00  0.11637916955E+04  0.11637916956E+04  0.50400001928E-02 0. -1.
        1   -1    0    0  501    0  0.00000000000E+00  0.00000000000E+00 -0.29364212634E+04  0.29364212634E+04  0.50400001928E-02 0.  1.
    10030    2    1    2    0    0  0.00000000000E+00  0.00000000000E+00 -0.17726295679E+04  0.41002129590E+04  0.36972328469E+04 0.  0.
        1    1    3    3  502    0  0.11194254512E+04 -0.11238959698E+04  0.16642893272E+03  0.15949777683E+04  0.50400001928E-02 0. -1.
       -1    1    3    3    0  502 -0.11194254512E+04  0.11238959698E+04 -0.19390585006E+04  0.25052351907E+04  0.50400001928E-02 0.  1.
</event>
<event>
 5   0  0.9418945E-08  0.3693129E+04  0.7818609E-02  0.8069486E-01
       -1   -1    0    0    0  501  0.00000000000E+00  0.00000000000E+00  0.25645653511E+04  0.25645653511E+04  0.50400001928E-02 0.  1.
        1   -1    0    0  501    0  0.00000000000E+00  0.00000000000E+00 -0.13295820769E+04  0.13295820769E+04  0.50400001928E-02 0. -1.
    10030    2    1    2    0    0  0.00000000000E+00  0.00000000000E+00  0.12349832742E+04  0.38941474280E+04  0.36931288230E+04 0.  0.
        5    1    3    3  502    0 -0.46273369632E+03 -0.46090855627E+03  0.24387035852E+04  0.25246497653E+04  0.46999998093E+01 0.  1.
       -5    1    3    3    0  502  0.46273369632E+03  0.46090855627E+03 -0.12037203110E+04  0.13694976627E+04  0.46999998093E+01 0. -1.
</event>
<event>
 5   0  0.2897133E-07  0.3519936E+04  0.7818609E-02  0.8109082E-01
        2   -1    0    0  501    0  0.00000000000E+00  0.00000000000E+00  0.30176826882E+04  0.30176826882E+04  0.25500000920E-02 0.  1.
       -2   -1    0    0    0  501  0.00000000000E+00  0.00000000000E+00 -0.10264455304E+04  0.10264455304E+04  0.25500000920E-02 0. -1.
    10030    2    1    2    0    0  0.00000000000E+00  0.00000000000E+00  0.19912371578E+04  0.40441282187E+04  0.35199357424E+04 0.  0.
        4    1    3    3  502    0  0.15054828782E+04  0.20386653372E+03 -0.25206027208E+02  0.15194331893E+04  0.12699999809E+01 0. -1.
       -4    1    3    3    0  502 -0.15054828782E+04 -0.20386653372E+03  0.20164431850E+04  0.25246950294E+04  0.12699999809E+01 0.  1.
</event>
<event>
 5   0  0.2996969E-07  0.3558313E+04  0.7818609E-02  0.8100108E-01
       -2   -1    0    0    0  501  0.00000000000E+00  0.00000000000E+00  0.13464364460E+04  0.13464364460E+04  0.25500000920E-02 0. -1.
        2   -1    0    0  501    0  0.00000000000E+00  0.00000000000E+00 -0.23509449322E+04  0.23509449322E+04  0.25500000920E-02 0.  1.
    10030    2    1    2    0    0  0.00000000000E+00  0.00000000000E+00 -0.10045084862E+04  0.36973813782E+04  0.35583130494E+04 0.  0.
        1    1    3    3  502    0 -0.36420414808E+03  0.98143609254E+03 -0.19970664604E+04  0.22548028544E+04  0.50400001928E-02 0.  1.
       -1    1    3    3    0  502  0.36420414808E+03 -0.98143609254E+03  0.99255797416E+03  0.14425785238E+04  0.50400001928E-02 0. -1.
</event>
<event>
 5   0  0.3008879E-07  0.3695639E+04  0.7818609E-02  0.8068929E-01
        2   -1    0    0  501    0  0.00000000000E+00  0.00000000000E+00  0.21451432794E+04  0.21451432794E+04  0.25500000920E-02 0. -1.
       -2   -1    0    0    0  501  0.00000000000E+00  0.00000000000E+00 -0.15917060985E+04  0.15917060985E+04  0.25500000920E-02 0.  1.
    10030    2    1    2    0    0  0.00000000000E+00  0.00000000000E+00  0.55343718089E+03  0.37368493779E+04  0.36956393980E+04 0.  0.
        2    1    3    3  502    0 -0.10961692719E+03 -0.15186695529E+04 -0.78188672936E+03  0.17116424683E+04  0.25500000920E-02 0.  1.
       -2    1    3    3    0  502  0.10961692719E+03  0.15186695529E+04  0.13353239103E+04  0.20252069097E+04  0.25500000920E-02 0. -1.
</event>
<event>
 5   0  0.2913025E-07  0.3706010E+04  0.7818609E-02  0.8066631E-01
       -2   -1    0    0    0  501  0.00000000000E+00  0.00000000000E+00  0.14871972304E+04  0.14871972305E+04  0.25500000920E-02 0.  1.
        2   -1    0    0  501    0  0.00000000000E+00  0.00000000000E+00 -0.23087909201E+04  0.23087909201E+04  0.25500000920E-02 0. -1.
    10030    2    1    2    0    0  0.00000000000E+00  0.00000000000E+00 -0.82159368963E+03  0.37959881505E+04  0.37060099633E+04 0.  0.
        5    1    3    3  502    0  0.91093800394E+01  0.16296786932E+03 -0.23014071866E+04  0.23071928042E+04  0.46999998093E+01 0. -1.
       -5    1    3    3    0  502 -0.91093800394E+01 -0.16296786932E+03  0.14798134970E+04  0.14887953463E+04  0.46999998093E+01 0.  1.
</event>
<event>
 5   0  0.3008879E-07  0.3693106E+04  0.7818609E-02  0.8069491E-01
       -2   -1    0    0    0  501  0.00000000000E+00  0.00000000000E+00  0.16486063727E+04  0.16486063727E+04  0.25500000920E-02 0.  1.
        2   -1    0    0  501    0  0.00000000000E+00  0.00000000000E+00 -0.20682666581E+04  0.20682666581E+04  0.25500000920E-02 0. -1.
    10030    2    1    2    0    0  0.00000000000E+00  0.00000000000E+00 -0.41966028541E+03  0.37168730307E+04  0.36931057894E+04 0.  0.
        2    1    3    3  502    0  0.68062538449E+03  0.59396025227E+03 -0.18306970180E+04  0.20414434273E+04  0.25500000920E-02 0. -1.
       -2    1    3    3    0  502 -0.68062538449E+03 -0.59396025227E+03  0.14110367326E+04  0.16754296034E+04  0.25500000920E-02 0.  1.
</event>
<event>
 5   0  0.9341000E-08  0.3719947E+04  0.7818609E-02  0.8063556E-01
        1   -1    0    0  501    0  0.00000000000E+00  0.00000000000E+00  0.20797936121E+04  0.20797936122E+04  0.50400001928E-02 0.  1.
       -1   -1    0    0    0  501  0.00000000000E+00  0.00000000000E+00 -0.16633871204E+04  0.16633871204E+04  0.50400001928E-02 0. -1.
    10030    2    1    2    0    0  0.00000000000E+00  0.00000000000E+00  0.41640649174E+03  0.37431807326E+04  0.37199472618E+04 0.  0.
        3    1    3    3  502    0 -0.12953292233E+04 -0.74881591457E+03  0.13200472337E+04  0.19952763669E+04  0.10100000352E+00 0.  1.
       -3    1    3    3    0  502  0.12953292233E+04  0.74881591457E+03 -0.90364074199E+03  0.17479043657E+04  0.10100000352E+00 0. -1.
</event>
<event>
 5   0  0.2996969E-07  0.3700499E+04  0.7818609E-02  0.8067851E-01
       -2   -1    0    0    0  501  0.00000000000E+00  0.00000000000E+00  0.18806798715E+04  0.18806798715E+04  0.25500000920E-02 0.  1.
        2   -1    0    0  501    0  0.00000000000E+00  0.00000000000E+00 -0.18203118617E+04  0.18203118617E+04  0.25500000920E-02 0. -1.
    10030    2    1    2    0    0  0.00000000000E+00  0.00000000000E+00  0.60368009813E+02  0.37009917333E+04  0.37004993600E+04 0.  0.
        1    1    3    3  502    0  0.64446633245E+03  0.70656534901E+03 -0.15539624883E+04  0.18246563679E+04  0.50400001928E-02 0. -1.
       -1    1    3    3    0  502 -0.64446633245E+03 -0.70656534901E+03  0.16143304981E+04  0.18763353653E+04  0.50400001928E-02 0.  1.
</event>
<event>
 5   0  0.9341000E-08  0.3706407E+04  0.7818609E-02  0.8066543E-01
       -1   -1    0    0    0  501  0.00000000000E+00  0.00000000000E+00  0.17671993423E+04  0.17671993423E+04  0.50400001928E-02 0. -1.
        1   -1    0    0  501    0  0.00000000000E+00  0.00000000000E+00 -0.19433930658E+04  0.19433930659E+04  0.50400001928E-02 0.  1.
    10030    2    1    2    0    0  0.00000000000E+00  0.00000000000E+00 -0.17619372356E+03  0.37105924081E+04  0.37064068572E+04 0.  0.
        4    1    3    3  502    0  0.62808402627E+03 -0.39073766552E+02 -0.18331502013E+04  0.19381582950E+04  0.12699999809E+01 0.  1.
       -4    1    3    3    0  502 -0.62808402627E+03  0.39073766552E+02  0.16569564777E+04  0.17724341131E+04  0.12699999809E+01 0. -1.
</event>
<event>
 5   0  0.9341000E-08  0.3689835E+04  0.7818609E-02  0.8070218E-01
        1   -1    0    0  501    0  0.00000000000E+00  0.00000000000E+00  0.17470642498E+04  0.17470642498E+04  0.50400001928E-02 0. -1.
       -1   -1    0    0    0  501  0.00000000000E+00  0.00000000000E+00 -0.19482519856E+04  0.19482519856E+04  0.50400001928E-02 0.  1.
    10030    2    1    2    0    0  0.00000000000E+00  0.00000000000E+00 -0.20118773582E+03  0.36953162353E+04  0.36898354400E+04 0.  0.
        4    1    3    3  502    0 -0.14102336062E+04  0.99637453081E+03 -0.75132724712E+03  0.18830866350E+04  0.12699999809E+01 0.  1.
       -4    1    3    3    0  502  0.14102336062E+04 -0.99637453081E+03  0.55013951130E+03  0.18122296004E+04  0.12699999809E+01 0. -1.
</event>
<event>
 5   0  0.3032442E-07  0.3716684E+04  0.7818609E-02  0.8064275E-01
        2   -1    0    0  501    0  0.00000000000E+00  0.00000000000E+00  0.18935017577E+04  0.18935017577E+04  0.25500000920E-02 0. -1.
       -2   -1    0    0    0  501  0.00000000000E+00  0.00000000000E+00 -0.18238347520E+04  0.18238347520E+04  0.25500000920E-02 0.  1.
    10030    2    1    2    0    0  0.00000000000E+00  0.00000000000E+00  0.69667005649E+02  0.37173365097E+04  0.37166836339E+04 0.  0.
        3    1    3    3  502    0  0.80730642532E+02  0.73252511846E+01 -0.18220655969E+04  0.18238679080E+04  0.10100000352E+00 0.  1.
       -3    1    3    3    0  502 -0.80730642532E+02 -0.73252511846E+01  0.18917326026E+04  0.18934686018E+04  0.10100000352E+00 0. -1.
</event>
<event>
 5   0  0.2913025E-07  0.3693632E+04  0.7818609E-02  0.8069375E-01
        2   -1    0    0  501    0  0.00000000000E+00  0.00000000000E+00  0.18881980630E+04  0.18881980630E+04  0.25500000920E-02 0. -1.
       -2   -1    0    0    0  501  0.00000000000E+00  0.00000000000E+00 -0.18063405465E+04  0.18063405465E+04  0.25500000920E-02 0.  1.
    10030    2    1    2    0    0  0.00000000000E+00  0.00000000000E+00  0.81857516547E+02  0.36945386095E+04  0.36936316660E+04 0.  0.
        5    1    3    3  502    0 -0.12465384290E+04  0.80793125763E+03  0.11385111219E+04  0.18715877315E+04  0.46999998093E+01 0.  1.
       -5    1    3    3    0  502  0.12465384290E+04 -0.80793125763E+03 -0.10566536053E+04  0.18229508780E+04  0.46999998093E+01 0. -1.
</event>
<event>
 5   0  0.2913025E-07  0.3689377E+04  0.7818609E-02  0.8070320E-01
       -2   -1    0    0    0  501  0.00000000000E+00  0.00000000000E+00  0.15368573564E+04  0.15368573564E+04  0.25500000920E-02 0.  1.
        2   -1    0    0  501    0  0.00000000000E+00  0.00000000000E+00 -0.22141775410E+04  0.22141775410E+04  0.25500000920E-02 0. -1.
    10030    2    1    2    0    0  0.00000000000E+00  0.00000000000E+00 -0.67732018466E+03  0.37510348974E+04  0.36893766640E+04 0.  0.
        5    1    3    3  502    0 -0.44104927793E+03 -0.13222121049E+04  0.88987332714E+03  0.16536825404E+04  0.46999998093E+01 0.  1.
       -5    1    3    3    0  502  0.44104927793E+03  0.13222121049E+04 -0.15671935118E+04  0.20973523570E+04  0.46999998093E+01 0. -1.
</event>
<event>
 5   0  0.2996969E-07  0.3642244E+04  0.7818609E-02  0.8080883E-01
       -2   -1    0    0    0  501  0.00000000000E+00  0.00000000000E+00  0.13075965630E+04  0.13075965630E+04  0.25500000920E-02 0.  1.
        2   -1    0    0  501    0  0.00000000000E+00  0.00000000000E+00 -0.25363211010E+04  0.25363211010E+04  0.25500000920E-02 0. -1.
    10030    2    1    2    0    0  0.00000000000E+00  0.00000000000E+00 -0.12287245380E+04  0.38439176640E+04  0.36422436791E+04 0.  0.
        1    1    3    3  502    0 -0.15214971703E+04  0.88348810374E+03 -0.11104762324E+04  0.20805437586E+04  0.50400001928E-02 0. -1.
       -1    1    3    3    0  502  0.15214971703E+04 -0.88348810374E+03 -0.11824830551E+03  0.17633739054E+04  0.50400001928E-02 0.  1.
</event>
<event>
 5   0  0.9341000E-08  0.3667643E+04  0.7818609E-02  0.8075171E-01
       -1   -1    0    0    0  501  0.00000000000E+00  0.00000000000E+00  0.29378723991E+04  0.29378723991E+04  0.50400001928E-02 0. -1.
        1   -1    0    0  501    0  0.00000000000E+00  0.00000000000E+00 -0.11446720449E+04  0.11446720449E+04  0.50400001928E-02 0.  1.
    10030    2    1    2    0    0  0.00000000000E+00  0.00000000000E+00  0.17932003542E+04  0.40825444440E+04  0.36676425163E+04 0.  0.
        1    1    3    3  502    0 -0.25613879099E+03 -0.34564753235E+02  0.29174964384E+04  0.29289225443E+04  0.50400001928E-02 0. -1.
       -1    1    3    3    0  502  0.25613879099E+03  0.34564753235E+02 -0.11242960842E+04  0.11536218997E+04  0.50400001928E-02 0.  1.
</event>
<event>
 5   0  0.2913025E-07  0.3729364E+04  0.7818609E-02  0.8061485E-01
        2   -1    0    0  501    0  0.00000000000E+00  0.00000000000E+00  0.24736660253E+04  0.24736660253E+04  0.25500000920E-02 0.  1.
       -2   -1    0    0    0  501  0.00000000000E+00  0.00000000000E+00 -0.14056218480E+04  0.14056218480E+04  0.25500000920E-02 0. -1.
    10030    2    1    2    0    0  0.00000000000E+00  0.00000000000E+00  0.10680441773E+04  0.38792878733E+04  0.37293640261E+04 0.  0.
        5    1    3    3  502    0  0.71246103667E+03  0.10144244414E+04  0.19829884511E+04  0.23385728476E+04  0.46999998093E+01 0.  1.
       -5    1    3    3    0  502 -0.71246103667E+03 -0.10144244414E+04 -0.91494427389E+03  0.15407150257E+04  0.46999998093E+01 0. -1.
</event>
<event>
 5   0  0.3008879E-07  0.3704686E+04  0.7818609E-02  0.8066924E-01
       -2   -1    0    0    0  501  0.00000000000E+00  0.00000000000E+00  0.29065617648E+04  0.29065617648E+04  0.25500000920E-02 0. -1.
        2   -1    0    0  501    0  0.00000000000E+00  0.00000000000E+00 -0.11804925621E+04  0.11804925621E+04  0.25500000920E-02 0.  1.
    10030    2    1    2    0    0  0.00000000000E+00  0.00000000000E+00  0.17260692027E+04  0.40870543269E+04  0.37046859756E+04 0.  0.
        2    1    3    3  502    0  0.43715337253E+03  0.14612432829E+04 -0.29656648558E+03  0.15537975040E+04  0.25500000920E-02 0.  1.
       -2    1    3    3    0  502 -0.43715337253E+03 -0.14612432829E+04  0.20226356883E+04  0.25332568229E+04  0.25500000920E-02 0. -1.
</event>
<event>
 5   0  0.3032442E-07  0.3765919E+04  0.7818609E-02  0.8053508E-01
        2   -1    0    0  501    0  0.00000000000E+00  0.00000000000E+00  0.25218352443E+04  0.25218352443E+04  0.25500000920E-02 0.  1.
       -2   -1    0    0    0  501  0.00000000000E+00  0.00000000000E+00 -0.14059351555E+04  0.14059351555E+04  0.25500000920E-02 0. -1.
    10030    2    1    2    0    0  0.00000000000E+00  0.00000000000E+00  0.11159000888E+04  0.39277703999E+04  0.37659191847E+04 0.  0.
        3    1    3    3  502    0  0.12006184959E+03 -0.53300307324E+03  0.24373457361E+04  0.24978313337E+04  0.10100000352E+00 0.  1.
       -3    1    3    3    0  502 -0.12006184959E+03  0.53300307324E+03 -0.13214456474E+04  0.14299390662E+04  0.10100000352E+00 0. -1.
</event>
<event>
 5   0  0.9341000E-08  0.3694624E+04  0.7818609E-02  0.8069154E-01
       -1   -1    0    0    0  501  0.00000000000E+00  0.00000000000E+00  0.12408641935E+04  0.12408641935E+04  0.50400001928E-02 0.  1.
        1   -1    0    0  501    0  0.00000000000E+00  0.00000000000E+00 -0.27501496819E+04  0.27501496819E+04  0.50400001928E-02 0. -1.
    10030    2    1    2    0    0  0.00000000000E+00  0.00000000000E+00 -0.15092854884E+04  0.39910138754E+04  0.36946243473E+04 0.  0.
        1    1    3    3  502    0 -0.10466124763E+04  0.40542212980E+02  0.88911307895E+03  0.13738862448E+04  0.50400001928E-02 0.  1.
       -1    1    3    3    0  502  0.10466124763E+04 -0.40542212980E+02 -0.23983985674E+04  0.26171276306E+04  0.50400001928E-02 0. -1.
</event>
<event>
 5   0  0.3032442E-07  0.3707191E+04  0.7818609E-02  0.8066370E-01
        2   -1    0    0  501    0  0.00000000000E+00  0.00000000000E+00  0.20268196585E+04  0.20268196585E+04  0.25500000920E-02 0.  1.
       -2   -1    0    0    0  501  0.00000000000E+00  0.00000000000E+00 -0.16951762313E+04  0.16951762313E+04  0.25500000920E-02 0. -1.
    10030    2    1    2    0    0  0.00000000000E+00  0.00000000000E+00  0.33164342713E+03  0.37219958898E+04  0.37071911255E+04 0.  0.
        3    1    3    3  502    0  0.14578701800E+04 -0.33342195035E+03  0.12653027394E+04  0.19589657198E+04  0.10100000352E+00 0.  1.
       -3    1    3    3    0  502 -0.14578701800E+04  0.33342195035E+03 -0.93365931224E+03  0.17630301700E+04  0.10100000352E+00 0. -1.
</event>
<event>
 5   0  0.2913025E-07  0.3678120E+04  0.7818609E-02  0.8072828E-01
       -2   -1    0    0    0  501  0.00000000000E+00  0.00000000000E+00  0.29382089521E+04  0.29382089521E+04  0.25500000920E-02 0. -1.
        2   -1    0    0  501    0  0.00000000000E+00  0.00000000000E+00 -0.11510897003E+04  0.11510897003E+04  0.25500000920E-02 0.  1.
    10030    2    1    2    0    0  0.00000000000E+00  0.00000000000E+00  0.17871192518E+04  0.40892986524E+04  0.36781202058E+04 0.  0.
        5    1    3    3  502    0 -0.16836903619E+04 -0.43658134995E+03  0.15575726124E+04  0.23348385475E+04  0.46999998093E+01 0.  1.
       -5    1    3    3    0  502  0.16836903619E+04  0.43658134995E+03  0.22954663938E+03  0.17544601049E+04  0.46999998093E+01 0. -1.
</event>
<event>
 5   0  0.9341000E-08  0.3690104E+04  0.7818609E-02  0.8070158E-01
       -1   -1    0    0    0  501  0.00000000000E+00  0.00000000000E+00  0.17530151689E+04  0.17530151690E+04  0.50400001928E-02 0. -1.
        1   -1    0    0  501    0  0.00000000000E+00  0.00000000000E+00 -0.19419207193E+04  0.19419207193E+04  0.50400001928E-02 0.  1.
    10030    2    1    2    0    0  0.00000000000E+00  0.00000000000E+00 -0.18890555032E+03  0.36949358882E+04  0.36901037805E+04 0.  0.
        1    1    3    3  502    0 -0.16107405369E+04 -0.29927714272E+03  0.75528359919E+03  0.18040247228E+04  0.50400001928E-02 0. -1.
       -1    1    3    3    0  502  0.16107405369E+04  0.29927714272E+03 -0.94418914951E+03  0.18909111654E+04  0.50400001928E-02 0.  1.
</event>
<event>
 5   0  0.9646615E-08  0.3610824E+04  0.7818609E-02  0.8088017E-01
       -1   -1    0    0    0  501  0.00000000000E+00  0.00000000000E+00  0.16586044999E+04  0.16586045000E+04  0.50400001928E-02 0.  1.
        1   -1    0    0  501    0  0.00000000000E+00  0.00000000000E+00 -0.19652142360E+04  0.19652142360E+04  0.50400001928E-02 0. -1.
    10030    2    1    2    0    0  0.00000000000E+00  0.00000000000E+00 -0.30660973609E+03  0.36238187360E+04  0.36108243797E+04 0.  0.
        2    1    3    3  502    0  0.86012180584E+03 -0.64056761386E+03 -0.16109009128E+04  0.19352359390E+04  0.25500000920E-02 0. -1.
       -2    1    3    3    0  502 -0.86012180584E+03  0.64056761386E+03  0.13042911767E+04  0.16885827970E+04  0.25500000920E-02 0.  1.
</event>
<event>
 5   0  0.2897133E-07  0.3672508E+04  0.7818609E-02  0.8074082E-01
        2   -1    0    0  501    0  0.00000000000E+00  0.00000000000E+00  0.11590493747E+04  0.11590493747E+04  0.25500000920E-02 0. -1.
       -2   -1    0    0    0  501  0.00000000000E+00  0.00000000000E+00 -0.29091329668E+04  0.29091329668E+04  0.25500000920E-02 0.  1.
    10030    2    1    2    0    0  0.00000000000E+00  0.00000000000E+00 -0.17500835921E+04  0.40681823415E+04  0.36725079965E+04 0.  0.
        4    1    3    3  502    0 -0.79447608968E+03  0.10772600777E+04 -0.22675129702E+04  0.26331156858E+04  0.12699999809E+01 0.  1.
       -4    1    3    3    0  502  0.79447608968E+03 -0.10772600777E+04  0.51742937807E+03  0.14350666557E+04  0.12699999809E+01 0. -1.
</event>
<event>
 5   0  0.2897133E-07  0.3718663E+04  0.7818609E-02  0.8063838E-01
        2   -1    0    0  501    0  0.00000000000E+00  0.00000000000E+00  0.21143651064E+04  0.21143651064E+04  0.25500000920E-02 0.  1.
       -2   -1    0    0    0  501  0.00000000000E+00  0.00000000000E+00 -0.16350603215E+04  0.16350603215E+04  0.25500000920E-02 0. -1.
    10030    2    1    2    0    0  0.00000000000E+00  0.00000000000E+00  0.47930478493E+03  0.37494254279E+04  0.37186634645E+04 0.  0.
        4    1    3    3  502    0 -0.18424808881E+04  0.19858269548E+03  0.86933356550E+02  0.18551899988E+04  0.12699999809E+01 0.  1.
       -4    1    3    3    0  502  0.18424808881E+04 -0.19858269548E+03  0.39237142838E+03  0.18942354291E+04  0.12699999809E+01 0. -1.
</event>
<event>
 5   0  0.3008879E-07  0.3708635E+04  0.7818609E-02  0.8066051E-01
        2   -1    0    0  501    0  0.00000000000E+00  0.00000000000E+00  0.17756419813E+04  0.17756419813E+04  0.25500000920E-02 0. -1.
       -2   -1    0    0    0  501  0.00000000000E+00  0.00000000000E+00 -0.19364794501E+04  0.19364794501E+04  0.25500000920E-02 0.  1.
    10030    2    1    2    0    0  0.00000000000E+00  0.00000000000E+00 -0.16083746884E+03  0.37121214314E+04  0.37086354405E+04 0.  0.
        2    1    3    3  502    0  0.54016720450E+03  0.20111990819E+03  0.16836976708E+04  0.17796257115E+04  0.25500000920E-02 0. -1.
       -2    1    3    3    0  502 -0.54016720450E+03 -0.20111990819E+03 -0.18445351396E+04  0.19324957199E+04  0.25500000920E-02 0.  1.
</event>
<event>
 5   0  0.2996969E-07  0.3696401E+04  0.7818609E-02  0.8068760E-01
       -2   -1    0    0    0  501  0.00000000000E+00  0.00000000000E+00  0.18427110340E+04  0.18427110341E+04  0.25500000920E-02 0.  1.
        2   -1    0    0  501    0  0.00000000000E+00  0.00000000000E+00 -0.18537065043E+04  0.18537065043E+04  0.25500000920E-02 0. -1.
    10030    2    1    2    0    0  0.00000000000E+00  0.00000000000E+00 -0.10995470234E+02  0.36964175383E+04  0.36964011846E+04 0.  0.
        1    1    3    3  502    0 -0.59633407178E+03  0.50208745892E+03 -0.16812555146E+04  0.18531935266E+04  0.50400001928E-02 0. -1.
       -1    1    3    3    0  502  0.59633407178E+03 -0.50208745892E+03  0.16702600444E+04  0.18432240117E+04  0.50400001928E-02 0.  1.
</event>
<event>
 5   0  0.2897133E-07  0.3692981E+04  0.7818609E-02  0.8069519E-01
        2   -1    0    0  501    0  0.00000000000E+00  0.00000000000E+00  0.20451864754E+04  0.20451864754E+04  0.25500000920E-02 0.  1.
       -2   -1    0    0    0  501  0.00000000000E+00  0.00000000000E+00 -0.16670983075E+04  0.16670983075E+04  0.25500000920E-02 0. -1.
    10030    2    1    2    0    0  0.00000000000E+00  0.00000000000E+00  0.37808816788E+03  0.37122847829E+04  0.36929808619E+04 0.  0.
        4    1    3    3  502    0  0.44735361212E+03 -0.14445927121E+04 -0.87599967215E+03  0.17476699907E+04  0.12699999809E+01 0. -1.
       -4    1    3    3    0  502 -0.44735361212E+03  0.14445927121E+04  0.12540878400E+04  0.19646147921E+04  0.12699999809E+01 0.  1.
</event>
<event>
 5   0  0.3032442E-07  0.3685260E+04  0.7818609E-02  0.8071236E-01
       -2   -1    0    0    0  501  0.00000000000E+00  0.00000000000E+00  0.23813176000E+04  0.23813176000E+04  0.25500000920E-02 0.  1.
        2   -1    0    0  501    0  0.00000000000E+00  0.00000000000E+00 -0.14258010274E+04  0.14258010274E+04  0.25500000920E-02 0. -1.
    10030    2    1    2    0    0  0.00000000000E+00  0.00000000000E+00  0.95551657267E+03  0.38071186274E+04  0.36852598718E+04 0.  0.
        3    1    3    3  502    0 -0.14397725777E+03 -0.23498406941E+03 -0.14043908685E+04  0.14311745824E+04  0.10100000352E+00 0. -1.
       -3    1    3    3    0  502  0.14397725777E+03  0.23498406941E+03  0.23599074412E+04  0.23759440450E+04  0.10100000352E+00 0.  1.
</event>
<event>
 5   0  0.9341000E-08  0.3620842E+04  0.7818609E-02  0.8085734E-01
        1   -1    0    0  501    0  0.00000000000E+00  0.00000000000E+00  0.19943723062E+04  0.19943723062E+04  0.50400001928E-02 0.  1.
       -1   -1    0    0    0  501  0.00000000000E+00  0.00000000000E+00 -0.16434360872E+04  0.16434360872E+04  0.50400001928E-02 0. -1.
    10030    2    1    2    0    0  0.00000000000E+00  0.00000000000E+00  0.35093621906E+03  0.36378083934E+04  0.36208415703E+04 0.  0.
        3    1    3    3  502    0  0.15041954517E+04 -0.91925101467E+03 -0.23877086479E+03  0.17789429223E+04  0.10100000352E+00 0. -1.
       -3    1    3    3    0  502 -0.15041954517E+04  0.91925101467E+03  0.58970708386E+03  0.18588654711E+04  0.10100000352E+00 0.  1.
</event>
<event>
 5   0  0.9341000E-08  0.3681321E+04  0.7818609E-02  0.8072114E-01
        1   -1    0    0  501    0  0.00000000000E+00  0.00000000000E+00  0.17525720380E+04  0.17525720380E+04  0.50400001928E-02 0. -1.
       -1   -1    0    0    0  501  0.00000000000E+00  0.00000000000E+00 -0.19331760320E+04  0.19331760320E+04  0.50400001928E-02 0.  1.
    10030    2    1    2    0    0  0.00000000000E+00  0.00000000000E+00 -0.18060399395E+03  0.36857480700E+04  0.36813205556E+04 0.  0.
        3    1    3    3  502    0 -0.99455133364E+01  0.15051231905E+04  0.97047002428E+03  0.17908955329E+04  0.10100000352E+00 0. -1.
       -3    1    3    3    0  502  0.99455133364E+01 -0.15051231905E+04 -0.11510740182E+04  0.18948525371E+04  0.10100000352E+00 0.  1.
</event>
<event>
 5   0  0.9341000E-08  0.3693146E+04  0.7818609E-02  0.8069482E-01
        1   -1    0    0  501    0  0.00000000000E+00  0.00000000000E+00  0.18276944183E+04  0.18276944183E+04  0.50400001928E-02 0.  1.
       -1   -1    0    0    0  501  0.00000000000E+00  0.00000000000E+00 -0.18656469938E+04  0.18656469939E+04  0.50400001928E-02 0. -1.
    10030    2    1    2    0    0  0.00000000000E+00  0.00000000000E+00 -0.37952575522E+02  0.36933414122E+04  0.36931464077E+04 0.  0.
        4    1    3    3  502    0 -0.18313301540E+04 -0.23493899184E+03  0.10428010298E+02  0.18463685491E+04  0.12699999809E+01 0. -1.
       -4    1    3    3    0  502  0.18313301540E+04  0.23493899184E+03 -0.48380585819E+02  0.18469728631E+04  0.12699999809E+01 0.  1.
</event>
<event>
 5   0  0.9341000E-08  0.3673834E+04  0.7818609E-02  0.8073785E-01
        1   -1    0    0  501    0  0.00000000000E+00  0.00000000000E+00  0.16470400466E+04  0.16470400466E+04  0.50400001928E-02 0. -1.
       -1   -1    0    0    0  501  0.00000000000E+00  0.00000000000E+00 -0.20486833336E+04  0.20486833336E+04  0.50400001928E-02 0.  1.
    10030    2    1    2    0    0  0.00000000000E+00  0.00000000000E+00 -0.40164328695E+03  0.36957233802E+04  0.36738336888E+04 0.  0.
        1    1    3    3  502    0 -0.16084204662E+04 -0.69472119160E+03  0.35438126430E+03  0.17875234294E+04  0.50400001928E-02 0. -1.
       -1    1    3    3    0  502  0.16084204662E+04  0.69472119160E+03 -0.75602455125E+03  0.19081999508E+04  0.50400001928E-02 0.  1.
</event>
<event>
 5   0  0.2996969E-07  0.3717332E+04  0.7818609E-02  0.8064132E-01
        2   -1    0    0  501    0  0.00000000000E+00  0.00000000000E+00  0.27649142650E+04  0.27649142650E+04  0.25500000920E-02 0. -1.
       -2   -1    0    0    0  501  0.00000000000E+00  0.00000000000E+00 -0.12494560945E+04  0.12494560945E+04  0.25500000920E-02 0.  1.
    10030    2    1    2    0    0  0.00000000000E+00  0.00000000000E+00  0.15154581705E+04  0.40143703594E+04  0.37173318276E+04 0.  0.
        1    1    3    3  502    0 -0.97865940333E+03 -0.11851719839E+04 -0.37088009662E+03  0.15811258347E+04  0.50400001928E-02 0.  1.
       -1    1    3    3    0  502  0.97865940333E+03  0.11851719839E+04  0.18863382671E+04  0.24332445247E+04  0.50400001928E-02 0. -1.
</event>
<event>
 5   0  0.2897133E-07  0.3710370E+04  0.7818609E-02  0.8065668E-01
        2   -1    0    0  501    0  0.00000000000E+00  0.00000000000E+00  0.20941311651E+04  0.20941311651E+04  0.25500000920E-02 0.  1.
       -2   -1    0    0    0  501  0.00000000000E+00  0.00000000000E+00 -0.16435031629E+04  0.16435031629E+04  0.25500000920E-02 0. -1.
    10030    2    1    2    0    0  0.00000000000E+00  0.00000000000E+00  0.45062800223E+03  0.37376343280E+04  0.37103698971E+04 0.  0.
        4    1    3    3  502    0  0.16067155906E+04 -0.76476652919E+03 -0.30323837524E+03  0.18050922298E+04  0.12699999809E+01 0. -1.
       -4    1    3    3    0  502 -0.16067155906E+04  0.76476652919E+03  0.75386637746E+03  0.19325420981E+04  0.12699999809E+01 0.  1.
</event>
<event>
 5   0  0.3008879E-07  0.3705509E+04  0.7818609E-02  0.8066742E-01
        2   -1    0    0  501    0  0.00000000000E+00  0.00000000000E+00  0.16587725695E+04  0.16587725695E+04  0.25500000920E-02 0.  1.
       -2   -1    0    0    0  501  0.00000000000E+00  0.00000000000E+00 -0.20694213697E+04  0.20694213697E+04  0.25500000920E-02 0. -1.
    10030    2    1    2    0    0  0.00000000000E+00  0.00000000000E+00 -0.41064880017E+03  0.37281939392E+04  0.37055090893E+04 0.  0.
        2    1    3    3  502    0 -0.70813453481E+03  0.15830875352E+04 -0.86129640489E+03  0.19363502164E+04  0.25500000920E-02 0. -1.
       -2    1    3    3    0  502  0.70813453481E+03 -0.15830875352E+04  0.45064760473E+03  0.17918437228E+04  0.25500000920E-02 0.  1.
</event>
<event>
 5   0  0.9341000E-08  0.3678926E+04  0.7818609E-02  0.8072648E-01
        3   -1    0    0  501    0  0.00000000000E+00  0.00000000000E+00  0.19800571832E+04  0.19800571858E+04  0.10100000352E+00 0. -1.
       -3   -1    0    0    0  501  0.00000000000E+00  0.00000000000E+00 -0.17088518593E+04  0.17088518622E+04  0.10100000352E+00 0.  1.
    10030    2    1    2    0    0  0.00000000000E+00  0.00000000000E+00  0.27120532398E+03  0.36889090480E+04  0.36789261527E+04 0.  0.
        1    1    3    3  502    0 -0.14058787060E+03  0.60246100568E+02 -0.17024644785E+04  0.17093214568E+04  0.50400001928E-02 0.  1.
       -1    1    3    3    0  502  0.14058787060E+03 -0.60246100568E+02  0.19736698025E+04  0.19795875912E+04  0.50400001928E-02 0. -1.
</event>
<event>
 5   0  0.9341000E-08  0.3687870E+04  0.7818609E-02  0.8070655E-01
       -1   -1    0    0    0  501  0.00000000000E+00  0.00000000000E+00  0.16182966392E+04  0.16182966392E+04  0.50400001928E-02 0.  1.
        1   -1    0    0  501    0  0.00000000000E+00  0.00000000000E+00 -0.21010335584E+04  0.21010335584E+04  0.50400001928E-02 0. -1.
    10030    2    1    2    0    0  0.00000000000E+00  0.00000000000E+00 -0.48273691925E+03  0.37193301977E+04  0.36878695999E+04 0.  0.
        3    1    3    3  502    0 -0.32219825217E+03 -0.14700670581E+04  0.83317211901E+03  0.17201990173E+04  0.10100000352E+00 0.  1.
       -3    1    3    3    0  502  0.32219825217E+03  0.14700670581E+04 -0.13159090383E+04  0.19991311803E+04  0.10100000352E+00 0. -1.
</event>
<event>
 5   0  0.2996969E-07  0.3655436E+04  0.7818609E-02  0.8077910E-01
       -2   -1    0    0    0  501  0.00000000000E+00  0.00000000000E+00  0.17010127067E+04  0.17010127067E+04  0.25500000920E-02 0. -1.
        2   -1    0    0  501    0  0.00000000000E+00  0.00000000000E+00 -0.19638613654E+04  0.19638613654E+04  0.25500000920E-02 0.  1.
    10030    2    1    2    0    0  0.00000000000E+00  0.00000000000E+00 -0.26284865866E+03  0.36648740722E+04  0.36554360270E+04 0.  0.
        1    1    3    3  502    0 -0.13283447357E+04  0.40506913383E+03  0.10599081223E+04  0.17469934081E+04  0.50400001928E-02 0.  1.
       -1    1    3    3    0  502  0.13283447357E+04 -0.40506913383E+03 -0.13227567810E+04  0.19178806641E+04  0.50400001928E-02 0. -1.
</event>
<event>
 5   0  0.9341000E-08  0.3697977E+04  0.7818609E-02  0.8068410E-01
       -1   -1    0    0    0  501  0.00000000000E+00  0.00000000000E+00  0.12319859609E+04  0.12319859610E+04  0.50400001928E-02 0. -1.
        1   -1    0    0  501    0  0.00000000000E+00  0.00000000000E+00 -0.27749972158E+04  0.27749972158E+04  0.50400001928E-02 0.  1.
    10030    2    1    2    0    0  0.00000000000E+00  0.00000000000E+00 -0.15430112549E+04  0.40069831768E+04  0.36979765341E+04 0.  0.
        4    1    3    3  502    0  0.18328600526E+03 -0.29524530735E+03  0.11962818681E+04  0.12457349124E+04  0.12699999809E+01 0. -1.
       -4    1    3    3    0  502 -0.18328600526E+03  0.29524530735E+03 -0.27392931230E+04  0.27612482644E+04  0.12699999809E+01 0.  1.
</event>
<event>
 5   0  0.9341000E-08  0.3637443E+04  0.7818609E-02  0.8081968E-01
       -1   -1    0    0    0  501  0.00000000000E+00  0.00000000000E+00  0.35486507768E+04  0.35486507768E+04  0.50400001928E-02 0. -1.
        1   -1    0    0  501    0  0.00000000000E+00  0.00000000000E+00 -0.93211403516E+03  0.93211403517E+03  0.50400001928E-02 0.  1.
    10030    2    1    2    0    0  0.00000000000E+00  0.00000000000E+00  0.26165367416E+04  0.44807648120E+04  0.36374426153E+04 0.  0.
        3    1    3    3  502    0  0.40607703532E+03 -0.16642027035E+04  0.20608821906E+04  0.26798702600E+04  0.10100000352E+00 0. -1.
       -3    1    3    3    0  502 -0.40607703532E+03  0.16642027035E+04  0.55565455106E+03  0.18008945519E+04  0.10100000352E+00 0.  1.
</event>
<event>
 5   0  0.9341000E-08  0.3717849E+04  0.7818609E-02  0.8064018E-01
       -1   -1    0    0    0  501  0.00000000000E+00  0.00000000000E+00  0.12489520757E+04  0.12489520757E+04  0.50400001928E-02 0.  1.
        1   -1    0    0  501    0  0.00000000000E+00  0.00000000000E+00 -0.27668002213E+04  0.27668002213E+04  0.50400001928E-02 0. -1.
    10030    2    1    2    0    0  0.00000000000E+00  0.00000000000E+00 -0.15178481456E+04  0.40157522970E+04  0.37178493135E+04 0.  0.
        1    1    3    3  502    0 -0.40717157281E+02 -0.12399921909E+04  0.73632640136E+03  0.14427110209E+04  0.50400001928E-02 0.  1.
       -1    1    3    3    0  502  0.40717157281E+02  0.12399921909E+04 -0.22541745469E+04  0.25730412761E+04  0.50400001928E-02 0. -1.
</event>
<event>
 5   0  0.9341000E-08  0.3698521E+04  0.7818609E-02  0.8068290E-01
        3   -1    0    0  501    0  0.00000000000E+00  0.00000000000E+00  0.16837934059E+04  0.16837934090E+04  0.10100000352E+00 0.  1.
       -3   -1    0    0    0  501  0.00000000000E+00  0.00000000000E+00 -0.20309879866E+04  0.20309879891E+04  0.10100000352E+00 0. -1.
    10030    2    1    2    0    0  0.00000000000E+00  0.00000000000E+00 -0.34719458067E+03  0.37147813981E+04  0.36985208880E+04 0.  0.
        1    1    3    3  502    0  0.12668658020E+04  0.95005493182E+03  0.78569908724E+03  0.17677319903E+04  0.50400001928E-02 0. -1.
       -1    1    3    3    0  502 -0.12668658020E+04 -0.95005493182E+03 -0.11328936679E+04  0.19470494078E+04  0.50400001928E-02 0.  1.
</event>
<event>
 5   0  0.9341000E-08  0.3686333E+04  0.7818609E-02  0.8070997E-01
       -1   -1    0    0    0  501  0.00000000000E+00  0.00000000000E+00  0.10602902399E+04  0.10602902399E+04  0.50400001928E-02 0. -1.
        1   -1    0    0  501    0  0.00000000000E+00  0.00000000000E+00 -0.32040868968E+04  0.32040868968E+04  0.50400001928E-02 0.  1.
    10030    2    1    2    0    0  0.00000000000E+00  0.00000000000E+00 -0.21437966568E+04  0.42643771367E+04  0.36863326299E+04 0.  0.
        3    1    3    3  502    0 -0.18135393112E+03  0.18450390448E+03 -0.31829788239E+04  0.31934754019E+04  0.10100000352E+00 0.  1.
       -3    1    3    3    0  502  0.18135393112E+03 -0.18450390448E+03  0.10391821670E+04  0.10709017348E+04  0.10100000352E+00 0. -1.
</event>
<event>
 5   0  0.2897133E-07  0.3694808E+04  0.7818609E-02  0.8069113E-01
       -2   -1    0    0    0  501  0.00000000000E+00  0.00000000000E+00  0.12766527127E+04  0.12766527127E+04  0.25500000920E-02 0.  1.
        2   -1    0    0  501    0  0.00000000000E+00  0.00000000000E+00 -0.26733202114E+04  0.26733202114E+04  0.25500000920E-02 0. -1.
    10030    2    1    2    0    0  0.00000000000E+00  0.00000000000E+00 -0.13966674987E+04  0.39499729242E+04  0.36948079787E+04 0.  0.
        4    1    3    3  502    0 -0.93467633299E+03  0.13159772985E+04 -0.16589925200E+04  0.23146649632E+04  0.12699999809E+01 0.  1.
       -4    1    3    3    0  502  0.93467633299E+03 -0.13159772985E+04  0.26232502128E+03  0.16353079610E+04  0.12699999809E+01 0. -1.
</event>
<event>
 5   0  0.2996969E-07  0.3642988E+04  0.7818609E-02  0.8080715E-01
        2   -1    0    0  501    0  0.00000000000E+00  0.00000000000E+00  0.16365616903E+04  0.16365616903E+04  0.25500000920E-02 0. -1.
       -2   -1    0    0    0  501  0.00000000000E+00  0.00000000000E+00 -0.20273234106E+04  0.20273234106E+04  0.25500000920E-02 0.  1.
    10030    2    1    2    0    0  0.00000000000E+00  0.00000000000E+00 -0.39076172035E+03  0.36638851009E+04  0.36429876902E+04 0.  0.
        1    1    3    3  502    0  0.10327923553E+04 -0.78967031862E+03  0.10877119110E+04  0.16950977737E+04  0.50400001928E-02 0. -1.
       -1    1    3    3    0  502 -0.10327923553E+04  0.78967031862E+03 -0.14784736313E+04  0.19687873272E+04  0.50400001928E-02 0.  1.
</event>
<event>
 5   0  0.9341000E-08  0.3709494E+04  0.7818609E-02  0.8065861E-01
        1   -1    0    0  501    0  0.00000000000E+00  0.00000000000E+00  0.12840347479E+04  0.12840347479E+04  0.50400001928E-02 0.  1.
       -1   -1    0    0    0  501  0.00000000000E+00  0.00000000000E+00 -0.26791228304E+04  0.26791228304E+04  0.50400001928E-02 0. -1.
    10030    2    1    2    0    0  0.00000000000E+00  0.00000000000E+00 -0.13950880825E+04  0.39631575783E+04  0.37094942016E+04 0.  0.
        4    1    3    3  502    0 -0.12744446071E+04 -0.74036802088E+03 -0.19004737646E+04  0.24050272360E+04  0.12699999809E+01 0. -1.
       -4    1    3    3    0  502  0.12744446071E+04  0.74036802088E+03  0.50538568205E+03  0.15581303423E+04  0.12699999809E+01 0.  1.
</event>
<event>
 5   0  0.2913025E-07  0.3853687E+04  0.7818609E-02  0.8034731E-01
        2   -1    0    0  501    0  0.00000000000E+00  0.00000000000E+00  0.16161798537E+04  0.16161798537E+04  0.25500000920E-02 0. -1.
       -2   -1    0    0    0  501  0.00000000000E+00  0.00000000000E+00 -0.22972227355E+04  0.22972227355E+04  0.25500000920E-02 0.  1.
    10030    2    1    2    0    0  0.00000000000E+00  0.00000000000E+00 -0.68104288180E+03  0.39134025892E+04  0.38536866010E+04 0.  0.
        5    1    3    3  502    0 -0.70661554784E+03 -0.15837260261E+04  0.51225887614E+03  0.18082933679E+04  0.46999998093E+01 0. -1.
       -5    1    3    3    0  502  0.70661554784E+03  0.15837260261E+04 -0.11933017579E+04  0.21051092213E+04  0.46999998093E+01 0.  1.
</event>
<event>
 5   0  0.9341000E-08  0.3701124E+04  0.7818609E-02  0.8067713E-01
        1   -1    0    0  501    0  0.00000000000E+00  0.00000000000E+00  0.17304113303E+04  0.17304113303E+04  0.50400001928E-02 0.  1.
       -1   -1    0    0    0  501  0.00000000000E+00  0.00000000000E+00 -0.19790556704E+04  0.19790556704E+04  0.50400001928E-02 0. -1.
    10030    2    1    2    0    0  0.00000000000E+00  0.00000000000E+00 -0.24864434004E+03  0.37094670007E+04  0.37011243456E+04 0.  0.
        4    1    3    3  502    0 -0.12986135757E+04  0.18889870165E+03 -0.14320616755E+04  0.19423908447E+04  0.12699999809E+01 0. -1.
       -4    1    3    3    0  502  0.12986135757E+04 -0.18889870165E+03  0.11834173354E+04  0.17670761560E+04  0.12699999809E+01 0.  1.
</event>
<event>
 5   0  0.9341000E-08  0.3690875E+04  0.7818609E-02  0.8069987E-01
       -1   -1    0    0    0  501  0.00000000000E+00  0.00000000000E+00  0.14164164906E+04  0.14164164906E+04  0.50400001928E-02 0.  1.
        1   -1    0    0  501    0  0.00000000000E+00  0.00000000000E+00 -0.24044051028E+04  0.24044051028E+04  0.50400001928E-02 0. -1.
    10030    2    1    2    0    0  0.00000000000E+00  0.00000000000E+00 -0.98798861223E+03  0.38208215933E+04  0.36908747134E+04 0.  0.
        1    1    3    3  502    0  0.13527547295E+04  0.74528050265E+03 -0.15396311959E+04  0.21807917382E+04  0.50400001928E-02 0. -1.
       -1    1    3    3    0  502 -0.13527547295E+04 -0.74528050265E+03  0.55164258371E+03  0.16400298552E+04  0.50400001928E-02 0.  1.
</event>
<event>
 5   0  0.9341000E-08  0.3619389E+04  0.7818609E-02  0.8086065E-01
        1   -1    0    0  501    0  0.00000000000E+00  0.00000000000E+00  0.13990618410E+04  0.13990618410E+04  0.50400001928E-02 0.  1.
       -1   -1    0    0    0  501  0.00000000000E+00  0.00000000000E+00 -0.23408498651E+04  0.23408498651E+04  0.50400001928E-02 0. -1.
    10030    2    1    2    0    0  0.00000000000E+00  0.00000000000E+00 -0.94178802412E+03  0.37399117061E+04  0.36193887450E+04 0.  0.
        3    1    3    3  502    0 -0.15326036700E+03 -0.19418322176E+03 -0.23232966701E+04  0.23364296033E+04  0.10100000352E+00 0. -1.
       -3    1    3    3    0  502  0.15326036700E+03  0.19418322176E+03  0.13815086460E+04  0.14034821028E+04  0.10100000352E+00 0.  1.
</event>
<event>
 5   0  0.9341000E-08  0.3694392E+04  0.7818609E-02  0.8069206E-01
        1   -1    0    0  501    0  0.00000000000E+00  0.00000000000E+00  0.14407830020E+04  0.14407830020E+04  0.50400001928E-02 0. -1.
       -1   -1    0    0    0  501  0.00000000000E+00  0.00000000000E+00 -0.23682491832E+04  0.23682491832E+04  0.50400001928E-02 0.  1.
    10030    2    1    2    0    0  0.00000000000E+00  0.00000000000E+00 -0.92746618121E+03  0.38090321852E+04  0.36943920570E+04 0.  0.
        3    1    3    3  502    0 -0.54843616946E+03 -0.10775521988E+02  0.13548705468E+04  0.14617019370E+04  0.10100000352E+00 0. -1.
       -3    1    3    3    0  502  0.54843616946E+03  0.10775521988E+02 -0.22823367280E+04  0.23473302482E+04  0.10100000352E+00 0.  1.
</event>
<event>
 5   0  0.2913025E-07  0.3719577E+04  0.7818609E-02  0.8063637E-01
        2   -1    0    0  501    0  0.00000000000E+00  0.00000000000E+00  0.27793741782E+04  0.27793741782E+04  0.25500000920E-02 0. -1.
       -2   -1    0    0    0  501  0.00000000000E+00  0.00000000000E+00 -0.12444573499E+04  0.12444573499E+04  0.25500000920E-02 0.  1.
    10030    2    1    2    0    0  0.00000000000E+00  0.00000000000E+00  0.15349168283E+04  0.40238315280E+04  0.37195766555E+04 0.  0.
        5    1    3    3  502    0 -0.14259832484E+04  0.57185887222E+03 -0.36628460099E+03  0.15794420829E+04  0.46999998093E+01 0.  1.
       -5    1    3    3    0  502  0.14259832484E+04 -0.57185887222E+03  0.19012014293E+04  0.24443894451E+04  0.46999998093E+01 0. -1.
</event>
<event>
 5   0  0.2996969E-07  0.3690450E+04  0.7818609E-02  0.8070082E-01
       -2   -1    0    0    0  501  0.00000000000E+00  0.00000000000E+00  0.16902114910E+04  0.16902114910E+04  0.25500000920E-02 0.  1.
        2   -1    0    0  501    0  0.00000000000E+00  0.00000000000E+00 -0.20144550754E+04  0.20144550754E+04  0.25500000920E-02 0. -1.
    10030    2    1    2    0    0  0.00000000000E+00  0.00000000000E+00 -0.32424358445E+03  0.37046665664E+04  0.36904499002E+04 0.  0.
        1    1    3    3  502    0  0.75987594619E+03 -0.10723753887E+04 -0.14622770331E+04  0.19661267888E+04  0.50400001928E-02 0. -1.
       -1    1    3    3    0  502 -0.75987594619E+03  0.10723753887E+04  0.11380334487E+04  0.17385397776E+04  0.50400001928E-02 0.  1.
</event>
<event>
 5   0  0.9341000E-08  0.3689832E+04  0.7818609E-02  0.8070219E-01
       -1   -1    0    0    0  501  0.00000000000E+00  0.00000000000E+00  0.17768961849E+04  0.17768961849E+04  0.50400001928E-02 0. -1.
        1   -1    0    0  501    0  0.00000000000E+00  0.00000000000E+00 -0.19155392153E+04  0.19155392153E+04  0.50400001928E-02 0.  1.
    10030    2    1    2    0    0  0.00000000000E+00  0.00000000000E+00 -0.13864303040E+03  0.36924354003E+04  0.36898316080E+04 0.  0.
        4    1    3    3  502    0 -0.82387314309E+03 -0.16359721990E+04  0.15115354114E+03  0.18379393346E+04  0.12699999809E+01 0.  1.
       -4    1    3    3    0  502  0.82387314309E+03  0.16359721990E+04 -0.28979657154E+03  0.18544960657E+04  0.12699999809E+01 0. -1.
</event>
<event>
 5   0  0.9341000E-08  0.3648875E+04  0.7818609E-02  0.8079387E-01
        1   -1    0    0  501    0  0.00000000000E+00  0.00000000000E+00  0.21872458601E+04  0.21872458601E+04  0.50400001928E-02 0. -1.
       -1   -1    0    0    0  501  0.00000000000E+00  0.00000000000E+00 -0.15218097432E+04  0.15218097432E+04  0.50400001928E-02 0.  1.
    10030    2    1    2    0    0  0.00000000000E+00  0.00000000000E+00  0.66543611688E+03  0.37090556032E+04  0.36488749283E+04 0.  0.
        3    1    3    3  502    0 -0.65565180138E+03  0.13107147969E+04 -0.77181249064E+03  0.16563656282E+04  0.10100000352E+00 0.  1.
       -3    1    3    3    0  502  0.65565180138E+03 -0.13107147969E+04  0.14372486075E+04  0.20526899750E+04  0.10100000352E+00 0. -1.
</event>
<event>
 5   0  0.2913025E-07  0.3744805E+04  0.7818609E-02  0.8058104E-01
        2   -1    0    0  501    0  0.00000000000E+00  0.00000000000E+00  0.26170266165E+04  0.26170266165E+04  0.25500000920E-02 0. -1.
       -2   -1    0    0    0  501  0.00000000000E+00  0.00000000000E+00 -0.13396466232E+04  0.13396466232E+04  0.25500000920E-02 0.  1.
    10030    2    1    2    0    0  0.00000000000E+00  0.00000000000E+00  0.12773799933E+04  0.39566732397E+04  0.37448048653E+04 0.  0.
        5    1    3    3  502    0  0.11272886630E+04  0.33647878627E+03  0.21777674987E+04  0.24752153587E+04  0.46999998093E+01 0. -1.
       -5    1    3    3    0  502 -0.11272886630E+04 -0.33647878627E+03 -0.90038750547E+03  0.14814578811E+04  0.46999998093E+01 0.  1.
</event>
<event>
 5   0  0.9418945E-08  0.3656290E+04  0.7818609E-02  0.8077718E-01
        1   -1    0    0  501    0  0.00000000000E+00  0.00000000000E+00  0.19872551729E+04  0.19872551729E+04  0.50400001928E-02 0.  1.
       -1   -1    0    0    0  501  0.00000000000E+00  0.00000000000E+00 -0.16817743014E+04  0.16817743014E+04  0.50400001928E-02 0. -1.
    10030    2    1    2    0    0  0.00000000000E+00  0.00000000000E+00  0.30548087154E+03  0.36690294743E+04  0.36562902949E+04 0.  0.
        5    1    3    3  502    0 -0.74466457752E+03  0.30732543693E+02 -0.15223938262E+04  0.16950442102E+04  0.46999998093E+01 0. -1.
       -5    1    3    3    0  502  0.74466457752E+03 -0.30732543693E+02  0.18278746978E+04  0.19739852641E+04  0.46999998093E+01 0.  1.
</event>
<event>
 5   0  0.9341000E-08  0.3635206E+04  0.7818609E-02  0.8082475E-01
        1   -1    0    0  501    0  0.00000000000E+00  0.00000000000E+00  0.13267100250E+04  0.13267100250E+04  0.50400001928E-02 0.  1.
       -1   -1    0    0    0  501  0.00000000000E+00  0.00000000000E+00 -0.24901306664E+04  0.24901306664E+04  0.50400001928E-02 0. -1.
    10030    2    1    2    0    0  0.00000000000E+00  0.00000000000E+00 -0.11634206413E+04  0.38168406914E+04  0.36352063593E+04 0.  0.
        3    1    3    3  502    0 -0.92228686793E+03  0.15039172924E+04 -0.10409438680E+04  0.20484004579E+04  0.10100000352E+00 0. -1.
       -3    1    3    3    0  502  0.92228686793E+03 -0.15039172924E+04 -0.12247677334E+03  0.17684402335E+04  0.10100000352E+00 0.  1.
</event>
<event>
 5   0  0.2897133E-07  0.3702606E+04  0.7818609E-02  0.8067385E-01
        2   -1    0    0  501    0  0.00000000000E+00  0.00000000000E+00  0.28425127467E+04  0.28425127468E+04  0.25500000920E-02 0.  1.
       -2   -1    0    0    0  501  0.00000000000E+00  0.00000000000E+00 -0.12057369221E+04  0.12057369221E+04  0.25500000920E-02 0. -1.
    10030    2    1    2    0    0  0.00000000000E+00  0.00000000000E+00  0.16367758246E+04  0.40482496689E+04  0.37026058772E+04 0.  0.
        4    1    3    3  502    0  0.15517187838E+04  0.90004479125E+03  0.13187191596E+04  0.22264172217E+04  0.12699999809E+01 0.  1.
       -4    1    3    3    0  502 -0.15517187838E+04 -0.90004479125E+03  0.31805666500E+03  0.18218324471E+04  0.12699999809E+01 0. -1.
</event>
<event>
 5   0  0.3008879E-07  0.3683594E+04  0.7818609E-02  0.8071607E-01
       -2   -1    0    0    0  501  0.00000000000E+00  0.00000000000E+00  0.22222065172E+04  0.22222065172E+04  0.25500000920E-02 0. -1.
        2   -1    0    0  501    0  0.00000000000E+00  0.00000000000E+00 -0.15265081358E+04  0.15265081358E+04  0.25500000920E-02 0.  1.
    10030    2    1    2    0    0  0.00000000000E+00  0.00000000000E+00  0.69569838142E+03  0.37487146531E+04  0.36835940754E+04 0.  0.
        2    1    3    3  502    0  0.33656997606E+03 -0.84706188857E+03  0.19765873895E+04  0.21766237388E+04  0.25500000920E-02 0. -1.
       -2    1    3    3    0  502 -0.33656997606E+03  0.84706188857E+03 -0.12808890081E+04  0.15720909143E+04  0.25500000920E-02 0.  1.
</event>
<event>
 5   0  0.9646615E-08  0.3721711E+04  0.7818609E-02  0.8063167E-01
       -1   -1    0    0    0  501  0.00000000000E+00  0.00000000000E+00  0.13797342635E+04  0.13797342635E+04  0.50400001928E-02 0.  1.
        1   -1    0    0  501    0  0.00000000000E+00  0.00000000000E+00 -0.25097468662E+04  0.25097468662E+04  0.50400001928E-02 0. -1.
    10030    2    1    2    0    0  0.00000000000E+00  0.00000000000E+00 -0.11300126027E+04  0.38894811297E+04  0.37217112967E+04 0.  0.
        2    1    3    3  502    0 -0.10712685243E+04  0.13211060376E+04 -0.13539170369E+04  0.21739431356E+04  0.25500000920E-02 0. -1.
       -2    1    3    3    0  502  0.10712685243E+04 -0.13211060376E+04  0.22390443426E+03  0.17155379942E+04  0.25500000920E-02 0.  1.
</event>
<event>
 5   0  0.3008879E-07  0.3773798E+04  0.7818609E-02  0.8051801E-01
        2   -1    0    0  501    0  0.00000000000E+00  0.00000000000E+00  0.27476846445E+04  0.27476846445E+04  0.25500000920E-02 0.  1.
       -2   -1    0    0    0  501  0.00000000000E+00  0.00000000000E+00 -0.12957776845E+04  0.12957776846E+04  0.25500000920E-02 0. -1.
    10030    2    1    2    0    0  0.00000000000E+00  0.00000000000E+00  0.14519069599E+04  0.40434623290E+04  0.37737983234E+04 0.  0.
        2    1    3    3  502    0 -0.14542033950E+04 -0.47604353659E+03  0.19089620080E+04  0.24465201636E+04  0.25500000920E-02 0.  1.
       -2    1    3    3    0  502  0.14542033950E+04  0.47604353659E+03 -0.45705504806E+03  0.15969421654E+04  0.25500000920E-02 0. -1.
</event>
<event>
 5   0  0.9646615E-08  0.3685248E+04  0.7818609E-02  0.8071239E-01
        1   -1    0    0  501    0  0.00000000000E+00  0.00000000000E+00  0.24560983396E+04  0.24560983396E+04  0.50400001928E-02 0. -1.
       -1   -1    0    0    0  501  0.00000000000E+00  0.00000000000E+00 -0.13823808426E+04  0.13823808427E+04  0.50400001928E-02 0.  1.
    10030    2    1    2    0    0  0.00000000000E+00  0.00000000000E+00  0.10737174969E+04  0.38384791822E+04  0.36852480472E+04 0.  0.
        2    1    3    3  502    0 -0.77096798563E+03  0.10715817242E+04  0.18758393081E+04  0.22937855471E+04  0.25500000920E-02 0. -1.
       -2    1    3    3    0  502  0.77096798563E+03 -0.10715817242E+04 -0.80212181113E+03  0.15446936351E+04  0.25500000920E-02 0.  1.
</event>
<event>
 5   0  0.9341000E-08  0.3704143E+04  0.7818609E-02  0.8067044E-01
        1   -1    0    0  501    0  0.00000000000E+00  0.00000000000E+00  0.16847974612E+04  0.16847974612E+04  0.50400001928E-02 0. -1.
       -1   -1    0    0    0  501  0.00000000000E+00  0.00000000000E+00 -0.20359536281E+04  0.20359536281E+04  0.50400001928E-02 0.  1.
    10030    2    1    2    0    0  0.00000000000E+00  0.00000000000E+00 -0.35115616689E+03  0.37207510894E+04  0.37041433579E+04 0.  0.
        1    1    3    3  502    0 -0.83527713119E+03  0.84008712758E+02 -0.18338657910E+04  0.20168810300E+04  0.50400001928E-02 0.  1.
       -1    1    3    3    0  502  0.83527713119E+03 -0.84008712758E+02  0.14827096241E+04  0.17038700594E+04  0.50400001928E-02 0. -1.
</event>
<event>
 5   0  0.3008879E-07  0.3700893E+04  0.7818609E-02  0.8067764E-01
       -2   -1    0    0    0  501  0.00000000000E+00  0.00000000000E+00  0.20945930950E+04  0.20945930950E+04  0.25500000920E-02 0.  1.
        2   -1    0    0  501    0  0.00000000000E+00  0.00000000000E+00 -0.16347576094E+04  0.16347576094E+04  0.25500000920E-02 0. -1.
    10030    2    1    2    0    0  0.00000000000E+00  0.00000000000E+00  0.45983548562E+03  0.37293507045E+04  0.37008928657E+04 0.  0.
        2    1    3    3  502    0  0.45657574329E+03 -0.56323779243E+03 -0.14856580215E+04  0.16531418502E+04  0.25500000920E-02 0. -1.
       -2    1    3    3    0  502 -0.45657574329E+03  0.56323779243E+03  0.19454935071E+04  0.20762088542E+04  0.25500000920E-02 0.  1.
</event>
<event>
 5   0  0.2897133E-07  0.3760909E+04  0.7818609E-02  0.8054596E-01
       -2   -1    0    0    0  501  0.00000000000E+00  0.00000000000E+00  0.14127499011E+04  0.14127499011E+04  0.25500000920E-02 0. -1.
        2   -1    0    0  501    0  0.00000000000E+00  0.00000000000E+00 -0.25029969102E+04  0.25029969102E+04  0.25500000920E-02 0.  1.
    10030    2    1    2    0    0  0.00000000000E+00  0.00000000000E+00 -0.10902470091E+04  0.39157468113E+04  0.37609087398E+04 0.  0.
        4    1    3    3  502    0  0.16651560697E+04  0.81868561378E+03 -0.22741098953E+03  0.18694138765E+04  0.12699999809E+01 0. -1.
       -4    1    3    3    0  502 -0.16651560697E+04 -0.81868561378E+03 -0.86283601960E+03  0.20463329348E+04  0.12699999809E+01 0.  1.
</event>
<event>
 5   0  0.2996969E-07  0.3677481E+04  0.7818609E-02  0.8072971E-01
        2   -1    0    0  501    0  0.00000000000E+00  0.00000000000E+00  0.19735058139E+04  0.19735058139E+04  0.25500000920E-02 0.  1.
       -2   -1    0    0    0  501  0.00000000000E+00  0.00000000000E+00 -0.17131783473E+04  0.17131783473E+04  0.25500000920E-02 0. -1.
    10030    2    1    2    0    0  0.00000000000E+00  0.00000000000E+00  0.26032746662E+03  0.36866841612E+04  0.36774814363E+04 0.  0.
        1    1    3    3  502    0 -0.12537385366E+04 -0.56015050886E+03  0.13560641825E+04  0.19299064686E+04  0.50400001928E-02 0.  1.
       -1    1    3    3    0  502  0.12537385366E+04  0.56015050886E+03 -0.10957367158E+04  0.17567776926E+04  0.50400001928E-02 0. -1.
</event>
<event>
 5   0  0.2996969E-07  0.3673204E+04  0.7818609E-02  0.8073926E-01
        2   -1    0    0  501    0  0.00000000000E+00  0.00000000000E+00  0.21111959546E+04  0.21111959546E+04  0.25500000920E-02 0.  1.
       -2   -1    0    0    0  501  0.00000000000E+00  0.00000000000E+00 -0.15977230676E+04  0.15977230676E+04  0.25500000920E-02 0. -1.
    10030    2    1    2    0    0  0.00000000000E+00  0.00000000000E+00  0.51347288697E+03  0.37089190222E+04  0.36732037662E+04 0.  0.
        1    1    3    3  502    0 -0.31403210178E+03 -0.60670989007E+03  0.19781274579E+04  0.20927735882E+04  0.50400001928E-02 0.  1.
       -1    1    3    3    0  502  0.31403210178E+03  0.60670989007E+03 -0.14646545710E+04  0.16161454340E+04  0.50400001928E-02 0. -1.
</event>
<event>
 5   0  0.9646615E-08  0.3690053E+04  0.7818609E-02  0.8070170E-01
        1   -1    0    0  501    0  0.00000000000E+00  0.00000000000E+00  0.12519501517E+04  0.12519501517E+04  0.50400001928E-02 0.  1.
       -1   -1    0    0    0  501  0.00000000000E+00  0.00000000000E+00 -0.27190555321E+04  0.27190555321E+04  0.50400001928E-02 0. -1.
    10030    2    1    2    0    0  0.00000000000E+00  0.00000000000E+00 -0.14671053804E+04  0.39710056839E+04  0.36900525666E+04 0.  0.
        2    1    3    3  502    0  0.18113007710E+04 -0.22862424387E+03 -0.10203842572E+04  0.20914740162E+04  0.25500000920E-02 0.  1.
       -2    1    3    3    0  502 -0.18113007710E+04  0.22862424387E+03 -0.44672112318E+03  0.18795316677E+04  0.25500000920E-02 0. -1.
</event>
<event>
 5   0  0.9646615E-08  0.3717423E+04  0.7818609E-02  0.8064112E-01
       -1   -1    0    0    0  501  0.00000000000E+00  0.00000000000E+00  0.14875725480E+04  0.14875725480E+04  0.50400001928E-02 0.  1.
        1   -1    0    0  501    0  0.00000000000E+00  0.00000000000E+00 -0.23224470037E+04  0.23224470037E+04  0.50400001928E-02 0. -1.
    10030    2    1    2    0    0  0.00000000000E+00  0.00000000000E+00 -0.83487445571E+03  0.38100195517E+04  0.37174229820E+04 0.  0.
        2    1    3    3  502    0  0.10001734934E+04  0.11974640586E+03 -0.20184360478E+04  0.22558302901E+04  0.25500000920E-02 0. -1.
       -2    1    3    3    0  502 -0.10001734934E+04 -0.11974640586E+03  0.11835615921E+04  0.15541892616E+04  0.25500000920E-02 0.  1.
</event>
<event>
 5   0  0.2996969E-07  0.3709386E+04  0.7818609E-02  0.8065885E-01
       -2   -1    0    0    0  501  0.00000000000E+00  0.00000000000E+00  0.16952123573E+04  0.16952123573E+04  0.25500000920E-02 0.  1.
        2   -1    0    0  501    0  0.00000000000E+00  0.00000000000E+00 -0.20291769037E+04  0.20291769037E+04  0.25500000920E-02 0. -1.
    10030    2    1    2    0    0  0.00000000000E+00  0.00000000000E+00 -0.33396454640E+03  0.37243892611E+04  0.37093858049E+04 0.  0.
        1    1    3    3  502    0  0.14056824279E+04 -0.11332441597E+04  0.25864310991E+03  0.18240289668E+04  0.50400001928E-02 0.  1.
       -1    1    3    3    0  502 -0.14056824279E+04  0.11332441597E+04 -0.59260765631E+03  0.19003602942E+04  0.50400001928E-02 0. -1.
</event>
<event>
 5   0  0.2913025E-07  0.3691726E+04  0.7818609E-02  0.8069798E-01
        2   -1    0    0  501    0  0.00000000000E+00  0.00000000000E+00  0.14805262008E+04  0.14805262008E+04  0.25500000920E-02 0. -1.
       -2   -1    0    0    0  501  0.00000000000E+00  0.00000000000E+00 -0.23013513365E+04  0.23013513365E+04  0.25500000920E-02 0.  1.
    10030    2    1    2    0    0  0.00000000000E+00  0.00000000000E+00 -0.82082513563E+03  0.37818775373E+04  0.36917263988E+04 0.  0.
        5    1    3    3  502    0 -0.18069479029E+04 -0.33173069267E+03 -0.59390352188E+03  0.19307639575E+04  0.46999998093E+01 0. -1.
       -5    1    3    3    0  502  0.18069479029E+04  0.33173069267E+03 -0.22692161375E+03  0.18511135798E+04  0.46999998093E+01 0.  1.
</event>
<event>
 5   0  0.2897133E-07  0.3716295E+04  0.7818609E-02  0.8064360E-01
       -2   -1    0    0    0  501  0.00000000000E+00  0.00000000000E+00  0.15158005964E+04  0.15158005964E+04  0.25500000920E-02 0. -1.
        2   -1    0    0  501    0  0.00000000000E+00  0.00000000000E+00 -0.22778143291E+04  0.22778143291E+04  0.25500000920E-02 0.  1.
    10030    2    1    2    0    0  0.00000000000E+00  0.00000000000E+00 -0.76201373266E+03  0.37936149255E+04  0.37162951006E+04 0.  0.
        4    1    3    3  502    0 -0.17976850228E+04  0.30281310481E+02  0.97926484343E+02  0.18006053449E+04  0.12699999809E+01 0. -1.
       -4    1    3    3    0  502  0.17976850228E+04 -0.30281310481E+02 -0.85994021700E+03  0.19930095806E+04  0.12699999809E+01 0.  1.
</event>
<event>
 5   0  0.9341000E-08  0.3702903E+04  0.7818609E-02  0.8067319E-01
       -1   -1    0    0    0  501  0.00000000000E+00  0.00000000000E+00  0.32263727780E+04  0.32263727780E+04  0.50400001928E-02 0. -1.
        1   -1    0    0  501    0  0.00000000000E+00  0.00000000000E+00 -0.10624539936E+04  0.10624539936E+04  0.50400001928E-02 0.  1.
    10030    2    1    2    0    0  0.00000000000E+00  0.00000000000E+00  0.21639187844E+04  0.42888267715E+04  0.37029029923E+04 0.  0.
        1    1    3    3  502    0  0.43939129883E+03 -0.12862465723E+04 -0.37409170125E+03  0.14097657816E+04  0.50400001928E-02 0.  1.
       -1    1    3    3    0  502 -0.43939129883E+03  0.12862465723E+04  0.25380104857E+04  0.28790609899E+04  0.50400001928E-02 0. -1.
</event>
<event>
 5   0  0.3032442E-07  0.3493795E+04  0.7818609E-02  0.8115262E-01
       -2   -1    0    0    0  501  0.00000000000E+00  0.00000000000E+00  0.18289382007E+04  0.18289382007E+04  0.25500000920E-02 0.  1.
        2   -1    0    0  501    0  0.00000000000E+00  0.00000000000E+00 -0.16685364288E+04  0.16685364288E+04  0.25500000920E-02 0. -1.
    10030    2    1    2    0    0  0.00000000000E+00  0.00000000000E+00  0.16040177190E+03  0.34974746296E+04  0.34937945068E+04 0.  0.
        3    1    3    3  502    0  0.19708905847E+03  0.15839110787E+04  0.79090053092E+03  0.17813315419E+04  0.10100000352E+00 0.  1.
       -3    1    3    3    0  502 -0.19708905847E+03 -0.15839110787E+04 -0.63049875903E+03  0.17161430877E+04  0.10100000352E+00 0. -1.
</event>
<event>
 5   0  0.2996969E-07  0.3698000E+04  0.7818609E-02  0.8068405E-01
       -2   -1    0    0    0  501  0.00000000000E+00  0.00000000000E+00  0.19462443909E+04  0.19462443909E+04  0.25500000920E-02 0. -1.
        2   -1    0    0  501    0  0.00000000000E+00  0.00000000000E+00 -0.17566140400E+04  0.17566140400E+04  0.25500000920E-02 0.  1.
    10030    2    1    2    0    0  0.00000000000E+00  0.00000000000E+00  0.18963035087E+03  0.37028584310E+04  0.36979995795E+04 0.  0.
        1    1    3    3  502    0 -0.12900533847E+04 -0.69646221500E+03  0.12230177706E+04  0.19092065942E+04  0.50400001928E-02 0. -1.
       -1    1    3    3    0  502  0.12900533847E+04  0.69646221500E+03 -0.10333874197E+04  0.17936518367E+04  0.50400001928E-02 0.  1.
</event>
<event>
 5   0  0.9341000E-08  0.3705197E+04  0.7818609E-02  0.8066811E-01
       -1   -1    0    0    0  501  0.00000000000E+00  0.00000000000E+00  0.12900620373E+04  0.12900620373E+04  0.50400001928E-02 0. -1.
        1   -1    0    0  501    0  0.00000000000E+00  0.00000000000E+00 -0.26604306812E+04  0.26604306812E+04  0.50400001928E-02 0.  1.
    10030    2    1    2    0    0  0.00000000000E+00  0.00000000000E+00 -0.13703686439E+04  0.39504927185E+04  0.37051966882E+04 0.  0.
        4    1    3    3  502    0 -0.71376395308E+03  0.11780049996E+04  0.63577404855E+03  0.15170250537E+04  0.12699999809E+01 0. -1.
       -4    1    3    3    0  502  0.71376395308E+03 -0.11780049996E+04 -0.20061426925E+04  0.24334676647E+04  0.12699999809E+01 0.  1.
</event>
<event>
 5   0  0.3032442E-07  0.3708437E+04  0.7818609E-02  0.8066095E-01
        2   -1    0    0  501    0  0.00000000000E+00  0.00000000000E+00  0.17813826236E+04  0.17813826236E+04  0.25500000920E-02 0. -1.
       -2   -1    0    0    0  501  0.00000000000E+00  0.00000000000E+00 -0.19300319986E+04  0.19300319986E+04  0.25500000920E-02 0.  1.
    10030    2    1    2    0    0  0.00000000000E+00  0.00000000000E+00 -0.14864937497E+03  0.37114146222E+04  0.37084365791E+04 0.  0.
        3    1    3    3  502    0  0.12958196999E+04  0.68836682600E+03  0.10602204787E+04  0.18102665703E+04  0.10100000352E+00 0. -1.
       -3    1    3    3    0  502 -0.12958196999E+04 -0.68836682600E+03 -0.12088698537E+04  0.19011480519E+04  0.10100000352E+00 0.  1.
</event>
<event>
 5   0  0.2996969E-07  0.3705677E+04  0.7818609E-02  0.8066705E-01
       -2   -1    0    0    0  501  0.00000000000E+00  0.00000000000E+00  0.17449376209E+04  0.17449376209E+04  0.25500000920E-02 0.  1.
        2   -1    0    0  501    0  0.00000000000E+00  0.00000000000E+00 -0.19674111983E+04  0.19674111983E+04  0.25500000920E-02 0. -1.
    10030    2    1    2    0    0  0.00000000000E+00  0.00000000000E+00 -0.22247357737E+03  0.37123488191E+04  0.37056766268E+04 0.  0.
        1    1    3    3  502    0 -0.43264085813E+03 -0.14923946958E+04  0.89983249001E+03  0.17955830669E+04  0.50400001928E-02 0.  1.
       -1    1    3    3    0  502  0.43264085813E+03  0.14923946958E+04 -0.11223060674E+04  0.19167657522E+04  0.50400001928E-02 0. -1.
</event>
<event>
 5   0  0.9646615E-08  0.3691432E+04  0.7818609E-02  0.8069863E-01
        1   -1    0    0  501    0  0.00000000000E+00  0.00000000000E+00  0.28196853300E+04  0.28196853300E+04  0.50400001928E-02 0. -1.
       -1   -1    0    0    0  501  0.00000000000E+00  0.00000000000E+00 -0.12081731179E+04  0.12081731179E+04  0.50400001928E-02 0.  1.
    10030    2    1    2    0    0  0.00000000000E+00  0.00000000000E+00  0.16115122120E+04  0.40278584479E+04  0.36914322514E+04 0.  0.
        2    1    3    3  502    0  0.15212213802E+04  0.99963604114E+03  0.11390110692E+04  0.21472617255E+04  0.25500000920E-02 0. -1.
       -2    1    3    3    0  502 -0.15212213802E+04 -0.99963604114E+03  0.47250114283E+03  0.18805967224E+04  0.25500000920E-02 0.  1.
</event>
<event>
 5   0  0.2913025E-07  0.3697895E+04  0.7818609E-02  0.8068429E-01
       -2   -1    0    0    0  501  0.00000000000E+00  0.00000000000E+00  0.16871333397E+04  0.16871333397E+04  0.25500000920E-02 0. -1.
        2   -1    0    0  501    0  0.00000000000E+00  0.00000000000E+00 -0.20262812516E+04  0.20262812516E+04  0.25500000920E-02 0.  1.
    10030    2    1    2    0    0  0.00000000000E+00  0.00000000000E+00 -0.33914791189E+03  0.37134145913E+04  0.36978948904E+04 0.  0.
        5    1    3    3  502    0 -0.12035072060E+04 -0.73400721026E+03  0.10318536907E+04  0.17469803401E+04  0.46999998093E+01 0. -1.
       -5    1    3    3    0  502  0.12035072060E+04  0.73400721026E+03 -0.13710016026E+04  0.19664342511E+04  0.46999998093E+01 0.  1.
</event>
<event>
 5   0  0.9341000E-08  0.3710837E+04  0.7818609E-02  0.8065564E-01
       -1   -1    0    0    0  501  0.00000000000E+00  0.00000000000E+00  0.13426633485E+04  0.13426633486E+04  0.50400001928E-02 0.  1.
        1   -1    0    0  501    0  0.00000000000E+00  0.00000000000E+00 -0.25639916657E+04  0.25639916657E+04  0.50400001928E-02 0. -1.
    10030    2    1    2    0    0  0.00000000000E+00  0.00000000000E+00 -0.12213283172E+04  0.39066550142E+04  0.37108369059E+04 0.  0.
        1    1    3    3  502    0 -0.65436658936E+03 -0.97258550533E+03  0.90344329976E+03  0.14799756736E+04  0.50400001928E-02 0.  1.
       -1    1    3    3    0  502  0.65436658936E+03  0.97258550533E+03 -0.21247716169E+04  0.24266793407E+04  0.50400001928E-02 0. -1.
</event>
<event>
 5   0  0.2996969E-07  0.3701393E+04  0.7818609E-02  0.8067653E-01
       -2   -1    0    0    0  501  0.00000000000E+00  0.00000000000E+00  0.12287910073E+04  0.12287910073E+04  0.25500000920E-02 0.  1.
        2   -1    0    0  501    0  0.00000000000E+00  0.00000000000E+00 -0.27873550568E+04  0.27873550568E+04  0.25500000920E-02 0. -1.
    10030    2    1    2    0    0  0.00000000000E+00  0.00000000000E+00 -0.15585640494E+04  0.40161460641E+04  0.37013926179E+04 0.  0.
        1    1    3    3  502    0  0.16188969824E+04  0.86216791648E+03 -0.51148263794E+03  0.19041469074E+04  0.50400001928E-02 0.  1.
       -1    1    3    3    0  502 -0.16188969824E+04 -0.86216791648E+03 -0.10470814115E+04  0.21119991568E+04  0.50400001928E-02 0. -1.
</event>
<event>
 5   0  0.3008879E-07  0.3667711E+04  0.7818609E-02  0.8075155E-01
        2   -1    0    0  501    0  0.00000000000E+00  0.00000000000E+00  0.12067517249E+04  0.12067517249E+04  0.25500000920E-02 0.  1.
       -2   -1    0    0    0  501  0.00000000000E+00  0.00000000000E+00 -0.27868413682E+04  0.27868413682E+04  0.25500000920E-02 0. -1.
    10030    2    1    2    0    0  0.00000000000E+00  0.00000000000E+00 -0.15800896433E+04  0.39935930931E+04  0.36677108000E+04 0.  0.
        2    1    3    3  502    0 -0.19621335731E+03  0.18768118068E+01 -0.27753778232E+04  0.27823057462E+04  0.25500000920E-02 0. -1.
       -2    1    3    3    0  502  0.19621335731E+03 -0.18768118068E+01  0.11952881798E+04  0.12112873469E+04  0.25500000920E-02 0.  1.
</event>
<event>
 5   0  0.9341000E-08  0.3658490E+04  0.7818609E-02  0.8077224E-01
        3   -1    0    0  501    0  0.00000000000E+00  0.00000000000E+00  0.26500041399E+04  0.26500041418E+04  0.10100000352E+00 0. -1.
       -3   -1    0    0    0  501  0.00000000000E+00  0.00000000000E+00 -0.12626916715E+04  0.12626916755E+04  0.10100000352E+00 0.  1.
    10030    2    1    2    0    0  0.00000000000E+00  0.00000000000E+00  0.13873124684E+04  0.39126958173E+04  0.36584904912E+04 0.  0.
        3    1    3    3  502    0 -0.66127063162E+03  0.10709599774E+04 -0.72594144544E+03  0.14530055450E+04  0.10100000352E+00 0.  1.
       -3    1    3    3    0  502  0.66127063162E+03 -0.10709599774E+04  0.21132539138E+04  0.24596902724E+04  0.10100000352E+00 0. -1.
</event>
<event>
 5   0  0.9341000E-08  0.3700020E+04  0.7818609E-02  0.8067957E-01
       -1   -1    0    0    0  501  0.00000000000E+00  0.00000000000E+00  0.15873458676E+04  0.15873458676E+04  0.50400001928E-02 0. -1.
        1   -1    0    0  501    0  0.00000000000E+00  0.00000000000E+00 -0.21561377066E+04  0.21561377066E+04  0.50400001928E-02 0.  1.
    10030    2    1    2    0    0  0.00000000000E+00  0.00000000000E+00 -0.56879183902E+03  0.37434835743E+04  0.37000196100E+04 0.  0.
        3    1    3    3  502    0 -0.15435910793E+04 -0.10195504814E+04 -0.30410978090E+03  0.18747371478E+04  0.10100000352E+00 0.  1.
       -3    1    3    3    0  502  0.15435910793E+04  0.10195504814E+04 -0.26468205812E+03  0.18687464265E+04  0.10100000352E+00 0. -1.
</event>
<event>
 5   0  0.3032442E-07  0.3694578E+04  0.7818609E-02  0.8069164E-01
        2   -1    0    0  501    0  0.00000000000E+00  0.00000000000E+00  0.18395639116E+04  0.18395639116E+04  0.25500000920E-02 0.  1.
       -2   -1    0    0    0  501  0.00000000000E+00  0.00000000000E+00 -0.18550469881E+04  0.18550469881E+04  0.25500000920E-02 0. -1.
    10030    2    1    2    0    0  0.00000000000E+00  0.00000000000E+00 -0.15483076447E+02  0.36946108997E+04  0.36945784569E+04 0.  0.
        3    1    3    3  502    0  0.12566941782E+04 -0.52075418899E+02  0.13452246566E+04  0.18416355486E+04  0.10100000352E+00 0.  1.
       -3    1    3    3    0  502 -0.12566941782E+04  0.52075418899E+02 -0.13607077330E+04  0.18529753511E+04  0.10100000352E+00 0. -1.
</event>
<event>
 5   0  0.2913025E-07  0.3769920E+04  0.7818609E-02  0.8052641E-01
        2   -1    0    0  501    0  0.00000000000E+00  0.00000000000E+00  0.21381123336E+04  0.21381123336E+04  0.25500000920E-02 0.  1.
       -2   -1    0    0    0  501  0.00000000000E+00  0.00000000000E+00 -0.16617806310E+04  0.16617806310E+04  0.25500000920E-02 0. -1.
    10030    2    1    2    0    0  0.00000000000E+00  0.00000000000E+00  0.47633170268E+03  0.37998929646E+04  0.37699197142E+04 0.  0.
        5    1    3    3  502    0  0.80738555872E+03 -0.16955251024E+04  0.40186013596E+03  0.19204662122E+04  0.46999998093E+01 0.  1.
       -5    1    3    3    0  502 -0.80738555872E+03  0.16955251024E+04  0.74471566727E+02  0.18794267524E+04  0.46999998093E+01 0. -1.
</event>
<event>
 5   0  0.9341000E-08  0.3706566E+04  0.7818609E-02  0.8066508E-01
        3   -1    0    0  501    0  0.00000000000E+00  0.00000000000E+00  0.27779715226E+04  0.27779715245E+04  0.10100000352E+00 0.  1.
       -3   -1    0    0    0  501  0.00000000000E+00  0.00000000000E+00 -0.12363905516E+04  0.12363905557E+04  0.10100000352E+00 0. -1.
    10030    2    1    2    0    0  0.00000000000E+00  0.00000000000E+00  0.15415809710E+04  0.40143620802E+04  0.37065659337E+04 0.  0.
        3    1    3    3  502    0 -0.60555063717E+02 -0.12248988238E+04 -0.73405705791E+03  0.14292948677E+04  0.10100000352E+00 0. -1.
       -3    1    3    3    0  502  0.60555063717E+02  0.12248988238E+04  0.22756380289E+04  0.25850672125E+04  0.10100000352E+00 0.  1.
</event>
<event>
 5   0  0.2996969E-07  0.3582883E+04  0.7818609E-02  0.8094424E-01
       -2   -1    0    0    0  501  0.00000000000E+00  0.00000000000E+00  0.14333823792E+04  0.14333823792E+04  0.25500000920E-02 0.  1.
        2   -1    0    0  501    0  0.00000000000E+00  0.00000000000E+00 -0.22389437248E+04  0.22389437248E+04  0.25500000920E-02 0. -1.
    10030    2    1    2    0    0  0.00000000000E+00  0.00000000000E+00 -0.80556134558E+03  0.36723261040E+04  0.35828829081E+04 0.  0.
        1    1    3    3  502    0  0.15743891422E+03 -0.29413027357E+03  0.14012616735E+04  0.14404283763E+04  0.50400001928E-02 0.  1.
       -1    1    3    3    0  502 -0.15743891422E+03  0.29413027357E+03 -0.22068230191E+04  0.22318977278E+04  0.50400001928E-02 0. -1.
</event>
<event>
 5   0  0.9341000E-08  0.3692492E+04  0.7818609E-02  0.8069628E-01
       -1   -1    0    0    0  501  0.00000000000E+00  0.00000000000E+00  0.13620354766E+04  0.13620354766E+04  0.50400001928E-02 0.  1.
        1   -1    0    0  501    0  0.00000000000E+00  0.00000000000E+00 -0.25025959976E+04  0.25025959976E+04  0.50400001928E-02 0. -1.
    10030    2    1    2    0    0  0.00000000000E+00  0.00000000000E+00 -0.11405605210E+04  0.38646314742E+04  0.36924921299E+04 0.  0.
        1    1    3    3  502    0 -0.18377459596E+04 -0.15208955907E+03 -0.66495782333E+03  0.19602577262E+04  0.50400001928E-02 0. -1.
       -1    1    3    3    0  502  0.18377459596E+04  0.15208955907E+03 -0.47560269770E+03  0.19043737480E+04  0.50400001928E-02 0.  1.
</event>
<event>
 5   0  0.3032442E-07  0.3625784E+04  0.7818609E-02  0.8084611E-01
        2   -1    0    0  501    0  0.00000000000E+00  0.00000000000E+00  0.14672449384E+04  0.14672449384E+04  0.25500000920E-02 0.  1.
       -2   -1    0    0    0  501  0.00000000000E+00  0.00000000000E+00 -0.22399645605E+04  0.22399645605E+04  0.25500000920E-02 0. -1.
    10030    2    1    2    0    0  0.00000000000E+00  0.00000000000E+00 -0.77271962213E+03  0.37072094989E+04  0.36257835918E+04 0.  0.
        3    1    3    3  502    0  0.98730162278E+02  0.88822313014E+03 -0.19990863099E+04  0.21897566209E+04  0.10100000352E+00 0. -1.
       -3    1    3    3    0  502 -0.98730162278E+02 -0.88822313014E+03  0.12263666878E+04  0.15174528780E+04  0.10100000352E+00 0.  1.
</event>
<event>
 5   0  0.2897133E-07  0.3697124E+04  0.7818609E-02  0.8068599E-01
        2   -1    0    0  501    0  0.00000000000E+00  0.00000000000E+00  0.22241685761E+04  0.22241685761E+04  0.25500000920E-02 0.  1.
       -2   -1    0    0    0  501  0.00000000000E+00  0.00000000000E+00 -0.15363861440E+04  0.15363861440E+04  0.25500000920E-02 0. -1.
    10030    2    1    2    0    0  0.00000000000E+00  0.00000000000E+00  0.68778243217E+03  0.37605547201E+04  0.36971241701E+04 0.  0.
        4    1    3    3  502    0 -0.30306972569E+03  0.10348149963E+04  0.18711468201E+04  0.21596030585E+04  0.12699999809E+01 0.  1.
       -4    1    3    3    0  502  0.30306972569E+03 -0.10348149963E+04 -0.11833643880E+04  0.16009516616E+04  0.12699999809E+01 0. -1.
</event>
<event>
 5   0  0.3008879E-07  0.3702487E+04  0.7818609E-02  0.8067411E-01
       -2   -1    0    0    0  501  0.00000000000E+00  0.00000000000E+00  0.31896927699E+04  0.31896927699E+04  0.25500000920E-02 0. -1.
        2   -1    0    0  501    0  0.00000000000E+00  0.00000000000E+00 -0.10744302587E+04  0.10744302587E+04  0.25500000920E-02 0.  1.
    10030    2    1    2    0    0  0.00000000000E+00  0.00000000000E+00  0.21152625112E+04  0.42641230286E+04  0.37024869631E+04 0.  0.
        2    1    3    3  502    0  0.34250536202E+03  0.18185190862E+04  0.99689835405E+03  0.21019343278E+04  0.25500000920E-02 0.  1.
       -2    1    3    3    0  502 -0.34250536202E+03 -0.18185190862E+04  0.11183641571E+04  0.21621887008E+04  0.25500000920E-02 0. -1.
</event>
<event>
 5   0  0.3008879E-07  0.3664047E+04  0.7818609E-02  0.8075976E-01
        2   -1    0    0  501    0  0.00000000000E+00  0.00000000000E+00  0.16019047553E+04  0.16019047553E+04  0.25500000920E-02 0. -1.
       -2   -1    0    0    0  501  0.00000000000E+00  0.00000000000E+00 -0.20952000823E+04  0.20952000823E+04  0.25500000920E-02 0.  1.
    10030    2    1    2    0    0  0.00000000000E+00  0.00000000000E+00 -0.49329532697E+03  0.36971048376E+04  0.36640474752E+04 0.  0.
        2    1    3    3  502    0 -0.45132521548E+03  0.86768537078E+03  0.13164375125E+04  0.16399939259E+04  0.25500000920E-02 0. -1.
       -2    1    3    3    0  502  0.45132521548E+03 -0.86768537078E+03 -0.18097328394E+04  0.20571109117E+04  0.25500000920E-02 0.  1.
</event>
<event>
 5   0  0.2996969E-07  0.3647058E+04  0.7818609E-02  0.8079797E-01
       -2   -1    0    0    0  501  0.00000000000E+00  0.00000000000E+00  0.13783252524E+04  0.13783252524E+04  0.25500000920E-02 0. -1.
        2   -1    0    0  501    0  0.00000000000E+00  0.00000000000E+00 -0.24125355169E+04  0.24125355169E+04  0.25500000920E-02 0.  1.
    10030    2    1    2    0    0  0.00000000000E+00  0.00000000000E+00 -0.10342102646E+04  0.37908607693E+04  0.36470583353E+04 0.  0.
        1    1    3    3  502    0 -0.14773331390E+04 -0.92126170726E+03 -0.10807236463E+04  0.20491949484E+04  0.50400001928E-02 0. -1.
       -1    1    3    3    0  502  0.14773331390E+04  0.92126170726E+03  0.46513381734E+02  0.17416658209E+04  0.50400001928E-02 0.  1.
</event>
<event>
 5   0  0.9341000E-08  0.3706779E+04  0.7818609E-02  0.8066461E-01
       -3   -1    0    0    0  501  0.00000000000E+00  0.00000000000E+00  0.14514819671E+04  0.14514819706E+04  0.10100000352E+00 0.  1.
        3   -1    0    0  501    0  0.00000000000E+00  0.00000000000E+00 -0.23665824684E+04  0.23665824706E+04  0.10100000352E+00 0. -1.
    10030    2    1    2    0    0  0.00000000000E+00  0.00000000000E+00 -0.91510050135E+03  0.38180644412E+04  0.37067785406E+04 0.  0.
        3    1    3    3  502    0  0.14804339185E+04  0.76318905679E+03  0.37982025857E+03  0.17083341484E+04  0.10100000352E+00 0.  1.
       -3    1    3    3    0  502 -0.14804339185E+04 -0.76318905679E+03 -0.12949207599E+04  0.21097302928E+04  0.10100000352E+00 0. -1.
</event>
<event>
 5   0  0.9341000E-08  0.3665892E+04  0.7818609E-02  0.8075563E-01
        1   -1    0    0  501    0  0.00000000000E+00  0.00000000000E+00  0.22095757674E+04  0.22095757674E+04  0.50400001928E-02 0. -1.
       -1   -1    0    0    0  501  0.00000000000E+00  0.00000000000E+00 -0.15205139972E+04  0.15205139972E+04  0.50400001928E-02 0.  1.
    10030    2    1    2    0    0  0.00000000000E+00  0.00000000000E+00  0.68906177022E+03  0.37300897647E+04  0.36658919146E+04 0.  0.
        1    1    3    3  502    0  0.44360500797E+03 -0.78254338278E+03  0.19695368474E+04  0.21652332305E+04  0.50400001928E-02 0. -1.
       -1    1    3    3    0  502 -0.44360500797E+03  0.78254338278E+03 -0.12804750772E+04  0.15648565341E+04  0.50400001928E-02 0.  1.
</event>
<event>
 5   0  0.2996969E-07  0.3726087E+04  0.7818609E-02  0.8062205E-01
        2   -1    0    0  501    0  0.00000000000E+00  0.00000000000E+00  0.30251372116E+04  0.30251372116E+04  0.25500000920E-02 0. -1.
       -2   -1    0    0    0  501  0.00000000000E+00  0.00000000000E+00 -0.11473629009E+04  0.11473629009E+04  0.25500000920E-02 0.  1.
    10030    2    1    2    0    0  0.00000000000E+00  0.00000000000E+00  0.18777743106E+04  0.41725001125E+04  0.37260865297E+04 0.  0.
        1    1    3    3  502    0 -0.10223974376E+04  0.18118906426E+03 -0.79330873103E+03  0.13066999427E+04  0.50400001928E-02 0.  1.
       -1    1    3    3    0  502  0.10223974376E+04 -0.18118906426E+03  0.26710830417E+04  0.28658001698E+04  0.50400001928E-02 0. -1.
</event>
<event>
 5   0  0.9646615E-08  0.3684101E+04  0.7818609E-02  0.8071494E-01
       -1   -1    0    0    0  501  0.00000000000E+00  0.00000000000E+00  0.14376564342E+04  0.14376564342E+04  0.50400001928E-02 0. -1.
        1   -1    0    0  501    0  0.00000000000E+00  0.00000000000E+00 -0.23601948098E+04  0.23601948098E+04  0.50400001928E-02 0.  1.
    10030    2    1    2    0    0  0.00000000000E+00  0.00000000000E+00 -0.92253837564E+03  0.37978512440E+04  0.36841005709E+04 0.  0.
        2    1    3    3  502    0 -0.89048745501E+03  0.16116861532E+04 -0.40821070328E+03  0.18860371530E+04  0.25500000920E-02 0.  1.
       -2    1    3    3    0  502  0.89048745501E+03 -0.16116861532E+04 -0.51432767236E+03  0.19118140910E+04  0.25500000920E-02 0. -1.
</event>
<event>
 5   0  0.9418945E-08  0.3733469E+04  0.7818609E-02  0.8060585E-01
       -1   -1    0    0    0  501  0.00000000000E+00  0.00000000000E+00  0.17900554033E+04  0.17900554033E+04  0.50400001928E-02 0. -1.
        1   -1    0    0  501    0  0.00000000000E+00  0.00000000000E+00 -0.19466987065E+04  0.19466987065E+04  0.50400001928E-02 0.  1.
    10030    2    1    2    0    0  0.00000000000E+00  0.00000000000E+00 -0.15664330320E+03  0.37367541098E+04  0.37334694525E+04 0.  0.
        5    1    3    3  502    0 -0.15119706549E+02 -0.39584520403E+03 -0.19041399399E+04  0.19449146593E+04  0.46999998093E+01 0.  1.
       -5    1    3    3    0  502  0.15119706549E+02  0.39584520403E+03  0.17474966367E+04  0.17918394505E+04  0.46999998093E+01 0. -1.
</event>
<event>
 5   0  0.9341000E-08  0.3327756E+04  0.7818609E-02  0.8155869E-01
       -1   -1    0    0    0  501  0.00000000000E+00  0.00000000000E+00  0.27591996352E+04  0.27591996352E+04  0.50400001928E-02 0.  1.
        1   -1    0    0  501    0  0.00000000000E+00  0.00000000000E+00 -0.10033670561E+04  0.10033670561E+04  0.50400001928E-02 0. -1.
    10030    2    1    2    0    0  0.00000000000E+00  0.00000000000E+00  0.17558325791E+04  0.37625666913E+04  0.33277560098E+04 0.  0.
        4    1    3    3  502    0  0.10668650814E+04  0.12350141156E+03  0.23148067426E+04  0.25518200503E+04  0.12699999809E+01 0.  1.
       -4    1    3    3    0  502 -0.10668650814E+04 -0.12350141156E+03 -0.55897416349E+03  0.12107466411E+04  0.12699999809E+01 0. -1.
</event>
<event>
 5   0  0.2996969E-07  0.3722289E+04  0.7818609E-02  0.8063040E-01
       -2   -1    0    0    0  501  0.00000000000E+00  0.00000000000E+00  0.32117439054E+04  0.32117439054E+04  0.25500000920E-02 0. -1.
        2   -1    0    0  501    0  0.00000000000E+00  0.00000000000E+00 -0.10784981054E+04  0.10784981054E+04  0.25500000920E-02 0.  1.
    10030    2    1    2    0    0  0.00000000000E+00  0.00000000000E+00  0.21332458000E+04  0.42902420109E+04  0.37222894660E+04 0.  0.
        1    1    3    3  502    0 -0.40283293938E+03 -0.10789066353E+04  0.27517371985E+04  0.29830138307E+04  0.50400001928E-02 0. -1.
       -1    1    3    3    0  502  0.40283293938E+03  0.10789066353E+04 -0.61849139855E+03  0.13072281801E+04  0.50400001928E-02 0.  1.
</event>
<event>
 5   0  0.9646615E-08  0.3410096E+04  0.7818609E-02  0.8135433E-01
        1   -1    0    0  501    0  0.00000000000E+00  0.00000000000E+00  0.18603721391E+04  0.18603721391E+04  0.50400001928E-02 0.  1.
       -1   -1    0    0    0  501  0.00000000000E+00  0.00000000000E+00 -0.15626919392E+04  0.15626919393E+04  0.50400001928E-02 0. -1.
    10030    2    1    2    0    0  0.00000000000E+00  0.00000000000E+00  0.29768019988E+03  0.34230640784E+04  0.34100959200E+04 0.  0.
        2    1    3    3  502    0  0.83880191746E+03 -0.13466672115E+04 -0.47810475907E+03  0.16570109824E+04  0.25500000920E-02 0.  1.
       -2    1    3    3    0  502 -0.83880191746E+03  0.13466672115E+04  0.77578495895E+03  0.17660530960E+04  0.25500000920E-02 0. -1.
</event>
<event>
 5   0  0.9418945E-08  0.3702945E+04  0.7818609E-02  0.8067309E-01
       -1   -1    0    0    0  501  0.00000000000E+00  0.00000000000E+00  0.19516836437E+04  0.19516836437E+04  0.50400001928E-02 0.  1.
        1   -1    0    0  501    0  0.00000000000E+00  0.00000000000E+00 -0.17564067909E+04  0.17564067909E+04  0.50400001928E-02 0. -1.
    10030    2    1    2    0    0  0.00000000000E+00  0.00000000000E+00  0.19527685281E+03  0.37080904345E+04  0.37029449930E+04 0.  0.
        5    1    3    3  502    0  0.90553407846E+03 -0.12684351385E+04 -0.90325463938E+03  0.18013358103E+04  0.46999998093E+01 0. -1.
       -5    1    3    3    0  502 -0.90553407846E+03  0.12684351385E+04  0.10985314922E+04  0.19067546243E+04  0.46999998093E+01 0.  1.
</event>
<event>
 5   0  0.9418945E-08  0.3719612E+04  0.7818609E-02  0.8063629E-01
        1   -1    0    0  501    0  0.00000000000E+00  0.00000000000E+00  0.28132488426E+04  0.28132488426E+04  0.50400001928E-02 0.  1.
       -1   -1    0    0    0  501  0.00000000000E+00  0.00000000000E+00 -0.12294959870E+04  0.12294959870E+04  0.50400001928E-02 0. -1.
    10030    2    1    2    0    0  0.00000000000E+00  0.00000000000E+00  0.15837528556E+04  0.40427448296E+04  0.37196118950E+04 0.  0.
        5    1    3    3  502    0  0.24780712785E+03  0.88611456097E+03 -0.96477649264E+03  0.13332003445E+04  0.46999998093E+01 0. -1.
       -5    1    3    3    0  502 -0.24780712785E+03 -0.88611456097E+03  0.25485293482E+04  0.27095444851E+04  0.46999998093E+01 0.  1.
</event>
<event>
 5   0  0.2996969E-07  0.3687986E+04  0.7818609E-02  0.8070629E-01
        2   -1    0    0  501    0  0.00000000000E+00  0.00000000000E+00  0.24194771837E+04  0.24194771837E+04  0.25500000920E-02 0.  1.
       -2   -1    0    0    0  501  0.00000000000E+00  0.00000000000E+00 -0.14053904941E+04  0.14053904941E+04  0.25500000920E-02 0. -1.
    10030    2    1    2    0    0  0.00000000000E+00  0.00000000000E+00  0.10140866897E+04  0.38248676778E+04  0.36879860274E+04 0.  0.
        1    1    3    3  502    0  0.49107319960E+03  0.76565164363E+03 -0.11565284476E+04  0.14713712574E+04  0.50400001928E-02 0.  1.
       -1    1    3    3    0  502 -0.49107319960E+03 -0.76565164363E+03  0.21706151373E+04  0.23534964204E+04  0.50400001928E-02 0. -1.
</event>
<event>
 5   0  0.9418945E-08  0.3316864E+04  0.7818609E-02  0.8158618E-01
       -1   -1    0    0    0  501  0.00000000000E+00  0.00000000000E+00  0.25345782877E+04  0.25345782877E+04  0.50400001928E-02 0.  1.
        1   -1    0    0  501    0  0.00000000000E+00  0.00000000000E+00 -0.10851494807E+04  0.10851494807E+04  0.50400001928E-02 0. -1.
    10030    2    1    2    0    0  0.00000000000E+00  0.00000000000E+00  0.14494288070E+04  0.36197277684E+04  0.33168637673E+04 0.  0.
        5    1    3    3  502    0 -0.47307816896E+03  0.15508022040E+04  0.11052419658E+04  0.19622365614E+04  0.46999998093E+01 0. -1.
       -5    1    3    3    0  502  0.47307816896E+03 -0.15508022040E+04  0.34418684114E+03  0.16574912070E+04  0.46999998093E+01 0.  1.
</event>
<event>
 5   0  0.3008879E-07  0.3682541E+04  0.7818609E-02  0.8071842E-01
        2   -1    0    0  501    0  0.00000000000E+00  0.00000000000E+00  0.16767991929E+04  0.16767991929E+04  0.25500000920E-02 0. -1.
       -2   -1    0    0    0  501  0.00000000000E+00  0.00000000000E+00 -0.20218744201E+04  0.20218744201E+04  0.25500000920E-02 0.  1.
    10030    2    1    2    0    0  0.00000000000E+00  0.00000000000E+00 -0.34507522723E+03  0.36986736130E+04  0.36825411856E+04 0.  0.
        2    1    3    3  502    0  0.13808745216E+03 -0.11125901375E+04 -0.16395362173E+04  0.19862034051E+04  0.25500000920E-02 0.  1.
       -2    1    3    3    0  502 -0.13808745216E+03  0.11125901375E+04  0.12944609901E+04  0.17124702080E+04  0.25500000920E-02 0. -1.
</event>
<event>
 5   0  0.9646615E-08  0.3691739E+04  0.7818609E-02  0.8069795E-01
        1   -1    0    0  501    0  0.00000000000E+00  0.00000000000E+00  0.15660901125E+04  0.15660901126E+04  0.50400001928E-02 0. -1.
       -1   -1    0    0    0  501  0.00000000000E+00  0.00000000000E+00 -0.21756304974E+04  0.21756304974E+04  0.50400001928E-02 0.  1.
    10030    2    1    2    0    0  0.00000000000E+00  0.00000000000E+00 -0.60954038488E+03  0.37417206100E+04  0.36917385664E+04 0.  0.
        2    1    3    3  502    0 -0.10010872594E+04  0.26028441989E+03 -0.18542950626E+04  0.21232837444E+04  0.25500000920E-02 0.  1.
       -2    1    3    3    0  502  0.10010872594E+04 -0.26028441989E+03  0.12447546777E+04  0.16184368656E+04  0.25500000920E-02 0. -1.
</event>
<event>
 5   0  0.2913025E-07  0.3678917E+04  0.7818609E-02  0.8072650E-01
        2   -1    0    0  501    0  0.00000000000E+00  0.00000000000E+00  0.18058701998E+04  0.18058701998E+04  0.25500000920E-02 0.  1.
       -2   -1    0    0    0  501  0.00000000000E+00  0.00000000000E+00 -0.18736717417E+04  0.18736717417E+04  0.25500000920E-02 0. -1.
    10030    2    1    2    0    0  0.00000000000E+00  0.00000000000E+00 -0.67801541864E+02  0.36795419416E+04  0.36789172117E+04 0.  0.
        5    1    3    3  502    0  0.80354563984E+03  0.16279399015E+04 -0.33011310427E+03  0.18452291646E+04  0.46999998093E+01 0. -1.
       -5    1    3    3    0  502 -0.80354563984E+03 -0.16279399015E+04  0.26231156241E+03  0.18343127770E+04  0.46999998093E+01 0.  1.
</event>
<event>
 5   0  0.2897133E-07  0.3721029E+04  0.7818609E-02  0.8063317E-01
       -2   -1    0    0    0  501  0.00000000000E+00  0.00000000000E+00  0.16937260747E+04  0.16937260747E+04  0.25500000920E-02 0.  1.
        2   -1    0    0  501    0  0.00000000000E+00  0.00000000000E+00 -0.20437274548E+04  0.20437274548E+04  0.25500000920E-02 0. -1.
    10030    2    1    2    0    0  0.00000000000E+00  0.00000000000E+00 -0.35000138016E+03  0.37374535295E+04  0.37210291479E+04 0.  0.
        4    1    3    3  502    0 -0.18074452113E+03  0.17924636945E+04  0.29172031148E+03  0.18250197345E+04  0.12699999809E+01 0.  1.
       -4    1    3    3    0  502  0.18074452113E+03 -0.17924636945E+04 -0.64172169163E+03  0.19124337951E+04  0.12699999809E+01 0. -1.
</event>
<event>
 5   0  0.2897133E-07  0.3666120E+04  0.7818609E-02  0.8075512E-01
       -2   -1    0    0    0  501  0.00000000000E+00  0.00000000000E+00  0.11276790887E+04  0.11276790887E+04  0.25500000920E-02 0.  1.
        2   -1    0    0  501    0  0.00000000000E+00  0.00000000000E+00 -0.29796682868E+04  0.29796682868E+04  0.25500000920E-02 0. -1.
    10030    2    1    2    0    0  0.00000000000E+00  0.00000000000E+00 -0.18519891982E+04  0.41073473755E+04  0.36661203571E+04 0.  0.
        4    1    3    3  502    0 -0.38241676447E+03 -0.17459748683E+04 -0.47030273068E+03  0.18482037479E+04  0.12699999809E+01 0.  1.
       -4    1    3    3    0  502  0.38241676447E+03  0.17459748683E+04 -0.13816864675E+04  0.22591436276E+04  0.12699999809E+01 0. -1.
</event>
<event>
 5   0  0.9341000E-08  0.3657042E+04  0.7818609E-02  0.8077549E-01
        3   -1    0    0  501    0  0.00000000000E+00  0.00000000000E+00  0.20839613504E+04  0.20839613529E+04  0.10100000352E+00 0.  1.
       -3   -1    0    0    0  501  0.00000000000E+00  0.00000000000E+00 -0.16043912403E+04  0.16043912434E+04  0.10100000352E+00 0. -1.
    10030    2    1    2    0    0  0.00000000000E+00  0.00000000000E+00  0.47957011019E+03  0.36883525963E+04  0.36570421633E+04 0.  0.
        3    1    3    3  502    0 -0.15738680349E+03 -0.12368086467E+04 -0.11092102510E+04  0.16687760861E+04  0.10100000352E+00 0. -1.
       -3    1    3    3    0  502  0.15738680349E+03  0.12368086467E+04  0.15887803612E+04  0.20195765102E+04  0.10100000352E+00 0.  1.
</event>
<event>
 5   0  0.9341000E-08  0.3822851E+04  0.7818609E-02  0.8041269E-01
        3   -1    0    0  501    0  0.00000000000E+00  0.00000000000E+00  0.22624610489E+04  0.22624610511E+04  0.10100000352E+00 0.  1.
       -3   -1    0    0    0  501  0.00000000000E+00  0.00000000000E+00 -0.16148549786E+04  0.16148549817E+04  0.10100000352E+00 0. -1.
    10030    2    1    2    0    0  0.00000000000E+00  0.00000000000E+00  0.64760607032E+03  0.38773160328E+04  0.38228505067E+04 0.  0.
        4    1    3    3  502    0  0.16322933834E+04  0.41097735469E+02 -0.68407216396E+03  0.17703183475E+04  0.12699999809E+01 0. -1.
       -4    1    3    3    0  502 -0.16322933834E+04 -0.41097735469E+02  0.13316782343E+04  0.21069976853E+04  0.12699999809E+01 0.  1.
</event>
<event>
 5   0  0.2897133E-07  0.3692942E+04  0.7818609E-02  0.8069528E-01
        2   -1    0    0  501    0  0.00000000000E+00  0.00000000000E+00  0.27534775174E+04  0.27534775174E+04  0.25500000920E-02 0.  1.
       -2   -1    0    0    0  501  0.00000000000E+00  0.00000000000E+00 -0.12382360216E+04  0.12382360216E+04  0.25500000920E-02 0. -1.
    10030    2    1    2    0    0  0.00000000000E+00  0.00000000000E+00  0.15152414958E+04  0.39917135390E+04  0.36929419420E+04 0.  0.
        4    1    3    3  502    0  0.24983227655E+03 -0.46446312054E+03 -0.11550931262E+04  0.12697967947E+04  0.12699999809E+01 0. -1.
       -4    1    3    3    0  502 -0.24983227655E+03  0.46446312054E+03  0.26703346220E+04  0.27219167443E+04  0.12699999809E+01 0.  1.
</event>
<event>
 5   0  0.2913025E-07  0.3720610E+04  0.7818609E-02  0.8063410E-01
       -2   -1    0    0    0  501  0.00000000000E+00  0.00000000000E+00  0.17904882795E+04  0.17904882795E+04  0.25500000920E-02 0. -1.
        2   -1    0    0  501    0  0.00000000000E+00  0.00000000000E+00 -0.19328437169E+04  0.19328437169E+04  0.25500000920E-02 0.  1.
    10030    2    1    2    0    0  0.00000000000E+00  0.00000000000E+00 -0.14235543740E+03  0.37233319965E+04  0.37206096389E+04 0.  0.
        5    1    3    3  502    0  0.21047063801E+03 -0.18239426236E+04  0.22845302933E+03  0.18502101124E+04  0.46999998093E+01 0.  1.
       -5    1    3    3    0  502 -0.21047063801E+03  0.18239426236E+04 -0.37080846673E+03  0.18731218840E+04  0.46999998093E+01 0. -1.
</event>
<event>
 5   0  0.9418945E-08  0.3459456E+04  0.7818609E-02  0.8123466E-01
        1   -1    0    0  501    0  0.00000000000E+00  0.00000000000E+00  0.21827767044E+04  0.21827767044E+04  0.50400001928E-02 0. -1.
       -1   -1    0    0    0  501  0.00000000000E+00  0.00000000000E+00 -0.13707124676E+04  0.13707124676E+04  0.50400001928E-02 0.  1.
    10030    2    1    2    0    0  0.00000000000E+00  0.00000000000E+00  0.81206423673E+03  0.35534891720E+04  0.34594561669E+04 0.  0.
        5    1    3    3  502    0 -0.16274678746E+04  0.14389544131E+02  0.10076820326E+04  0.19142371615E+04  0.46999998093E+01 0. -1.
       -5    1    3    3    0  502  0.16274678746E+04 -0.14389544131E+02 -0.19561779586E+03  0.16392520105E+04  0.46999998093E+01 0.  1.
</event>
<event>
 5   0  0.2897133E-07  0.3722029E+04  0.7818609E-02  0.8063097E-01
        2   -1    0    0  501    0  0.00000000000E+00  0.00000000000E+00  0.25725412078E+04  0.25725412078E+04  0.25500000920E-02 0. -1.
       -2   -1    0    0    0  501  0.00000000000E+00  0.00000000000E+00 -0.13462854588E+04  0.13462854588E+04  0.25500000920E-02 0.  1.
    10030    2    1    2    0    0  0.00000000000E+00  0.00000000000E+00  0.12262557490E+04  0.39188266666E+04  0.37220289200E+04 0.  0.
        4    1    3    3  502    0 -0.14885203806E+04 -0.29907971496E+03 -0.51998720117E+03  0.16048457563E+04  0.12699999809E+01 0.  1.
       -4    1    3    3    0  502  0.14885203806E+04  0.29907971496E+03  0.17462429502E+04  0.23139809103E+04  0.12699999809E+01 0. -1.
</event>
<event>
 5   0  0.2996969E-07  0.3702713E+04  0.7818609E-02  0.8067361E-01
       -2   -1    0    0    0  501  0.00000000000E+00  0.00000000000E+00  0.32119403768E+04  0.32119403768E+04  0.25500000920E-02 0. -1.
        2   -1    0    0  501    0  0.00000000000E+00  0.00000000000E+00 -0.10671186785E+04  0.10671186785E+04  0.25500000920E-02 0.  1.
    10030    2    1    2    0    0  0.00000000000E+00  0.00000000000E+00  0.21448216984E+04  0.42790590553E+04  0.37027133674E+04 0.  0.
        1    1    3    3  502    0 -0.74442134948E+03  0.98209877559E+03 -0.52425118100E+03  0.13392238242E+04  0.50400001928E-02 0.  1.
       -1    1    3    3    0  502  0.74442134948E+03 -0.98209877559E+03  0.26690728794E+04  0.29398352311E+04  0.50400001928E-02 0. -1.
</event>
<event>
 5   0  0.9341000E-08  0.3645127E+04  0.7818609E-02  0.8080232E-01
        1   -1    0    0  501    0  0.00000000000E+00  0.00000000000E+00  0.16943355820E+04  0.16943355820E+04  0.50400001928E-02 0. -1.
       -1   -1    0    0    0  501  0.00000000000E+00  0.00000000000E+00 -0.19604961999E+04  0.19604961999E+04  0.50400001928E-02 0.  1.
    10030    2    1    2    0    0  0.00000000000E+00  0.00000000000E+00 -0.26616061787E+03  0.36548317819E+04  0.36451274161E+04 0.  0.
        3    1    3    3  502    0 -0.63952092274E+03 -0.10515130441E+04 -0.14809328429E+04  0.19255723273E+04  0.10100000352E+00 0.  1.
       -3    1    3    3    0  502  0.63952092274E+03  0.10515130441E+04  0.12147722250E+04  0.17292594546E+04  0.10100000352E+00 0. -1.
</event>
<event>
 5   0  0.3032442E-07  0.3698946E+04  0.7818609E-02  0.8068195E-01
        2   -1    0    0  501    0  0.00000000000E+00  0.00000000000E+00  0.21573571350E+04  0.21573571350E+04  0.25500000920E-02 0. -1.
       -2   -1    0    0    0  501  0.00000000000E+00  0.00000000000E+00 -0.15855280461E+04  0.15855280461E+04  0.25500000920E-02 0.  1.
    10030    2    1    2    0    0  0.00000000000E+00  0.00000000000E+00  0.57182908893E+03  0.37428851811E+04  0.36989459272E+04 0.  0.
        3    1    3    3  502    0  0.24736122289E+03  0.56046404820E+03  0.20517062726E+04  0.21412160477E+04  0.10100000352E+00 0. -1.
       -3    1    3    3    0  502 -0.24736122289E+03 -0.56046404820E+03 -0.14798771837E+04  0.16016691334E+04  0.10100000352E+00 0.  1.
</event>
<event>
 5   0  0.9341000E-08  0.3712090E+04  0.7818609E-02  0.8065288E-01
       -1   -1    0    0    0  501  0.00000000000E+00  0.00000000000E+00  0.18668542382E+04  0.18668542382E+04  0.50400001928E-02 0.  1.
        1   -1    0    0  501    0  0.00000000000E+00  0.00000000000E+00 -0.18452987236E+04  0.18452987236E+04  0.50400001928E-02 0. -1.
    10030    2    1    2    0    0  0.00000000000E+00  0.00000000000E+00  0.21555514624E+02  0.37121529619E+04  0.37120903777E+04 0.  0.
        3    1    3    3  502    0 -0.80829207060E+03  0.15366983479E+04  0.66662861884E+03  0.18598848377E+04  0.10100000352E+00 0.  1.
       -3    1    3    3    0  502  0.80829207060E+03 -0.15366983479E+04 -0.64507310421E+03  0.18522681242E+04  0.10100000352E+00 0. -1.
</event>
<event>
 5   0  0.9418945E-08  0.3698502E+04  0.7818609E-02  0.8068294E-01
       -1   -1    0    0    0  501  0.00000000000E+00  0.00000000000E+00  0.12824067527E+04  0.12824067527E+04  0.50400001928E-02 0.  1.
        1   -1    0    0  501    0  0.00000000000E+00  0.00000000000E+00 -0.26666487887E+04  0.26666487887E+04  0.50400001928E-02 0. -1.
    10030    2    1    2    0    0  0.00000000000E+00  0.00000000000E+00 -0.13842420360E+04  0.39490555415E+04  0.36985015419E+04 0.  0.
        5    1    3    3  502    0 -0.30843324660E+03  0.57446633928E+03 -0.25398327415E+04  0.26221966149E+04  0.46999998093E+01 0. -1.
       -5    1    3    3    0  502  0.30843324660E+03 -0.57446633928E+03  0.11555907054E+04  0.13268589266E+04  0.46999998093E+01 0.  1.
</event>
<event>
 5   0  0.9341000E-08  0.3744371E+04  0.7818609E-02  0.8058199E-01
       -1   -1    0    0    0  501  0.00000000000E+00  0.00000000000E+00  0.28735737190E+04  0.28735737190E+04  0.50400001928E-02 0. -1.
        1   -1    0    0  501    0  0.00000000000E+00  0.00000000000E+00 -0.12197628045E+04  0.12197628045E+04  0.50400001928E-02 0.  1.
    10030    2    1    2    0    0  0.00000000000E+00  0.00000000000E+00  0.16538109145E+04  0.40933365235E+04  0.37443708889E+04 0.  0.
        1    1    3    3  502    0  0.12563863694E+04 -0.31966584230E+03  0.23034851180E+04  0.26432435849E+04  0.50400001928E-02 0. -1.
       -1    1    3    3    0  502 -0.12563863694E+04  0.31966584230E+03 -0.64967420355E+03  0.14500929386E+04  0.50400001928E-02 0.  1.
</event>
<event>
 5   0  0.9341000E-08  0.3660950E+04  0.7818609E-02  0.8076671E-01
       -1   -1    0    0    0  501  0.00000000000E+00  0.00000000000E+00  0.15052172521E+04  0.15052172521E+04  0.50400001928E-02 0.  1.
        1   -1    0    0  501    0  0.00000000000E+00  0.00000000000E+00 -0.22260165891E+04  0.22260165891E+04  0.50400001928E-02 0. -1.
    10030    2    1    2    0    0  0.00000000000E+00  0.00000000000E+00 -0.72079933701E+03  0.37312338412E+04  0.36609499169E+04 0.  0.
        1    1    3    3  502    0 -0.75344417585E+03 -0.76790514820E+02  0.13380457626E+04  0.15375114218E+04  0.50400001928E-02 0.  1.
       -1    1    3    3    0  502  0.75344417585E+03  0.76790514820E+02 -0.20588450996E+04  0.21937224194E+04  0.50400001928E-02 0. -1.
</event>
<event>
 5   0  0.3032442E-07  0.3700563E+04  0.7818609E-02  0.8067837E-01
        2   -1    0    0  501    0  0.00000000000E+00  0.00000000000E+00  0.12756185901E+04  0.12756185901E+04  0.25500000920E-02 0. -1.
       -2   -1    0    0    0  501  0.00000000000E+00  0.00000000000E+00 -0.26838289729E+04  0.26838289729E+04  0.25500000920E-02 0.  1.
    10030    2    1    2    0    0  0.00000000000E+00  0.00000000000E+00 -0.14082103828E+04  0.39594475630E+04  0.37005632709E+04 0.  0.
        3    1    3    3  502    0 -0.59860902679E+03 -0.76703949114E+03  0.97979936300E+03  0.13808291530E+04  0.10100000352E+00 0. -1.
       -3    1    3    3    0  502  0.59860902679E+03  0.76703949114E+03 -0.23880097458E+04  0.25786184100E+04  0.10100000352E+00 0.  1.
</event>
<event>
 5   0  0.9341000E-08  0.3646631E+04  0.7818609E-02  0.8079893E-01
       -1   -1    0    0    0  501  0.00000000000E+00  0.00000000000E+00  0.25642410824E+04  0.25642410824E+04  0.50400001928E-02 0. -1.
        1   -1    0    0  501    0  0.00000000000E+00  0.00000000000E+00 -0.12964769318E+04  0.12964769318E+04  0.50400001928E-02 0.  1.
    10030    2    1    2    0    0  0.00000000000E+00  0.00000000000E+00  0.12677641506E+04  0.38607180142E+04  0.36466309991E+04 0.  0.
        1    1    3    3  502    0 -0.44734625364E+03 -0.36131988284E+03  0.24657252232E+04  0.25318909149E+04  0.50400001928E-02 0. -1.
       -1    1    3    3    0  502  0.44734625364E+03  0.36131988284E+03 -0.11979610726E+04  0.13288270993E+04  0.50400001928E-02 0.  1.
</event>
<event>
 5   0  0.9646615E-08  0.3686223E+04  0.7818609E-02  0.8071022E-01
        1   -1    0    0  501    0  0.00000000000E+00  0.00000000000E+00  0.24114584418E+04  0.24114584418E+04  0.50400001928E-02 0. -1.
       -1   -1    0    0    0  501  0.00000000000E+00  0.00000000000E+00 -0.14087162446E+04  0.14087162447E+04  0.50400001928E-02 0.  1.
    10030    2    1    2    0    0  0.00000000000E+00  0.00000000000E+00  0.10027421972E+04  0.38201746865E+04  0.36862233683E+04 0.  0.
        2    1    3    3  502    0  0.12943709841E+04  0.23908070931E+02  0.18609478309E+04  0.22669571389E+04  0.25500000920E-02 0. -1.
       -2    1    3    3    0  502 -0.12943709841E+04 -0.23908070931E+02 -0.85820563374E+03  0.15532175476E+04  0.25500000920E-02 0.  1.
</event>
<event>
 5   0  0.9418945E-08  0.3694025E+04  0.7818609E-02  0.8069287E-01
        1   -1    0    0  501    0  0.00000000000E+00  0.00000000000E+00  0.27706702826E+04  0.27706702826E+04  0.50400001928E-02 0. -1.
       -1   -1    0    0    0  501  0.00000000000E+00  0.00000000000E+00 -0.12312742747E+04  0.12312742747E+04  0.50400001928E-02 0.  1.
    10030    2    1    2    0    0  0.00000000000E+00  0.00000000000E+00  0.15393960079E+04  0.40019445573E+04  0.36940249282E+04 0.  0.
        5    1    3    3  502    0 -0.17882104559E+04 -0.29055820677E+03  0.38012300890E+03  0.18511175809E+04  0.46999998093E+01 0. -1.
       -5    1    3    3    0  502  0.17882104559E+04  0.29055820677E+03  0.11592729990E+04  0.21508269764E+04  0.46999998093E+01 0.  1.
</event>
<event>
 5   0  0.2897133E-07  0.3671815E+04  0.7818609E-02  0.8074237E-01
       -2   -1    0    0    0  501  0.00000000000E+00  0.00000000000E+00  0.14737778228E+04  0.14737778228E+04  0.25500000920E-02 0.  1.
        2   -1    0    0  501    0  0.00000000000E+00  0.00000000000E+00 -0.22870177733E+04  0.22870177733E+04  0.25500000920E-02 0. -1.
    10030    2    1    2    0    0  0.00000000000E+00  0.00000000000E+00 -0.81323995051E+03  0.37607955961E+04  0.36718148508E+04 0.  0.
        4    1    3    3  502    0  0.10489539295E+04 -0.75439178188E+03  0.92926598807E+03  0.15915238598E+04  0.12699999809E+01 0.  1.
       -4    1    3    3    0  502 -0.10489539295E+04  0.75439178188E+03 -0.17425059386E+04  0.21692717363E+04  0.12699999809E+01 0. -1.
</event>
<event>
 5   0  0.3032442E-07  0.3806217E+04  0.7818609E-02  0.8044822E-01
        2   -1    0    0  501    0  0.00000000000E+00  0.00000000000E+00  0.21184329256E+04  0.21184329256E+04  0.25500000920E-02 0. -1.
       -2   -1    0    0    0  501  0.00000000000E+00  0.00000000000E+00 -0.17096700268E+04  0.17096700268E+04  0.25500000920E-02 0.  1.
    10030    2    1    2    0    0  0.00000000000E+00  0.00000000000E+00  0.40876289876E+03  0.38281029523E+04  0.38062166394E+04 0.  0.
        3    1    3    3  502    0 -0.45650855684E+03 -0.18114220941E+04  0.57002551047E+03  0.19530947642E+04  0.10100000352E+00 0. -1.
       -3    1    3    3    0  502  0.45650855684E+03  0.18114220941E+04 -0.16126261171E+03  0.18750081881E+04  0.10100000352E+00 0.  1.
</event>
<event>
 5   0  0.9341000E-08  0.3609035E+04  0.7818609E-02  0.8088425E-01
        1   -1    0    0  501    0  0.00000000000E+00  0.00000000000E+00  0.16821926317E+04  0.16821926317E+04  0.50400001928E-02 0.  1.
       -1   -1    0    0    0  501  0.00000000000E+00  0.00000000000E+00 -0.19357372416E+04  0.19357372416E+04  0.50400001928E-02 0. -1.
    10030    2    1    2    0    0  0.00000000000E+00  0.00000000000E+00 -0.25354460989E+03  0.36179298734E+04  0.36090347323E+04 0.  0.
        1    1    3    3  502    0 -0.74699820908E+03 -0.13146139824E+04 -0.11141194536E+04  0.18781582479E+04  0.50400001928E-02 0. -1.
       -1    1    3    3    0  502  0.74699820908E+03  0.13146139824E+04  0.86057484370E+03  0.17397716255E+04  0.50400001928E-02 0.  1.
</event>
<event>
 5   0  0.9646615E-08  0.3818864E+04  0.7818609E-02  0.8042119E-01
       -1   -1    0    0    0  501  0.00000000000E+00  0.00000000000E+00  0.15702338808E+04  0.15702338808E+04  0.50400001928E-02 0.  1.
        1   -1    0    0  501    0  0.00000000000E+00  0.00000000000E+00 -0.23219030208E+04  0.23219030208E+04  0.50400001928E-02 0. -1.
    10030    2    1    2    0    0  0.00000000000E+00  0.00000000000E+00 -0.75166913995E+03  0.38921369016E+04  0.38188641197E+04 0.  0.
        2    1    3    3  502    0  0.16039971218E+04 -0.19299365675E+02  0.67977538936E+03  0.17422037229E+04  0.25500000920E-02 0.  1.
       -2    1    3    3    0  502 -0.16039971218E+04  0.19299365675E+02 -0.14314445293E+04  0.21499331787E+04  0.25500000920E-02 0. -1.
</event>
<event>
 5   0  0.9341000E-08  0.3669862E+04  0.7818609E-02  0.8074674E-01
       -1   -1    0    0    0  501  0.00000000000E+00  0.00000000000E+00  0.16083992368E+04  0.16083992369E+04  0.50400001928E-02 0. -1.
        1   -1    0    0  501    0  0.00000000000E+00  0.00000000000E+00 -0.20933681528E+04  0.20933681528E+04  0.50400001928E-02 0.  1.
    10030    2    1    2    0    0  0.00000000000E+00  0.00000000000E+00 -0.48496891594E+03  0.37017673897E+04  0.36698619807E+04 0.  0.
        4    1    3    3  502    0 -0.10376070836E+04  0.46685622500E+03  0.12096098281E+04  0.16606446772E+04  0.12699999809E+01 0. -1.
       -4    1    3    3    0  502  0.10376070836E+04 -0.46685622500E+03 -0.16945787440E+04  0.20411227125E+04  0.12699999809E+01 0.  1.
</event>
<event>
 5   0  0.9341000E-08  0.3701409E+04  0.7818609E-02  0.8067650E-01
       -1   -1    0    0    0  501  0.00000000000E+00  0.00000000000E+00  0.18770847914E+04  0.18770847914E+04  0.50400001928E-02 0.  1.
        1   -1    0    0  501    0  0.00000000000E+00  0.00000000000E+00 -0.18246947892E+04  0.18246947892E+04  0.50400001928E-02 0. -1.
    10030    2    1    2    0    0  0.00000000000E+00  0.00000000000E+00  0.52390002197E+02  0.37017795807E+04  0.37014088333E+04 0.  0.
        3    1    3    3  502    0  0.11624400001E+04 -0.11466287269E+04 -0.84514575266E+03  0.18385580069E+04  0.10100000352E+00 0. -1.
       -3    1    3    3    0  502 -0.11624400001E+04  0.11466287269E+04  0.89753575485E+03  0.18632215737E+04  0.10100000352E+00 0.  1.
</event>
<event>
 5   0  0.9341000E-08  0.3688808E+04  0.7818609E-02  0.8070447E-01
        1   -1    0    0  501    0  0.00000000000E+00  0.00000000000E+00  0.17957870540E+04  0.17957870540E+04  0.50400001928E-02 0.  1.
       -1   -1    0    0    0  501  0.00000000000E+00  0.00000000000E+00 -0.18943368460E+04  0.18943368460E+04  0.50400001928E-02 0. -1.
    10030    2    1    2    0    0  0.00000000000E+00  0.00000000000E+00 -0.98549792016E+02  0.36901239001E+04  0.36888077120E+04 0.  0.
        1    1    3    3  502    0  0.12332045423E+04 -0.82464877005E+03 -0.11455612354E+04  0.18743397720E+04  0.50400001928E-02 0. -1.
       -1    1    3    3    0  502 -0.12332045423E+04  0.82464877005E+03  0.10470114433E+04  0.18157841280E+04  0.50400001928E-02 0.  1.
</event>
<event>
 5   0  0.2897133E-07  0.3721725E+04  0.7818609E-02  0.8063164E-01
        2   -1    0    0  501    0  0.00000000000E+00  0.00000000000E+00  0.10487139635E+04  0.10487139635E+04  0.25500000920E-02 0.  1.
       -2   -1    0    0    0  501  0.00000000000E+00  0.00000000000E+00 -0.33019571251E+04  0.33019571251E+04  0.25500000920E-02 0. -1.
    10030    2    1    2    0    0  0.00000000000E+00  0.00000000000E+00 -0.22532431616E+04  0.43506710886E+04  0.37217246239E+04 0.  0.
        4    1    3    3  502    0 -0.10975018895E+04 -0.80628086701E+03 -0.26090819227E+04  0.29431121837E+04  0.12699999809E+01 0. -1.
       -4    1    3    3    0  502  0.10975018895E+04  0.80628086701E+03  0.35583876111E+03  0.14075589049E+04  0.12699999809E+01 0.  1.
</event>
<event>
 5   0  0.2897133E-07  0.3700804E+04  0.7818609E-02  0.8067784E-01
       -2   -1    0    0    0  501  0.00000000000E+00  0.00000000000E+00  0.23741697089E+04  0.23741697089E+04  0.25500000920E-02 0. -1.
        2   -1    0    0  501    0  0.00000000000E+00  0.00000000000E+00 -0.14421831886E+04  0.14421831886E+04  0.25500000920E-02 0.  1.
    10030    2    1    2    0    0  0.00000000000E+00  0.00000000000E+00  0.93198652030E+03  0.38163528975E+04  0.37008040429E+04 0.  0.
        4    1    3    3  502    0 -0.18346515611E+04 -0.22479261896E+03  0.37663940439E+03  0.18863554612E+04  0.12699999809E+01 0. -1.
       -4    1    3    3    0  502  0.18346515611E+04  0.22479261896E+03  0.55534711591E+03  0.19299974363E+04  0.12699999809E+01 0.  1.
</event>
<event>
 5   0  0.9341000E-08  0.3779364E+04  0.7818609E-02  0.8050598E-01
        1   -1    0    0  501    0  0.00000000000E+00  0.00000000000E+00  0.26089629617E+04  0.26089629617E+04  0.50400001928E-02 0. -1.
       -1   -1    0    0    0  501  0.00000000000E+00  0.00000000000E+00 -0.13687039702E+04  0.13687039702E+04  0.50400001928E-02 0.  1.
    10030    2    1    2    0    0  0.00000000000E+00  0.00000000000E+00  0.12402589915E+04  0.39776669319E+04  0.37793639485E+04 0.  0.
        3    1    3    3  502    0  0.98659183044E+03 -0.91747375679E+03 -0.77445330526E+03  0.15539946803E+04  0.10100000352E+00 0.  1.
       -3    1    3    3    0  502 -0.98659183044E+03  0.91747375679E+03  0.20147122968E+04  0.24236722516E+04  0.10100000352E+00 0. -1.
</event>
<event>
 5   0  0.9341000E-08  0.3682164E+04  0.7818609E-02  0.8071926E-01
       -1   -1    0    0    0  501  0.00000000000E+00  0.00000000000E+00  0.14734156017E+04  0.14734156017E+04  0.50400001928E-02 0.  1.
        1   -1    0    0  501    0  0.00000000000E+00  0.00000000000E+00 -0.23004930924E+04  0.23004930924E+04  0.50400001928E-02 0. -1.
    10030    2    1    2    0    0  0.00000000000E+00  0.00000000000E+00 -0.82707749068E+03  0.37739086941E+04  0.36821637194E+04 0.  0.
        4    1    3    3  502    0  0.15355440764E+03  0.95445365047E+03  0.11923513440E+04  0.15350127255E+04  0.12699999809E+01 0.  1.
       -4    1    3    3    0  502 -0.15355440764E+03 -0.95445365047E+03 -0.20194288347E+04  0.22388959686E+04  0.12699999809E+01 0. -1.
</event>
<event>
 5   0  0.2897133E-07  0.3722499E+04  0.7818609E-02  0.8062994E-01
        2   -1    0    0  501    0  0.00000000000E+00  0.00000000000E+00  0.26945931682E+04  0.26945931682E+04  0.25500000920E-02 0.  1.
       -2   -1    0    0    0  501  0.00000000000E+00  0.00000000000E+00 -0.12856296405E+04  0.12856296405E+04  0.25500000920E-02 0. -1.
    10030    2    1    2    0    0  0.00000000000E+00  0.00000000000E+00  0.14089635277E+04  0.39802228088E+04  0.37224985406E+04 0.  0.
        4    1    3    3  502    0  0.17328219166E+04  0.35953809558E+03  0.13208540642E+04  0.22083017250E+04  0.12699999809E+01 0.  1.
       -4    1    3    3    0  502 -0.17328219166E+04 -0.35953809558E+03  0.88109463494E+02  0.17719210838E+04  0.12699999809E+01 0. -1.
</event>
<event>
 5   0  0.2897133E-07  0.3695256E+04  0.7818609E-02  0.8069014E-01
       -2   -1    0    0    0  501  0.00000000000E+00  0.00000000000E+00  0.12292579911E+04  0.12292579911E+04  0.25500000920E-02 0.  1.
        2   -1    0    0  501    0  0.00000000000E+00  0.00000000000E+00 -0.27770646592E+04  0.27770646592E+04  0.25500000920E-02 0. -1.
    10030    2    1    2    0    0  0.00000000000E+00  0.00000000000E+00 -0.15478066681E+04  0.40063226503E+04  0.36952558364E+04 0.  0.
        4    1    3    3  502    0 -0.15493546560E+04 -0.96800645498E+03 -0.10731664173E+04  0.21187789217E+04  0.12699999809E+01 0. -1.
       -4    1    3    3    0  502  0.15493546560E+04  0.96800645498E+03 -0.47464025085E+03  0.18875437286E+04  0.12699999809E+01 0.  1.
</event>
<event>
 5   0  0.2913025E-07  0.3727350E+04  0.7818609E-02  0.8061928E-01
       -2   -1    0    0    0  501  0.00000000000E+00  0.00000000000E+00  0.10686972183E+04  0.10686972183E+04  0.25500000920E-02 0. -1.
        2   -1    0    0  501    0  0.00000000000E+00  0.00000000000E+00 -0.32500173738E+04  0.32500173738E+04  0.25500000920E-02 0.  1.
    10030    2    1    2    0    0  0.00000000000E+00  0.00000000000E+00 -0.21813201556E+04  0.43187145921E+04  0.37273500113E+04 0.  0.
        5    1    3    3  502    0 -0.86534987137E+03  0.16265180195E+04 -0.76526313582E+03  0.19950040162E+04  0.46999998093E+01 0. -1.
       -5    1    3    3    0  502  0.86534987137E+03 -0.16265180195E+04 -0.14160570198E+04  0.23237105759E+04  0.46999998093E+01 0.  1.
</event>
<event>
 5   0  0.2996969E-07  0.3237103E+04  0.7818609E-02  0.8179087E-01
        2   -1    0    0  501    0  0.00000000000E+00  0.00000000000E+00  0.23109080731E+04  0.23109080731E+04  0.25500000920E-02 0. -1.
       -2   -1    0    0    0  501  0.00000000000E+00  0.00000000000E+00 -0.11336274005E+04  0.11336274005E+04  0.25500000920E-02 0.  1.
    10030    2    1    2    0    0  0.00000000000E+00  0.00000000000E+00  0.11772806726E+04  0.34445354736E+04  0.32371028478E+04 0.  0.
        1    1    3    3  502    0  0.75104047150E+03 -0.13475685907E+04  0.67669456037E+02  0.15442091995E+04  0.50400001928E-02 0.  1.
       -1    1    3    3    0  502 -0.75104047150E+03  0.13475685907E+04  0.11096112165E+04  0.19003262742E+04  0.50400001928E-02 0. -1.
</event>
<event>
 5   0  0.9341000E-08  0.3709137E+04  0.7818609E-02  0.8065940E-01
        3   -1    0    0  501    0  0.00000000000E+00  0.00000000000E+00  0.19082451307E+04  0.19082451334E+04  0.10100000352E+00 0. -1.
       -3   -1    0    0    0  501  0.00000000000E+00  0.00000000000E+00 -0.18024016556E+04  0.18024016584E+04  0.10100000352E+00 0.  1.
    10030    2    1    2    0    0  0.00000000000E+00  0.00000000000E+00  0.10584347513E+03  0.37106467918E+04  0.37091369310E+04 0.  0.
        3    1    3    3  502    0  0.17702525433E+04  0.34056468090E+03  0.48858243340E+03  0.18677502974E+04  0.10100000352E+00 0.  1.
       -3    1    3    3    0  502 -0.17702525433E+04 -0.34056468090E+03 -0.38273895827E+03  0.18428964945E+04  0.10100000352E+00 0. -1.
</event>
<event>
 5   0  0.2913025E-07  0.3707565E+04  0.7818609E-02  0.8066287E-01
       -2   -1    0    0    0  501  0.00000000000E+00  0.00000000000E+00  0.11038662763E+04  0.11038662763E+04  0.25500000920E-02 0.  1.
        2   -1    0    0  501    0  0.00000000000E+00  0.00000000000E+00 -0.31131578184E+04  0.31131578184E+04  0.25500000920E-02 0. -1.
    10030    2    1    2    0    0  0.00000000000E+00  0.00000000000E+00 -0.20092915422E+04  0.42170240947E+04  0.37075652002E+04 0.  0.
        5    1    3    3  502    0  0.13474710853E+04 -0.85642430958E+02  0.44012314852E+03  0.14201209200E+04  0.46999998093E+01 0.  1.
       -5    1    3    3    0  502 -0.13474710853E+04  0.85642430958E+02 -0.24494146907E+04  0.27969031747E+04  0.46999998093E+01 0. -1.
</event>
<event>
 5   0  0.9646615E-08  0.3693280E+04  0.7818609E-02  0.8069453E-01
       -1   -1    0    0    0  501  0.00000000000E+00  0.00000000000E+00  0.16749064059E+04  0.16749064059E+04  0.50400001928E-02 0.  1.
        1   -1    0    0  501    0  0.00000000000E+00  0.00000000000E+00 -0.20359822579E+04  0.20359822579E+04  0.50400001928E-02 0. -1.
    10030    2    1    2    0    0  0.00000000000E+00  0.00000000000E+00 -0.36107585200E+03  0.37108886638E+04  0.36932802364E+04 0.  0.
        2    1    3    3  502    0 -0.72827151620E+03  0.58032415021E+03 -0.17827956374E+04  0.20113467641E+04  0.25500000920E-02 0. -1.
       -2    1    3    3    0  502  0.72827151620E+03 -0.58032415021E+03  0.14217197854E+04  0.16995418997E+04  0.25500000920E-02 0.  1.
</event>
<event>
 5   0  0.2913025E-07  0.3709016E+04  0.7818609E-02  0.8065967E-01
       -2   -1    0    0    0  501  0.00000000000E+00  0.00000000000E+00  0.29525750716E+04  0.29525750716E+04  0.25500000920E-02 0. -1.
        2   -1    0    0  501    0  0.00000000000E+00  0.00000000000E+00 -0.11648134305E+04  0.11648134305E+04  0.25500000920E-02 0.  1.
    10030    2    1    2    0    0  0.00000000000E+00  0.00000000000E+00  0.17877616410E+04  0.41173885021E+04  0.37090155556E+04 0.  0.
        5    1    3    3  502    0 -0.14029492150E+04 -0.26133020320E+03  0.22085992381E+04  0.26295422909E+04  0.46999998093E+01 0. -1.
       -5    1    3    3    0  502  0.14029492150E+04  0.26133020320E+03 -0.42083759710E+03  0.14878462112E+04  0.46999998093E+01 0.  1.
</event>
<event>
 5   0  0.9341000E-08  0.3679104E+04  0.7818609E-02  0.8072608E-01
       -1   -1    0    0    0  501  0.00000000000E+00  0.00000000000E+00  0.17696642424E+04  0.17696642424E+04  0.50400001928E-02 0. -1.
        1   -1    0    0  501    0  0.00000000000E+00  0.00000000000E+00 -0.19121998359E+04  0.19121998359E+04  0.50400001928E-02 0.  1.
    10030    2    1    2    0    0  0.00000000000E+00  0.00000000000E+00 -0.14253559353E+03  0.36818640782E+04  0.36791040615E+04 0.  0.
        3    1    3    3  502    0 -0.93049953918E+03  0.30357696207E+03 -0.16299866674E+04  0.19012745490E+04  0.10100000352E+00 0.  1.
       -3    1    3    3    0  502  0.93049953918E+03 -0.30357696207E+03  0.14874510739E+04  0.17805895293E+04  0.10100000352E+00 0. -1.
</event>
<event>
 5   0  0.9341000E-08  0.3719129E+04  0.7818609E-02  0.8063736E-01
        1   -1    0    0  501    0  0.00000000000E+00  0.00000000000E+00  0.13361691783E+04  0.13361691784E+04  0.50400001928E-02 0.  1.
       -1   -1    0    0    0  501  0.00000000000E+00  0.00000000000E+00 -0.25879803178E+04  0.25879803178E+04  0.50400001928E-02 0. -1.
    10030    2    1    2    0    0  0.00000000000E+00  0.00000000000E+00 -0.12518111394E+04  0.39241494961E+04  0.37191286801E+04 0.  0.
        4    1    3    3  502    0 -0.30635475127E+03 -0.17543339645E+04 -0.61204098081E+02  0.17819339065E+04  0.12699999809E+01 0.  1.
       -4    1    3    3    0  502  0.30635475127E+03  0.17543339645E+04 -0.11906070414E+04  0.21422155896E+04  0.12699999809E+01 0. -1.
</event>
<event>
 5   0  0.9418945E-08  0.3703491E+04  0.7818609E-02  0.8067189E-01
        1   -1    0    0  501    0  0.00000000000E+00  0.00000000000E+00  0.22359705465E+04  0.22359705465E+04  0.50400001928E-02 0. -1.
       -1   -1    0    0    0  501  0.00000000000E+00  0.00000000000E+00 -0.15335449203E+04  0.15335449203E+04  0.50400001928E-02 0.  1.
    10030    2    1    2    0    0  0.00000000000E+00  0.00000000000E+00  0.70242562615E+03  0.37695154668E+04  0.37034909334E+04 0.  0.
        5    1    3    3  502    0  0.78928491223E+02  0.13832619336E+04  0.16016487309E+04  0.21177686443E+04  0.46999998093E+01 0. -1.
       -5    1    3    3    0  502 -0.78928491223E+02 -0.13832619336E+04 -0.89922310473E+03  0.16517468225E+04  0.46999998093E+01 0.  1.
</event>
<event>
 5   0  0.9341000E-08  0.3750956E+04  0.7818609E-02  0.8056762E-01
        1   -1    0    0  501    0  0.00000000000E+00  0.00000000000E+00  0.11191805305E+04  0.11191805305E+04  0.50400001928E-02 0. -1.
       -1   -1    0    0    0  501  0.00000000000E+00  0.00000000000E+00 -0.31428514614E+04  0.31428514614E+04  0.50400001928E-02 0.  1.
    10030    2    1    2    0    0  0.00000000000E+00  0.00000000000E+00 -0.20236709309E+04  0.42620319919E+04  0.37509562332E+04 0.  0.
        3    1    3    3  502    0  0.97703067358E+03 -0.15322926526E+04 -0.48508921857E+03  0.18809096922E+04  0.10100000352E+00 0. -1.
       -3    1    3    3    0  502 -0.97703067358E+03  0.15322926526E+04 -0.15385817124E+04  0.23811222997E+04  0.10100000352E+00 0.  1.
</event>
<event>
 5   0  0.3008879E-07  0.3814141E+04  0.7818609E-02  0.8043127E-01
        2   -1    0    0  501    0  0.00000000000E+00  0.00000000000E+00  0.20036974963E+04  0.20036974963E+04  0.25500000920E-02 0.  1.
       -2   -1    0    0    0  501  0.00000000000E+00  0.00000000000E+00 -0.18151029695E+04  0.18151029695E+04  0.25500000920E-02 0. -1.
    10030    2    1    2    0    0  0.00000000000E+00  0.00000000000E+00  0.18859452676E+03  0.38188004658E+04  0.38141406768E+04 0.  0.
        2    1    3    3  502    0  0.14843052681E+04  0.80964045389E+03  0.97755272527E+03  0.19530205130E+04  0.25500000920E-02 0.  1.
       -2    1    3    3    0  502 -0.14843052681E+04 -0.80964045389E+03 -0.78895819850E+03  0.18657799528E+04  0.25500000920E-02 0. -1.
</event>
<event>
 5   0  0.9418945E-08  0.3774211E+04  0.7818609E-02  0.8051712E-01
       -1   -1    0    0    0  501  0.00000000000E+00  0.00000000000E+00  0.16697414315E+04  0.16697414315E+04  0.50400001928E-02 0. -1.
        1   -1    0    0  501    0  0.00000000000E+00  0.00000000000E+00 -0.21327654951E+04  0.21327654951E+04  0.50400001928E-02 0.  1.
    10030    2    1    2    0    0  0.00000000000E+00  0.00000000000E+00 -0.46302406355E+03  0.38025069266E+04  0.37742108637E+04 0.  0.
        5    1    3    3  502    0 -0.15477303647E+04 -0.53377594084E+03  0.71401150703E+03  0.17861188535E+04  0.46999998093E+01 0. -1.
       -5    1    3    3    0  502  0.15477303647E+04  0.53377594084E+03 -0.11770355706E+04  0.20163880731E+04  0.46999998093E+01 0.  1.
</event>
<event>
 5   0  0.9646615E-08  0.3705415E+04  0.7818609E-02  0.8066763E-01
       -1   -1    0    0    0  501  0.00000000000E+00  0.00000000000E+00  0.12219736883E+04  0.12219736883E+04  0.50400001928E-02 0. -1.
        1   -1    0    0  501    0  0.00000000000E+00  0.00000000000E+00 -0.28090008522E+04  0.28090008523E+04  0.50400001928E-02 0.  1.
    10030    2    1    2    0    0  0.00000000000E+00  0.00000000000E+00 -0.15870271640E+04  0.40309745405E+04  0.37054150277E+04 0.  0.
        2    1    3    3  502    0 -0.72525624697E+03 -0.69184374083E+03 -0.24885805945E+04  0.26828488144E+04  0.25500000920E-02 0.  1.
       -2    1    3    3    0  502  0.72525624697E+03  0.69184374083E+03  0.90155343052E+03  0.13481257262E+04  0.25500000920E-02 0. -1.
</event>
<event>
 5   0  0.9341000E-08  0.3699201E+04  0.7818609E-02  0.8068139E-01
        1   -1    0    0  501    0  0.00000000000E+00  0.00000000000E+00  0.20647927429E+04  0.20647927429E+04  0.50400001928E-02 0.  1.
       -1   -1    0    0    0  501  0.00000000000E+00  0.00000000000E+00 -0.16568351836E+04  0.16568351836E+04  0.50400001928E-02 0. -1.
    10030    2    1    2    0    0  0.00000000000E+00  0.00000000000E+00  0.40795755930E+03  0.37216279265E+04  0.36992005965E+04 0.  0.
        3    1    3    3  502    0  0.52906085209E+03  0.16167125518E+04 -0.52661703012E+03  0.17807274825E+04  0.10100000352E+00 0. -1.
       -3    1    3    3    0  502 -0.52906085209E+03 -0.16167125518E+04  0.93457458942E+03  0.19409004440E+04  0.10100000352E+00 0.  1.
</event>
<event>
 5   0  0.2996969E-07  0.3584130E+04  0.7818609E-02  0.8094137E-01
        2   -1    0    0  501    0  0.00000000000E+00  0.00000000000E+00  0.16055369158E+04  0.16055369158E+04  0.25500000920E-02 0.  1.
       -2   -1    0    0    0  501  0.00000000000E+00  0.00000000000E+00 -0.20002634697E+04  0.20002634697E+04  0.25500000920E-02 0. -1.
    10030    2    1    2    0    0  0.00000000000E+00  0.00000000000E+00 -0.39472655389E+03  0.36058003856E+04  0.35841299318E+04 0.  0.
        1    1    3    3  502    0  0.31036592851E+03  0.17493438691E+04  0.38502238379E+02  0.17770800219E+04  0.50400001928E-02 0.  1.
       -1    1    3    3    0  502 -0.31036592851E+03 -0.17493438691E+04 -0.43322879226E+03  0.18287203636E+04  0.50400001928E-02 0. -1.
</event>
<event>
 5   0  0.3008879E-07  0.3636151E+04  0.7818609E-02  0.8082261E-01
        2   -1    0    0  501    0  0.00000000000E+00  0.00000000000E+00  0.23338398684E+04  0.23338398684E+04  0.25500000920E-02 0.  1.
       -2   -1    0    0    0  501  0.00000000000E+00  0.00000000000E+00 -0.14162917407E+04  0.14162917407E+04  0.25500000920E-02 0. -1.
    10030    2    1    2    0    0  0.00000000000E+00  0.00000000000E+00  0.91754812763E+03  0.37501316091E+04  0.36361507833E+04 0.  0.
        2    1    3    3  502    0 -0.33503451618E+02 -0.85209367697E+03 -0.11972396887E+04  0.14698874065E+04  0.25500000920E-02 0. -1.
       -2    1    3    3    0  502  0.33503451618E+02  0.85209367697E+03  0.21147878163E+04  0.22802442026E+04  0.25500000920E-02 0.  1.
</event>
<event>
 5   0  0.9341000E-08  0.3702299E+04  0.7818609E-02  0.8067452E-01
       -1   -1    0    0    0  501  0.00000000000E+00  0.00000000000E+00  0.29200935672E+04  0.29200935672E+04  0.50400001928E-02 0. -1.
        1   -1    0    0  501    0  0.00000000000E+00  0.00000000000E+00 -0.11735085890E+04  0.11735085890E+04  0.50400001928E-02 0.  1.
    10030    2    1    2    0    0  0.00000000000E+00  0.00000000000E+00  0.17465849782E+04  0.40936021562E+04  0.37022992218E+04 0.  0.
        3    1    3    3  502    0 -0.10974408999E+03 -0.18079010798E+04  0.45051201589E+03  0.18664166647E+04  0.10100000352E+00 0.  1.
       -3    1    3    3    0  502  0.10974408999E+03  0.18079010798E+04  0.12960729623E+04  0.22271854915E+04  0.10100000352E+00 0. -1.
</event>
<event>
 5   0  0.2996969E-07  0.3667264E+04  0.7818609E-02  0.8075255E-01
       -2   -1    0    0    0  501  0.00000000000E+00  0.00000000000E+00  0.12880480986E+04  0.12880480986E+04  0.25500000920E-02 0. -1.
        2   -1    0    0  501    0  0.00000000000E+00  0.00000000000E+00 -0.26103112662E+04  0.26103112662E+04  0.25500000920E-02 0.  1.
    10030    2    1    2    0    0  0.00000000000E+00  0.00000000000E+00 -0.13222631677E+04  0.38983593648E+04  0.36672640828E+04 0.  0.
        1    1    3    3  502    0  0.29926524265E+03  0.43514331574E+03  0.12054516981E+04  0.13160635194E+04  0.50400001928E-02 0. -1.
       -1    1    3    3    0  502 -0.29926524265E+03 -0.43514331574E+03 -0.25277148657E+04  0.25822958454E+04  0.50400001928E-02 0.  1.
</event>
<event>
 5   0  0.9341000E-08  0.3649439E+04  0.7818609E-02  0.8079260E-01
       -1   -1    0    0    0  501  0.00000000000E+00  0.00000000000E+00  0.17692325683E+04  0.17692325684E+04  0.50400001928E-02 0.  1.
        1   -1    0    0  501    0  0.00000000000E+00  0.00000000000E+00 -0.18819467994E+04  0.18819467994E+04  0.50400001928E-02 0. -1.
    10030    2    1    2    0    0  0.00000000000E+00  0.00000000000E+00 -0.11271423106E+03  0.36511793678E+04  0.36494391730E+04 0.  0.
        1    1    3    3  502    0 -0.13912907820E+04 -0.48844801564E+03 -0.11317324644E+04  0.18587872054E+04  0.50400001928E-02 0. -1.
       -1    1    3    3    0  502  0.13912907820E+04  0.48844801564E+03  0.10190182333E+04  0.17923921624E+04  0.50400001928E-02 0.  1.
</event>
<event>
 5   0  0.9341000E-08  0.3406893E+04  0.7818609E-02  0.8136217E-01
        1   -1    0    0  501    0  0.00000000000E+00  0.00000000000E+00  0.17975068104E+04  0.17975068104E+04  0.50400001928E-02 0.  1.
       -1   -1    0    0    0  501  0.00000000000E+00  0.00000000000E+00 -0.16143080823E+04  0.16143080823E+04  0.50400001928E-02 0. -1.
    10030    2    1    2    0    0  0.00000000000E+00  0.00000000000E+00  0.18319872808E+03  0.34118148928E+04  0.34068928789E+04 0.  0.
        3    1    3    3  502    0 -0.17304469965E+03  0.15548779204E+04 -0.58327329536E+03  0.16696698964E+04  0.10100000352E+00 0. -1.
       -3    1    3    3    0  502  0.17304469965E+03 -0.15548779204E+04  0.76647202344E+03  0.17421449964E+04  0.10100000352E+00 0.  1.
</event>
<event>
 5   0  0.2897133E-07  0.3692840E+04  0.7818609E-02  0.8069550E-01
       -2   -1    0    0    0  501  0.00000000000E+00  0.00000000000E+00  0.22629880607E+04  0.22629880607E+04  0.25500000920E-02 0. -1.
        2   -1    0    0  501    0  0.00000000000E+00  0.00000000000E+00 -0.15065336321E+04  0.15065336321E+04  0.25500000920E-02 0.  1.
    10030    2    1    2    0    0  0.00000000000E+00  0.00000000000E+00  0.75645442856E+03  0.37695216928E+04  0.36928404366E+04 0.  0.
        4    1    3    3  502    0  0.10059938071E+04  0.30582061055E+03 -0.11710894590E+04  0.15738493955E+04  0.12699999809E+01 0.  1.
       -4    1    3    3    0  502 -0.10059938071E+04 -0.30582061055E+03  0.19275438876E+04  0.21956722973E+04  0.12699999809E+01 0. -1.
</event>
<event>
 5   0  0.9341000E-08  0.3692726E+04  0.7818609E-02  0.8069576E-01
       -4   -1    0    0    0  501  0.00000000000E+00  0.00000000000E+00  0.17993854731E+04  0.17993859212E+04  0.12699999809E+01 0. -1.
        4   -1    0    0  501    0  0.00000000000E+00  0.00000000000E+00 -0.18945661139E+04  0.18945665395E+04  0.12699999809E+01 0.  1.
    10030    2    1    2    0    0  0.00000000000E+00  0.00000000000E+00 -0.95180640810E+02  0.36939524608E+04  0.36927260158E+04 0.  0.
        4    1    3    3  502    0  0.68121345838E+03  0.68578596086E+03  0.15260502595E+04  0.18064288437E+04  0.12699999809E+01 0. -1.
       -4    1    3    3    0  502 -0.68121345838E+03 -0.68578596086E+03 -0.16212309003E+04  0.18875236171E+04  0.12699999809E+01 0.  1.
</event>
<event>
 5   0  0.2996969E-07  0.3702113E+04  0.7818609E-02  0.8067494E-01
       -2   -1    0    0    0  501  0.00000000000E+00  0.00000000000E+00  0.14811891910E+04  0.14811891910E+04  0.25500000920E-02 0. -1.
        2   -1    0    0  501    0  0.00000000000E+00  0.00000000000E+00 -0.23132829791E+04  0.23132829791E+04  0.25500000920E-02 0.  1.
    10030    2    1    2    0    0  0.00000000000E+00  0.00000000000E+00 -0.83209378810E+03  0.37944721700E+04  0.37021127720E+04 0.  0.
        1    1    3    3  502    0 -0.10683353289E+04  0.59330426547E+02 -0.19642097870E+04  0.22367343521E+04  0.50400001928E-02 0.  1.
       -1    1    3    3    0  502  0.10683353289E+04 -0.59330426547E+02  0.11321159989E+04  0.15577378179E+04  0.50400001928E-02 0. -1.
</event>
<event>
 5   0  0.2913025E-07  0.3729009E+04  0.7818609E-02  0.8061563E-01
       -2   -1    0    0    0  501  0.00000000000E+00  0.00000000000E+00  0.19308284764E+04  0.19308284764E+04  0.25500000920E-02 0. -1.
        2   -1    0    0  501    0  0.00000000000E+00  0.00000000000E+00 -0.18004589721E+04  0.18004589721E+04  0.25500000920E-02 0.  1.
    10030    2    1    2    0    0  0.00000000000E+00  0.00000000000E+00  0.13036950424E+03  0.37312874485E+04  0.37290092271E+04 0.  0.
        5    1    3    3  502    0 -0.51946537564E+03 -0.43910881796E+03  0.18022449309E+04  0.19263358252E+04  0.46999998093E+01 0. -1.
       -5    1    3    3    0  502  0.51946537564E+03  0.43910881796E+03 -0.16718754266E+04  0.18049516234E+04  0.46999998093E+01 0.  1.
</event>
<event>
 5   0  0.2897133E-07  0.3745612E+04  0.7818609E-02  0.8057928E-01
       -2   -1    0    0    0  501  0.00000000000E+00  0.00000000000E+00  0.33006851564E+04  0.33006851564E+04  0.25500000920E-02 0. -1.
        2   -1    0    0  501    0  0.00000000000E+00  0.00000000000E+00 -0.10626286625E+04  0.10626286625E+04  0.25500000920E-02 0.  1.
    10030    2    1    2    0    0  0.00000000000E+00  0.00000000000E+00  0.22380564939E+04  0.43633138189E+04  0.37456121813E+04 0.  0.
        4    1    3    3  502    0 -0.75880995042E+03 -0.16268299828E+04  0.17409575060E+04  0.25006605096E+04  0.12699999809E+01 0.  1.
       -4    1    3    3    0  502  0.75880995042E+03  0.16268299828E+04  0.49709898790E+03  0.18626533093E+04  0.12699999809E+01 0. -1.
</event>
<event>
 5   0  0.9341000E-08  0.3876465E+04  0.7818609E-02  0.8029942E-01
        1   -1    0    0  501    0  0.00000000000E+00  0.00000000000E+00  0.21588522063E+04  0.21588522063E+04  0.50400001928E-02 0.  1.
       -1   -1    0    0    0  501  0.00000000000E+00  0.00000000000E+00 -0.17401585626E+04  0.17401585627E+04  0.50400001928E-02 0. -1.
    10030    2    1    2    0    0  0.00000000000E+00  0.00000000000E+00  0.41869364369E+03  0.38990107690E+04  0.38764649630E+04 0.  0.
        3    1    3    3  502    0 -0.10806895873E+04  0.26408689000E+03 -0.13870557536E+04  0.17780763604E+04  0.10100000352E+00 0. -1.
       -3    1    3    3    0  502  0.10806895873E+04 -0.26408689000E+03  0.18057493973E+04  0.21209344086E+04  0.10100000352E+00 0.  1.
</event>
<event>
 5   0  0.9341000E-08  0.3760180E+04  0.7818609E-02  0.8054754E-01
       -1   -1    0    0    0  501  0.00000000000E+00  0.00000000000E+00  0.23141526100E+04  0.23141526100E+04  0.50400001928E-02 0.  1.
        1   -1    0    0  501    0  0.00000000000E+00  0.00000000000E+00 -0.15274442439E+04  0.15274442439E+04  0.50400001928E-02 0. -1.
    10030    2    1    2    0    0  0.00000000000E+00  0.00000000000E+00  0.78670836614E+03  0.38415968539E+04  0.37601803593E+04 0.  0.
        3    1    3    3  502    0  0.11798803942E+04 -0.15121687678E+03  0.18808163300E+04  0.22254110555E+04  0.10100000352E+00 0.  1.
       -3    1    3    3    0  502 -0.11798803942E+04  0.15121687678E+03 -0.10941079639E+04  0.16161857985E+04  0.10100000352E+00 0. -1.
</event>
<event>
 5   0  0.3032442E-07  0.3666462E+04  0.7818609E-02  0.8075435E-01
        2   -1    0    0  501    0  0.00000000000E+00  0.00000000000E+00  0.16160352608E+04  0.16160352608E+04  0.25500000920E-02 0. -1.
       -2   -1    0    0    0  501  0.00000000000E+00  0.00000000000E+00 -0.20796176569E+04  0.20796176569E+04  0.25500000920E-02 0.  1.
    10030    2    1    2    0    0  0.00000000000E+00  0.00000000000E+00 -0.46358239608E+03  0.36956529178E+04  0.36664617618E+04 0.  0.
        3    1    3    3  502    0 -0.22947311799E+03  0.64095153875E+03  0.14838941892E+04  0.16326110259E+04  0.10100000352E+00 0. -1.
       -3    1    3    3    0  502  0.22947311799E+03 -0.64095153875E+03 -0.19474765853E+04  0.20630418918E+04  0.10100000352E+00 0.  1.
</event>
<event>
 5   0  0.2897133E-07  0.3734348E+04  0.7818609E-02  0.8060392E-01
        2   -1    0    0  501    0  0.00000000000E+00  0.00000000000E+00  0.14040843946E+04  0.14040843946E+04  0.25500000920E-02 0.  1.
       -2   -1    0    0    0  501  0.00000000000E+00  0.00000000000E+00 -0.24829973611E+04  0.24829973611E+04  0.25500000920E-02 0. -1.
    10030    2    1    2    0    0  0.00000000000E+00  0.00000000000E+00 -0.10789129665E+04  0.38870817556E+04  0.37343475180E+04 0.  0.
        4    1    3    3  502    0 -0.33845039994E+03  0.17714905893E+04 -0.10425554277E+04  0.20831829046E+04  0.12699999809E+01 0. -1.
       -4    1    3    3    0  502  0.33845039994E+03 -0.17714905893E+04 -0.36357538790E+02  0.18038988510E+04  0.12699999809E+01 0.  1.
</event>
<event>
 5   0  0.9341000E-08  0.3696615E+04  0.7818609E-02  0.8068712E-01
       -1   -1    0    0    0  501  0.00000000000E+00  0.00000000000E+00  0.15027666629E+04  0.15027666629E+04  0.50400001928E-02 0.  1.
        1   -1    0    0  501    0  0.00000000000E+00  0.00000000000E+00 -0.22733008691E+04  0.22733008692E+04  0.50400001928E-02 0. -1.
    10030    2    1    2    0    0  0.00000000000E+00  0.00000000000E+00 -0.77053420622E+03  0.37760675321E+04  0.36966150792E+04 0.  0.
        4    1    3    3  502    0  0.28863325566E+03  0.13739159553E+04 -0.16133063894E+04  0.21386241669E+04  0.12699999809E+01 0. -1.
       -4    1    3    3    0  502 -0.28863325566E+03 -0.13739159553E+04  0.84277218316E+03  0.16374433652E+04  0.12699999809E+01 0.  1.
</event>
<event>
 5   0  0.9341000E-08  0.3704777E+04  0.7818609E-02  0.8066904E-01
       -1   -1    0    0    0  501  0.00000000000E+00  0.00000000000E+00  0.17101698998E+04  0.17101698998E+04  0.50400001928E-02 0. -1.
        1   -1    0    0  501    0  0.00000000000E+00  0.00000000000E+00 -0.20064343095E+04  0.20064343095E+04  0.50400001928E-02 0.  1.
    10030    2    1    2    0    0  0.00000000000E+00  0.00000000000E+00 -0.29626440972E+03  0.37166042093E+04  0.37047772198E+04 0.  0.
        1    1    3    3  502    0  0.30822039727E+03  0.14443257198E+04 -0.12698551273E+04  0.19477188304E+04  0.50400001928E-02 0.  1.
       -1    1    3    3    0  502 -0.30822039727E+03 -0.14443257198E+04  0.97359071754E+03  0.17688853789E+04  0.50400001928E-02 0. -1.
</event>
<event>
 5   0  0.9646615E-08  0.3722478E+04  0.7818609E-02  0.8062999E-01
        1   -1    0    0  501    0  0.00000000000E+00  0.00000000000E+00  0.25025558238E+04  0.25025558238E+04  0.50400001928E-02 0.  1.
       -1   -1    0    0    0  501  0.00000000000E+00  0.00000000000E+00 -0.13842693768E+04  0.13842693768E+04  0.50400001928E-02 0. -1.
    10030    2    1    2    0    0  0.00000000000E+00  0.00000000000E+00  0.11182864470E+04  0.38868252007E+04  0.37224784167E+04 0.  0.
        2    1    3    3  502    0 -0.80587938261E+03 -0.29244451200E+03  0.22841236214E+04  0.24397102471E+04  0.25500000920E-02 0.  1.
       -2    1    3    3    0  502  0.80587938261E+03  0.29244451200E+03 -0.11658371743E+04  0.14471149536E+04  0.25500000920E-02 0. -1.
</event>
<event>
 5   0  0.2897133E-07  0.3699405E+04  0.7818609E-02  0.8068094E-01
       -2   -1    0    0    0  501  0.00000000000E+00  0.00000000000E+00  0.17609013467E+04  0.17609013467E+04  0.25500000920E-02 0. -1.
        2   -1    0    0  501    0  0.00000000000E+00  0.00000000000E+00 -0.19429821192E+04  0.19429821192E+04  0.25500000920E-02 0.  1.
    10030    2    1    2    0    0  0.00000000000E+00  0.00000000000E+00 -0.18208077250E+03  0.37038834659E+04  0.36994052659E+04 0.  0.
        4    1    3    3  502    0  0.60173630413E+03  0.23844825485E+03 -0.18258970149E+04  0.19372262831E+04  0.12699999809E+01 0.  1.
       -4    1    3    3    0  502 -0.60173630413E+03 -0.23844825485E+03  0.16438162424E+04  0.17666571828E+04  0.12699999809E+01 0. -1.
</event>
<event>
 5   0  0.2897133E-07  0.3701355E+04  0.7818609E-02  0.8067662E-01
        2   -1    0    0  501    0  0.00000000000E+00  0.00000000000E+00  0.18187357452E+04  0.18187357452E+04  0.25500000920E-02 0. -1.
       -2   -1    0    0    0  501  0.00000000000E+00  0.00000000000E+00 -0.18831805526E+04  0.18831805526E+04  0.25500000920E-02 0.  1.
    10030    2    1    2    0    0  0.00000000000E+00  0.00000000000E+00 -0.64444807393E+02  0.37019162978E+04  0.37013553116E+04 0.  0.
        4    1    3    3  502    0  0.13642324398E+04 -0.71055885120E+03  0.99700214425E+03  0.18330408940E+04  0.12699999809E+01 0. -1.
       -4    1    3    3    0  502 -0.13642324398E+04  0.71055885120E+03 -0.10614469516E+04  0.18688754038E+04  0.12699999809E+01 0.  1.
</event>
<event>
 5   0  0.2913025E-07  0.3692736E+04  0.7818609E-02  0.8069573E-01
       -2   -1    0    0    0  501  0.00000000000E+00  0.00000000000E+00  0.19260031705E+04  0.19260031705E+04  0.25500000920E-02 0.  1.
        2   -1    0    0  501    0  0.00000000000E+00  0.00000000000E+00 -0.17700260068E+04  0.17700260068E+04  0.25500000920E-02 0. -1.
    10030    2    1    2    0    0  0.00000000000E+00  0.00000000000E+00  0.15597716378E+03  0.36960291773E+04  0.36927364926E+04 0.  0.
        5    1    3    3  502    0 -0.13973036248E+03  0.94189327129E+03 -0.15053088120E+04  0.17811974113E+04  0.46999998093E+01 0. -1.
       -5    1    3    3    0  502  0.13973036248E+03 -0.94189327129E+03  0.16612859757E+04  0.19148317660E+04  0.46999998093E+01 0.  1.
</event>
<event>
 5   0  0.9341000E-08  0.3757219E+04  0.7818609E-02  0.8055398E-01
        1   -1    0    0  501    0  0.00000000000E+00  0.00000000000E+00  0.25310237559E+04  0.25310237559E+04  0.50400001928E-02 0.  1.
       -1   -1    0    0    0  501  0.00000000000E+00  0.00000000000E+00 -0.13943662094E+04  0.13943662094E+04  0.50400001928E-02 0. -1.
    10030    2    1    2    0    0  0.00000000000E+00  0.00000000000E+00  0.11366575466E+04  0.39253899653E+04  0.37572191846E+04 0.  0.
        3    1    3    3  502    0 -0.27632030482E+03  0.12741196111E+04 -0.84477936355E+03  0.15535076046E+04  0.10100000352E+00 0. -1.
       -3    1    3    3    0  502  0.27632030482E+03 -0.12741196111E+04  0.19814369101E+04  0.23718823607E+04  0.10100000352E+00 0.  1.
</event>
<event>
 5   0  0.9646615E-08  0.3706150E+04  0.7818609E-02  0.8066600E-01
       -1   -1    0    0    0  501  0.00000000000E+00  0.00000000000E+00  0.23273918452E+04  0.23273918452E+04  0.50400001928E-02 0.  1.
        1   -1    0    0  501    0  0.00000000000E+00  0.00000000000E+00 -0.14754229375E+04  0.14754229375E+04  0.50400001928E-02 0. -1.
    10030    2    1    2    0    0  0.00000000000E+00  0.00000000000E+00  0.85196890774E+03  0.38028147827E+04  0.37061501928E+04 0.  0.
        2    1    3    3  502    0  0.16832105940E+04  0.64043234084E+03  0.87387354200E+03  0.20017508472E+04  0.25500000920E-02 0.  1.
       -2    1    3    3    0  502 -0.16832105940E+04 -0.64043234084E+03 -0.21904634257E+02  0.18010639355E+04  0.25500000920E-02 0. -1.
</event>
<event>
 5   0  0.2996969E-07  0.3700233E+04  0.7818609E-02  0.8067910E-01
        2   -1    0    0  501    0  0.00000000000E+00  0.00000000000E+00  0.21006158028E+04  0.21006158028E+04  0.25500000920E-02 0.  1.
       -2   -1    0    0    0  501  0.00000000000E+00  0.00000000000E+00 -0.16294891113E+04  0.16294891113E+04  0.25500000920E-02 0. -1.
    10030    2    1    2    0    0  0.00000000000E+00  0.00000000000E+00  0.47112669152E+03  0.37301049142E+04  0.37002327374E+04 0.  0.
        1    1    3    3  502    0 -0.82651388581E+02 -0.83940975986E+03 -0.14243906647E+04  0.16553938392E+04  0.50400001928E-02 0. -1.
       -1    1    3    3    0  502  0.82651388581E+02  0.83940975986E+03  0.18955173562E+04  0.20747110750E+04  0.50400001928E-02 0.  1.
</event>
<event>
 5   0  0.9341000E-08  0.3713121E+04  0.7818609E-02  0.8065060E-01
       -1   -1    0    0    0  501  0.00000000000E+00  0.00000000000E+00  0.14757095177E+04  0.14757095177E+04  0.50400001928E-02 0. -1.
        1   -1    0    0  501    0  0.00000000000E+00  0.00000000000E+00 -0.23357008949E+04  0.23357008949E+04  0.50400001928E-02 0.  1.
    10030    2    1    2    0    0  0.00000000000E+00  0.00000000000E+00 -0.85999137721E+03  0.38114104126E+04  0.37131205427E+04 0.  0.
        4    1    3    3  502    0  0.21888758620E+03 -0.20793398695E+02  0.14622974140E+04  0.14787357711E+04  0.12699999809E+01 0. -1.
       -4    1    3    3    0  502 -0.21888758620E+03  0.20793398695E+02 -0.23222887912E+04  0.23326746416E+04  0.12699999809E+01 0.  1.
</event>
<event>
 5   0  0.2897133E-07  0.3704541E+04  0.7818609E-02  0.8066956E-01
        2   -1    0    0  501    0  0.00000000000E+00  0.00000000000E+00  0.14130591051E+04  0.14130591051E+04  0.25500000920E-02 0. -1.
       -2   -1    0    0    0  501  0.00000000000E+00  0.00000000000E+00 -0.24279985089E+04  0.24279985089E+04  0.25500000920E-02 0.  1.
    10030    2    1    2    0    0  0.00000000000E+00  0.00000000000E+00 -0.10149394038E+04  0.38410576140E+04  0.37045406733E+04 0.  0.
        4    1    3    3  502    0 -0.17163474473E+04 -0.64451718996E+03 -0.23382578132E+03  0.18482226805E+04  0.12699999809E+01 0.  1.
       -4    1    3    3    0  502  0.17163474473E+04  0.64451718996E+03 -0.78111362249E+03  0.19928349335E+04  0.12699999809E+01 0. -1.
</event>
<event>
 5   0  0.3008879E-07  0.3700382E+04  0.7818609E-02  0.8067877E-01
        2   -1    0    0  501    0  0.00000000000E+00  0.00000000000E+00  0.10411410114E+04  0.10411410114E+04  0.25500000920E-02 0. -1.
       -2   -1    0    0    0  501  0.00000000000E+00  0.00000000000E+00 -0.32879374843E+04  0.32879374843E+04  0.25500000920E-02 0.  1.
    10030    2    1    2    0    0  0.00000000000E+00  0.00000000000E+00 -0.22467964729E+04  0.43290784958E+04  0.37003819035E+04 0.  0.
        2    1    3    3  502    0 -0.93070820327E+03 -0.31338776163E+03 -0.29578592024E+04  0.31166264951E+04  0.25500000920E-02 0.  1.
       -2    1    3    3    0  502  0.93070820327E+03  0.31338776163E+03  0.71106272943E+03  0.12124520007E+04  0.25500000920E-02 0. -1.
</event>
<event>
 5   0  0.9341000E-08  0.3609238E+04  0.7818609E-02  0.8088379E-01
        1   -1    0    0  501    0  0.00000000000E+00  0.00000000000E+00  0.11087020208E+04  0.11087020209E+04  0.50400001928E-02 0. -1.
       -1   -1    0    0    0  501  0.00000000000E+00  0.00000000000E+00 -0.29373537565E+04  0.29373537565E+04  0.50400001928E-02 0.  1.
    10030    2    1    2    0    0  0.00000000000E+00  0.00000000000E+00 -0.18286517357E+04  0.40460557774E+04  0.36092381721E+04 0.  0.
        1    1    3    3  502    0  0.63448394139E+02 -0.13458047958E+04 -0.22602285982E+04  0.26313208780E+04  0.50400001928E-02 0.  1.
       -1    1    3    3    0  502 -0.63448394139E+02  0.13458047958E+04  0.43157686250E+03  0.14147348993E+04  0.50400001928E-02 0. -1.
</event>
<event>
 5   0  0.2897133E-07  0.3718342E+04  0.7818609E-02  0.8063909E-01
        2   -1    0    0  501    0  0.00000000000E+00  0.00000000000E+00  0.15321349640E+04  0.15321349640E+04  0.25500000920E-02 0. -1.
       -2   -1    0    0    0  501  0.00000000000E+00  0.00000000000E+00 -0.22560136480E+04  0.22560136480E+04  0.25500000920E-02 0.  1.
    10030    2    1    2    0    0  0.00000000000E+00  0.00000000000E+00 -0.72387868403E+03  0.37881486120E+04  0.37183423131E+04 0.  0.
        4    1    3    3  502    0 -0.18329889678E+04  0.30902316011E+03 -0.32706354073E+03  0.18874098765E+04  0.12699999809E+01 0.  1.
       -4    1    3    3    0  502  0.18329889678E+04 -0.30902316011E+03 -0.39681514330E+03  0.19007387354E+04  0.12699999809E+01 0. -1.
</event>
<event>
 5   0  0.9341000E-08  0.3431480E+04  0.7818609E-02  0.8130223E-01
        1   -1    0    0  501    0  0.00000000000E+00  0.00000000000E+00  0.23936873226E+04  0.23936873227E+04  0.50400001928E-02 0.  1.
       -1   -1    0    0    0  501  0.00000000000E+00  0.00000000000E+00 -0.12298029842E+04  0.12298029842E+04  0.50400001928E-02 0. -1.
    10030    2    1    2    0    0  0.00000000000E+00  0.00000000000E+00  0.11638843384E+04  0.36234903069E+04  0.34314800380E+04 0.  0.
        3    1    3    3  502    0  0.48931893990E+03 -0.70503794853E+03 -0.98687239695E+03  0.13078335796E+04  0.10100000352E+00 0. -1.
       -3    1    3    3    0  502 -0.48931893990E+03  0.70503794853E+03  0.21507567354E+04  0.23156567273E+04  0.10100000352E+00 0.  1.
</event>
<event>
 5   0  0.2913025E-07  0.3644427E+04  0.7818609E-02  0.8080390E-01
        2   -1    0    0  501    0  0.00000000000E+00  0.00000000000E+00  0.24863025329E+04  0.24863025329E+04  0.25500000920E-02 0.  1.
       -2   -1    0    0    0  501  0.00000000000E+00  0.00000000000E+00 -0.13355018100E+04  0.13355018100E+04  0.25500000920E-02 0. -1.
    10030    2    1    2    0    0  0.00000000000E+00  0.00000000000E+00  0.11508007229E+04  0.38218043429E+04  0.36444267220E+04 0.  0.
        5    1    3    3  502    0  0.11880378540E+04  0.77033107180E+03  0.17782197599E+04  0.22730885392E+04  0.46999998093E+01 0.  1.
       -5    1    3    3    0  502 -0.11880378540E+04 -0.77033107180E+03 -0.62741903699E+03  0.15487158037E+04  0.46999998093E+01 0. -1.
</event>
<event>
 5   0  0.2913025E-07  0.3735910E+04  0.7818609E-02  0.8060050E-01
        2   -1    0    0  501    0  0.00000000000E+00  0.00000000000E+00  0.22661289411E+04  0.22661289411E+04  0.25500000920E-02 0. -1.
       -2   -1    0    0    0  501  0.00000000000E+00  0.00000000000E+00 -0.15397431916E+04  0.15397431916E+04  0.25500000920E-02 0.  1.
    10030    2    1    2    0    0  0.00000000000E+00  0.00000000000E+00  0.72638574956E+03  0.38058721327E+04  0.37359103888E+04 0.  0.
        5    1    3    3  502    0  0.56998198083E+03  0.13313146596E+03 -0.14439007594E+04  0.15580356025E+04  0.46999998093E+01 0.  1.
       -5    1    3    3    0  502 -0.56998198083E+03 -0.13313146596E+03  0.21702865089E+04  0.22478365302E+04  0.46999998093E+01 0. -1.
</event>
<event>
 5   0  0.2996969E-07  0.3755462E+04  0.7818609E-02  0.8055781E-01
        2   -1    0    0  501    0  0.00000000000E+00  0.00000000000E+00  0.20686007058E+04  0.20686007058E+04  0.25500000920E-02 0.  1.
       -2   -1    0    0    0  501  0.00000000000E+00  0.00000000000E+00 -0.17044727128E+04  0.17044727128E+04  0.25500000920E-02 0. -1.
    10030    2    1    2    0    0  0.00000000000E+00  0.00000000000E+00  0.36412799302E+03  0.37730734186E+04  0.37554618660E+04 0.  0.
        1    1    3    3  502    0 -0.18000871320E+04 -0.50628584847E+03  0.10281428207E+02  0.18699584891E+04  0.50400001928E-02 0.  1.
       -1    1    3    3    0  502  0.18000871320E+04  0.50628584847E+03  0.35384656481E+03  0.19031149295E+04  0.50400001928E-02 0. -1.
</event>
<event>
 5   0  0.9341000E-08  0.3718100E+04  0.7818609E-02  0.8063962E-01
        1   -1    0    0  501    0  0.00000000000E+00  0.00000000000E+00  0.20156438525E+04  0.20156438525E+04  0.50400001928E-02 0. -1.
       -1   -1    0    0    0  501  0.00000000000E+00  0.00000000000E+00 -0.17146221879E+04  0.17146221879E+04  0.50400001928E-02 0.  1.
    10030    2    1    2    0    0  0.00000000000E+00  0.00000000000E+00  0.30102166461E+03  0.37302660405E+04  0.37181004142E+04 0.  0.
        4    1    3    3  502    0  0.51768905283E+03  0.43886007540E+03 -0.15858935963E+04  0.17250102124E+04  0.12699999809E+01 0.  1.
       -4    1    3    3    0  502 -0.51768905283E+03 -0.43886007540E+03  0.18869152609E+04  0.20052558281E+04  0.12699999809E+01 0. -1.
</event>
<event>
 5   0  0.9341000E-08  0.3679584E+04  0.7818609E-02  0.8072501E-01
        1   -1    0    0  501    0  0.00000000000E+00  0.00000000000E+00  0.24261561446E+04  0.24261561446E+04  0.50400001928E-02 0.  1.
       -1   -1    0    0    0  501  0.00000000000E+00  0.00000000000E+00 -0.13951431387E+04  0.13951431388E+04  0.50400001928E-02 0. -1.
    10030    2    1    2    0    0  0.00000000000E+00  0.00000000000E+00  0.10310130059E+04  0.38212992834E+04  0.36795842693E+04 0.  0.
        3    1    3    3  502    0  0.10709007798E+04  0.74211054035E+03 -0.83347406168E+03  0.15466853448E+04  0.10100000352E+00 0. -1.
       -3    1    3    3    0  502 -0.10709007798E+04 -0.74211054035E+03  0.18644870676E+04  0.22746139386E+04  0.10100000352E+00 0.  1.
</event>
<event>
 5   0  0.9341000E-08  0.3678702E+04  0.7818609E-02  0.8072698E-01
        1   -1    0    0  501    0  0.00000000000E+00  0.00000000000E+00  0.21361613338E+04  0.21361613338E+04  0.50400001928E-02 0. -1.
       -1   -1    0    0    0  501  0.00000000000E+00  0.00000000000E+00 -0.15837808924E+04  0.15837808924E+04  0.50400001928E-02 0.  1.
    10030    2    1    2    0    0  0.00000000000E+00  0.00000000000E+00  0.55238044143E+03  0.37199422262E+04  0.36787016751E+04 0.  0.
        3    1    3    3  502    0  0.16037279525E+04  0.89194593277E+03  0.14948346845E+03  0.18411562156E+04  0.10100000352E+00 0. -1.
       -3    1    3    3    0  502 -0.16037279525E+04 -0.89194593277E+03  0.40289697297E+03  0.18787860106E+04  0.10100000352E+00 0.  1.
</event>
<event>
 5   0  0.2897133E-07  0.3685742E+04  0.7818609E-02  0.8071129E-01
       -2   -1    0    0    0  501  0.00000000000E+00  0.00000000000E+00  0.19422769154E+04  0.19422769154E+04  0.25500000920E-02 0. -1.
        2   -1    0    0  501    0  0.00000000000E+00  0.00000000000E+00 -0.17485528601E+04  0.17485528601E+04  0.25500000920E-02 0.  1.
    10030    2    1    2    0    0  0.00000000000E+00  0.00000000000E+00  0.19372405534E+03  0.36908297756E+04  0.36857421807E+04 0.  0.
        4    1    3    3  502    0 -0.98918792158E+03 -0.43578704540E+03 -0.13977695568E+04  0.17669647534E+04  0.12699999809E+01 0.  1.
       -4    1    3    3    0  502  0.98918792158E+03  0.43578704540E+03  0.15914936121E+04  0.19238650221E+04  0.12699999809E+01 0. -1.
</event>
<event>
 5   0  0.9341000E-08  0.3753740E+04  0.7818609E-02  0.8056156E-01
       -3   -1    0    0    0  501  0.00000000000E+00  0.00000000000E+00  0.14162026450E+04  0.14162026486E+04  0.10100000352E+00 0.  1.
        3   -1    0    0  501    0  0.00000000000E+00  0.00000000000E+00 -0.24873844526E+04  0.24873844546E+04  0.10100000352E+00 0. -1.
    10030    2    1    2    0    0  0.00000000000E+00  0.00000000000E+00 -0.10711818076E+04  0.39035871033E+04  0.37537397097E+04 0.  0.
        2    1    3    3  502    0  0.57374543622E+03 -0.10696173753E+04 -0.20243021470E+04  0.23603102206E+04  0.25500000920E-02 0. -1.
       -2    1    3    3    0  502 -0.57374543622E+03  0.10696173753E+04  0.95312033946E+03  0.15432768827E+04  0.25500000920E-02 0.  1.
</event>
<event>
 5   0  0.9341000E-08  0.3633954E+04  0.7818609E-02  0.8082758E-01
       -1   -1    0    0    0  501  0.00000000000E+00  0.00000000000E+00  0.11808154128E+04  0.11808154128E+04  0.50400001928E-02 0. -1.
        1   -1    0    0  501    0  0.00000000000E+00  0.00000000000E+00 -0.27958686886E+04  0.27958686886E+04  0.50400001928E-02 0.  1.
    10030    2    1    2    0    0  0.00000000000E+00  0.00000000000E+00 -0.16150532758E+04  0.39766841014E+04  0.36339536814E+04 0.  0.
        1    1    3    3  502    0  0.23936947939E+03  0.51188650462E+03 -0.26972633467E+04  0.27558220376E+04  0.50400001928E-02 0.  1.
       -1    1    3    3    0  502 -0.23936947939E+03 -0.51188650462E+03  0.10822100709E+04  0.12208620638E+04  0.50400001928E-02 0. -1.
</event>
<event>
 5   0  0.9646615E-08  0.3655737E+04  0.7818609E-02  0.8077842E-01
        1   -1    0    0  501    0  0.00000000000E+00  0.00000000000E+00  0.97686130277E+03  0.97686130279E+03  0.50400001928E-02 0.  1.
       -1   -1    0    0    0  501  0.00000000000E+00  0.00000000000E+00 -0.34202430012E+04  0.34202430012E+04  0.50400001928E-02 0. -1.
    10030    2    1    2    0    0  0.00000000000E+00  0.00000000000E+00 -0.24433816984E+04  0.43971043040E+04  0.36557368800E+04 0.  0.
        2    1    3    3  502    0 -0.83606550926E+03 -0.14100431184E+04 -0.21943025810E+04  0.27390127690E+04  0.25500000920E-02 0. -1.
       -2    1    3    3    0  502  0.83606550926E+03  0.14100431184E+04 -0.24907911738E+03  0.16580915350E+04  0.25500000920E-02 0.  1.
</event>
<event>
 5   0  0.3032442E-07  0.3702654E+04  0.7818609E-02  0.8067374E-01
       -2   -1    0    0    0  501  0.00000000000E+00  0.00000000000E+00  0.23377759228E+04  0.23377759228E+04  0.25500000920E-02 0. -1.
        2   -1    0    0  501    0  0.00000000000E+00  0.00000000000E+00 -0.14660995771E+04  0.14660995771E+04  0.25500000920E-02 0.  1.
    10030    2    1    2    0    0  0.00000000000E+00  0.00000000000E+00  0.87167634567E+03  0.38038754999E+04  0.37026543408E+04 0.  0.
        3    1    3    3  502    0 -0.79170699367E+03 -0.11065856539E+03  0.21513277771E+04  0.22950504345E+04  0.10100000352E+00 0. -1.
       -3    1    3    3    0  502  0.79170699367E+03  0.11065856539E+03 -0.12796514315E+04  0.15088250655E+04  0.10100000352E+00 0.  1.
</event>
<event>
 5   0  0.2897133E-07  0.3716426E+04  0.7818609E-02  0.8064331E-01
       -2   -1    0    0    0  501  0.00000000000E+00  0.00000000000E+00  0.28738784599E+04  0.28738784599E+04  0.25500000920E-02 0.  1.
        2   -1    0    0  501    0  0.00000000000E+00  0.00000000000E+00 -0.12014967049E+04  0.12014967049E+04  0.25500000920E-02 0. -1.
    10030    2    1    2    0    0  0.00000000000E+00  0.00000000000E+00  0.16723817550E+04  0.40753751647E+04  0.37164259711E+04 0.  0.
        4    1    3    3  502    0 -0.66597568684E+03 -0.60031784463E+03 -0.94859895847E+03  0.13052764944E+04  0.12699999809E+01 0. -1.
       -4    1    3    3    0  502  0.66597568684E+03  0.60031784463E+03  0.26209807134E+04  0.27700986703E+04  0.12699999809E+01 0.  1.
</event>
<event>
 5   0  0.2996969E-07  0.3691588E+04  0.7818609E-02  0.8069829E-01
        2   -1    0    0  501    0  0.00000000000E+00  0.00000000000E+00  0.15477908446E+04  0.15477908446E+04  0.25500000920E-02 0. -1.
       -2   -1    0    0    0  501  0.00000000000E+00  0.00000000000E+00 -0.22011725202E+04  0.22011725202E+04  0.25500000920E-02 0.  1.
    10030    2    1    2    0    0  0.00000000000E+00  0.00000000000E+00 -0.65338167559E+03  0.37489633647E+04  0.36915875577E+04 0.  0.
        1    1    3    3  502    0  0.33657507877E+03  0.35318737926E+03 -0.21345074991E+04  0.21895539208E+04  0.50400001928E-02 0.  1.
       -1    1    3    3    0  502 -0.33657507877E+03 -0.35318737926E+03  0.14811258235E+04  0.15594094439E+04  0.50400001928E-02 0. -1.
</event>
<event>
 5   0  0.3032442E-07  0.3695036E+04  0.7818609E-02  0.8069063E-01
        2   -1    0    0  501    0  0.00000000000E+00  0.00000000000E+00  0.21310496755E+04  0.21310496755E+04  0.25500000920E-02 0.  1.
       -2   -1    0    0    0  501  0.00000000000E+00  0.00000000000E+00 -0.16017099152E+04  0.16017099152E+04  0.25500000920E-02 0. -1.
    10030    2    1    2    0    0  0.00000000000E+00  0.00000000000E+00  0.52933976028E+03  0.37327595907E+04  0.36950363435E+04 0.  0.
        3    1    3    3  502    0 -0.11131363744E+04 -0.55509120193E+03  0.16446779285E+04  0.20620776729E+04  0.10100000352E+00 0.  1.
       -3    1    3    3    0  502  0.11131363744E+04  0.55509120193E+03 -0.11153381682E+04  0.16706819177E+04  0.10100000352E+00 0. -1.
</event>
<event>
 5   0  0.9418945E-08  0.3491929E+04  0.7818609E-02  0.8115705E-01
        1   -1    0    0  501    0  0.00000000000E+00  0.00000000000E+00  0.26524775854E+04  0.26524775854E+04  0.50400001928E-02 0.  1.
       -1   -1    0    0    0  501  0.00000000000E+00  0.00000000000E+00 -0.11492619544E+04  0.11492619544E+04  0.50400001928E-02 0. -1.
    10030    2    1    2    0    0  0.00000000000E+00  0.00000000000E+00  0.15032156311E+04  0.38017395398E+04  0.34919287357E+04 0.  0.
        5    1    3    3  502    0  0.45742800056E+03 -0.67258777219E+03  0.24335880572E+04  0.25659282159E+04  0.46999998093E+01 0.  1.
       -5    1    3    3    0  502 -0.45742800056E+03  0.67258777219E+03 -0.93037242614E+03  0.12358113239E+04  0.46999998093E+01 0. -1.
</event>
<event>
 5   0  0.9341000E-08  0.3700409E+04  0.7818609E-02  0.8067871E-01
       -1   -1    0    0    0  501  0.00000000000E+00  0.00000000000E+00  0.14302465002E+04  0.14302465002E+04  0.50400001928E-02 0. -1.
        1   -1    0    0  501    0  0.00000000000E+00  0.00000000000E+00 -0.23934726905E+04  0.23934726905E+04  0.50400001928E-02 0.  1.
    10030    2    1    2    0    0  0.00000000000E+00  0.00000000000E+00 -0.96322619039E+03  0.38237191907E+04  0.37004085931E+04 0.  0.
        4    1    3    3  502    0  0.66571693819E+03  0.16791708609E+04 -0.89553688361E+03  0.20161303888E+04  0.12699999809E+01 0.  1.
       -4    1    3    3    0  502 -0.66571693819E+03 -0.16791708609E+04 -0.67689306783E+02  0.18075888019E+04  0.12699999809E+01 0. -1.
</event>
<event>
 5   0  0.9418945E-08  0.3684417E+04  0.7818609E-02  0.8071424E-01
        1   -1    0    0  501    0  0.00000000000E+00  0.00000000000E+00  0.28487100069E+04  0.28487100069E+04  0.50400001928E-02 0. -1.
       -1   -1    0    0    0  501  0.00000000000E+00  0.00000000000E+00 -0.11913223026E+04  0.11913223026E+04  0.50400001928E-02 0.  1.
    10030    2    1    2    0    0  0.00000000000E+00  0.00000000000E+00  0.16573877043E+04  0.40400323095E+04  0.36844167869E+04 0.  0.
        5    1    3    3  502    0  0.50521421014E+02  0.34069484652E+03 -0.11556975028E+04  0.12059370632E+04  0.46999998093E+01 0.  1.
       -5    1    3    3    0  502 -0.50521421014E+02 -0.34069484652E+03  0.28130852071E+04  0.28340952462E+04  0.46999998093E+01 0. -1.
</event>
<event>
 5   0  0.9341000E-08  0.3688544E+04  0.7818609E-02  0.8070505E-01
       -1   -1    0    0    0  501  0.00000000000E+00  0.00000000000E+00  0.23454282129E+04  0.23454282130E+04  0.50400001928E-02 0.  1.
        1   -1    0    0  501    0  0.00000000000E+00  0.00000000000E+00 -0.14501996336E+04  0.14501996336E+04  0.50400001928E-02 0. -1.
    10030    2    1    2    0    0  0.00000000000E+00  0.00000000000E+00  0.89522857935E+03  0.37956278466E+04  0.36885439594E+04 0.  0.
        3    1    3    3  502    0  0.17165012103E+04  0.70235598044E+02  0.11379323558E+04  0.20606308502E+04  0.10100000352E+00 0.  1.
       -3    1    3    3    0  502 -0.17165012103E+04 -0.70235598044E+02 -0.24270377641E+03  0.17349969964E+04  0.10100000352E+00 0. -1.
</event>
<event>
 5   0  0.2897133E-07  0.3688789E+04  0.7818609E-02  0.8070451E-01
       -2   -1    0    0    0  501  0.00000000000E+00  0.00000000000E+00  0.16804606289E+04  0.16804606289E+04  0.25500000920E-02 0. -1.
        2   -1    0    0  501    0  0.00000000000E+00  0.00000000000E+00 -0.20243209659E+04  0.20243209659E+04  0.25500000920E-02 0.  1.
    10030    2    1    2    0    0  0.00000000000E+00  0.00000000000E+00 -0.34386033706E+03  0.37047815948E+04  0.36887893317E+04 0.  0.
        4    1    3    3  502    0 -0.79879844623E+03 -0.14927658914E+04 -0.90678603505E+03  0.19205966496E+04  0.12699999809E+01 0.  1.
       -4    1    3    3    0  502  0.79879844623E+03  0.14927658914E+04  0.56292569798E+03  0.17841849452E+04  0.12699999809E+01 0. -1.
</event>
<event>
 5   0  0.2996969E-07  0.3662494E+04  0.7818609E-02  0.8076325E-01
       -2   -1    0    0    0  501  0.00000000000E+00  0.00000000000E+00  0.14407165726E+04  0.14407165726E+04  0.25500000920E-02 0. -1.
        2   -1    0    0  501    0  0.00000000000E+00  0.00000000000E+00 -0.23276366387E+04  0.23276366387E+04  0.25500000920E-02 0.  1.
    10030    2    1    2    0    0  0.00000000000E+00  0.00000000000E+00 -0.88692006606E+03  0.37683532113E+04  0.36624935115E+04 0.  0.
        1    1    3    3  502    0  0.12332731344E+03 -0.61383740459E+02  0.14353776372E+04  0.14419731451E+04  0.50400001928E-02 0. -1.
       -1    1    3    3    0  502 -0.12332731344E+03  0.61383740459E+02 -0.23222977032E+04  0.23263800662E+04  0.50400001928E-02 0.  1.
</event>
<event>
 5   0  0.3008879E-07  0.3677883E+04  0.7818609E-02  0.8072881E-01
        2   -1    0    0  501    0  0.00000000000E+00  0.00000000000E+00  0.29440331711E+04  0.29440331711E+04  0.25500000920E-02 0.  1.
       -2   -1    0    0    0  501  0.00000000000E+00  0.00000000000E+00 -0.11486640104E+04  0.11486640104E+04  0.25500000920E-02 0. -1.
    10030    2    1    2    0    0  0.00000000000E+00  0.00000000000E+00  0.17953691607E+04  0.40926971815E+04  0.36778825153E+04 0.  0.
        2    1    3    3  502    0  0.93353211698E+03 -0.11738651377E+04  0.20817766973E+04  0.25657817117E+04  0.25500000920E-02 0.  1.
       -2    1    3    3    0  502 -0.93353211698E+03  0.11738651377E+04 -0.28640753659E+03  0.15269154698E+04  0.25500000920E-02 0. -1.
</event>
<event>
 5   0  0.9341000E-08  0.3654089E+04  0.7818609E-02  0.8078213E-01
        1   -1    0    0  501    0  0.00000000000E+00  0.00000000000E+00  0.11338777068E+04  0.11338777068E+04  0.50400001928E-02 0.  1.
       -1   -1    0    0    0  501  0.00000000000E+00  0.00000000000E+00 -0.29439608267E+04  0.29439608267E+04  0.50400001928E-02 0. -1.
    10030    2    1    2    0    0  0.00000000000E+00  0.00000000000E+00 -0.18100831199E+04  0.40778385336E+04  0.36540889706E+04 0.  0.
        3    1    3    3  502    0  0.65105528340E+03 -0.11257543782E+04  0.52709340424E+03  0.14032189312E+04  0.10100000352E+00 0.  1.
       -3    1    3    3    0  502 -0.65105528340E+03  0.11257543782E+04 -0.23371765241E+04  0.26746196023E+04  0.10100000352E+00 0. -1.
</event>
<event>
 5   0  0.3032442E-07  0.3680649E+04  0.7818609E-02  0.8072264E-01
       -2   -1    0    0    0  501  0.00000000000E+00  0.00000000000E+00  0.12988829901E+04  0.12988829901E+04  0.25500000920E-02 0. -1.
        2   -1    0    0  501    0  0.00000000000E+00  0.00000000000E+00 -0.26074664460E+04  0.26074664460E+04  0.25500000920E-02 0.  1.
    10030    2    1    2    0    0  0.00000000000E+00  0.00000000000E+00 -0.13085834560E+04  0.39063494361E+04  0.36806487548E+04 0.  0.
        3    1    3    3  502    0 -0.85864264723E+03 -0.35206506383E+03 -0.23409496281E+04  0.25181862871E+04  0.10100000352E+00 0.  1.
       -3    1    3    3    0  502  0.85864264723E+03  0.35206506383E+03  0.10323661721E+04  0.13881631491E+04  0.10100000352E+00 0. -1.
</event>
<event>
 5   0  0.2913025E-07  0.3740384E+04  0.7818609E-02  0.8059071E-01
       -2   -1    0    0    0  501  0.00000000000E+00  0.00000000000E+00  0.29276733566E+04  0.29276733566E+04  0.25500000920E-02 0.  1.
        2   -1    0    0  501    0  0.00000000000E+00  0.00000000000E+00 -0.11946752152E+04  0.11946752152E+04  0.25500000920E-02 0. -1.
    10030    2    1    2    0    0  0.00000000000E+00  0.00000000000E+00  0.17329981414E+04  0.41223485718E+04  0.37403843639E+04 0.  0.
        5    1    3    3  502    0 -0.10630095335E+04 -0.94963210790E+03 -0.46784174413E+03  0.15002294478E+04  0.46999998093E+01 0. -1.
       -5    1    3    3    0  502  0.10630095335E+04  0.94963210790E+03  0.22008398855E+04  0.26221191240E+04  0.46999998093E+01 0.  1.
</event>
<event>
 5   0  0.2996969E-07  0.3725175E+04  0.7818609E-02  0.8062406E-01
       -2   -1    0    0    0  501  0.00000000000E+00  0.00000000000E+00  0.21127251246E+04  0.21127251246E+04  0.25500000920E-02 0.  1.
        2   -1    0    0  501    0  0.00000000000E+00  0.00000000000E+00 -0.16420646951E+04  0.16420646951E+04  0.25500000920E-02 0. -1.
    10030    2    1    2    0    0  0.00000000000E+00  0.00000000000E+00  0.47066042951E+03  0.37547898197E+04  0.37251745396E+04 0.  0.
        1    1    3    3  502    0 -0.55347803372E+03 -0.47978484333E+03  0.19614575034E+04  0.20937638280E+04  0.50400001928E-02 0.  1.
       -1    1    3    3    0  502  0.55347803372E+03  0.47978484333E+03 -0.14907970739E+04  0.16610259917E+04  0.50400001928E-02 0. -1.
</event>
<event>
 5   0  0.9341000E-08  0.3693497E+04  0.7818609E-02  0.8069405E-01
       -1   -1    0    0    0  501  0.00000000000E+00  0.00000000000E+00  0.14089866209E+04  0.14089866209E+04  0.50400001928E-02 0.  1.
        1   -1    0    0  501    0  0.00000000000E+00  0.00000000000E+00 -0.24205195898E+04  0.24205195898E+04  0.50400001928E-02 0. -1.
    10030    2    1    2    0    0  0.00000000000E+00  0.00000000000E+00 -0.10115329689E+04  0.38295062108E+04  0.36934968351E+04 0.  0.
        3    1    3    3  502    0 -0.11231194234E+04  0.10813308759E+04 -0.15320682959E+04  0.21858423950E+04  0.10100000352E+00 0. -1.
       -3    1    3    3    0  502  0.11231194234E+04 -0.10813308759E+04  0.52053532698E+03  0.16436638157E+04  0.10100000352E+00 0.  1.
</event>
<event>
 5   0  0.9341000E-08  0.3702082E+04  0.7818609E-02  0.8067501E-01
       -1   -1    0    0    0  501  0.00000000000E+00  0.00000000000E+00  0.11732825696E+04  0.11732825696E+04  0.50400001928E-02 0. -1.
        1   -1    0    0  501    0  0.00000000000E+00  0.00000000000E+00 -0.29203129294E+04  0.29203129294E+04  0.50400001928E-02 0.  1.
    10030    2    1    2    0    0  0.00000000000E+00  0.00000000000E+00 -0.17470303598E+04  0.40935954990E+04  0.37020817160E+04 0.  0.
        4    1    3    3  502    0 -0.11682672249E+04 -0.10335517340E+04  0.22851445540E+03  0.15764827830E+04  0.12699999809E+01 0. -1.
       -4    1    3    3    0  502  0.11682672249E+04  0.10335517340E+04 -0.19755448152E+04  0.25171127161E+04  0.12699999809E+01 0.  1.
</event>
<event>
 5   0  0.9418945E-08  0.3713739E+04  0.7818609E-02  0.8064924E-01
       -1   -1    0    0    0  501  0.00000000000E+00  0.00000000000E+00  0.18869937311E+04  0.18869937311E+04  0.50400001928E-02 0. -1.
        1   -1    0    0  501    0  0.00000000000E+00  0.00000000000E+00 -0.18272259460E+04  0.18272259460E+04  0.50400001928E-02 0.  1.
    10030    2    1    2    0    0  0.00000000000E+00  0.00000000000E+00  0.59767785096E+02  0.37142196771E+04  0.37137387660E+04 0.  0.
        5    1    3    3  502    0  0.37308320148E+03 -0.38461616018E+03  0.18079839529E+04  0.18857223363E+04  0.46999998093E+01 0. -1.
       -5    1    3    3    0  502 -0.37308320148E+03  0.38461616018E+03 -0.17482161678E+04  0.18284973408E+04  0.46999998093E+01 0.  1.
</event>
<event>
 5   0  0.2897133E-07  0.3706272E+04  0.7818609E-02  0.8066573E-01
        2   -1    0    0  501    0  0.00000000000E+00  0.00000000000E+00  0.17643518572E+04  0.17643518572E+04  0.25500000920E-02 0. -1.
       -2   -1    0    0    0  501  0.00000000000E+00  0.00000000000E+00 -0.19463873925E+04  0.19463873925E+04  0.25500000920E-02 0.  1.
    10030    2    1    2    0    0  0.00000000000E+00  0.00000000000E+00 -0.18203553531E+03  0.37107392498E+04  0.37062715556E+04 0.  0.
        4    1    3    3  502    0  0.16663601871E+04  0.80840532455E+03 -0.15302105529E+03  0.18584112834E+04  0.12699999809E+01 0. -1.
       -4    1    3    3    0  502 -0.16663601871E+04 -0.80840532455E+03 -0.29014480026E+02  0.18523279664E+04  0.12699999809E+01 0.  1.
</event>
<event>
 5   0  0.2913025E-07  0.3686454E+04  0.7818609E-02  0.8070970E-01
       -2   -1    0    0    0  501  0.00000000000E+00  0.00000000000E+00  0.17354724853E+04  0.17354724853E+04  0.25500000920E-02 0. -1.
        2   -1    0    0  501    0  0.00000000000E+00  0.00000000000E+00 -0.19576724229E+04  0.19576724229E+04  0.25500000920E-02 0.  1.
    10030    2    1    2    0    0  0.00000000000E+00  0.00000000000E+00 -0.22219993753E+03  0.36931449082E+04  0.36864544621E+04 0.  0.
        5    1    3    3  502    0 -0.17545803525E+02 -0.18385386331E+04  0.19260648758E+02  0.18387292414E+04  0.46999998093E+01 0.  1.
       -5    1    3    3    0  502  0.17545803525E+02  0.18385386331E+04 -0.24146058629E+03  0.18544156668E+04  0.46999998093E+01 0. -1.
</event>
<event>
 5   0  0.3008879E-07  0.3684968E+04  0.7818609E-02  0.8071301E-01
        2   -1    0    0  501    0  0.00000000000E+00  0.00000000000E+00  0.20821689221E+04  0.20821689221E+04  0.25500000920E-02 0. -1.
       -2   -1    0    0    0  501  0.00000000000E+00  0.00000000000E+00 -0.16303901585E+04  0.16303901585E+04  0.25500000920E-02 0.  1.
    10030    2    1    2    0    0  0.00000000000E+00  0.00000000000E+00  0.45177876360E+03  0.37125590805E+04  0.36849682326E+04 0.  0.
        2    1    3    3  502    0  0.46018811834E+03  0.13460774129E+04  0.14055750565E+04  0.19998346795E+04  0.25500000920E-02 0. -1.
       -2    1    3    3    0  502 -0.46018811834E+03 -0.13460774129E+04 -0.95379629288E+03  0.17127244011E+04  0.25500000920E-02 0.  1.
</event>
<event>
 5   0  0.3032442E-07  0.3733826E+04  0.7818609E-02  0.8060507E-01
        2   -1    0    0  501    0  0.00000000000E+00  0.00000000000E+00  0.28306617090E+04  0.28306617090E+04  0.25500000920E-02 0.  1.
       -2   -1    0    0    0  501  0.00000000000E+00  0.00000000000E+00 -0.12312893115E+04  0.12312893115E+04  0.25500000920E-02 0. -1.
    10030    2    1    2    0    0  0.00000000000E+00  0.00000000000E+00  0.15993723975E+04  0.40619510205E+04  0.37338256557E+04 0.  0.
        3    1    3    3  502    0  0.17380698520E+04  0.21749620155E+02  0.15407256692E+04  0.23227560040E+04  0.10100000352E+00 0. -1.
       -3    1    3    3    0  502 -0.17380698520E+04 -0.21749620155E+02  0.58646728314E+02  0.17391950165E+04  0.10100000352E+00 0.  1.
</event>
<event>
 5   0  0.3008879E-07  0.3717828E+04  0.7818609E-02  0.8064022E-01
       -2   -1    0    0    0  501  0.00000000000E+00  0.00000000000E+00  0.18487651990E+04  0.18487651990E+04  0.25500000920E-02 0. -1.
        2   -1    0    0  501    0  0.00000000000E+00  0.00000000000E+00 -0.18691189602E+04  0.18691189602E+04  0.25500000920E-02 0.  1.
    10030    2    1    2    0    0  0.00000000000E+00  0.00000000000E+00 -0.20353761243E+02  0.37178841592E+04  0.37178284449E+04 0.  0.
        2    1    3    3  502    0 -0.17876003774E+04  0.68558783727E+02 -0.51550283820E+03  0.18617085143E+04  0.25500000920E-02 0.  1.
       -2    1    3    3    0  502  0.17876003774E+04 -0.68558783727E+02  0.49514907696E+03  0.18561756449E+04  0.25500000920E-02 0. -1.
</event>
<event>
 5   0  0.3032442E-07  0.3642153E+04  0.7818609E-02  0.8080904E-01
        2   -1    0    0  501    0  0.00000000000E+00  0.00000000000E+00  0.12786537454E+04  0.12786537454E+04  0.25500000920E-02 0. -1.
       -2   -1    0    0    0  501  0.00000000000E+00  0.00000000000E+00 -0.25936024763E+04  0.25936024763E+04  0.25500000920E-02 0.  1.
    10030    2    1    2    0    0  0.00000000000E+00  0.00000000000E+00 -0.13149487310E+04  0.38722562217E+04  0.36421529459E+04 0.  0.
        3    1    3    3  502    0 -0.15841345881E+04  0.51375643087E+03  0.12588746508E+03  0.16701124895E+04  0.10100000352E+00 0. -1.
       -3    1    3    3    0  502  0.15841345881E+04 -0.51375643087E+03 -0.14408361960E+04  0.22021437322E+04  0.10100000352E+00 0.  1.
</event>
<event>
 5   0  0.3032442E-07  0.3710244E+04  0.7818609E-02  0.8065695E-01
       -2   -1    0    0    0  501  0.00000000000E+00  0.00000000000E+00  0.21979075704E+04  0.21979075704E+04  0.25500000920E-02 0.  1.
        2   -1    0    0  501    0  0.00000000000E+00  0.00000000000E+00 -0.15657970799E+04  0.15657970799E+04  0.25500000920E-02 0. -1.
    10030    2    1    2    0    0  0.00000000000E+00  0.00000000000E+00  0.63211049056E+03  0.37637046503E+04  0.37102437955E+04 0.  0.
        3    1    3    3  502    0 -0.90863118443E+03  0.10670258202E+04  0.15490202395E+04  0.20889275820E+04  0.10100000352E+00 0. -1.
       -3    1    3    3    0  502  0.90863118443E+03 -0.10670258202E+04 -0.91690974896E+03  0.16747770682E+04  0.10100000352E+00 0.  1.
</event>
<event>
 5   0  0.2897133E-07  0.3692435E+04  0.7818609E-02  0.8069640E-01
        2   -1    0    0  501    0  0.00000000000E+00  0.00000000000E+00  0.15486274624E+04  0.15486274624E+04  0.25500000920E-02 0.  1.
       -2   -1    0    0    0  501  0.00000000000E+00  0.00000000000E+00 -0.22009939038E+04  0.22009939038E+04  0.25500000920E-02 0. -1.
    10030    2    1    2    0    0  0.00000000000E+00  0.00000000000E+00 -0.65236644134E+03  0.37496213662E+04  0.36924352961E+04 0.  0.
        4    1    3    3  502    0 -0.11210378080E+04 -0.91719813783E+03  0.83633462608E+03  0.16725535599E+04  0.12699999809E+01 0.  1.
       -4    1    3    3    0  502  0.11210378080E+04  0.91719813783E+03 -0.14887010674E+04  0.20770678063E+04  0.12699999809E+01 0. -1.
</event>
<event>
 5   0  0.9418945E-08  0.3600233E+04  0.7818609E-02  0.8090438E-01
        1   -1    0    0  501    0  0.00000000000E+00  0.00000000000E+00  0.21939858629E+04  0.21939858629E+04  0.50400001928E-02 0.  1.
       -1   -1    0    0    0  501  0.00000000000E+00  0.00000000000E+00 -0.14769552277E+04  0.14769552278E+04  0.50400001928E-02 0. -1.
    10030    2    1    2    0    0  0.00000000000E+00  0.00000000000E+00  0.71703063518E+03  0.36709410907E+04  0.36002327091E+04 0.  0.
        5    1    3    3  502    0  0.10057091921E+04  0.54887359688E+02 -0.11627427883E+04  0.15383291206E+04  0.46999998093E+01 0. -1.
       -5    1    3    3    0  502 -0.10057091921E+04 -0.54887359688E+02  0.18797734235E+04  0.21326119701E+04  0.46999998093E+01 0.  1.
</event>
<event>
 5   0  0.9646615E-08  0.3669873E+04  0.7818609E-02  0.8074671E-01
       -1   -1    0    0    0  501  0.00000000000E+00  0.00000000000E+00  0.14539452672E+04  0.14539452672E+04  0.50400001928E-02 0. -1.
        1   -1    0    0  501    0  0.00000000000E+00  0.00000000000E+00 -0.23157622833E+04  0.23157622833E+04  0.50400001928E-02 0.  1.
    10030    2    1    2    0    0  0.00000000000E+00  0.00000000000E+00 -0.86181701616E+03  0.37697075505E+04  0.36698728108E+04 0.  0.
        2    1    3    3  502    0 -0.76880835693E+03 -0.34965070829E+03 -0.21042326610E+04  0.22674031400E+04  0.25500000920E-02 0.  1.
       -2    1    3    3    0  502  0.76880835693E+03  0.34965070829E+03  0.12424156448E+04  0.15023044106E+04  0.25500000920E-02 0. -1.
</event>
<event>
 5   0  0.9646615E-08  0.3665960E+04  0.7818609E-02  0.8075548E-01
       -1   -1    0    0    0  501  0.00000000000E+00  0.00000000000E+00  0.14550373596E+04  0.14550373596E+04  0.50400001928E-02 0. -1.
        1   -1    0    0  501    0  0.00000000000E+00  0.00000000000E+00 -0.23090926805E+04  0.23090926805E+04  0.50400001928E-02 0.  1.
    10030    2    1    2    0    0  0.00000000000E+00  0.00000000000E+00 -0.85405532086E+03  0.37641300401E+04  0.36659602382E+04 0.  0.
        2    1    3    3  502    0 -0.16874750586E+04  0.33656305869E+02 -0.11610928140E+04  0.20486193749E+04  0.25500000920E-02 0.  1.
       -2    1    3    3    0  502  0.16874750586E+04 -0.33656305869E+02  0.30703749319E+03  0.17155106652E+04  0.25500000920E-02 0. -1.
</event>
<event>
 5   0  0.9341000E-08  0.3590259E+04  0.7818609E-02  0.8092727E-01
        1   -1    0    0  501    0  0.00000000000E+00  0.00000000000E+00  0.19579890661E+04  0.19579890661E+04  0.50400001928E-02 0.  1.
       -1   -1    0    0    0  501  0.00000000000E+00  0.00000000000E+00 -0.16458157914E+04  0.16458157914E+04  0.50400001928E-02 0. -1.
    10030    2    1    2    0    0  0.00000000000E+00  0.00000000000E+00  0.31217327475E+03  0.36038048575E+04  0.35902586672E+04 0.  0.
        3    1    3    3  502    0  0.39635264365E+02  0.67904434410E+03  0.18236244118E+04  0.19463499636E+04  0.10100000352E+00 0.  1.
       -3    1    3    3    0  502 -0.39635264365E+02 -0.67904434410E+03 -0.15114511370E+04  0.16574548939E+04  0.10100000352E+00 0. -1.
</event>
<event>
 5   0  0.2996969E-07  0.3697910E+04  0.7818609E-02  0.8068425E-01
       -2   -1    0    0    0  501  0.00000000000E+00  0.00000000000E+00  0.14853294590E+04  0.14853294590E+04  0.25500000920E-02 0.  1.
        2   -1    0    0  501    0  0.00000000000E+00  0.00000000000E+00 -0.23016005715E+04  0.23016005715E+04  0.25500000920E-02 0. -1.
    10030    2    1    2    0    0  0.00000000000E+00  0.00000000000E+00 -0.81627111244E+03  0.37869300305E+04  0.36979102919E+04 0.  0.
        1    1    3    3  502    0  0.15561169553E+04 -0.52538914636E+02 -0.14293241794E+04  0.21135817765E+04  0.50400001928E-02 0. -1.
       -1    1    3    3    0  502 -0.15561169553E+04  0.52538914636E+02  0.61305306701E+03  0.16733482540E+04  0.50400001928E-02 0.  1.
</event>
<event>
 5   0  0.9341000E-08  0.3703721E+04  0.7818609E-02  0.8067138E-01
        1   -1    0    0  501    0  0.00000000000E+00  0.00000000000E+00  0.24665207086E+04  0.24665207086E+04  0.50400001928E-02 0. -1.
       -1   -1    0    0    0  501  0.00000000000E+00  0.00000000000E+00 -0.13903744468E+04  0.13903744468E+04  0.50400001928E-02 0.  1.
    10030    2    1    2    0    0  0.00000000000E+00  0.00000000000E+00  0.10761462618E+04  0.38568951553E+04  0.37037210292E+04 0.  0.
        3    1    3    3  502    0  0.11820751002E+04  0.13638869378E+04  0.10632022141E+03  0.18079803985E+04  0.10100000352E+00 0.  1.
       -3    1    3    3    0  502 -0.11820751002E+04 -0.13638869378E+04  0.96982604042E+03  0.20489147568E+04  0.10100000352E+00 0. -1.
</event>
<event>
 5   0  0.3032442E-07  0.3708053E+04  0.7818609E-02  0.8066179E-01
        2   -1    0    0  501    0  0.00000000000E+00  0.00000000000E+00  0.33810386404E+04  0.33810386404E+04  0.25500000920E-02 0. -1.
       -2   -1    0    0    0  501  0.00000000000E+00  0.00000000000E+00 -0.10166742365E+04  0.10166742365E+04  0.25500000920E-02 0.  1.
    10030    2    1    2    0    0  0.00000000000E+00  0.00000000000E+00  0.23643644039E+04  0.43977128769E+04  0.37080533320E+04 0.  0.
        3    1    3    3  502    0  0.28862769003E+03 -0.16128027919E+04  0.15304923827E+03  0.16455585278E+04  0.10100000352E+00 0.  1.
       -3    1    3    3    0  502 -0.28862769003E+03  0.16128027919E+04  0.22113151656E+04  0.27521543490E+04  0.10100000352E+00 0. -1.
</event>
<event>
 5   0  0.9341000E-08  0.3710450E+04  0.7818609E-02  0.8065650E-01
        1   -1    0    0  501    0  0.00000000000E+00  0.00000000000E+00  0.22873957838E+04  0.22873957838E+04  0.50400001928E-02 0.  1.
       -1   -1    0    0    0  501  0.00000000000E+00  0.00000000000E+00 -0.15047063820E+04  0.15047063820E+04  0.50400001928E-02 0. -1.
    10030    2    1    2    0    0  0.00000000000E+00  0.00000000000E+00  0.78268940176E+03  0.37921021658E+04  0.37104495868E+04 0.  0.
        1    1    3    3  502    0 -0.10474248512E+03  0.40523087800E+03  0.22385132432E+04  0.22773064337E+04  0.50400001928E-02 0.  1.
       -1    1    3    3    0  502  0.10474248512E+03 -0.40523087800E+03 -0.14558238415E+04  0.15147957321E+04  0.50400001928E-02 0. -1.
</event>
<event>
 5   0  0.2897133E-07  0.3720924E+04  0.7818609E-02  0.8063341E-01
       -2   -1    0    0    0  501  0.00000000000E+00  0.00000000000E+00  0.20893411551E+04  0.20893411551E+04  0.25500000920E-02 0.  1.
        2   -1    0    0  501    0  0.00000000000E+00  0.00000000000E+00 -0.16566553886E+04  0.16566553886E+04  0.25500000920E-02 0. -1.
    10030    2    1    2    0    0  0.00000000000E+00  0.00000000000E+00  0.43268576650E+03  0.37459965437E+04  0.37209236935E+04 0.  0.
        4    1    3    3  502    0 -0.39843320436E+03  0.15262946578E+04  0.12093933124E+04  0.19877017376E+04  0.12699999809E+01 0.  1.
       -4    1    3    3    0  502  0.39843320436E+03 -0.15262946578E+04 -0.77670754585E+03  0.17582948061E+04  0.12699999809E+01 0. -1.
</event>
<event>
 5   0  0.2897133E-07  0.3746796E+04  0.7818609E-02  0.8057670E-01
       -2   -1    0    0    0  501  0.00000000000E+00  0.00000000000E+00  0.21324597575E+04  0.21324597575E+04  0.25500000920E-02 0. -1.
        2   -1    0    0  501    0  0.00000000000E+00  0.00000000000E+00 -0.16458082066E+04  0.16458082066E+04  0.25500000920E-02 0.  1.
    10030    2    1    2    0    0  0.00000000000E+00  0.00000000000E+00  0.48665155086E+03  0.37782679641E+04  0.37467958413E+04 0.  0.
        4    1    3    3  502    0  0.11061593197E+04  0.13316202411E+04  0.96545353255E+03  0.19821460702E+04  0.12699999809E+01 0. -1.
       -4    1    3    3    0  502 -0.11061593197E+04 -0.13316202411E+04 -0.47880198168E+03  0.17961218939E+04  0.12699999809E+01 0.  1.
</event>
<event>
 5   0  0.9418945E-08  0.3763362E+04  0.7818609E-02  0.8054063E-01
        1   -1    0    0  501    0  0.00000000000E+00  0.00000000000E+00  0.20132385454E+04  0.20132385454E+04  0.50400001928E-02 0. -1.
       -1   -1    0    0    0  501  0.00000000000E+00  0.00000000000E+00 -0.17587206192E+04  0.17587206192E+04  0.50400001928E-02 0.  1.
    10030    2    1    2    0    0  0.00000000000E+00  0.00000000000E+00  0.25451792616E+03  0.37719591646E+04  0.37633624015E+04 0.  0.
        5    1    3    3  502    0 -0.10869213691E+04 -0.35443848198E+03 -0.13707042945E+04  0.17849025332E+04  0.46999998093E+01 0.  1.
       -5    1    3    3    0  502  0.10869213691E+04  0.35443848198E+03  0.16252222206E+04  0.19870566314E+04  0.46999998093E+01 0. -1.
</event>
<event>
 5   0  0.9341000E-08  0.3822233E+04  0.7818609E-02  0.8041400E-01
        1   -1    0    0  501    0  0.00000000000E+00  0.00000000000E+00  0.24678654118E+04  0.24678654118E+04  0.50400001928E-02 0.  1.
       -1   -1    0    0    0  501  0.00000000000E+00  0.00000000000E+00 -0.14799699737E+04  0.14799699737E+04  0.50400001928E-02 0. -1.
    10030    2    1    2    0    0  0.00000000000E+00  0.00000000000E+00  0.98789543815E+03  0.39478353855E+04  0.38222332261E+04 0.  0.
        3    1    3    3  502    0 -0.10511217356E+04 -0.99354902183E+03 -0.79624820910E+03  0.16510626223E+04  0.10100000352E+00 0. -1.
       -3    1    3    3    0  502  0.10511217356E+04  0.99354902183E+03  0.17841436473E+04  0.22967727633E+04  0.10100000352E+00 0.  1.
</event>
<event>
 5   0  0.9646615E-08  0.3704537E+04  0.7818609E-02  0.8066957E-01
       -1   -1    0    0    0  501  0.00000000000E+00  0.00000000000E+00  0.20835427712E+04  0.20835427712E+04  0.50400001928E-02 0.  1.
        1   -1    0    0  501    0  0.00000000000E+00  0.00000000000E+00 -0.16466657954E+04  0.16466657954E+04  0.50400001928E-02 0. -1.
    10030    2    1    2    0    0  0.00000000000E+00  0.00000000000E+00  0.43687697584E+03  0.37302085666E+04  0.37045370100E+04 0.  0.
        2    1    3    3  502    0  0.16645164040E+03 -0.68402814657E+03  0.19435821764E+04  0.20671507759E+04  0.25500000920E-02 0.  1.
       -2    1    3    3    0  502 -0.16645164040E+03  0.68402814657E+03 -0.15067052006E+04  0.16630577907E+04  0.25500000920E-02 0. -1.
</event>
<event>
 5   0  0.2897133E-07  0.3731770E+04  0.7818609E-02  0.8060958E-01
        2   -1    0    0  501    0  0.00000000000E+00  0.00000000000E+00  0.12716029612E+04  0.12716029612E+04  0.25500000920E-02 0. -1.
       -2   -1    0    0    0  501  0.00000000000E+00  0.00000000000E+00 -0.27379034368E+04  0.27379034368E+04  0.25500000920E-02 0.  1.
    10030    2    1    2    0    0  0.00000000000E+00  0.00000000000E+00 -0.14663004756E+04  0.40095063981E+04  0.37317696166E+04 0.  0.
        4    1    3    3  502    0  0.90312890529E+03  0.15676888553E+04 -0.12234393626E+04  0.21840548650E+04  0.12699999809E+01 0.  1.
       -4    1    3    3    0  502 -0.90312890529E+03 -0.15676888553E+04 -0.24286111301E+03  0.18254515331E+04  0.12699999809E+01 0. -1.
</event>
<event>
 5   0  0.9341000E-08  0.3696430E+04  0.7818609E-02  0.8068753E-01
       -1   -1    0    0    0  501  0.00000000000E+00  0.00000000000E+00  0.12885487566E+04  0.12885487566E+04  0.50400001928E-02 0. -1.
        1   -1    0    0  501    0  0.00000000000E+00  0.00000000000E+00 -0.26509660114E+04  0.26509660114E+04  0.50400001928E-02 0.  1.
    10030    2    1    2    0    0  0.00000000000E+00  0.00000000000E+00 -0.13624172548E+04  0.39395147680E+04  0.36964301469E+04 0.  0.
        3    1    3    3  502    0  0.16186668756E+04 -0.62640649252E+03 -0.13581406790E+04  0.22038633492E+04  0.10100000352E+00 0. -1.
       -3    1    3    3    0  502 -0.16186668756E+04  0.62640649252E+03 -0.42765758513E+01  0.17356514188E+04  0.10100000352E+00 0.  1.
</event>
<event>
 5   0  0.3008879E-07  0.3672272E+04  0.7818609E-02  0.8074135E-01
        2   -1    0    0  501    0  0.00000000000E+00  0.00000000000E+00  0.16331209295E+04  0.16331209295E+04  0.25500000920E-02 0.  1.
       -2   -1    0    0    0  501  0.00000000000E+00  0.00000000000E+00 -0.20643883402E+04  0.20643883402E+04  0.25500000920E-02 0. -1.
    10030    2    1    2    0    0  0.00000000000E+00  0.00000000000E+00 -0.43126741068E+03  0.36975092697E+04  0.36722722149E+04 0.  0.
        2    1    3    3  502    0  0.68905715537E+03 -0.16076556363E+04  0.34681007629E+03  0.17831527240E+04  0.25500000920E-02 0. -1.
       -2    1    3    3    0  502 -0.68905715537E+03  0.16076556363E+04 -0.77807748697E+03  0.19143565457E+04  0.25500000920E-02 0.  1.
</event>
<event>
 5   0  0.2897133E-07  0.3667459E+04  0.7818609E-02  0.8075212E-01
       -2   -1    0    0    0  501  0.00000000000E+00  0.00000000000E+00  0.16747141030E+04  0.16747141030E+04  0.25500000920E-02 0.  1.
        2   -1    0    0  501    0  0.00000000000E+00  0.00000000000E+00 -0.20078430225E+04  0.20078430225E+04  0.25500000920E-02 0. -1.
    10030    2    1    2    0    0  0.00000000000E+00  0.00000000000E+00 -0.33312891947E+03  0.36825571255E+04  0.36674585350E+04 0.  0.
        4    1    3    3  502    0  0.77434098573E+03  0.10533582484E+04 -0.14577017944E+04  0.19580765296E+04  0.12699999809E+01 0. -1.
       -4    1    3    3    0  502 -0.77434098573E+03 -0.10533582484E+04  0.11245728749E+04  0.17244805959E+04  0.12699999809E+01 0.  1.
</event>
<event>
 5   0  0.9418945E-08  0.3682260E+04  0.7818609E-02  0.8071905E-01
        1   -1    0    0  501    0  0.00000000000E+00  0.00000000000E+00  0.27322934542E+04  0.27322934542E+04  0.50400001928E-02 0.  1.
       -1   -1    0    0    0  501  0.00000000000E+00  0.00000000000E+00 -0.12406278130E+04  0.12406278130E+04  0.50400001928E-02 0. -1.
    10030    2    1    2    0    0  0.00000000000E+00  0.00000000000E+00  0.14916656412E+04  0.39729212672E+04  0.36822597696E+04 0.  0.
        5    1    3    3  502    0 -0.12770886828E+03  0.18812254713E+03 -0.12254146184E+04  0.12463397308E+04  0.46999998093E+01 0. -1.
       -5    1    3    3    0  502  0.12770886828E+03 -0.18812254713E+03  0.27170802595E+04  0.27265815364E+04  0.46999998093E+01 0.  1.
</event>
<event>
 5   0  0.9646615E-08  0.3696119E+04  0.7818609E-02  0.8068822E-01
       -1   -1    0    0    0  501  0.00000000000E+00  0.00000000000E+00  0.14879108953E+04  0.14879108953E+04  0.50400001928E-02 0.  1.
        1   -1    0    0  501    0  0.00000000000E+00  0.00000000000E+00 -0.22953820949E+04  0.22953820949E+04  0.50400001928E-02 0. -1.
    10030    2    1    2    0    0  0.00000000000E+00  0.00000000000E+00 -0.80747119960E+03  0.37832929901E+04  0.36961190607E+04 0.  0.
        2    1    3    3  502    0 -0.10293815273E+04  0.11106947135E+04  0.68051853444E+03  0.16602332821E+04  0.25500000920E-02 0.  1.
       -2    1    3    3    0  502  0.10293815273E+04 -0.11106947135E+04 -0.14879897340E+04  0.21230597080E+04  0.25500000920E-02 0. -1.
</event>
<event>
 5   0  0.3008879E-07  0.3690664E+04  0.7818609E-02  0.8070034E-01
       -2   -1    0    0    0  501  0.00000000000E+00  0.00000000000E+00  0.14580064600E+04  0.14580064600E+04  0.25500000920E-02 0. -1.
        2   -1    0    0  501    0  0.00000000000E+00  0.00000000000E+00 -0.23355527172E+04  0.23355527172E+04  0.25500000920E-02 0.  1.
    10030    2    1    2    0    0  0.00000000000E+00  0.00000000000E+00 -0.87754625717E+03  0.37935591772E+04  0.36906644114E+04 0.  0.
        2    1    3    3  502    0  0.14407994613E+03 -0.13958955269E+04 -0.16705005956E+04  0.21817093282E+04  0.25500000920E-02 0.  1.
       -2    1    3    3    0  502 -0.14407994613E+03  0.13958955269E+04  0.79295433844E+03  0.16118498490E+04  0.25500000920E-02 0. -1.
</event>
<event>
 5   0  0.3032442E-07  0.3492023E+04  0.7818609E-02  0.8115683E-01
        2   -1    0    0  501    0  0.00000000000E+00  0.00000000000E+00  0.24629280509E+04  0.24629280509E+04  0.25500000920E-02 0. -1.
       -2   -1    0    0    0  501  0.00000000000E+00  0.00000000000E+00 -0.12377769713E+04  0.12377769713E+04  0.25500000920E-02 0.  1.
    10030    2    1    2    0    0  0.00000000000E+00  0.00000000000E+00  0.12251510796E+04  0.37007050222E+04  0.34920226937E+04 0.  0.
        3    1    3    3  502    0  0.14393969481E+04  0.11342299420E+03 -0.42784044376E+03  0.15059136115E+04  0.10100000352E+00 0.  1.
       -3    1    3    3    0  502 -0.14393969481E+04 -0.11342299420E+03  0.16529915233E+04  0.21947914107E+04  0.10100000352E+00 0. -1.
</event>
<event>
 5   0  0.2913025E-07  0.3699859E+04  0.7818609E-02  0.8067993E-01
        2   -1    0    0  501    0  0.00000000000E+00  0.00000000000E+00  0.14143362267E+04  0.14143362267E+04  0.25500000920E-02 0. -1.
       -2   -1    0    0    0  501  0.00000000000E+00  0.00000000000E+00 -0.24196783460E+04  0.24196783460E+04  0.25500000920E-02 0.  1.
    10030    2    1    2    0    0  0.00000000000E+00  0.00000000000E+00 -0.10053421193E+04  0.38340145726E+04  0.36998587765E+04 0.  0.
        5    1    3    3  502    0 -0.51477782033E+03 -0.38898633728E+03 -0.22992926072E+04  0.23881112115E+04  0.46999998093E+01 0.  1.
       -5    1    3    3    0  502  0.51477782033E+03  0.38898633728E+03  0.12939504878E+04  0.14459033612E+04  0.46999998093E+01 0. -1.
</event>
<event>
 5   0  0.9646615E-08  0.3687578E+04  0.7818609E-02  0.8070720E-01
        1   -1    0    0  501    0  0.00000000000E+00  0.00000000000E+00  0.24462106388E+04  0.24462106388E+04  0.50400001928E-02 0.  1.
       -1   -1    0    0    0  501  0.00000000000E+00  0.00000000000E+00 -0.13897243103E+04  0.13897243103E+04  0.50400001928E-02 0. -1.
    10030    2    1    2    0    0  0.00000000000E+00  0.00000000000E+00  0.10564863285E+04  0.38359349491E+04  0.36875782800E+04 0.  0.
        2    1    3    3  502    0  0.17598002147E+04  0.52378658068E+03  0.35322065818E+03  0.18697630896E+04  0.25500000920E-02 0.  1.
       -2    1    3    3    0  502 -0.17598002147E+04 -0.52378658068E+03  0.70326567029E+03  0.19661718595E+04  0.25500000920E-02 0. -1.
</event>
<event>
 5   0  0.3008879E-07  0.3760671E+04  0.7818609E-02  0.8054648E-01
        2   -1    0    0  501    0  0.00000000000E+00  0.00000000000E+00  0.26956872329E+04  0.26956872329E+04  0.25500000920E-02 0.  1.
       -2   -1    0    0    0  501  0.00000000000E+00  0.00000000000E+00 -0.13115991181E+04  0.13115991181E+04  0.25500000920E-02 0. -1.
    10030    2    1    2    0    0  0.00000000000E+00  0.00000000000E+00  0.13840881148E+04  0.40072863510E+04  0.37606706835E+04 0.  0.
        2    1    3    3  502    0 -0.71904990744E+03  0.15940514546E+04 -0.44383526955E+02  0.17492863421E+04  0.25500000920E-02 0. -1.
       -2    1    3    3    0  502  0.71904990744E+03 -0.15940514546E+04  0.14284716417E+04  0.22580000089E+04  0.25500000920E-02 0.  1.
</event>
<event>
 5   0  0.9646615E-08  0.3703377E+04  0.7818609E-02  0.8067214E-01
        1   -1    0    0  501    0  0.00000000000E+00  0.00000000000E+00  0.27369874847E+04  0.27369874847E+04  0.50400001928E-02 0.  1.
       -1   -1    0    0    0  501  0.00000000000E+00  0.00000000000E+00 -0.12527457915E+04  0.12527457915E+04  0.50400001928E-02 0. -1.
    10030    2    1    2    0    0  0.00000000000E+00  0.00000000000E+00  0.14842416932E+04  0.39897332762E+04  0.37033765959E+04 0.  0.
        2    1    3    3  502    0  0.10380324527E+04 -0.12844860470E+04 -0.16009066143E+03  0.16592301823E+04  0.25500000920E-02 0. -1.
       -2    1    3    3    0  502 -0.10380324527E+04  0.12844860470E+04  0.16443323546E+04  0.23305030939E+04  0.25500000920E-02 0.  1.
</event>
<event>
 5   0  0.2913025E-07  0.3595068E+04  0.7818609E-02  0.8091622E-01
       -2   -1    0    0    0  501  0.00000000000E+00  0.00000000000E+00  0.19518650351E+04  0.19518650351E+04  0.25500000920E-02 0.  1.
        2   -1    0    0  501    0  0.00000000000E+00  0.00000000000E+00 -0.16554059208E+04  0.16554059208E+04  0.25500000920E-02 0. -1.
    10030    2    1    2    0    0  0.00000000000E+00  0.00000000000E+00  0.29645911434E+03  0.36072709558E+04  0.35950682528E+04 0.  0.
        5    1    3    3  502    0  0.14399178237E+04 -0.10546394235E+04 -0.65752816019E+02  0.17860496005E+04  0.46999998093E+01 0. -1.
       -5    1    3    3    0  502 -0.14399178237E+04  0.10546394235E+04  0.36221193036E+03  0.18212213553E+04  0.46999998093E+01 0.  1.
</event>
<event>
 5   0  0.9341000E-08  0.3292585E+04  0.7818609E-02  0.8164785E-01
        1   -1    0    0  501    0  0.00000000000E+00  0.00000000000E+00  0.89492240116E+03  0.89492240117E+03  0.50400001928E-02 0.  1.
       -1   -1    0    0    0  501  0.00000000000E+00  0.00000000000E+00 -0.30285078408E+04  0.30285078408E+04  0.50400001928E-02 0. -1.
    10030    2    1    2    0    0  0.00000000000E+00  0.00000000000E+00 -0.21335854397E+04  0.39234302420E+04  0.32925853118E+04 0.  0.
        1    1    3    3  502    0  0.11965398445E+04 -0.43097872334E+03  0.17888315643E+03  0.12843089361E+04  0.50400001928E-02 0.  1.
       -1    1    3    3    0  502 -0.11965398445E+04  0.43097872334E+03 -0.23124685961E+04  0.26391213059E+04  0.50400001928E-02 0. -1.
</event>
<event>
 5   0  0.9341000E-08  0.3719871E+04  0.7818609E-02  0.8063572E-01
       -1   -1    0    0    0  501  0.00000000000E+00  0.00000000000E+00  0.21819115785E+04  0.21819115785E+04  0.50400001928E-02 0.  1.
        1   -1    0    0  501    0  0.00000000000E+00  0.00000000000E+00 -0.15854719238E+04  0.15854719238E+04  0.50400001928E-02 0. -1.
    10030    2    1    2    0    0  0.00000000000E+00  0.00000000000E+00  0.59643965467E+03  0.37673835022E+04  0.37198707224E+04 0.  0.
        4    1    3    3  502    0  0.18364083747E+04 -0.51482676768E+02  0.41462276992E+01  0.18371349947E+04  0.12699999809E+01 0. -1.
       -4    1    3    3    0  502 -0.18364083747E+04  0.51482676768E+02  0.59229342697E+03  0.19302485076E+04  0.12699999809E+01 0.  1.
</event>
<event>
 5   0  0.9341000E-08  0.3695856E+04  0.7818609E-02  0.8068881E-01
       -1   -1    0    0    0  501  0.00000000000E+00  0.00000000000E+00  0.12725506440E+04  0.12725506440E+04  0.50400001928E-02 0. -1.
        1   -1    0    0  501    0  0.00000000000E+00  0.00000000000E+00 -0.26834593025E+04  0.26834593025E+04  0.50400001928E-02 0.  1.
    10030    2    1    2    0    0  0.00000000000E+00  0.00000000000E+00 -0.14109086584E+04  0.39560099465E+04  0.36958559840E+04 0.  0.
        1    1    3    3  502    0  0.41752282956E+03  0.66516929011E+02 -0.26309941299E+04  0.26647476290E+04  0.50400001928E-02 0.  1.
       -1    1    3    3    0  502 -0.41752282956E+03 -0.66516929011E+02  0.12200854714E+04  0.12912623175E+04  0.50400001928E-02 0. -1.
</event>
<event>
 5   0  0.2913025E-07  0.3372994E+04  0.7818609E-02  0.8144566E-01
       -2   -1    0    0    0  501  0.00000000000E+00  0.00000000000E+00  0.14421250581E+04  0.14421250582E+04  0.25500000920E-02 0.  1.
        2   -1    0    0  501    0  0.00000000000E+00  0.00000000000E+00 -0.19722787536E+04  0.19722787536E+04  0.25500000920E-02 0. -1.
    10030    2    1    2    0    0  0.00000000000E+00  0.00000000000E+00 -0.53015369540E+03  0.34144038117E+04  0.33729942853E+04 0.  0.
        5    1    3    3  502    0 -0.14644332772E+04 -0.28145098437E+03 -0.10624471121E+04  0.18310094036E+04  0.46999998093E+01 0. -1.
       -5    1    3    3    0  502  0.14644332772E+04  0.28145098437E+03  0.53229341675E+03  0.15833944081E+04  0.46999998093E+01 0.  1.
</event>
<event>
 5   0  0.9418945E-08  0.3694895E+04  0.7818609E-02  0.8069094E-01
       -1   -1    0    0    0  501  0.00000000000E+00  0.00000000000E+00  0.26454812536E+04  0.26454812536E+04  0.50400001928E-02 0.  1.
        1   -1    0    0  501    0  0.00000000000E+00  0.00000000000E+00 -0.12901477015E+04  0.12901477015E+04  0.50400001928E-02 0. -1.
    10030    2    1    2    0    0  0.00000000000E+00  0.00000000000E+00  0.13553335521E+04  0.39356289551E+04  0.36948946176E+04 0.  0.
        5    1    3    3  502    0 -0.49616100616E+03 -0.82855406491E+03  0.23551941486E+04  0.25455135337E+04  0.46999998093E+01 0.  1.
       -5    1    3    3    0  502  0.49616100616E+03  0.82855406491E+03 -0.99986059651E+03  0.13901154215E+04  0.46999998093E+01 0. -1.
</event>
<event>
 5   0  0.9341000E-08  0.3692249E+04  0.7818609E-02  0.8069682E-01
       -1   -1    0    0    0  501  0.00000000000E+00  0.00000000000E+00  0.29696022659E+04  0.29696022659E+04  0.50400001928E-02 0.  1.
        1   -1    0    0  501    0  0.00000000000E+00  0.00000000000E+00 -0.11476877620E+04  0.11476877620E+04  0.50400001928E-02 0. -1.
    10030    2    1    2    0    0  0.00000000000E+00  0.00000000000E+00  0.18219145038E+04  0.41172900279E+04  0.36922492758E+04 0.  0.
        3    1    3    3  502    0  0.14888772637E+04 -0.97422588923E+03  0.14598673961E+04  0.23015395747E+04  0.10100000352E+00 0. -1.
       -3    1    3    3    0  502 -0.14888772637E+04  0.97422588923E+03  0.36204710773E+03  0.18157504532E+04  0.10100000352E+00 0.  1.
</event>
<event>
 5   0  0.2996969E-07  0.3706045E+04  0.7818609E-02  0.8066624E-01
       -2   -1    0    0    0  501  0.00000000000E+00  0.00000000000E+00  0.21549454841E+04  0.21549454841E+04  0.25500000920E-02 0.  1.
        2   -1    0    0  501    0  0.00000000000E+00  0.00000000000E+00 -0.15934009944E+04  0.15934009944E+04  0.25500000920E-02 0. -1.
    10030    2    1    2    0    0  0.00000000000E+00  0.00000000000E+00  0.56154448966E+03  0.37483464785E+04  0.37060449416E+04 0.  0.
        1    1    3    3  502    0  0.13185471611E+04 -0.89810762795E+02  0.15944664091E+04  0.20709794105E+04  0.50400001928E-02 0.  1.
       -1    1    3    3    0  502 -0.13185471611E+04  0.89810762795E+02 -0.10329219194E+04  0.16773670680E+04  0.50400001928E-02 0. -1.
</event>
<event>
 5   0  0.9341000E-08  0.3431424E+04  0.7818609E-02  0.8130237E-01
        1   -1    0    0  501    0  0.00000000000E+00  0.00000000000E+00  0.17116887267E+04  0.17116887267E+04  0.50400001928E-02 0.  1.
       -1   -1    0    0    0  501  0.00000000000E+00  0.00000000000E+00 -0.17197445047E+04  0.17197445047E+04  0.50400001928E-02 0. -1.
    10030    2    1    2    0    0  0.00000000000E+00  0.00000000000E+00 -0.80557780125E+01  0.34314332314E+04  0.34314237753E+04 0.  0.
        3    1    3    3  502    0 -0.81987386210E+02 -0.17016429098E+04  0.19933625567E+03  0.17152391894E+04  0.10100000352E+00 0. -1.
       -3    1    3    3    0  502  0.81987386210E+02  0.17016429098E+04 -0.20739203369E+03  0.17161940420E+04  0.10100000352E+00 0.  1.
</event>
<event>
 5   0  0.3032442E-07  0.3727318E+04  0.7818609E-02  0.8061935E-01
       -2   -1    0    0    0  501  0.00000000000E+00  0.00000000000E+00  0.17517679043E+04  0.17517679043E+04  0.25500000920E-02 0. -1.
        2   -1    0    0  501    0  0.00000000000E+00  0.00000000000E+00 -0.19826970176E+04  0.19826970176E+04  0.25500000920E-02 0.  1.
    10030    2    1    2    0    0  0.00000000000E+00  0.00000000000E+00 -0.23092911325E+03  0.37344649219E+04  0.37273180704E+04 0.  0.
        3    1    3    3  502    0 -0.84651796707E+03 -0.13254313459E+02  0.15479768682E+04  0.17643697855E+04  0.10100000352E+00 0. -1.
       -3    1    3    3    0  502  0.84651796707E+03  0.13254313459E+02 -0.17789059815E+04  0.19700951364E+04  0.10100000352E+00 0.  1.
</event>
<event>
 5   0  0.9341000E-08  0.3729624E+04  0.7818609E-02  0.8061428E-01
       -1   -1    0    0    0  501  0.00000000000E+00  0.00000000000E+00  0.12868649975E+04  0.12868649976E+04  0.50400001928E-02 0.  1.
        1   -1    0    0  501    0  0.00000000000E+00  0.00000000000E+00 -0.27023219265E+04  0.27023219265E+04  0.50400001928E-02 0. -1.
    10030    2    1    2    0    0  0.00000000000E+00  0.00000000000E+00 -0.14154569289E+04  0.39891869240E+04  0.37296238413E+04 0.  0.
        3    1    3    3  502    0  0.11285911679E+04  0.27084713863E+03 -0.22689148363E+04  0.25485389425E+04  0.10100000352E+00 0. -1.
       -3    1    3    3    0  502 -0.11285911679E+04 -0.27084713863E+03  0.85345790737E+03  0.14406479815E+04  0.10100000352E+00 0.  1.
</event>
<event>
 5   0  0.9341000E-08  0.3703529E+04  0.7818609E-02  0.8067180E-01
        1   -1    0    0  501    0  0.00000000000E+00  0.00000000000E+00  0.24330965522E+04  0.24330965522E+04  0.50400001928E-02 0.  1.
       -1   -1    0    0    0  501  0.00000000000E+00  0.00000000000E+00 -0.14093279670E+04  0.14093279670E+04  0.50400001928E-02 0. -1.
    10030    2    1    2    0    0  0.00000000000E+00  0.00000000000E+00  0.10237685852E+04  0.38424245191E+04  0.37035285970E+04 0.  0.
        1    1    3    3  502    0 -0.43210210615E+03  0.36851498554E+03 -0.13167480822E+04  0.14339947827E+04  0.50400001928E-02 0. -1.
       -1    1    3    3    0  502  0.43210210615E+03 -0.36851498554E+03  0.23405166674E+04  0.24084297364E+04  0.50400001928E-02 0.  1.
</event>
<event>
 5   0  0.2996969E-07  0.3717076E+04  0.7818609E-02  0.8064188E-01
       -2   -1    0    0    0  501  0.00000000000E+00  0.00000000000E+00  0.24519716871E+04  0.24519716871E+04  0.25500000920E-02 0.  1.
        2   -1    0    0  501    0  0.00000000000E+00  0.00000000000E+00 -0.14087289496E+04  0.14087289496E+04  0.25500000920E-02 0. -1.
    10030    2    1    2    0    0  0.00000000000E+00  0.00000000000E+00  0.10432427375E+04  0.38607006367E+04  0.37170760010E+04 0.  0.
        1    1    3    3  502    0  0.69906035808E+03 -0.15642882966E+04  0.12694994258E+04  0.21324427428E+04  0.50400001928E-02 0.  1.
       -1    1    3    3    0  502 -0.69906035808E+03  0.15642882966E+04 -0.22625668829E+03  0.17282578940E+04  0.50400001928E-02 0. -1.
</event>
<event>
 5   0  0.9341000E-08  0.3617146E+04  0.7818609E-02  0.8086576E-01
        1   -1    0    0  501    0  0.00000000000E+00  0.00000000000E+00  0.12755758501E+04  0.12755758501E+04  0.50400001928E-02 0.  1.
       -1   -1    0    0    0  501  0.00000000000E+00  0.00000000000E+00 -0.25642815933E+04  0.25642815933E+04  0.50400001928E-02 0. -1.
    10030    2    1    2    0    0  0.00000000000E+00  0.00000000000E+00 -0.12887057432E+04  0.38398574434E+04  0.36171456555E+04 0.  0.
        3    1    3    3  502    0 -0.18874050856E+03 -0.13573421580E+04 -0.18972474259E+04  0.23404163131E+04  0.10100000352E+00 0. -1.
       -3    1    3    3    0  502  0.18874050856E+03  0.13573421580E+04  0.60854168264E+03  0.14994411303E+04  0.10100000352E+00 0.  1.
</event>
<event>
 5   0  0.9341000E-08  0.3699761E+04  0.7818609E-02  0.8068015E-01
       -1   -1    0    0    0  501  0.00000000000E+00  0.00000000000E+00  0.21435967077E+04  0.21435967077E+04  0.50400001928E-02 0. -1.
        1   -1    0    0  501    0  0.00000000000E+00  0.00000000000E+00 -0.15964094984E+04  0.15964094984E+04  0.50400001928E-02 0.  1.
    10030    2    1    2    0    0  0.00000000000E+00  0.00000000000E+00  0.54718720929E+03  0.37400062061E+04  0.36997611517E+04 0.  0.
        3    1    3    3  502    0 -0.81978141481E+03 -0.94150815556E+03 -0.11063855755E+04  0.16681031824E+04  0.10100000352E+00 0.  1.
       -3    1    3    3    0  502  0.81978141481E+03  0.94150815556E+03  0.16535727848E+04  0.20719030238E+04  0.10100000352E+00 0. -1.
</event>
<event>
 5   0  0.3032442E-07  0.3699956E+04  0.7818609E-02  0.8067972E-01
       -2   -1    0    0    0  501  0.00000000000E+00  0.00000000000E+00  0.15905495515E+04  0.15905495515E+04  0.25500000920E-02 0.  1.
        2   -1    0    0  501    0  0.00000000000E+00  0.00000000000E+00 -0.21517208280E+04  0.21517208280E+04  0.25500000920E-02 0. -1.
    10030    2    1    2    0    0  0.00000000000E+00  0.00000000000E+00 -0.56117127643E+03  0.37422703795E+04  0.36999559986E+04 0.  0.
        3    1    3    3  502    0 -0.15016300641E+04 -0.43118396891E+03  0.72150552476E+03  0.17208668446E+04  0.10100000352E+00 0.  1.
       -3    1    3    3    0  502  0.15016300641E+04  0.43118396891E+03 -0.12826768012E+04  0.20214035349E+04  0.10100000352E+00 0. -1.
</event>
<event>
 5   0  0.2913025E-07  0.3692435E+04  0.7818609E-02  0.8069640E-01
        2   -1    0    0  501    0  0.00000000000E+00  0.00000000000E+00  0.17177798663E+04  0.17177798663E+04  0.25500000920E-02 0. -1.
       -2   -1    0    0    0  501  0.00000000000E+00  0.00000000000E+00 -0.19842581408E+04  0.19842581408E+04  0.25500000920E-02 0.  1.
    10030    2    1    2    0    0  0.00000000000E+00  0.00000000000E+00 -0.26647827454E+03  0.37020380071E+04  0.36924347976E+04 0.  0.
        5    1    3    3  502    0 -0.16626522899E+04 -0.80051890503E+03 -0.19042641145E+03  0.18551354297E+04  0.46999998093E+01 0. -1.
       -5    1    3    3    0  502  0.16626522899E+04  0.80051890503E+03 -0.76051863086E+02  0.18469025774E+04  0.46999998093E+01 0.  1.
</event>
<event>
 5   0  0.3008879E-07  0.3696037E+04  0.7818609E-02  0.8068841E-01
        2   -1    0    0  501    0  0.00000000000E+00  0.00000000000E+00  0.27536120531E+04  0.27536120531E+04  0.25500000920E-02 0. -1.
       -2   -1    0    0    0  501  0.00000000000E+00  0.00000000000E+00 -0.12402515681E+04  0.12402515681E+04  0.25500000920E-02 0.  1.
    10030    2    1    2    0    0  0.00000000000E+00  0.00000000000E+00  0.15133604850E+04  0.39938636212E+04  0.36960366160E+04 0.  0.
        2    1    3    3  502    0 -0.10181253168E+04  0.12244665431E+03  0.24179642882E+04  0.26264279245E+04  0.25500000920E-02 0. -1.
       -2    1    3    3    0  502  0.10181253168E+04 -0.12244665431E+03 -0.90460380313E+03  0.13674356967E+04  0.25500000920E-02 0.  1.
</event>
<event>
 5   0  0.3008879E-07  0.3715789E+04  0.7818609E-02  0.8064472E-01
       -2   -1    0    0    0  501  0.00000000000E+00  0.00000000000E+00  0.18482395477E+04  0.18482395477E+04  0.25500000920E-02 0.  1.
        2   -1    0    0  501    0  0.00000000000E+00  0.00000000000E+00 -0.18675995336E+04  0.18675995336E+04  0.25500000920E-02 0. -1.
    10030    2    1    2    0    0  0.00000000000E+00  0.00000000000E+00 -0.19359985894E+02  0.37158390812E+04  0.37157886469E+04 0.  0.
        2    1    3    3  502    0 -0.19238329179E+03  0.12649649124E+04  0.13374180051E+04  0.18509009917E+04  0.25500000920E-02 0.  1.
       -2    1    3    3    0  502  0.19238329179E+03 -0.12649649124E+04 -0.13567779910E+04  0.18649380895E+04  0.25500000920E-02 0. -1.
</event>
<event>
 5   0  0.3032442E-07  0.3689162E+04  0.7818609E-02  0.8070368E-01
       -2   -1    0    0    0  501  0.00000000000E+00  0.00000000000E+00  0.17519326282E+04  0.17519326282E+04  0.25500000920E-02 0. -1.
        2   -1    0    0  501    0  0.00000000000E+00  0.00000000000E+00 -0.19421286477E+04  0.19421286477E+04  0.25500000920E-02 0.  1.
    10030    2    1    2    0    0  0.00000000000E+00  0.00000000000E+00 -0.19019601956E+03  0.36940612759E+04  0.36891617183E+04 0.  0.
        3    1    3    3  502    0  0.54053022397E+03 -0.99142052225E+03 -0.15555929492E+04  0.19222270961E+04  0.10100000352E+00 0.  1.
       -3    1    3    3    0  502 -0.54053022397E+03  0.99142052225E+03  0.13653969297E+04  0.17718341798E+04  0.10100000352E+00 0. -1.
</event>
<event>
 5   0  0.9646615E-08  0.3697627E+04  0.7818609E-02  0.8068488E-01
        1   -1    0    0  501    0  0.00000000000E+00  0.00000000000E+00  0.28854412614E+04  0.28854412614E+04  0.50400001928E-02 0.  1.
       -1   -1    0    0    0  501  0.00000000000E+00  0.00000000000E+00 -0.11846059075E+04  0.11846059075E+04  0.50400001928E-02 0. -1.
    10030    2    1    2    0    0  0.00000000000E+00  0.00000000000E+00  0.17008353539E+04  0.40700471689E+04  0.36976266788E+04 0.  0.
        2    1    3    3  502    0 -0.87511307169E+03 -0.16093772048E+04  0.11249204553E+04  0.21497357759E+04  0.25500000920E-02 0. -1.
       -2    1    3    3    0  502  0.87511307169E+03  0.16093772048E+04  0.57591489855E+03  0.19203113929E+04  0.25500000920E-02 0.  1.
</event>
<event>
 5   0  0.2996969E-07  0.3794982E+04  0.7818609E-02  0.8047233E-01
        2   -1    0    0  501    0  0.00000000000E+00  0.00000000000E+00  0.12378083845E+04  0.12378083845E+04  0.25500000920E-02 0.  1.
       -2   -1    0    0    0  501  0.00000000000E+00  0.00000000000E+00 -0.29087469557E+04  0.29087469557E+04  0.25500000920E-02 0. -1.
    10030    2    1    2    0    0  0.00000000000E+00  0.00000000000E+00 -0.16709385711E+04  0.41465553402E+04  0.37949816180E+04 0.  0.
        1    1    3    3  502    0  0.18570252006E+04 -0.30661475614E+03 -0.10984220199E+04  0.21792398073E+04  0.50400001928E-02 0. -1.
       -1    1    3    3    0  502 -0.18570252006E+04  0.30661475614E+03 -0.57251655128E+03  0.19673155328E+04  0.50400001928E-02 0.  1.
</event>
<event>
 5   0  0.9341000E-08  0.3642556E+04  0.7818609E-02  0.8080813E-01
       -1   -1    0    0    0  501  0.00000000000E+00  0.00000000000E+00  0.17876639432E+04  0.17876639432E+04  0.50400001928E-02 0.  1.
        1   -1    0    0  501    0  0.00000000000E+00  0.00000000000E+00 -0.18555241308E+04  0.18555241308E+04  0.50400001928E-02 0. -1.
    10030    2    1    2    0    0  0.00000000000E+00  0.00000000000E+00 -0.67860187556E+02  0.36431880740E+04  0.36425560170E+04 0.  0.
        3    1    3    3  502    0  0.12050187244E+04  0.25173549572E+03 -0.13764046651E+04  0.18465997667E+04  0.10100000352E+00 0. -1.
       -3    1    3    3    0  502 -0.12050187244E+04 -0.25173549572E+03  0.13085444776E+04  0.17965883073E+04  0.10100000352E+00 0.  1.
</event>
<event>
 5   0  0.9341000E-08  0.3695124E+04  0.7818609E-02  0.8069043E-01
        1   -1    0    0  501    0  0.00000000000E+00  0.00000000000E+00  0.20750662946E+04  0.20750662946E+04  0.50400001928E-02 0.  1.
       -1   -1    0    0    0  501  0.00000000000E+00  0.00000000000E+00 -0.16450004205E+04  0.16450004205E+04  0.50400001928E-02 0. -1.
    10030    2    1    2    0    0  0.00000000000E+00  0.00000000000E+00  0.43006587419E+03  0.37200667151E+04  0.36951237745E+04 0.  0.
        3    1    3    3  502    0  0.11949192839E+04 -0.12465618203E+04  0.87653483751E+03  0.19365076294E+04  0.10100000352E+00 0.  1.
       -3    1    3    3    0  502 -0.11949192839E+04  0.12465618203E+04 -0.44646896332E+03  0.17835590858E+04  0.10100000352E+00 0. -1.
</event>
<event>
 5   0  0.9341000E-08  0.3701736E+04  0.7818609E-02  0.8067577E-01
       -1   -1    0    0    0  501  0.00000000000E+00  0.00000000000E+00  0.24604420184E+04  0.24604420184E+04  0.50400001928E-02 0. -1.
        1   -1    0    0  501    0  0.00000000000E+00  0.00000000000E+00 -0.13923159707E+04  0.13923159707E+04  0.50400001928E-02 0.  1.
    10030    2    1    2    0    0  0.00000000000E+00  0.00000000000E+00  0.10681260477E+04  0.38527579891E+04  0.37017361965E+04 0.  0.
        4    1    3    3  502    0  0.12085436761E+04 -0.71669558326E+02  0.19911783995E+04  0.23303449046E+04  0.12699999809E+01 0. -1.
       -4    1    3    3    0  502 -0.12085436761E+04  0.71669558326E+02 -0.92305235178E+03  0.15224130845E+04  0.12699999809E+01 0.  1.
</event>
<event>
 5   0  0.2897133E-07  0.3692347E+04  0.7818609E-02  0.8069660E-01
        2   -1    0    0  501    0  0.00000000000E+00  0.00000000000E+00  0.26780272640E+04  0.26780272640E+04  0.25500000920E-02 0. -1.
       -2   -1    0    0    0  501  0.00000000000E+00  0.00000000000E+00 -0.12727116992E+04  0.12727116993E+04  0.25500000920E-02 0.  1.
    10030    2    1    2    0    0  0.00000000000E+00  0.00000000000E+00  0.14053155648E+04  0.39507389633E+04  0.36923470204E+04 0.  0.
        4    1    3    3  502    0  0.63693044448E+03 -0.31464565139E+03  0.25259222079E+04  0.26239220435E+04  0.12699999809E+01 0. -1.
       -4    1    3    3    0  502 -0.63693044448E+03  0.31464565139E+03 -0.11206066431E+04  0.13268169198E+04  0.12699999809E+01 0.  1.
</event>
<event>
 5   0  0.9341000E-08  0.3681887E+04  0.7818609E-02  0.8071988E-01
        1   -1    0    0  501    0  0.00000000000E+00  0.00000000000E+00  0.27973254708E+04  0.27973254708E+04  0.50400001928E-02 0.  1.
       -1   -1    0    0    0  501  0.00000000000E+00  0.00000000000E+00 -0.12115402366E+04  0.12115402366E+04  0.50400001928E-02 0. -1.
    10030    2    1    2    0    0  0.00000000000E+00  0.00000000000E+00  0.15857852342E+04  0.40088657074E+04  0.36818866700E+04 0.  0.
        3    1    3    3  502    0 -0.78400768779E+03 -0.48407272932E+03 -0.94240755026E+03  0.13180009343E+04  0.10100000352E+00 0. -1.
       -3    1    3    3    0  502  0.78400768779E+03  0.48407272932E+03  0.25281927844E+04  0.26908647731E+04  0.10100000352E+00 0.  1.
</event>
<event>
 5   0  0.2913025E-07  0.3664725E+04  0.7818609E-02  0.8075824E-01
        2   -1    0    0  501    0  0.00000000000E+00  0.00000000000E+00  0.17811019640E+04  0.17811019640E+04  0.25500000920E-02 0.  1.
       -2   -1    0    0    0  501  0.00000000000E+00  0.00000000000E+00 -0.18850981184E+04  0.18850981184E+04  0.25500000920E-02 0. -1.
    10030    2    1    2    0    0  0.00000000000E+00  0.00000000000E+00 -0.10399615444E+03  0.36662000824E+04  0.36647247978E+04 0.  0.
        5    1    3    3  502    0 -0.50248684974E+03 -0.10002497687E+04 -0.15032844025E+04  0.18742675153E+04  0.46999998093E+01 0. -1.
       -5    1    3    3    0  502  0.50248684974E+03  0.10002497687E+04  0.13992882481E+04  0.17919325671E+04  0.46999998093E+01 0.  1.
</event>
<event>
 5   0  0.9341000E-08  0.3672647E+04  0.7818609E-02  0.8074051E-01
       -1   -1    0    0    0  501  0.00000000000E+00  0.00000000000E+00  0.24725891557E+04  0.24725891557E+04  0.50400001928E-02 0. -1.
        1   -1    0    0  501    0  0.00000000000E+00  0.00000000000E+00 -0.13637869230E+04  0.13637869230E+04  0.50400001928E-02 0.  1.
    10030    2    1    2    0    0  0.00000000000E+00  0.00000000000E+00  0.11088022326E+04  0.38363760787E+04  0.36726474138E+04 0.  0.
        3    1    3    3  502    0 -0.96671381722E+03  0.37798380215E+03 -0.10279496279E+04  0.14608517402E+04  0.10100000352E+00 0.  1.
       -3    1    3    3    0  502  0.96671381722E+03 -0.37798380215E+03  0.21367518605E+04  0.23755243385E+04  0.10100000352E+00 0. -1.
</event>
<event>
 5   0  0.2996969E-07  0.3725082E+04  0.7818609E-02  0.8062426E-01
        2   -1    0    0  501    0  0.00000000000E+00  0.00000000000E+00  0.21590184404E+04  0.21590184404E+04  0.25500000920E-02 0. -1.
       -2   -1    0    0    0  501  0.00000000000E+00  0.00000000000E+00 -0.16067760942E+04  0.16067760942E+04  0.25500000920E-02 0.  1.
    10030    2    1    2    0    0  0.00000000000E+00  0.00000000000E+00  0.55224234614E+03  0.37657945346E+04  0.37250821290E+04 0.  0.
        1    1    3    3  502    0  0.10396453746E+04  0.88100592979E+03  0.15596531427E+04  0.20711233375E+04  0.50400001928E-02 0.  1.
       -1    1    3    3    0  502 -0.10396453746E+04 -0.88100592979E+03 -0.10074107966E+04  0.16946711972E+04  0.50400001928E-02 0. -1.
</event>
<event>
 5   0  0.9341000E-08  0.3743244E+04  0.7818609E-02  0.8058445E-01
        1   -1    0    0  501    0  0.00000000000E+00  0.00000000000E+00  0.17723715022E+04  0.17723715022E+04  0.50400001928E-02 0. -1.
       -1   -1    0    0    0  501  0.00000000000E+00  0.00000000000E+00 -0.19764305229E+04  0.19764305229E+04  0.50400001928E-02 0.  1.
    10030    2    1    2    0    0  0.00000000000E+00  0.00000000000E+00 -0.20405902074E+03  0.37488020251E+04  0.37432441197E+04 0.  0.
        3    1    3    3  502    0 -0.31148698514E+03  0.50331056693E+03 -0.18802286921E+04  0.19711939564E+04  0.10100000352E+00 0.  1.
       -3    1    3    3    0  502  0.31148698514E+03 -0.50331056693E+03  0.16761696714E+04  0.17776080688E+04  0.10100000352E+00 0. -1.
</event>
<event>
 5   0  0.2913025E-07  0.3750493E+04  0.7818609E-02  0.8056863E-01
        2   -1    0    0  501    0  0.00000000000E+00  0.00000000000E+00  0.15672269649E+04  0.15672269649E+04  0.25500000920E-02 0. -1.
       -2   -1    0    0    0  501  0.00000000000E+00  0.00000000000E+00 -0.22438031639E+04  0.22438031639E+04  0.25500000920E-02 0.  1.
    10030    2    1    2    0    0  0.00000000000E+00  0.00000000000E+00 -0.67657619899E+03  0.38110301288E+04  0.37504926729E+04 0.  0.
        5    1    3    3  502    0  0.35742224229E+02  0.61892625070E+03  0.14600750043E+04  0.15862497655E+04  0.46999998093E+01 0. -1.
       -5    1    3    3    0  502 -0.35742224229E+02 -0.61892625070E+03 -0.21366512033E+04  0.22247803633E+04  0.46999998093E+01 0.  1.
</event>
<event>
 5   0  0.3032442E-07  0.3675963E+04  0.7818609E-02  0.8073310E-01
       -2   -1    0    0    0  501  0.00000000000E+00  0.00000000000E+00  0.20239685447E+04  0.20239685447E+04  0.25500000920E-02 0.  1.
        2   -1    0    0  501    0  0.00000000000E+00  0.00000000000E+00 -0.16690848263E+04  0.16690848263E+04  0.25500000920E-02 0. -1.
    10030    2    1    2    0    0  0.00000000000E+00  0.00000000000E+00  0.35488371835E+03  0.36930533710E+04  0.36759625607E+04 0.  0.
        3    1    3    3  502    0 -0.13788784337E+04  0.90976676990E+03  0.98691363081E+03  0.19243128216E+04  0.10100000352E+00 0.  1.
       -3    1    3    3    0  502  0.13788784337E+04 -0.90976676990E+03 -0.63202991247E+03  0.17687405494E+04  0.10100000352E+00 0. -1.
</event>
<event>
 5   0  0.3032442E-07  0.3884550E+04  0.7818609E-02  0.8028250E-01
       -2   -1    0    0    0  501  0.00000000000E+00  0.00000000000E+00  0.20184530212E+04  0.20184530212E+04  0.25500000920E-02 0.  1.
        2   -1    0    0  501    0  0.00000000000E+00  0.00000000000E+00 -0.18689716227E+04  0.18689716227E+04  0.25500000920E-02 0. -1.
    10030    2    1    2    0    0  0.00000000000E+00  0.00000000000E+00  0.14948139852E+03  0.38874246439E+04  0.38845496101E+04 0.  0.
        3    1    3    3  502    0  0.14549592893E+04  0.12865210011E+04  0.55013461972E+02  0.19429537593E+04  0.10100000352E+00 0.  1.
       -3    1    3    3    0  502 -0.14549592893E+04 -0.12865210011E+04  0.94467936546E+02  0.19444708846E+04  0.10100000352E+00 0. -1.
</event>
<event>
 5   0  0.9341000E-08  0.3462441E+04  0.7818609E-02  0.8122749E-01
       -1   -1    0    0    0  501  0.00000000000E+00  0.00000000000E+00  0.17829272697E+04  0.17829272697E+04  0.50400001928E-02 0.  1.
        1   -1    0    0  501    0  0.00000000000E+00  0.00000000000E+00 -0.16810132044E+04  0.16810132044E+04  0.50400001928E-02 0. -1.
    10030    2    1    2    0    0  0.00000000000E+00  0.00000000000E+00  0.10191406535E+03  0.34639404741E+04  0.34624409210E+04 0.  0.
        1    1    3    3  502    0 -0.13015341325E+04  0.83765204187E+03 -0.72492526462E+03  0.17091426741E+04  0.50400001928E-02 0. -1.
       -1    1    3    3    0  502  0.13015341325E+04 -0.83765204187E+03  0.82683932997E+03  0.17547978000E+04  0.50400001928E-02 0.  1.
</event>
<event>
 5   0  0.9341000E-08  0.3683749E+04  0.7818609E-02  0.8071573E-01
       -1   -1    0    0    0  501  0.00000000000E+00  0.00000000000E+00  0.13956439896E+04  0.13956439897E+04  0.50400001928E-02 0.  1.
        1   -1    0    0  501    0  0.00000000000E+00  0.00000000000E+00 -0.24307782177E+04  0.24307782177E+04  0.50400001928E-02 0. -1.
    10030    2    1    2    0    0  0.00000000000E+00  0.00000000000E+00 -0.10351342281E+04  0.38264222074E+04  0.36837486395E+04 0.  0.
        4    1    3    3  502    0  0.56119308726E+03 -0.16958648788E+04 -0.51173599193E+02  0.17870410511E+04  0.12699999809E+01 0. -1.
       -4    1    3    3    0  502 -0.56119308726E+03  0.16958648788E+04 -0.98396062889E+03  0.20393811562E+04  0.12699999809E+01 0.  1.
</event>
<event>
 5   0  0.9341000E-08  0.3711335E+04  0.7818609E-02  0.8065455E-01
        1   -1    0    0  501    0  0.00000000000E+00  0.00000000000E+00  0.22558764182E+04  0.22558764182E+04  0.50400001928E-02 0. -1.
       -1   -1    0    0    0  501  0.00000000000E+00  0.00000000000E+00 -0.15264584689E+04  0.15264584689E+04  0.50400001928E-02 0.  1.
    10030    2    1    2    0    0  0.00000000000E+00  0.00000000000E+00  0.72941794924E+03  0.37823348871E+04  0.37113348883E+04 0.  0.
        1    1    3    3  502    0 -0.12272636709E+04 -0.13857449180E+04  0.49773018195E+03  0.19168203958E+04  0.50400001928E-02 0. -1.
       -1    1    3    3    0  502  0.12272636709E+04  0.13857449180E+04  0.23168776729E+03  0.18655144913E+04  0.50400001928E-02 0.  1.
</event>
<event>
 5   0  0.9418945E-08  0.3695722E+04  0.7818609E-02  0.8068911E-01
        1   -1    0    0  501    0  0.00000000000E+00  0.00000000000E+00  0.19878519303E+04  0.19878519303E+04  0.50400001928E-02 0. -1.
       -1   -1    0    0    0  501  0.00000000000E+00  0.00000000000E+00 -0.17177285005E+04  0.17177285005E+04  0.50400001928E-02 0.  1.
    10030    2    1    2    0    0  0.00000000000E+00  0.00000000000E+00  0.27012342984E+03  0.37055804308E+04  0.36957218052E+04 0.  0.
        5    1    3    3  502    0 -0.78977436282E+03 -0.50657429813E+03  0.17312274903E+04  0.19691449355E+04  0.46999998093E+01 0. -1.
       -5    1    3    3    0  502  0.78977436282E+03  0.50657429813E+03 -0.14611040605E+04  0.17364354953E+04  0.46999998093E+01 0.  1.
</event>
<event>
 5   0  0.9341000E-08  0.3592610E+04  0.7818609E-02  0.8092187E-01
        1   -1    0    0  501    0  0.00000000000E+00  0.00000000000E+00  0.23160863792E+04  0.23160863792E+04  0.50400001928E-02 0. -1.
       -1   -1    0    0    0  501  0.00000000000E+00  0.00000000000E+00 -0.13931738234E+04  0.13931738234E+04  0.50400001928E-02 0.  1.
    10030    2    1    2    0    0  0.00000000000E+00  0.00000000000E+00  0.92291255575E+03  0.37092602026E+04  0.35926095899E+04 0.  0.
        4    1    3    3  502    0 -0.36377677968E+03  0.12232245609E+04 -0.84374924215E+03  0.15298778606E+04  0.12699999809E+01 0.  1.
       -4    1    3    3    0  502  0.36377677968E+03 -0.12232245609E+04  0.17666617979E+04  0.21793823420E+04  0.12699999809E+01 0. -1.
</event>
<event>
 5   0  0.9646615E-08  0.3689239E+04  0.7818609E-02  0.8070351E-01
        1   -1    0    0  501    0  0.00000000000E+00  0.00000000000E+00  0.33873430247E+04  0.33873430247E+04  0.50400001928E-02 0.  1.
       -1   -1    0    0    0  501  0.00000000000E+00  0.00000000000E+00 -0.10045105020E+04  0.10045105020E+04  0.50400001928E-02 0. -1.
    10030    2    1    2    0    0  0.00000000000E+00  0.00000000000E+00  0.23828325226E+04  0.43918535267E+04  0.36892392941E+04 0.  0.
        2    1    3    3  502    0  0.16520260413E+04  0.30395906739E+03  0.28398399198E+03  0.17035926929E+04  0.25500000920E-02 0. -1.
       -2    1    3    3    0  502 -0.16520260413E+04 -0.30395906739E+03  0.20988485307E+04  0.26882608338E+04  0.25500000920E-02 0.  1.
</event>
<event>
 5   0  0.3008879E-07  0.3698296E+04  0.7818609E-02  0.8068340E-01
       -2   -1    0    0    0  501  0.00000000000E+00  0.00000000000E+00  0.20579746045E+04  0.20579746045E+04  0.25500000920E-02 0.  1.
        2   -1    0    0  501    0  0.00000000000E+00  0.00000000000E+00 -0.16615111792E+04  0.16615111792E+04  0.25500000920E-02 0. -1.
    10030    2    1    2    0    0  0.00000000000E+00  0.00000000000E+00  0.39646342534E+03  0.37194857837E+04  0.36982957220E+04 0.  0.
        2    1    3    3  502    0  0.90517546470E+03 -0.55319837649E+03  0.17214978005E+04  0.20221092312E+04  0.25500000920E-02 0.  1.
       -2    1    3    3    0  502 -0.90517546470E+03  0.55319837649E+03 -0.13250343752E+04  0.16973765525E+04  0.25500000920E-02 0. -1.
</event>
<event>
 5   0  0.9418945E-08  0.3801568E+04  0.7818609E-02  0.8045819E-01
       -1   -1    0    0    0  501  0.00000000000E+00  0.00000000000E+00  0.13365367264E+04  0.13365367264E+04  0.50400001928E-02 0. -1.
        1   -1    0    0  501    0  0.00000000000E+00  0.00000000000E+00 -0.27032395339E+04  0.27032395339E+04  0.50400001928E-02 0.  1.
    10030    2    1    2    0    0  0.00000000000E+00  0.00000000000E+00 -0.13667028075E+04  0.40397762603E+04  0.38015675279E+04 0.  0.
        5    1    3    3  502    0 -0.21432954185E+03  0.13143530942E+04 -0.21246168750E+04  0.25074848283E+04  0.46999998093E+01 0.  1.
       -5    1    3    3    0  502  0.21432954185E+03 -0.13143530942E+04  0.75791406754E+03  0.15322914319E+04  0.46999998093E+01 0. -1.
</event>
<event>
 5   0  0.9341000E-08  0.3670833E+04  0.7818609E-02  0.8074456E-01
        1   -1    0    0  501    0  0.00000000000E+00  0.00000000000E+00  0.19647156936E+04  0.19647156937E+04  0.50400001928E-02 0.  1.
       -1   -1    0    0    0  501  0.00000000000E+00  0.00000000000E+00 -0.17146268314E+04  0.17146268314E+04  0.50400001928E-02 0. -1.
    10030    2    1    2    0    0  0.00000000000E+00  0.00000000000E+00  0.25008886220E+03  0.36793425251E+04  0.36708332812E+04 0.  0.
        3    1    3    3  502    0 -0.26773092577E+02 -0.99115372791E+03  0.16731803270E+04  0.19448997217E+04  0.10100000352E+00 0.  1.
       -3    1    3    3    0  502  0.26773092577E+02  0.99115372791E+03 -0.14230914648E+04  0.17344428034E+04  0.10100000352E+00 0. -1.
</event>
<event>
 5   0  0.3008879E-07  0.3703451E+04  0.7818609E-02  0.8067197E-01
       -2   -1    0    0    0  501  0.00000000000E+00  0.00000000000E+00  0.26389628125E+04  0.26389628125E+04  0.25500000920E-02 0. -1.
        2   -1    0    0  501    0  0.00000000000E+00  0.00000000000E+00 -0.12993314856E+04  0.12993314856E+04  0.25500000920E-02 0.  1.
    10030    2    1    2    0    0  0.00000000000E+00  0.00000000000E+00  0.13396313269E+04  0.39382942981E+04  0.37034510779E+04 0.  0.
        2    1    3    3  502    0 -0.43378214525E+03  0.49255093338E+03  0.25111202420E+04  0.25954764960E+04  0.25500000920E-02 0. -1.
       -2    1    3    3    0  502  0.43378214525E+03 -0.49255093338E+03 -0.11714889151E+04  0.13428178021E+04  0.25500000920E-02 0.  1.
</event>
<event>
 5   0  0.9646615E-08  0.3699366E+04  0.7818609E-02  0.8068102E-01
        1   -1    0    0  501    0  0.00000000000E+00  0.00000000000E+00  0.21366772599E+04  0.21366772599E+04  0.50400001928E-02 0.  1.
       -1   -1    0    0    0  501  0.00000000000E+00  0.00000000000E+00 -0.16012374455E+04  0.16012374455E+04  0.50400001928E-02 0. -1.
    10030    2    1    2    0    0  0.00000000000E+00  0.00000000000E+00  0.53543981447E+03  0.37379147054E+04  0.36993662363E+04 0.  0.
        2    1    3    3  502    0  0.90199442454E+03 -0.12300610427E+04  0.13248936062E+04  0.20203928278E+04  0.25500000920E-02 0.  1.
       -2    1    3    3    0  502 -0.90199442454E+03  0.12300610427E+04 -0.78945379175E+03  0.17175218776E+04  0.25500000920E-02 0. -1.
</event>
<event>
 5   0  0.9418945E-08  0.3694335E+04  0.7818609E-02  0.8069218E-01
       -1   -1    0    0    0  501  0.00000000000E+00  0.00000000000E+00  0.22305756961E+04  0.22305756961E+04  0.50400001928E-02 0. -1.
        1   -1    0    0  501    0  0.00000000000E+00  0.00000000000E+00 -0.15296625556E+04  0.15296625556E+04  0.50400001928E-02 0.  1.
    10030    2    1    2    0    0  0.00000000000E+00  0.00000000000E+00  0.70091314048E+03  0.37602382516E+04  0.36943351876E+04 0.  0.
        5    1    3    3  502    0  0.15992373508E+04  0.86275772575E+03  0.12731789906E+02  0.18171668019E+04  0.46999998093E+01 0.  1.
       -5    1    3    3    0  502 -0.15992373508E+04 -0.86275772575E+03  0.68818135058E+03  0.19430714497E+04  0.46999998093E+01 0. -1.
</event>
<event>
 5   0  0.2996969E-07  0.3672700E+04  0.7818609E-02  0.8074039E-01
       -2   -1    0    0    0  501  0.00000000000E+00  0.00000000000E+00  0.17374963286E+04  0.17374963286E+04  0.25500000920E-02 0.  1.
        2   -1    0    0  501    0  0.00000000000E+00  0.00000000000E+00 -0.19408277252E+04  0.19408277252E+04  0.25500000920E-02 0. -1.
    10030    2    1    2    0    0  0.00000000000E+00  0.00000000000E+00 -0.20333139658E+03  0.36783240538E+04  0.36726998500E+04 0.  0.
        1    1    3    3  502    0 -0.97348709405E+03  0.11425216454E+04  0.95785233517E+03  0.17805937011E+04  0.50400001928E-02 0.  1.
       -1    1    3    3    0  502  0.97348709405E+03 -0.11425216454E+04 -0.11611837318E+04  0.18977303527E+04  0.50400001928E-02 0. -1.
</event>
<event>
 5   0  0.3008879E-07  0.3641404E+04  0.7818609E-02  0.8081073E-01
        2   -1    0    0  501    0  0.00000000000E+00  0.00000000000E+00  0.24714703610E+04  0.24714703610E+04  0.25500000920E-02 0.  1.
       -2   -1    0    0    0  501  0.00000000000E+00  0.00000000000E+00 -0.13412888276E+04  0.13412888276E+04  0.25500000920E-02 0. -1.
    10030    2    1    2    0    0  0.00000000000E+00  0.00000000000E+00  0.11301815333E+04  0.38127591886E+04  0.36414038957E+04 0.  0.
        2    1    3    3  502    0 -0.24770219285E+03 -0.11256917406E+03  0.24500639423E+04  0.24651250510E+04  0.25500000920E-02 0.  1.
       -2    1    3    3    0  502  0.24770219285E+03  0.11256917406E+03 -0.13198824090E+04  0.13476341376E+04  0.25500000920E-02 0. -1.
</event>
<event>
 5   0  0.2897133E-07  0.3696289E+04  0.7818609E-02  0.8068785E-01
       -2   -1    0    0    0  501  0.00000000000E+00  0.00000000000E+00  0.18452550180E+04  0.18452550180E+04  0.25500000920E-02 0. -1.
        2   -1    0    0  501    0  0.00000000000E+00  0.00000000000E+00 -0.18510382441E+04  0.18510382441E+04  0.25500000920E-02 0.  1.
    10030    2    1    2    0    0  0.00000000000E+00  0.00000000000E+00 -0.57832260785E+01  0.36962932621E+04  0.36962887379E+04 0.  0.
        4    1    3    3  502    0  0.13536311384E+04 -0.70169497205E+03 -0.10473750134E+04  0.18497808314E+04  0.12699999809E+01 0.  1.
       -4    1    3    3    0  502 -0.13536311384E+04  0.70169497205E+03  0.10415917873E+04  0.18465124307E+04  0.12699999809E+01 0. -1.
</event>
<event>
 5   0  0.2913025E-07  0.3656879E+04  0.7818609E-02  0.8077586E-01
       -2   -1    0    0    0  501  0.00000000000E+00  0.00000000000E+00  0.24816161198E+04  0.24816161198E+04  0.25500000920E-02 0. -1.
        2   -1    0    0  501    0  0.00000000000E+00  0.00000000000E+00 -0.13471832748E+04  0.13471832748E+04  0.25500000920E-02 0.  1.
    10030    2    1    2    0    0  0.00000000000E+00  0.00000000000E+00  0.11344328450E+04  0.38287993946E+04  0.36568793970E+04 0.  0.
        5    1    3    3  502    0  0.37938164443E+03 -0.17232441616E+04  0.10689844050E+04  0.20630682540E+04  0.46999998093E+01 0. -1.
       -5    1    3    3    0  502 -0.37938164443E+03  0.17232441616E+04  0.65448439992E+02  0.17657311406E+04  0.46999998093E+01 0.  1.
</event>
<event>
 5   0  0.2897133E-07  0.3698126E+04  0.7818609E-02  0.8068377E-01
       -2   -1    0    0    0  501  0.00000000000E+00  0.00000000000E+00  0.27438371044E+04  0.27438371044E+04  0.25500000920E-02 0. -1.
        2   -1    0    0  501    0  0.00000000000E+00  0.00000000000E+00 -0.12460776742E+04  0.12460776742E+04  0.25500000920E-02 0.  1.
    10030    2    1    2    0    0  0.00000000000E+00  0.00000000000E+00  0.14977594302E+04  0.39899147786E+04  0.36981260971E+04 0.  0.
        4    1    3    3  502    0 -0.12470573677E+04  0.58667015038E+03 -0.58114783184E+03  0.14956832415E+04  0.12699999809E+01 0.  1.
       -4    1    3    3    0  502  0.12470573677E+04 -0.58667015038E+03  0.20789072620E+04  0.24942315371E+04  0.12699999809E+01 0. -1.
</event>
<event>
 5   0  0.2996969E-07  0.3662899E+04  0.7818609E-02  0.8076234E-01
        2   -1    0    0  501    0  0.00000000000E+00  0.00000000000E+00  0.22189350752E+04  0.22189350752E+04  0.25500000920E-02 0. -1.
       -2   -1    0    0    0  501  0.00000000000E+00  0.00000000000E+00 -0.15116288887E+04  0.15116288887E+04  0.25500000920E-02 0.  1.
    10030    2    1    2    0    0  0.00000000000E+00  0.00000000000E+00  0.70730618648E+03  0.37305639639E+04  0.36628985036E+04 0.  0.
        1    1    3    3  502    0 -0.86064153926E+03 -0.20367161578E+03 -0.12797253075E+04  0.15555972643E+04  0.50400001928E-02 0.  1.
       -1    1    3    3    0  502  0.86064153926E+03  0.20367161578E+03  0.19870314940E+04  0.21749666996E+04  0.50400001928E-02 0. -1.
</event>
<event>
 5   0  0.9341000E-08  0.3707277E+04  0.7818609E-02  0.8066351E-01
        1   -1    0    0  501    0  0.00000000000E+00  0.00000000000E+00  0.25931228636E+04  0.25931228636E+04  0.50400001928E-02 0.  1.
       -1   -1    0    0    0  501  0.00000000000E+00  0.00000000000E+00 -0.13250335645E+04  0.13250335645E+04  0.50400001928E-02 0. -1.
    10030    2    1    2    0    0  0.00000000000E+00  0.00000000000E+00  0.12680892991E+04  0.39181564282E+04  0.37072765375E+04 0.  0.
        4    1    3    3  502    0 -0.37740577566E+03  0.56983208809E+03 -0.11869950586E+04  0.13697089509E+04  0.12699999809E+01 0. -1.
       -4    1    3    3    0  502  0.37740577566E+03 -0.56983208809E+03  0.24550843577E+04  0.25484474773E+04  0.12699999809E+01 0.  1.
</event>
<event>
 5   0  0.3008879E-07  0.3710845E+04  0.7818609E-02  0.8065563E-01
        2   -1    0    0  501    0  0.00000000000E+00  0.00000000000E+00  0.28328262845E+04  0.28328262845E+04  0.25500000920E-02 0. -1.
       -2   -1    0    0    0  501  0.00000000000E+00  0.00000000000E+00 -0.12152499021E+04  0.12152499021E+04  0.25500000920E-02 0.  1.
    10030    2    1    2    0    0  0.00000000000E+00  0.00000000000E+00  0.16175763824E+04  0.40480761866E+04  0.37108445750E+04 0.  0.
        2    1    3    3  502    0  0.28897822583E+03 -0.14975206156E+04  0.19614669295E+04  0.24846385903E+04  0.25500000920E-02 0. -1.
       -2    1    3    3    0  502 -0.28897822583E+03  0.14975206156E+04 -0.34389054710E+03  0.15634375963E+04  0.25500000920E-02 0.  1.
</event>
<event>
 5   0  0.3032442E-07  0.3732216E+04  0.7818609E-02  0.8060860E-01
        2   -1    0    0  501    0  0.00000000000E+00  0.00000000000E+00  0.19173764069E+04  0.19173764069E+04  0.25500000920E-02 0.  1.
       -2   -1    0    0    0  501  0.00000000000E+00  0.00000000000E+00 -0.18162104935E+04  0.18162104935E+04  0.25500000920E-02 0. -1.
    10030    2    1    2    0    0  0.00000000000E+00  0.00000000000E+00  0.10116591339E+03  0.37335869005E+04  0.37322160443E+04 0.  0.
        3    1    3    3  502    0 -0.21845316644E+03 -0.15292251334E+04 -0.99675328442E+03  0.18384146472E+04  0.10100000352E+00 0. -1.
       -3    1    3    3    0  502  0.21845316644E+03  0.15292251334E+04  0.10979191978E+04  0.18951722533E+04  0.10100000352E+00 0.  1.
</event>
<event>
 5   0  0.2913025E-07  0.3708922E+04  0.7818609E-02  0.8065988E-01
        2   -1    0    0  501    0  0.00000000000E+00  0.00000000000E+00  0.18014250957E+04  0.18014250957E+04  0.25500000920E-02 0.  1.
       -2   -1    0    0    0  501  0.00000000000E+00  0.00000000000E+00 -0.19090580662E+04  0.19090580662E+04  0.25500000920E-02 0. -1.
    10030    2    1    2    0    0  0.00000000000E+00  0.00000000000E+00 -0.10763297048E+03  0.37104831619E+04  0.37089217352E+04 0.  0.
        5    1    3    3  502    0 -0.16297457166E+04  0.88465758227E+03 -0.36120601089E+02  0.18547282622E+04  0.46999998093E+01 0.  1.
       -5    1    3    3    0  502  0.16297457166E+04 -0.88465758227E+03 -0.71512369393E+02  0.18557548997E+04  0.46999998093E+01 0. -1.
</event>
<event>
 5   0  0.2996969E-07  0.3707126E+04  0.7818609E-02  0.8066384E-01
       -2   -1    0    0    0  501  0.00000000000E+00  0.00000000000E+00  0.11742119730E+04  0.11742119730E+04  0.25500000920E-02 0.  1.
        2   -1    0    0  501    0  0.00000000000E+00  0.00000000000E+00 -0.29259586948E+04  0.29259586948E+04  0.25500000920E-02 0. -1.
    10030    2    1    2    0    0  0.00000000000E+00  0.00000000000E+00 -0.17517467218E+04  0.41001706678E+04  0.37071259660E+04 0.  0.
        1    1    3    3  502    0  0.22671206375E+03  0.12881952473E+04 -0.23284541796E+04  0.26706823513E+04  0.50400001928E-02 0. -1.
       -1    1    3    3    0  502 -0.22671206375E+03 -0.12881952473E+04  0.57670745780E+03  0.14294883165E+04  0.50400001928E-02 0.  1.
</event>
<event>
 5   0  0.9341000E-08  0.3713803E+04  0.7818609E-02  0.8064910E-01
       -1   -1    0    0    0  501  0.00000000000E+00  0.00000000000E+00  0.20523546201E+04  0.20523546202E+04  0.50400001928E-02 0. -1.
        1   -1    0    0  501    0  0.00000000000E+00  0.00000000000E+00 -0.16800622741E+04  0.16800622741E+04  0.50400001928E-02 0.  1.
    10030    2    1    2    0    0  0.00000000000E+00  0.00000000000E+00  0.37229234601E+03  0.37324168943E+04  0.37138032099E+04 0.  0.
        1    1    3    3  502    0  0.14254117324E+04  0.10792218059E+04 -0.31793048851E+03  0.18159289933E+04  0.50400001928E-02 0. -1.
       -1    1    3    3    0  502 -0.14254117324E+04 -0.10792218059E+04  0.69022283452E+03  0.19164879010E+04  0.50400001928E-02 0.  1.
</event>
<event>
 5   0  0.3008879E-07  0.3828460E+04  0.7818609E-02  0.8040075E-01
        2   -1    0    0  501    0  0.00000000000E+00  0.00000000000E+00  0.12020253110E+04  0.12020253110E+04  0.25500000920E-02 0. -1.
       -2   -1    0    0    0  501  0.00000000000E+00  0.00000000000E+00 -0.30484186428E+04  0.30484186428E+04  0.25500000920E-02 0.  1.
    10030    2    1    2    0    0  0.00000000000E+00  0.00000000000E+00 -0.18463933318E+04  0.42504439539E+04  0.38284599344E+04 0.  0.
        2    1    3    3  502    0  0.97541321187E+03  0.16249047711E+04 -0.62419832252E+03  0.19953370629E+04  0.25500000920E-02 0. -1.
       -2    1    3    3    0  502 -0.97541321187E+03 -0.16249047711E+04 -0.12221950093E+04  0.22551068909E+04  0.25500000920E-02 0.  1.
</event>
<event>
 5   0  0.9418945E-08  0.3714163E+04  0.7818609E-02  0.8064830E-01
        1   -1    0    0  501    0  0.00000000000E+00  0.00000000000E+00  0.24542754248E+04  0.24542754248E+04  0.50400001928E-02 0.  1.
       -1   -1    0    0    0  501  0.00000000000E+00  0.00000000000E+00 -0.14052015018E+04  0.14052015019E+04  0.50400001928E-02 0. -1.
    10030    2    1    2    0    0  0.00000000000E+00  0.00000000000E+00  0.10490739230E+04  0.38594769267E+04  0.37141629005E+04 0.  0.
        5    1    3    3  502    0 -0.17008794738E+04 -0.65845903323E+03  0.88774047187E+03  0.20284635856E+04  0.46999998093E+01 0.  1.
       -5    1    3    3    0  502  0.17008794738E+04  0.65845903323E+03  0.16133345109E+03  0.18310133411E+04  0.46999998093E+01 0. -1.
</event>
<event>
 5   0  0.2913025E-07  0.3557737E+04  0.7818609E-02  0.8100242E-01
        2   -1    0    0  501    0  0.00000000000E+00  0.00000000000E+00  0.23842061214E+04  0.23842061214E+04  0.25500000920E-02 0.  1.
       -2   -1    0    0    0  501  0.00000000000E+00  0.00000000000E+00 -0.13272231571E+04  0.13272231571E+04  0.25500000920E-02 0. -1.
    10030    2    1    2    0    0  0.00000000000E+00  0.00000000000E+00  0.10569829642E+04  0.37114292785E+04  0.35577372447E+04 0.  0.
        5    1    3    3  502    0  0.78327619542E+03  0.11480148931E+02 -0.11375923423E+04  0.13812283734E+04  0.46999998093E+01 0. -1.
       -5    1    3    3    0  502 -0.78327619542E+03 -0.11480148931E+02  0.21945753066E+04  0.23302009051E+04  0.46999998093E+01 0.  1.
</event>
<event>
 5   0  0.9341000E-08  0.3678551E+04  0.7818609E-02  0.8072732E-01
       -1   -1    0    0    0  501  0.00000000000E+00  0.00000000000E+00  0.16215978326E+04  0.16215978326E+04  0.50400001928E-02 0.  1.
        1   -1    0    0  501    0  0.00000000000E+00  0.00000000000E+00 -0.20861736012E+04  0.20861736012E+04  0.50400001928E-02 0. -1.
    10030    2    1    2    0    0  0.00000000000E+00  0.00000000000E+00 -0.46457576859E+03  0.37077714337E+04  0.36785511224E+04 0.  0.
        4    1    3    3  502    0 -0.54812194608E+03 -0.10226797065E+03 -0.19989331296E+04  0.20752425581E+04  0.12699999809E+01 0. -1.
       -4    1    3    3    0  502  0.54812194608E+03  0.10226797065E+03  0.15343573610E+04  0.16325288756E+04  0.12699999809E+01 0.  1.
</event>
<event>
 5   0  0.2897133E-07  0.3759814E+04  0.7818609E-02  0.8054834E-01
        2   -1    0    0  501    0  0.00000000000E+00  0.00000000000E+00  0.16160988081E+04  0.16160988081E+04  0.25500000920E-02 0.  1.
       -2   -1    0    0    0  501  0.00000000000E+00  0.00000000000E+00 -0.21867783220E+04  0.21867783220E+04  0.25500000920E-02 0. -1.
    10030    2    1    2    0    0  0.00000000000E+00  0.00000000000E+00 -0.57067951393E+03  0.38028771301E+04  0.37598137399E+04 0.  0.
        4    1    3    3  502    0 -0.14450274898E+03 -0.30124449562E+03 -0.21565067506E+04  0.21822356126E+04  0.12699999809E+01 0. -1.
       -4    1    3    3    0  502  0.14450274898E+03  0.30124449562E+03  0.15858272367E+04  0.16206415175E+04  0.12699999809E+01 0.  1.
</event>
<event>
 5   0  0.9341000E-08  0.3697220E+04  0.7818609E-02  0.8068578E-01
       -1   -1    0    0    0  501  0.00000000000E+00  0.00000000000E+00  0.16720191851E+04  0.16720191851E+04  0.50400001928E-02 0.  1.
        1   -1    0    0  501    0  0.00000000000E+00  0.00000000000E+00 -0.20438514244E+04  0.20438514244E+04  0.50400001928E-02 0. -1.
    10030    2    1    2    0    0  0.00000000000E+00  0.00000000000E+00 -0.37183223934E+03  0.37158706095E+04  0.36972199248E+04 0.  0.
        1    1    3    3  502    0 -0.12783294348E+04  0.12162174928E+04 -0.74010285986E+03  0.19133905448E+04  0.50400001928E-02 0. -1.
       -1    1    3    3    0  502  0.12783294348E+04 -0.12162174928E+04  0.36827062052E+03  0.18024800647E+04  0.50400001928E-02 0.  1.
</event>
<event>
 5   0  0.2996969E-07  0.3693673E+04  0.7818609E-02  0.8069365E-01
        2   -1    0    0  501    0  0.00000000000E+00  0.00000000000E+00  0.22459173727E+04  0.22459173727E+04  0.25500000920E-02 0.  1.
       -2   -1    0    0    0  501  0.00000000000E+00  0.00000000000E+00 -0.15186686587E+04  0.15186686587E+04  0.25500000920E-02 0. -1.
    10030    2    1    2    0    0  0.00000000000E+00  0.00000000000E+00  0.72724871393E+03  0.37645860314E+04  0.36936726027E+04 0.  0.
        1    1    3    3  502    0 -0.52214847545E+03 -0.70781513024E+03  0.20187360929E+04  0.22020301319E+04  0.50400001928E-02 0.  1.
       -1    1    3    3    0  502  0.52214847545E+03  0.70781513024E+03 -0.12914873790E+04  0.15625558995E+04  0.50400001928E-02 0. -1.
</event>
<event>
 5   0  0.9341000E-08  0.3583453E+04  0.7818609E-02  0.8094292E-01
       -1   -1    0    0    0  501  0.00000000000E+00  0.00000000000E+00  0.15934251569E+04  0.15934251569E+04  0.50400001928E-02 0. -1.
        1   -1    0    0  501    0  0.00000000000E+00  0.00000000000E+00 -0.20147067767E+04  0.20147067767E+04  0.50400001928E-02 0.  1.
    10030    2    1    2    0    0  0.00000000000E+00  0.00000000000E+00 -0.42128161982E+03  0.36081319336E+04  0.35834533410E+04 0.  0.
        4    1    3    3  502    0  0.51042334042E+03 -0.12396358809E+04 -0.14075466763E+04  0.19438154137E+04  0.12699999809E+01 0.  1.
       -4    1    3    3    0  502 -0.51042334042E+03  0.12396358809E+04  0.98626505650E+03  0.16643165199E+04  0.12699999809E+01 0. -1.
</event>
<event>
 5   0  0.3032442E-07  0.3699008E+04  0.7818609E-02  0.8068182E-01
       -2   -1    0    0    0  501  0.00000000000E+00  0.00000000000E+00  0.14675365053E+04  0.14675365053E+04  0.25500000920E-02 0.  1.
        2   -1    0    0  501    0  0.00000000000E+00  0.00000000000E+00 -0.23308893174E+04  0.23308893174E+04  0.25500000920E-02 0. -1.
    10030    2    1    2    0    0  0.00000000000E+00  0.00000000000E+00 -0.86335281205E+03  0.37984258227E+04  0.36990080633E+04 0.  0.
        3    1    3    3  502    0 -0.58538643987E+03  0.35949228022E+03  0.13316697769E+04  0.14984179619E+04  0.10100000352E+00 0.  1.
       -3    1    3    3    0  502  0.58538643987E+03 -0.35949228022E+03 -0.21950225890E+04  0.23000078608E+04  0.10100000352E+00 0. -1.
</event>
<event>
 5   0  0.9341000E-08  0.3669295E+04  0.7818609E-02  0.8074801E-01
        1   -1    0    0  501    0  0.00000000000E+00  0.00000000000E+00  0.27834896211E+04  0.27834896211E+04  0.50400001928E-02 0. -1.
       -1   -1    0    0    0  501  0.00000000000E+00  0.00000000000E+00 -0.12092489450E+04  0.12092489450E+04  0.50400001928E-02 0.  1.
    10030    2    1    2    0    0  0.00000000000E+00  0.00000000000E+00  0.15742406762E+04  0.39927385661E+04  0.36692952390E+04 0.  0.
        3    1    3    3  502    0  0.58711469095E+03 -0.41050899921E+03  0.26250000074E+04  0.27210009827E+04  0.10100000352E+00 0. -1.
       -3    1    3    3    0  502 -0.58711469095E+03  0.41050899921E+03 -0.10507593312E+04  0.12717375834E+04  0.10100000352E+00 0.  1.
</event>
<event>
 5   0  0.2996969E-07  0.3745313E+04  0.7818609E-02  0.8057993E-01
        2   -1    0    0  501    0  0.00000000000E+00  0.00000000000E+00  0.28589596032E+04  0.28589596032E+04  0.25500000920E-02 0.  1.
       -2   -1    0    0    0  501  0.00000000000E+00  0.00000000000E+00 -0.12266151082E+04  0.12266151082E+04  0.25500000920E-02 0. -1.
    10030    2    1    2    0    0  0.00000000000E+00  0.00000000000E+00  0.16323444951E+04  0.40855747114E+04  0.37453133609E+04 0.  0.
        1    1    3    3  502    0 -0.13076864622E+04  0.58124455509E+03  0.21337789198E+04  0.25692219824E+04  0.50400001928E-02 0.  1.
       -1    1    3    3    0  502  0.13076864622E+04 -0.58124455509E+03 -0.50143442475E+03  0.15163527290E+04  0.50400001928E-02 0. -1.
</event>
<event>
 5   0  0.9341000E-08  0.3696880E+04  0.7818609E-02  0.8068654E-01
        1   -1    0    0  501    0  0.00000000000E+00  0.00000000000E+00  0.16298635795E+04  0.16298635795E+04  0.50400001928E-02 0. -1.
       -1   -1    0    0    0  501  0.00000000000E+00  0.00000000000E+00 -0.20963289087E+04  0.20963289087E+04  0.50400001928E-02 0.  1.
    10030    2    1    2    0    0  0.00000000000E+00  0.00000000000E+00 -0.46646532918E+03  0.37261924882E+04  0.36968798406E+04 0.  0.
        4    1    3    3  502    0 -0.45278717441E+03 -0.62567293264E+03 -0.19259070511E+04  0.20749945605E+04  0.12699999809E+01 0.  1.
       -4    1    3    3    0  502  0.45278717441E+03  0.62567293264E+03  0.14594417219E+04  0.16511979277E+04  0.12699999809E+01 0. -1.
</event>
<event>
 5   0  0.3032442E-07  0.3659476E+04  0.7818609E-02  0.8077002E-01
       -2   -1    0    0    0  501  0.00000000000E+00  0.00000000000E+00  0.16871247176E+04  0.16871247176E+04  0.25500000920E-02 0.  1.
        2   -1    0    0  501    0  0.00000000000E+00  0.00000000000E+00 -0.19844060656E+04  0.19844060656E+04  0.25500000920E-02 0. -1.
    10030    2    1    2    0    0  0.00000000000E+00  0.00000000000E+00 -0.29728134800E+03  0.36715307833E+04  0.36594756581E+04 0.  0.
        3    1    3    3  502    0  0.10358489419E+04  0.53683077970E+03  0.12655309849E+04  0.17212608752E+04  0.10100000352E+00 0.  1.
       -3    1    3    3    0  502 -0.10358489419E+04 -0.53683077970E+03 -0.15628123329E+04  0.19502699081E+04  0.10100000352E+00 0. -1.
</event>
<event>
 5   0  0.9341000E-08  0.3562430E+04  0.7818609E-02  0.8099152E-01
        1   -1    0    0  501    0  0.00000000000E+00  0.00000000000E+00  0.13186516600E+04  0.13186516600E+04  0.50400001928E-02 0. -1.
       -1   -1    0    0    0  501  0.00000000000E+00  0.00000000000E+00 -0.24060383882E+04  0.24060383882E+04  0.50400001928E-02 0.  1.
    10030    2    1    2    0    0  0.00000000000E+00  0.00000000000E+00 -0.10873867282E+04  0.37246900482E+04  0.35624297970E+04 0.  0.
        4    1    3    3  502    0 -0.33009041468E+03 -0.16536779229E+04  0.56121692543E+02  0.16872349012E+04  0.12699999809E+01 0.  1.
       -4    1    3    3    0  502  0.33009041468E+03  0.16536779229E+04 -0.11435084208E+04  0.20374551470E+04  0.12699999809E+01 0. -1.
</event>
<event>
 5   0  0.9341000E-08  0.3659646E+04  0.7818609E-02  0.8076964E-01
        1   -1    0    0  501    0  0.00000000000E+00  0.00000000000E+00  0.21682387845E+04  0.21682387845E+04  0.50400001928E-02 0.  1.
       -1   -1    0    0    0  501  0.00000000000E+00  0.00000000000E+00 -0.15442269988E+04  0.15442269988E+04  0.50400001928E-02 0. -1.
    10030    2    1    2    0    0  0.00000000000E+00  0.00000000000E+00  0.62401178576E+03  0.37124657833E+04  0.36596463604E+04 0.  0.
        4    1    3    3  502    0 -0.43402267076E+03  0.94218847974E+03 -0.12171172262E+04  0.15992094189E+04  0.12699999809E+01 0. -1.
       -4    1    3    3    0  502  0.43402267076E+03 -0.94218847974E+03  0.18411290120E+04  0.21132563644E+04  0.12699999809E+01 0.  1.
</event>
<event>
 5   0  0.9418945E-08  0.3733200E+04  0.7818609E-02  0.8060644E-01
       -1   -1    0    0    0  501  0.00000000000E+00  0.00000000000E+00  0.15668361961E+04  0.15668361961E+04  0.50400001928E-02 0.  1.
        1   -1    0    0  501    0  0.00000000000E+00  0.00000000000E+00 -0.22237143787E+04  0.22237143787E+04  0.50400001928E-02 0. -1.
    10030    2    1    2    0    0  0.00000000000E+00  0.00000000000E+00 -0.65687818261E+03  0.37905505748E+04  0.37332003313E+04 0.  0.
        5    1    3    3  502    0 -0.18336487810E+04 -0.18347871604E+02 -0.68246372249E+03  0.19566254928E+04  0.46999998093E+01 0. -1.
       -5    1    3    3    0  502  0.18336487810E+04  0.18347871604E+02  0.25585539881E+02  0.18339250820E+04  0.46999998093E+01 0.  1.
</event>
<event>
 5   0  0.3008879E-07  0.3685192E+04  0.7818609E-02  0.8071251E-01
        2   -1    0    0  501    0  0.00000000000E+00  0.00000000000E+00  0.26765999965E+04  0.26765999965E+04  0.25500000920E-02 0. -1.
       -2   -1    0    0    0  501  0.00000000000E+00  0.00000000000E+00 -0.12684603235E+04  0.12684603235E+04  0.25500000920E-02 0.  1.
    10030    2    1    2    0    0  0.00000000000E+00  0.00000000000E+00  0.14081396730E+04  0.39450603201E+04  0.36851924767E+04 0.  0.
        2    1    3    3  502    0 -0.95747102063E+03 -0.14896857421E+04  0.12491369125E+04  0.21670849987E+04  0.25500000920E-02 0. -1.
       -2    1    3    3    0  502  0.95747102063E+03  0.14896857421E+04  0.15900276049E+03  0.17779753213E+04  0.25500000920E-02 0.  1.
</event>
<event>
 5   0  0.2897133E-07  0.3715393E+04  0.7818609E-02  0.8064559E-01
       -2   -1    0    0    0  501  0.00000000000E+00  0.00000000000E+00  0.12349193578E+04  0.12349193578E+04  0.25500000920E-02 0.  1.
        2   -1    0    0  501    0  0.00000000000E+00  0.00000000000E+00 -0.27945442562E+04  0.27945442562E+04  0.25500000920E-02 0. -1.
    10030    2    1    2    0    0  0.00000000000E+00  0.00000000000E+00 -0.15596248985E+04  0.40294636140E+04  0.37153932756E+04 0.  0.
        4    1    3    3  502    0  0.91199165302E+01 -0.18563483133E+04 -0.85590729746E+03  0.20441847147E+04  0.12699999809E+01 0. -1.
       -4    1    3    3    0  502 -0.91199165302E+01  0.18563483133E+04 -0.70371760100E+03  0.19852788993E+04  0.12699999809E+01 0.  1.
</event>
<event>
 5   0  0.2913025E-07  0.3705518E+04  0.7818609E-02  0.8066740E-01
        2   -1    0    0  501    0  0.00000000000E+00  0.00000000000E+00  0.18969419213E+04  0.18969419213E+04  0.25500000920E-02 0. -1.
       -2   -1    0    0    0  501  0.00000000000E+00  0.00000000000E+00 -0.18096053793E+04  0.18096053793E+04  0.25500000920E-02 0.  1.
    10030    2    1    2    0    0  0.00000000000E+00  0.00000000000E+00  0.87336541998E+02  0.37065473006E+04  0.37055182121E+04 0.  0.
        5    1    3    3  502    0 -0.41060845552E+03 -0.15613127545E+04  0.95298475505E+03  0.18746996705E+04  0.46999998093E+01 0. -1.
       -5    1    3    3    0  502  0.41060845552E+03  0.15613127545E+04 -0.86564821305E+03  0.18318476301E+04  0.46999998093E+01 0.  1.
</event>
<event>
 5   0  0.2913025E-07  0.3696058E+04  0.7818609E-02  0.8068836E-01
        2   -1    0    0  501    0  0.00000000000E+00  0.00000000000E+00  0.22622334384E+04  0.22622334384E+04  0.25500000920E-02 0. -1.
       -2   -1    0    0    0  501  0.00000000000E+00  0.00000000000E+00 -0.15096631027E+04  0.15096631027E+04  0.25500000920E-02 0.  1.
    10030    2    1    2    0    0  0.00000000000E+00  0.00000000000E+00  0.75257033562E+03  0.37718965411E+04  0.36960575492E+04 0.  0.
        5    1    3    3  502    0 -0.11294275286E+03 -0.28999387003E+03  0.22352929608E+04  0.22568582633E+04  0.46999998093E+01 0. -1.
       -5    1    3    3    0  502  0.11294275286E+03  0.28999387003E+03 -0.14827226252E+04  0.15150382778E+04  0.46999998093E+01 0.  1.
</event>
<event>
 5   0  0.9341000E-08  0.3712020E+04  0.7818609E-02  0.8065303E-01
        1   -1    0    0  501    0  0.00000000000E+00  0.00000000000E+00  0.24497980176E+04  0.24497980176E+04  0.50400001928E-02 0. -1.
       -1   -1    0    0    0  501  0.00000000000E+00  0.00000000000E+00 -0.14061461437E+04  0.14061461438E+04  0.50400001928E-02 0.  1.
    10030    2    1    2    0    0  0.00000000000E+00  0.00000000000E+00  0.10436518739E+04  0.38559441614E+04  0.37120204932E+04 0.  0.
        4    1    3    3  502    0  0.11678230659E+04 -0.12682784870E+04  0.12358120147E+04  0.21212199279E+04  0.12699999809E+01 0. -1.
       -4    1    3    3    0  502 -0.11678230659E+04  0.12682784870E+04 -0.19216014082E+03  0.17347242335E+04  0.12699999809E+01 0.  1.
</event>
<event>
 5   0  0.9341000E-08  0.3545511E+04  0.7818609E-02  0.8103088E-01
        1   -1    0    0  501    0  0.00000000000E+00  0.00000000000E+00  0.27583981791E+04  0.27583981791E+04  0.50400001928E-02 0. -1.
       -1   -1    0    0    0  501  0.00000000000E+00  0.00000000000E+00 -0.11393069566E+04  0.11393069566E+04  0.50400001928E-02 0.  1.
    10030    2    1    2    0    0  0.00000000000E+00  0.00000000000E+00  0.16190912225E+04  0.38977051357E+04  0.35455110968E+04 0.  0.
        1    1    3    3  502    0  0.23080653981E+03 -0.26407433389E+03 -0.11007862496E+04  0.11553083052E+04  0.50400001928E-02 0.  1.
       -1    1    3    3    0  502 -0.23080653981E+03  0.26407433389E+03  0.27198774721E+04  0.27423968305E+04  0.50400001928E-02 0. -1.
</event>
<event>
 5   0  0.3032442E-07  0.3698265E+04  0.7818609E-02  0.8068346E-01
        2   -1    0    0  501    0  0.00000000000E+00  0.00000000000E+00  0.16603763174E+04  0.16603763174E+04  0.25500000920E-02 0.  1.
       -2   -1    0    0    0  501  0.00000000000E+00  0.00000000000E+00 -0.20593471405E+04  0.20593471405E+04  0.25500000920E-02 0. -1.
    10030    2    1    2    0    0  0.00000000000E+00  0.00000000000E+00 -0.39897082306E+03  0.37197234579E+04  0.36982651183E+04 0.  0.
        3    1    3    3  502    0  0.11936509690E+04 -0.14117082049E+04 -0.23931974757E+03  0.18641342879E+04  0.10100000352E+00 0. -1.
       -3    1    3    3    0  502 -0.11936509690E+04  0.14117082049E+04 -0.15965107549E+03  0.18555891700E+04  0.10100000352E+00 0.  1.
</event>
<event>
 5   0  0.2996969E-07  0.3249497E+04  0.7818609E-02  0.8175866E-01
       -2   -1    0    0    0  501  0.00000000000E+00  0.00000000000E+00  0.12245679573E+04  0.12245679573E+04  0.25500000920E-02 0.  1.
        2   -1    0    0  501    0  0.00000000000E+00  0.00000000000E+00 -0.21557053873E+04  0.21557053873E+04  0.25500000920E-02 0. -1.
    10030    2    1    2    0    0  0.00000000000E+00  0.00000000000E+00 -0.93113743001E+03  0.33802733446E+04  0.32494970335E+04 0.  0.
        1    1    3    3  502    0 -0.11386837725E+04 -0.10907116914E+04 -0.57937269797E+02  0.15778496299E+04  0.50400001928E-02 0.  1.
       -1    1    3    3    0  502  0.11386837725E+04  0.10907116914E+04 -0.87320016021E+03  0.18024237147E+04  0.50400001928E-02 0. -1.
</event>
<event>
 5   0  0.2913025E-07  0.3698852E+04  0.7818609E-02  0.8068216E-01
       -2   -1    0    0    0  501  0.00000000000E+00  0.00000000000E+00  0.15121121210E+04  0.15121121210E+04  0.25500000920E-02 0.  1.
        2   -1    0    0  501    0  0.00000000000E+00  0.00000000000E+00 -0.22619866639E+04  0.22619866639E+04  0.25500000920E-02 0. -1.
    10030    2    1    2    0    0  0.00000000000E+00  0.00000000000E+00 -0.74987454290E+03  0.37740987850E+04  0.36988524989E+04 0.  0.
        5    1    3    3  502    0  0.28710787737E+03 -0.12561744820E+04 -0.17285562273E+04  0.21559995323E+04  0.46999998093E+01 0. -1.
       -5    1    3    3    0  502 -0.28710787737E+03  0.12561744820E+04  0.97868168436E+03  0.16180992527E+04  0.46999998093E+01 0.  1.
</event>
<event>
 5   0  0.9418945E-08  0.3695759E+04  0.7818609E-02  0.8068902E-01
       -1   -1    0    0    0  501  0.00000000000E+00  0.00000000000E+00  0.16447984183E+04  0.16447984183E+04  0.50400001928E-02 0. -1.
        1   -1    0    0  501    0  0.00000000000E+00  0.00000000000E+00 -0.20760343737E+04  0.20760343737E+04  0.50400001928E-02 0.  1.
    10030    2    1    2    0    0  0.00000000000E+00  0.00000000000E+00 -0.43123595544E+03  0.37208327920E+04  0.36957586794E+04 0.  0.
        5    1    3    3  502    0 -0.17756287385E+04 -0.36581082081E+03  0.14452532660E+03  0.18186766160E+04  0.46999998093E+01 0.  1.
       -5    1    3    3    0  502  0.17756287385E+04  0.36581082081E+03 -0.57576128204E+03  0.19021561759E+04  0.46999998093E+01 0. -1.
</event>
<event>
 5   0  0.3008879E-07  0.3724411E+04  0.7818609E-02  0.8062574E-01
        2   -1    0    0  501    0  0.00000000000E+00  0.00000000000E+00  0.21465487781E+04  0.21465487781E+04  0.25500000920E-02 0.  1.
       -2   -1    0    0    0  501  0.00000000000E+00  0.00000000000E+00 -0.16155275222E+04  0.16155275222E+04  0.25500000920E-02 0. -1.
    10030    2    1    2    0    0  0.00000000000E+00  0.00000000000E+00  0.53102125595E+03  0.37620763003E+04  0.37244106266E+04 0.  0.
        2    1    3    3  502    0  0.11254523946E+04  0.10682757555E+04  0.13054624811E+04  0.20278285114E+04  0.25500000920E-02 0.  1.
       -2    1    3    3    0  502 -0.11254523946E+04 -0.10682757555E+04 -0.77444122511E+03  0.17342477889E+04  0.25500000920E-02 0. -1.
</event>
<event>
 5   0  0.9341000E-08  0.3689593E+04  0.7818609E-02  0.8070272E-01
       -1   -1    0    0    0  501  0.00000000000E+00  0.00000000000E+00  0.16431076697E+04  0.16431076697E+04  0.50400001928E-02 0.  1.
        1   -1    0    0  501    0  0.00000000000E+00  0.00000000000E+00 -0.20712418718E+04  0.20712418718E+04  0.50400001928E-02 0. -1.
    10030    2    1    2    0    0  0.00000000000E+00  0.00000000000E+00 -0.42813420209E+03  0.37143495416E+04  0.36895926092E+04 0.  0.
        1    1    3    3  502    0  0.57919780783E+03  0.12939658732E+03 -0.19725158585E+04  0.20598622258E+04  0.50400001928E-02 0. -1.
       -1    1    3    3    0  502 -0.57919780783E+03 -0.12939658732E+03  0.15443816564E+04  0.16544873157E+04  0.50400001928E-02 0.  1.
</event>
<event>
 5   0  0.3032442E-07  0.3733400E+04  0.7818609E-02  0.8060600E-01
       -2   -1    0    0    0  501  0.00000000000E+00  0.00000000000E+00  0.14016309251E+04  0.14016309251E+04  0.25500000920E-02 0. -1.
        2   -1    0    0  501    0  0.00000000000E+00  0.00000000000E+00 -0.24860812326E+04  0.24860812326E+04  0.25500000920E-02 0.  1.
    10030    2    1    2    0    0  0.00000000000E+00  0.00000000000E+00 -0.10844503074E+04  0.38877121577E+04  0.37333997043E+04 0.  0.
        3    1    3    3  502    0 -0.16079826758E+04 -0.42635777252E+03 -0.14240928291E+04  0.21898469426E+04  0.10100000352E+00 0.  1.
       -3    1    3    3    0  502  0.16079826758E+04  0.42635777252E+03  0.33964252163E+03  0.16978652151E+04  0.10100000352E+00 0. -1.
</event>
<event>
 5   0  0.3008879E-07  0.3702064E+04  0.7818609E-02  0.8067505E-01
       -2   -1    0    0    0  501  0.00000000000E+00  0.00000000000E+00  0.15786278756E+04  0.15786278756E+04  0.25500000920E-02 0.  1.
        2   -1    0    0  501    0  0.00000000000E+00  0.00000000000E+00 -0.21704417508E+04  0.21704417508E+04  0.25500000920E-02 0. -1.
    10030    2    1    2    0    0  0.00000000000E+00  0.00000000000E+00 -0.59181387520E+03  0.37490696265E+04  0.37020642081E+04 0.  0.
        2    1    3    3  502    0 -0.43661127338E+03  0.17693593112E+04  0.32335157901E+02  0.18227197642E+04  0.25500000920E-02 0.  1.
       -2    1    3    3    0  502  0.43661127338E+03 -0.17693593112E+04 -0.62414903310E+03  0.19263498623E+04  0.25500000920E-02 0. -1.
</event>
<event>
 5   0  0.9341000E-08  0.3672041E+04  0.7818609E-02  0.8074186E-01
       -1   -1    0    0    0  501  0.00000000000E+00  0.00000000000E+00  0.14021438206E+04  0.14021438206E+04  0.50400001928E-02 0.  1.
        1   -1    0    0  501    0  0.00000000000E+00  0.00000000000E+00 -0.24041549071E+04  0.24041549071E+04  0.50400001928E-02 0. -1.
    10030    2    1    2    0    0  0.00000000000E+00  0.00000000000E+00 -0.10020110864E+04  0.38062987277E+04  0.36720408205E+04 0.  0.
        3    1    3    3  502    0  0.22168655436E+03  0.12247731484E+04  0.89806805854E+03  0.15348421552E+04  0.10100000352E+00 0.  1.
       -3    1    3    3    0  502 -0.22168655436E+03 -0.12247731484E+04 -0.19000791450E+04  0.22714565725E+04  0.10100000352E+00 0. -1.
</event>
<event>
 5   0  0.2913025E-07  0.3377798E+04  0.7818609E-02  0.8143377E-01
        2   -1    0    0  501    0  0.00000000000E+00  0.00000000000E+00  0.20845261487E+04  0.20845261487E+04  0.25500000920E-02 0.  1.
       -2   -1    0    0    0  501  0.00000000000E+00  0.00000000000E+00 -0.13683586336E+04  0.13683586336E+04  0.25500000920E-02 0. -1.
    10030    2    1    2    0    0  0.00000000000E+00  0.00000000000E+00  0.71616751505E+03  0.34528847823E+04  0.33777977160E+04 0.  0.
        5    1    3    3  502    0 -0.20285958046E+02  0.32888159810E+03 -0.13351748846E+04  0.13752413200E+04  0.46999998093E+01 0. -1.
       -5    1    3    3    0  502  0.20285958046E+02 -0.32888159810E+03  0.20513423997E+04  0.20776434623E+04  0.46999998093E+01 0.  1.
</event>
<event>
 5   0  0.3008879E-07  0.3706814E+04  0.7818609E-02  0.8066453E-01
       -2   -1    0    0    0  501  0.00000000000E+00  0.00000000000E+00  0.16012966775E+04  0.16012966775E+04  0.25500000920E-02 0.  1.
        2   -1    0    0  501    0  0.00000000000E+00  0.00000000000E+00 -0.21452097629E+04  0.21452097629E+04  0.25500000920E-02 0. -1.
    10030    2    1    2    0    0  0.00000000000E+00  0.00000000000E+00 -0.54391308539E+03  0.37465064403E+04  0.37068138695E+04 0.  0.
        2    1    3    3  502    0  0.50048249510E+03 -0.14699171212E+04 -0.12947102407E+04  0.20217353136E+04  0.25500000920E-02 0. -1.
       -2    1    3    3    0  502 -0.50048249510E+03  0.14699171212E+04  0.75079715533E+03  0.17247711267E+04  0.25500000920E-02 0.  1.
</event>
<event>
 5   0  0.2913025E-07  0.3680936E+04  0.7818609E-02  0.8072200E-01
        2   -1    0    0  501    0  0.00000000000E+00  0.00000000000E+00  0.20719818730E+04  0.20719818730E+04  0.25500000920E-02 0.  1.
       -2   -1    0    0    0  501  0.00000000000E+00  0.00000000000E+00 -0.16348225801E+04  0.16348225801E+04  0.25500000920E-02 0. -1.
    10030    2    1    2    0    0  0.00000000000E+00  0.00000000000E+00  0.43715929293E+03  0.37068044532E+04  0.36809361590E+04 0.  0.
        5    1    3    3  502    0  0.65128793598E+03 -0.16658682268E+04 -0.21806611822E+03  0.18019067252E+04  0.46999998093E+01 0.  1.
       -5    1    3    3    0  502 -0.65128793598E+03  0.16658682268E+04  0.65522541115E+03  0.19048977279E+04  0.46999998093E+01 0. -1.
</event>
<event>
 5   0  0.9341000E-08  0.3700358E+04  0.7818609E-02  0.8067883E-01
        1   -1    0    0  501    0  0.00000000000E+00  0.00000000000E+00  0.27517009395E+04  0.27517009395E+04  0.50400001928E-02 0.  1.
       -1   -1    0    0    0  501  0.00000000000E+00  0.00000000000E+00 -0.12440167825E+04  0.12440167825E+04  0.50400001928E-02 0. -1.
    10030    2    1    2    0    0  0.00000000000E+00  0.00000000000E+00  0.15076841570E+04  0.39957177220E+04  0.37003579012E+04 0.  0.
        1    1    3    3  502    0 -0.17118868977E+03  0.42536676599E+03 -0.11816928098E+04  0.12675331750E+04  0.50400001928E-02 0. -1.
       -1    1    3    3    0  502  0.17118868977E+03 -0.42536676599E+03  0.26893769668E+04  0.27281845470E+04  0.50400001928E-02 0.  1.
</event>
<event>
 5   0  0.2897133E-07  0.3661375E+04  0.7818609E-02  0.8076576E-01
        2   -1    0    0  501    0  0.00000000000E+00  0.00000000000E+00  0.15179763113E+04  0.15179763113E+04  0.25500000920E-02 0. -1.
       -2   -1    0    0    0  501  0.00000000000E+00  0.00000000000E+00 -0.22078192805E+04  0.22078192805E+04  0.25500000920E-02 0.  1.
    10030    2    1    2    0    0  0.00000000000E+00  0.00000000000E+00 -0.68984296922E+03  0.37257955918E+04  0.36613753522E+04 0.  0.
        4    1    3    3  502    0 -0.70619857231E+03  0.15734801550E+04 -0.96961144108E+03  0.19785611391E+04  0.12699999809E+01 0.  1.
       -4    1    3    3    0  502  0.70619857231E+03 -0.15734801550E+04  0.27976847186E+03  0.17472344526E+04  0.12699999809E+01 0. -1.
</event>
<event>
 5   0  0.3032442E-07  0.3245447E+04  0.7818609E-02  0.8176917E-01
       -2   -1    0    0    0  501  0.00000000000E+00  0.00000000000E+00  0.14126375853E+04  0.14126375853E+04  0.25500000920E-02 0. -1.
        2   -1    0    0  501    0  0.00000000000E+00  0.00000000000E+00 -0.18640533145E+04  0.18640533145E+04  0.25500000920E-02 0.  1.
    10030    2    1    2    0    0  0.00000000000E+00  0.00000000000E+00 -0.45141572917E+03  0.32766908999E+04  0.32454471329E+04 0.  0.
        3    1    3    3  502    0  0.20202423429E+03 -0.14329153223E+04  0.51564413041E+03  0.15362125477E+04  0.10100000352E+00 0. -1.
       -3    1    3    3    0  502 -0.20202423429E+03  0.14329153223E+04 -0.96705985957E+03  0.17404783522E+04  0.10100000352E+00 0.  1.
</event>
<event>
 5   0  0.2913025E-07  0.3715209E+04  0.7818609E-02  0.8064600E-01
       -2   -1    0    0    0  501  0.00000000000E+00  0.00000000000E+00  0.14261989204E+04  0.14261989204E+04  0.25500000920E-02 0.  1.
        2   -1    0    0  501    0  0.00000000000E+00  0.00000000000E+00 -0.24195046536E+04  0.24195046536E+04  0.25500000920E-02 0. -1.
    10030    2    1    2    0    0  0.00000000000E+00  0.00000000000E+00 -0.99330573317E+03  0.38457035740E+04  0.37152092403E+04 0.  0.
        5    1    3    3  502    0  0.61605269778E+03  0.22710547481E+03  0.13020749008E+04  0.14582588798E+04  0.46999998093E+01 0.  1.
       -5    1    3    3    0  502 -0.61605269778E+03 -0.22710547481E+03 -0.22953806340E+04  0.23874446942E+04  0.46999998093E+01 0. -1.
</event>
<event>
 5   0  0.3032442E-07  0.3384027E+04  0.7818609E-02  0.8141838E-01
       -2   -1    0    0    0  501  0.00000000000E+00  0.00000000000E+00  0.15195466684E+04  0.15195466684E+04  0.25500000920E-02 0. -1.
        2   -1    0    0  501    0  0.00000000000E+00  0.00000000000E+00 -0.18840555178E+04  0.18840555178E+04  0.25500000920E-02 0.  1.
    10030    2    1    2    0    0  0.00000000000E+00  0.00000000000E+00 -0.36450884938E+03  0.34036021862E+04  0.33840273552E+04 0.  0.
        3    1    3    3  502    0 -0.67225296398E+03  0.58017619040E+03  0.12663482316E+04  0.15466629605E+04  0.10100000352E+00 0. -1.
       -3    1    3    3    0  502  0.67225296398E+03 -0.58017619040E+03 -0.16308570809E+04  0.18569392258E+04  0.10100000352E+00 0.  1.
</event>
<event>
 5   0  0.9341000E-08  0.3712259E+04  0.7818609E-02  0.8065250E-01
       -1   -1    0    0    0  501  0.00000000000E+00  0.00000000000E+00  0.15865649235E+04  0.15865649235E+04  0.50400001928E-02 0. -1.
        1   -1    0    0  501    0  0.00000000000E+00  0.00000000000E+00 -0.21714946338E+04  0.21714946338E+04  0.50400001928E-02 0.  1.
    10030    2    1    2    0    0  0.00000000000E+00  0.00000000000E+00 -0.58492971030E+03  0.37580595574E+04  0.37122592677E+04 0.  0.
        3    1    3    3  502    0 -0.84234282217E+03 -0.16539660358E+04 -0.30106257566E+03  0.18803679858E+04  0.10100000352E+00 0. -1.
       -3    1    3    3    0  502  0.84234282217E+03  0.16539660358E+04 -0.28386713464E+03  0.18776915715E+04  0.10100000352E+00 0.  1.
</event>
<event>
 5   0  0.9418945E-08  0.3702370E+04  0.7818609E-02  0.8067437E-01
       -1   -1    0    0    0  501  0.00000000000E+00  0.00000000000E+00  0.15993227620E+04  0.15993227620E+04  0.50400001928E-02 0.  1.
        1   -1    0    0  501    0  0.00000000000E+00  0.00000000000E+00 -0.21427105094E+04  0.21427105094E+04  0.50400001928E-02 0. -1.
    10030    2    1    2    0    0  0.00000000000E+00  0.00000000000E+00 -0.54338774746E+03  0.37420332714E+04  0.37023698843E+04 0.  0.
        5    1    3    3  502    0  0.94263727335E+02  0.58286328470E+03  0.15015957262E+04  0.16135138902E+04  0.46999998093E+01 0.  1.
       -5    1    3    3    0  502 -0.94263727335E+02 -0.58286328470E+03 -0.20449834736E+04  0.21285193812E+04  0.46999998093E+01 0. -1.
</event>
<event>
 5   0  0.2897133E-07  0.3723126E+04  0.7818609E-02  0.8062856E-01
        2   -1    0    0  501    0  0.00000000000E+00  0.00000000000E+00  0.16822958051E+04  0.16822958051E+04  0.25500000920E-02 0.  1.
       -2   -1    0    0    0  501  0.00000000000E+00  0.00000000000E+00 -0.20599332201E+04  0.20599332201E+04  0.25500000920E-02 0. -1.
    10030    2    1    2    0    0  0.00000000000E+00  0.00000000000E+00 -0.37763741502E+03  0.37422290252E+04  0.37231261139E+04 0.  0.
        4    1    3    3  502    0 -0.35392217850E+03  0.53713387457E+03 -0.19446766867E+04  0.20483024035E+04  0.12699999809E+01 0. -1.
       -4    1    3    3    0  502  0.35392217850E+03 -0.53713387457E+03  0.15670392717E+04  0.16939266217E+04  0.12699999809E+01 0.  1.
</event>
<event>
 5   0  0.9418945E-08  0.3689158E+04  0.7818609E-02  0.8070369E-01
        1   -1    0    0  501    0  0.00000000000E+00  0.00000000000E+00  0.10863794204E+04  0.10863794204E+04  0.50400001928E-02 0.  1.
       -1   -1    0    0    0  501  0.00000000000E+00  0.00000000000E+00 -0.31319371553E+04  0.31319371553E+04  0.50400001928E-02 0. -1.
    10030    2    1    2    0    0  0.00000000000E+00  0.00000000000E+00 -0.20455577350E+04  0.42183165757E+04  0.36891582083E+04 0.  0.
        5    1    3    3  502    0 -0.14039971775E+04  0.48198998514E+03 -0.22747904924E+04  0.27162872261E+04  0.46999998093E+01 0. -1.
       -5    1    3    3    0  502  0.14039971775E+04 -0.48198998514E+03  0.22923275748E+03  0.15020293496E+04  0.46999998093E+01 0.  1.
</event>
<event>
 5   0  0.9418945E-08  0.3702974E+04  0.7818609E-02  0.8067303E-01
        1   -1    0    0  501    0  0.00000000000E+00  0.00000000000E+00  0.12930688825E+04  0.12930688825E+04  0.50400001928E-02 0.  1.
       -1   -1    0    0    0  501  0.00000000000E+00  0.00000000000E+00 -0.26510601621E+04  0.26510601621E+04  0.50400001928E-02 0. -1.
    10030    2    1    2    0    0  0.00000000000E+00  0.00000000000E+00 -0.13579912797E+04  0.39441290446E+04  0.37029736165E+04 0.  0.
        5    1    3    3  502    0 -0.80967020593E+03  0.86223439795E+03 -0.21961788334E+04  0.24944413318E+04  0.46999998093E+01 0. -1.
       -5    1    3    3    0  502  0.80967020593E+03 -0.86223439795E+03  0.83818755376E+03  0.14496877128E+04  0.46999998093E+01 0.  1.
</event>
<event>
 5   0  0.9341000E-08  0.3695611E+04  0.7818609E-02  0.8068935E-01
        1   -1    0    0  501    0  0.00000000000E+00  0.00000000000E+00  0.13383598510E+04  0.13383598510E+04  0.50400001928E-02 0. -1.
       -1   -1    0    0    0  501  0.00000000000E+00  0.00000000000E+00 -0.25511709489E+04  0.25511709489E+04  0.50400001928E-02 0.  1.
    10030    2    1    2    0    0  0.00000000000E+00  0.00000000000E+00 -0.12128110980E+04  0.38895307999E+04  0.36956107864E+04 0.  0.
        3    1    3    3  502    0 -0.56756108602E+03 -0.61435003522E+03  0.11277281001E+04  0.14040378307E+04  0.10100000352E+00 0. -1.
       -3    1    3    3    0  502  0.56756108602E+03  0.61435003522E+03 -0.23405391981E+04  0.24854929692E+04  0.10100000352E+00 0.  1.
</event>
<event>
 5   0  0.2996969E-07  0.3700524E+04  0.7818609E-02  0.8067846E-01
       -2   -1    0    0    0  501  0.00000000000E+00  0.00000000000E+00  0.11533764298E+04  0.11533764299E+04  0.25500000920E-02 0. -1.
        2   -1    0    0  501    0  0.00000000000E+00  0.00000000000E+00 -0.29682150805E+04  0.29682150805E+04  0.25500000920E-02 0.  1.
    10030    2    1    2    0    0  0.00000000000E+00  0.00000000000E+00 -0.18148386506E+04  0.41215915103E+04  0.37005239156E+04 0.  0.
        1    1    3    3  502    0 -0.18387963462E+04  0.17841137786E+02 -0.67921819382E+03  0.19603131546E+04  0.50400001928E-02 0.  1.
       -1    1    3    3    0  502  0.18387963462E+04 -0.17841137786E+02 -0.11356204568E+04  0.21612783558E+04  0.50400001928E-02 0. -1.
</event>
<event>
 5   0  0.9646615E-08  0.3678933E+04  0.7818609E-02  0.8072647E-01
        1   -1    0    0  501    0  0.00000000000E+00  0.00000000000E+00  0.21621126435E+04  0.21621126435E+04  0.50400001928E-02 0.  1.
       -1   -1    0    0    0  501  0.00000000000E+00  0.00000000000E+00 -0.15649675941E+04  0.15649675941E+04  0.50400001928E-02 0. -1.
    10030    2    1    2    0    0  0.00000000000E+00  0.00000000000E+00  0.59714504937E+03  0.37270802376E+04  0.36789325745E+04 0.  0.
        2    1    3    3  502    0 -0.84956650556E+03  0.21072356853E+03  0.19376053461E+04  0.21261425509E+04  0.25500000920E-02 0.  1.
       -2    1    3    3    0  502  0.84956650556E+03 -0.21072356853E+03 -0.13404602967E+04  0.16009376867E+04  0.25500000920E-02 0. -1.
</event>
<event>
 5   0  0.9341000E-08  0.3712063E+04  0.7818609E-02  0.8065294E-01
       -1   -1    0    0    0  501  0.00000000000E+00  0.00000000000E+00  0.14631367239E+04  0.14631367239E+04  0.50400001928E-02 0.  1.
        1   -1    0    0  501    0  0.00000000000E+00  0.00000000000E+00 -0.23544303378E+04  0.23544303378E+04  0.50400001928E-02 0. -1.
    10030    2    1    2    0    0  0.00000000000E+00  0.00000000000E+00 -0.89129361390E+03  0.38175670616E+04  0.37120633028E+04 0.  0.
        3    1    3    3  502    0 -0.12724201408E+04  0.99676283848E+03 -0.13838608663E+04  0.21278298988E+04  0.10100000352E+00 0. -1.
       -3    1    3    3    0  502  0.12724201408E+04 -0.99676283848E+03  0.49256725237E+03  0.16897371628E+04  0.10100000352E+00 0.  1.
</event>
<event>
 5   0  0.9646615E-08  0.3738307E+04  0.7818609E-02  0.8059525E-01
        1   -1    0    0  501    0  0.00000000000E+00  0.00000000000E+00  0.27009594054E+04  0.27009594054E+04  0.50400001928E-02 0. -1.
       -1   -1    0    0    0  501  0.00000000000E+00  0.00000000000E+00 -0.12935161421E+04  0.12935161421E+04  0.50400001928E-02 0.  1.
    10030    2    1    2    0    0  0.00000000000E+00  0.00000000000E+00  0.14074432633E+04  0.39944755475E+04  0.37383068842E+04 0.  0.
        2    1    3    3  502    0 -0.34782386766E+02 -0.12210775916E+04 -0.80796577196E+03  0.14645985757E+04  0.25500000920E-02 0.  1.
       -2    1    3    3    0  502  0.34782386766E+02  0.12210775916E+04  0.22154090352E+04  0.25298769718E+04  0.25500000920E-02 0. -1.
</event>
<event>
 5   0  0.9341000E-08  0.3754956E+04  0.7818609E-02  0.8055891E-01
        1   -1    0    0  501    0  0.00000000000E+00  0.00000000000E+00  0.22615464955E+04  0.22615464955E+04  0.50400001928E-02 0. -1.
       -1   -1    0    0    0  501  0.00000000000E+00  0.00000000000E+00 -0.15586341482E+04  0.15586341482E+04  0.50400001928E-02 0.  1.
    10030    2    1    2    0    0  0.00000000000E+00  0.00000000000E+00  0.70291234731E+03  0.38201806438E+04  0.37549559762E+04 0.  0.
        3    1    3    3  502    0 -0.16880958622E+04 -0.30391722393E+03 -0.42527806930E+03  0.17671714024E+04  0.10100000352E+00 0.  1.
       -3    1    3    3    0  502  0.16880958622E+04  0.30391722393E+03  0.11281904166E+04  0.20530092414E+04  0.10100000352E+00 0. -1.
</event>
<event>
 5   0  0.2913025E-07  0.3619532E+04  0.7818609E-02  0.8086032E-01
        2   -1    0    0  501    0  0.00000000000E+00  0.00000000000E+00  0.18431184070E+04  0.18431184070E+04  0.25500000920E-02 0. -1.
       -2   -1    0    0    0  501  0.00000000000E+00  0.00000000000E+00 -0.17770167821E+04  0.17770167821E+04  0.25500000920E-02 0.  1.
    10030    2    1    2    0    0  0.00000000000E+00  0.00000000000E+00  0.66101624837E+02  0.36201351891E+04  0.36195316496E+04 0.  0.
        5    1    3    3  502    0  0.13981777952E+04  0.89611005018E+03  0.75241748928E+03  0.18232028240E+04  0.46999998093E+01 0. -1.
       -5    1    3    3    0  502 -0.13981777952E+04 -0.89611005018E+03 -0.68631586444E+03  0.17969323651E+04  0.46999998093E+01 0.  1.
</event>
<event>
 5   0  0.2996969E-07  0.3733265E+04  0.7818609E-02  0.8060630E-01
        2   -1    0    0  501    0  0.00000000000E+00  0.00000000000E+00  0.28586132121E+04  0.28586132122E+04  0.25500000920E-02 0.  1.
       -2   -1    0    0    0  501  0.00000000000E+00  0.00000000000E+00 -0.12188835366E+04  0.12188835366E+04  0.25500000920E-02 0. -1.
    10030    2    1    2    0    0  0.00000000000E+00  0.00000000000E+00  0.16397296756E+04  0.40774967487E+04  0.37332648348E+04 0.  0.
        1    1    3    3  502    0 -0.40993429586E+03  0.16791021530E+04  0.49966494179E+02  0.17291404853E+04  0.50400001928E-02 0. -1.
       -1    1    3    3    0  502  0.40993429586E+03 -0.16791021530E+04  0.15897631814E+04  0.23483562635E+04  0.50400001928E-02 0.  1.
</event>
<event>
 5   0  0.9341000E-08  0.3737151E+04  0.7818609E-02  0.8059778E-01
       -1   -1    0    0    0  501  0.00000000000E+00  0.00000000000E+00  0.15378024922E+04  0.15378024922E+04  0.50400001928E-02 0. -1.
        1   -1    0    0  501    0  0.00000000000E+00  0.00000000000E+00 -0.22704958684E+04  0.22704958684E+04  0.50400001928E-02 0.  1.
    10030    2    1    2    0    0  0.00000000000E+00  0.00000000000E+00 -0.73269337617E+03  0.38082983607E+04  0.37371508961E+04 0.  0.
        1    1    3    3  502    0  0.17229792594E+04  0.54786280462E+03 -0.84730992774E+03  0.19966835740E+04  0.50400001928E-02 0. -1.
       -1    1    3    3    0  502 -0.17229792594E+04 -0.54786280462E+03  0.11461655157E+03  0.18116147866E+04  0.50400001928E-02 0.  1.
</event>
<event>
 5   0  0.3008879E-07  0.3672136E+04  0.7818609E-02  0.8074165E-01
       -2   -1    0    0    0  501  0.00000000000E+00  0.00000000000E+00  0.18605512617E+04  0.18605512617E+04  0.25500000920E-02 0. -1.
        2   -1    0    0  501    0  0.00000000000E+00  0.00000000000E+00 -0.18119073812E+04  0.18119073813E+04  0.25500000920E-02 0.  1.
    10030    2    1    2    0    0  0.00000000000E+00  0.00000000000E+00  0.48643880495E+02  0.36724586430E+04  0.36721364704E+04 0.  0.
        2    1    3    3  502    0  0.93933788750E+03 -0.53243652226E+03  0.15094782370E+04  0.18559010925E+04  0.25500000920E-02 0. -1.
       -2    1    3    3    0  502 -0.93933788750E+03  0.53243652226E+03 -0.14608343565E+04  0.18165575505E+04  0.25500000920E-02 0.  1.
</event>
<event>
 5   0  0.2913025E-07  0.3329224E+04  0.7818609E-02  0.8155499E-01
        2   -1    0    0  501    0  0.00000000000E+00  0.00000000000E+00  0.22491808113E+04  0.22491808113E+04  0.25500000920E-02 0. -1.
       -2   -1    0    0    0  501  0.00000000000E+00  0.00000000000E+00 -0.12319743730E+04  0.12319743730E+04  0.25500000920E-02 0.  1.
    10030    2    1    2    0    0  0.00000000000E+00  0.00000000000E+00  0.10172064383E+04  0.34811551844E+04  0.33292240056E+04 0.  0.
        5    1    3    3  502    0 -0.61892286781E+03 -0.15292338199E+04  0.27645930725E+03  0.16727442813E+04  0.46999998093E+01 0.  1.
       -5    1    3    3    0  502  0.61892286781E+03  0.15292338199E+04  0.74074713105E+03  0.18084109031E+04  0.46999998093E+01 0. -1.
</event>
<event>
 5   0  0.9646615E-08  0.3708774E+04  0.7818609E-02  0.8066020E-01
       -1   -1    0    0    0  501  0.00000000000E+00  0.00000000000E+00  0.13095334847E+04  0.13095334847E+04  0.50400001928E-02 0. -1.
        1   -1    0    0  501    0  0.00000000000E+00  0.00000000000E+00 -0.26259353160E+04  0.26259353160E+04  0.50400001928E-02 0.  1.
    10030    2    1    2    0    0  0.00000000000E+00  0.00000000000E+00 -0.13164018312E+04  0.39354688007E+04  0.37087735035E+04 0.  0.
        2    1    3    3  502    0 -0.11850445374E+04  0.41113478291E+03  0.79107386580E+03  0.14829565828E+04  0.25500000920E-02 0. -1.
       -2    1    3    3    0  502  0.11850445374E+04 -0.41113478291E+03 -0.21074756970E+04  0.24525122179E+04  0.25500000920E-02 0.  1.
</event>
<event>
 5   0  0.3008879E-07  0.3692908E+04  0.7818609E-02  0.8069535E-01
       -2   -1    0    0    0  501  0.00000000000E+00  0.00000000000E+00  0.17262725594E+04  0.17262725594E+04  0.25500000920E-02 0.  1.
        2   -1    0    0  501    0  0.00000000000E+00  0.00000000000E+00 -0.19750020586E+04  0.19750020586E+04  0.25500000920E-02 0. -1.
    10030    2    1    2    0    0  0.00000000000E+00  0.00000000000E+00 -0.24872949918E+03  0.37012746180E+04  0.36929077208E+04 0.  0.
        2    1    3    3  502    0 -0.92516493473E+02 -0.51900293998E+03 -0.18979696397E+04  0.19698254000E+04  0.25500000920E-02 0. -1.
       -2    1    3    3    0  502  0.92516493473E+02  0.51900293998E+03  0.16492401405E+04  0.17314492180E+04  0.25500000920E-02 0.  1.
</event>
<event>
 5   0  0.3032442E-07  0.3737238E+04  0.7818609E-02  0.8059759E-01
        2   -1    0    0  501    0  0.00000000000E+00  0.00000000000E+00  0.15930070201E+04  0.15930070201E+04  0.25500000920E-02 0.  1.
       -2   -1    0    0    0  501  0.00000000000E+00  0.00000000000E+00 -0.21919156061E+04  0.21919156061E+04  0.25500000920E-02 0. -1.
    10030    2    1    2    0    0  0.00000000000E+00  0.00000000000E+00 -0.59890858601E+03  0.37849226262E+04  0.37372379897E+04 0.  0.
        3    1    3    3  502    0  0.63507074240E+03 -0.17460268656E+04 -0.97378288755E+02  0.18604857442E+04  0.10100000352E+00 0. -1.
       -3    1    3    3    0  502 -0.63507074240E+03  0.17460268656E+04 -0.50153029726E+03  0.19244368819E+04  0.10100000352E+00 0.  1.
</event>
<event>
 5   0  0.9418945E-08  0.3655539E+04  0.7818609E-02  0.8077887E-01
        1   -1    0    0  501    0  0.00000000000E+00  0.00000000000E+00  0.23598564949E+04  0.23598564949E+04  0.50400001928E-02 0. -1.
       -1   -1    0    0    0  501  0.00000000000E+00  0.00000000000E+00 -0.14156541300E+04  0.14156541300E+04  0.50400001928E-02 0.  1.
    10030    2    1    2    0    0  0.00000000000E+00  0.00000000000E+00  0.94420236491E+03  0.37755106249E+04  0.36555385886E+04 0.  0.
        5    1    3    3  502    0 -0.17705689496E+04  0.21241015368E+03  0.88611360951E+03  0.19912940259E+04  0.46999998093E+01 0. -1.
       -5    1    3    3    0  502  0.17705689496E+04 -0.21241015368E+03  0.58088755401E+02  0.17842165990E+04  0.46999998093E+01 0.  1.
</event>
<event>
 5   0  0.2996969E-07  0.3738649E+04  0.7818609E-02  0.8059450E-01
       -2   -1    0    0    0  501  0.00000000000E+00  0.00000000000E+00  0.13734094671E+04  0.13734094671E+04  0.25500000920E-02 0. -1.
        2   -1    0    0  501    0  0.00000000000E+00  0.00000000000E+00 -0.25443056456E+04  0.25443056456E+04  0.25500000920E-02 0.  1.
    10030    2    1    2    0    0  0.00000000000E+00  0.00000000000E+00 -0.11708961785E+04  0.39177151128E+04  0.37386486655E+04 0.  0.
        1    1    3    3  502    0  0.64638587053E+03  0.14202471832E+04  0.49315039144E+03  0.16364944435E+04  0.50400001928E-02 0. -1.
       -1    1    3    3    0  502 -0.64638587053E+03 -0.14202471832E+04 -0.16640465699E+04  0.22812206693E+04  0.50400001928E-02 0.  1.
</event>
<event>
 5   0  0.9341000E-08  0.3702883E+04  0.7818609E-02  0.8067323E-01
       -1   -1    0    0    0  501  0.00000000000E+00  0.00000000000E+00  0.17665992879E+04  0.17665992880E+04  0.50400001928E-02 0.  1.
        1   -1    0    0  501    0  0.00000000000E+00  0.00000000000E+00 -0.19403587275E+04  0.19403587275E+04  0.50400001928E-02 0. -1.
    10030    2    1    2    0    0  0.00000000000E+00  0.00000000000E+00 -0.17375943955E+03  0.37069580155E+04  0.37028833881E+04 0.  0.
        4    1    3    3  502    0 -0.91520828940E+03  0.14160444688E+04  0.67884533132E+03  0.18175865171E+04  0.12699999809E+01 0.  1.
       -4    1    3    3    0  502  0.91520828940E+03 -0.14160444688E+04 -0.85260477087E+03  0.18893714983E+04  0.12699999809E+01 0. -1.
</event>
<event>
 5   0  0.9646615E-08  0.3687274E+04  0.7818609E-02  0.8070788E-01
        1   -1    0    0  501    0  0.00000000000E+00  0.00000000000E+00  0.10078466309E+04  0.10078466309E+04  0.50400001928E-02 0.  1.
       -1   -1    0    0    0  501  0.00000000000E+00  0.00000000000E+00 -0.33725346640E+04  0.33725346640E+04  0.50400001928E-02 0. -1.
    10030    2    1    2    0    0  0.00000000000E+00  0.00000000000E+00 -0.23646880332E+04  0.43803812949E+04  0.36872741686E+04 0.  0.
        2    1    3    3  502    0 -0.41233846754E+03  0.53218929025E+03 -0.32212836715E+04  0.32908839154E+04  0.25500000920E-02 0. -1.
       -2    1    3    3    0  502  0.41233846754E+03 -0.53218929025E+03  0.85659563829E+03  0.10894973795E+04  0.25500000920E-02 0.  1.
</event>
<event>
 5   0  0.2897133E-07  0.3626339E+04  0.7818609E-02  0.8084485E-01
        2   -1    0    0  501    0  0.00000000000E+00  0.00000000000E+00  0.15087939272E+04  0.15087939272E+04  0.25500000920E-02 0. -1.
       -2   -1    0    0    0  501  0.00000000000E+00  0.00000000000E+00 -0.21789475069E+04  0.21789475069E+04  0.25500000920E-02 0.  1.
    10030    2    1    2    0    0  0.00000000000E+00  0.00000000000E+00 -0.67015357973E+03  0.36877414342E+04  0.36263385204E+04 0.  0.
        4    1    3    3  502    0 -0.10222019871E+04 -0.14966001337E+04 -0.28057555898E+03  0.18339664991E+04  0.12699999809E+01 0. -1.
       -4    1    3    3    0  502  0.10222019871E+04  0.14966001337E+04 -0.38957802076E+03  0.18537749350E+04  0.12699999809E+01 0.  1.
</event>
<event>
 5   0  0.3008879E-07  0.3699832E+04  0.7818609E-02  0.8067999E-01
        2   -1    0    0  501    0  0.00000000000E+00  0.00000000000E+00  0.10980426417E+04  0.10980426417E+04  0.25500000920E-02 0. -1.
       -2   -1    0    0    0  501  0.00000000000E+00  0.00000000000E+00 -0.31166268864E+04  0.31166268864E+04  0.25500000920E-02 0.  1.
    10030    2    1    2    0    0  0.00000000000E+00  0.00000000000E+00 -0.20185842446E+04  0.42146695281E+04  0.36998320067E+04 0.  0.
        2    1    3    3  502    0  0.10194679791E+04  0.15410312255E+04 -0.11117969120E+04  0.21564286614E+04  0.25500000920E-02 0.  1.
       -2    1    3    3    0  502 -0.10194679791E+04 -0.15410312255E+04 -0.90678733265E+03  0.20582408666E+04  0.25500000920E-02 0. -1.
</event>
<event>
 5   0  0.2913025E-07  0.3703271E+04  0.7818609E-02  0.8067237E-01
        2   -1    0    0  501    0  0.00000000000E+00  0.00000000000E+00  0.27577452691E+04  0.27577452691E+04  0.25500000920E-02 0.  1.
       -2   -1    0    0    0  501  0.00000000000E+00  0.00000000000E+00 -0.12432452897E+04  0.12432452897E+04  0.25500000920E-02 0. -1.
    10030    2    1    2    0    0  0.00000000000E+00  0.00000000000E+00  0.15144999794E+04  0.40009905588E+04  0.37032708872E+04 0.  0.
        5    1    3    3  502    0 -0.11400631177E+04 -0.29175597203E+03 -0.78724688460E+03  0.14158549385E+04  0.46999998093E+01 0. -1.
       -5    1    3    3    0  502  0.11400631177E+04  0.29175597203E+03  0.23017468640E+04  0.25851356203E+04  0.46999998093E+01 0.  1.
</event>
<event>
 5   0  0.9646615E-08  0.3703965E+04  0.7818609E-02  0.8067084E-01
        1   -1    0    0  501    0  0.00000000000E+00  0.00000000000E+00  0.21395915152E+04  0.21395915152E+04  0.50400001928E-02 0. -1.
       -1   -1    0    0    0  501  0.00000000000E+00  0.00000000000E+00 -0.16030349518E+04  0.16030349518E+04  0.50400001928E-02 0.  1.
    10030    2    1    2    0    0  0.00000000000E+00  0.00000000000E+00  0.53655656343E+03  0.37426264670E+04  0.37039654325E+04 0.  0.
        2    1    3    3  502    0 -0.64244115192E+03  0.17014855124E+04 -0.84734016651E+02  0.18207041045E+04  0.25500000920E-02 0.  1.
       -2    1    3    3    0  502  0.64244115192E+03 -0.17014855124E+04  0.62129058008E+03  0.19219223625E+04  0.25500000920E-02 0. -1.
</event>
<event>
 5   0  0.2897133E-07  0.3696561E+04  0.7818609E-02  0.8068724E-01
        2   -1    0    0  501    0  0.00000000000E+00  0.00000000000E+00  0.11011314055E+04  0.11011314055E+04  0.25500000920E-02 0. -1.
       -2   -1    0    0    0  501  0.00000000000E+00  0.00000000000E+00 -0.31023912904E+04  0.31023912904E+04  0.25500000920E-02 0.  1.
    10030    2    1    2    0    0  0.00000000000E+00  0.00000000000E+00 -0.20012598849E+04  0.42035226958E+04  0.36965608243E+04 0.  0.
        4    1    3    3  502    0 -0.10159255754E+04  0.29338567819E+03  0.72316924661E+03  0.12810758381E+04  0.12699999809E+01 0. -1.
       -4    1    3    3    0  502  0.10159255754E+04 -0.29338567819E+03 -0.27244291315E+04  0.29224468577E+04  0.12699999809E+01 0.  1.
</event>
<event>
 5   0  0.3032442E-07  0.3722672E+04  0.7818609E-02  0.8062956E-01
        2   -1    0    0  501    0  0.00000000000E+00  0.00000000000E+00  0.25739106455E+04  0.25739106455E+04  0.25500000920E-02 0.  1.
       -2   -1    0    0    0  501  0.00000000000E+00  0.00000000000E+00 -0.13460340368E+04  0.13460340368E+04  0.25500000920E-02 0. -1.
    10030    2    1    2    0    0  0.00000000000E+00  0.00000000000E+00  0.12278766087E+04  0.39199446823E+04  0.37226718021E+04 0.  0.
        3    1    3    3  502    0 -0.87441231070E+02 -0.87058899027E+03 -0.11159841842E+04  0.14180944498E+04  0.10100000352E+00 0. -1.
       -3    1    3    3    0  502  0.87441231070E+02  0.87058899027E+03  0.23438607929E+04  0.25018502325E+04  0.10100000352E+00 0.  1.
</event>
<event>
 5   0  0.9418945E-08  0.3701342E+04  0.7818609E-02  0.8067664E-01
        1   -1    0    0  501    0  0.00000000000E+00  0.00000000000E+00  0.28241737978E+04  0.28241737978E+04  0.50400001928E-02 0.  1.
       -1   -1    0    0    0  501  0.00000000000E+00  0.00000000000E+00 -0.12127380978E+04  0.12127380978E+04  0.50400001928E-02 0. -1.
    10030    2    1    2    0    0  0.00000000000E+00  0.00000000000E+00  0.16114357000E+04  0.40369118956E+04  0.37013420049E+04 0.  0.
        5    1    3    3  502    0 -0.14432446247E+04 -0.83696585743E+03  0.16792651270E+04  0.23671544837E+04  0.46999998093E+01 0.  1.
       -5    1    3    3    0  502  0.14432446247E+04  0.83696585743E+03 -0.67829426960E+02  0.16697574118E+04  0.46999998093E+01 0. -1.
</event>
<event>
 5   0  0.3032442E-07  0.3436940E+04  0.7818609E-02  0.8128899E-01
       -2   -1    0    0    0  501  0.00000000000E+00  0.00000000000E+00  0.13332695694E+04  0.13332695694E+04  0.25500000920E-02 0. -1.
        2   -1    0    0  501    0  0.00000000000E+00  0.00000000000E+00 -0.22149598412E+04  0.22149598412E+04  0.25500000920E-02 0.  1.
    10030    2    1    2    0    0  0.00000000000E+00  0.00000000000E+00 -0.88169027174E+03  0.35482294106E+04  0.34369396584E+04 0.  0.
        3    1    3    3  502    0 -0.13699634115E+04 -0.67648080607E+03 -0.12528978718E+04  0.19758995717E+04  0.10100000352E+00 0.  1.
       -3    1    3    3    0  502  0.13699634115E+04  0.67648080607E+03  0.37120760005E+03  0.15723298390E+04  0.10100000352E+00 0. -1.
</event>
<event>
 5   0  0.9646615E-08  0.3729958E+04  0.7818609E-02  0.8061355E-01
       -1   -1    0    0    0  501  0.00000000000E+00  0.00000000000E+00  0.17481952614E+04  0.17481952614E+04  0.50400001928E-02 0.  1.
        1   -1    0    0  501    0  0.00000000000E+00  0.00000000000E+00 -0.19895645203E+04  0.19895645203E+04  0.50400001928E-02 0. -1.
    10030    2    1    2    0    0  0.00000000000E+00  0.00000000000E+00 -0.24136925893E+03  0.37377597816E+04  0.37299583196E+04 0.  0.
        2    1    3    3  502    0 -0.68734985056E+03  0.36424431582E+03  0.15778601434E+04  0.17591948075E+04  0.25500000920E-02 0.  1.
       -2    1    3    3    0  502  0.68734985056E+03 -0.36424431582E+03 -0.18192294023E+04  0.19785649741E+04  0.25500000920E-02 0. -1.
</event>
<event>
 5   0  0.9341000E-08  0.3607084E+04  0.7818609E-02  0.8088871E-01
        1   -1    0    0  501    0  0.00000000000E+00  0.00000000000E+00  0.18858759046E+04  0.18858759046E+04  0.50400001928E-02 0. -1.
       -1   -1    0    0    0  501  0.00000000000E+00  0.00000000000E+00 -0.17248025454E+04  0.17248025454E+04  0.50400001928E-02 0.  1.
    10030    2    1    2    0    0  0.00000000000E+00  0.00000000000E+00  0.16107335916E+03  0.36106784500E+04  0.36070838973E+04 0.  0.
        1    1    3    3  502    0  0.33774437164E+03  0.69172014498E+03 -0.15521053909E+04  0.17325066130E+04  0.50400001928E-02 0.  1.
       -1    1    3    3    0  502 -0.33774437164E+03 -0.69172014498E+03  0.17131787501E+04  0.18781718370E+04  0.50400001928E-02 0. -1.
</event>
<event>
 5   0  0.2897133E-07  0.3758134E+04  0.7818609E-02  0.8055199E-01
       -2   -1    0    0    0  501  0.00000000000E+00  0.00000000000E+00  0.14377421437E+04  0.14377421437E+04  0.25500000920E-02 0.  1.
        2   -1    0    0  501    0  0.00000000000E+00  0.00000000000E+00 -0.24558591505E+04  0.24558591505E+04  0.25500000920E-02 0. -1.
    10030    2    1    2    0    0  0.00000000000E+00  0.00000000000E+00 -0.10181170068E+04  0.38936012943E+04  0.37581336856E+04 0.  0.
        4    1    3    3  502    0 -0.16730583483E+04 -0.64298532643E+03  0.75492324749E+02  0.17939495731E+04  0.12699999809E+01 0.  1.
       -4    1    3    3    0  502  0.16730583483E+04  0.64298532643E+03 -0.10936093316E+04  0.20996517211E+04  0.12699999809E+01 0. -1.
</event>
<event>
 5   0  0.2897133E-07  0.3729236E+04  0.7818609E-02  0.8061513E-01
        2   -1    0    0  501    0  0.00000000000E+00  0.00000000000E+00  0.20672874890E+04  0.20672874890E+04  0.25500000920E-02 0.  1.
       -2   -1    0    0    0  501  0.00000000000E+00  0.00000000000E+00 -0.16818176123E+04  0.16818176123E+04  0.25500000920E-02 0. -1.
    10030    2    1    2    0    0  0.00000000000E+00  0.00000000000E+00  0.38546987672E+03  0.37491051013E+04  0.37292361195E+04 0.  0.
        4    1    3    3  502    0 -0.85508846706E+03  0.11750376728E+04  0.13672527155E+04  0.19953123615E+04  0.12699999809E+01 0.  1.
       -4    1    3    3    0  502  0.85508846706E+03 -0.11750376728E+04 -0.98178283874E+03  0.17537927398E+04  0.12699999809E+01 0. -1.
</event>
<event>
 5   0  0.2897133E-07  0.3731606E+04  0.7818609E-02  0.8060993E-01
       -2   -1    0    0    0  501  0.00000000000E+00  0.00000000000E+00  0.16909291794E+04  0.16909291794E+04  0.25500000920E-02 0. -1.
        2   -1    0    0  501    0  0.00000000000E+00  0.00000000000E+00 -0.20587624588E+04  0.20587624588E+04  0.25500000920E-02 0.  1.
    10030    2    1    2    0    0  0.00000000000E+00  0.00000000000E+00 -0.36783327937E+03  0.37496916382E+04  0.37316063645E+04 0.  0.
        4    1    3    3  502    0 -0.55726782405E+03  0.59527340406E+03  0.15024068392E+04  0.17094226443E+04  0.12699999809E+01 0. -1.
       -4    1    3    3    0  502  0.55726782405E+03 -0.59527340406E+03 -0.18702401186E+04  0.20402689939E+04  0.12699999809E+01 0.  1.
</event>
<event>
 5   0  0.9341000E-08  0.3684911E+04  0.7818609E-02  0.8071314E-01
       -1   -1    0    0    0  501  0.00000000000E+00  0.00000000000E+00  0.25220922942E+04  0.25220922942E+04  0.50400001928E-02 0.  1.
        1   -1    0    0  501    0  0.00000000000E+00  0.00000000000E+00 -0.13459625899E+04  0.13459625899E+04  0.50400001928E-02 0. -1.
    10030    2    1    2    0    0  0.00000000000E+00  0.00000000000E+00  0.11761297043E+04  0.38680548842E+04  0.36849107867E+04 0.  0.
        3    1    3    3  502    0  0.65005536085E+03  0.87998857418E+03 -0.96807586433E+03  0.14608637007E+04  0.10100000352E+00 0. -1.
       -3    1    3    3    0  502 -0.65005536085E+03 -0.87998857418E+03  0.21442055686E+04  0.24071911834E+04  0.10100000352E+00 0.  1.
</event>
<event>
 5   0  0.3032442E-07  0.3706668E+04  0.7818609E-02  0.8066486E-01
        2   -1    0    0  501    0  0.00000000000E+00  0.00000000000E+00  0.21035323791E+04  0.21035323791E+04  0.25500000920E-02 0. -1.
       -2   -1    0    0    0  501  0.00000000000E+00  0.00000000000E+00 -0.16328949941E+04  0.16328949941E+04  0.25500000920E-02 0.  1.
    10030    2    1    2    0    0  0.00000000000E+00  0.00000000000E+00  0.47063738498E+03  0.37364273731E+04  0.37066683108E+04 0.  0.
        3    1    3    3  502    0 -0.63660671141E+03  0.13964470776E+04 -0.81201999854E+03  0.17362917479E+04  0.10100000352E+00 0.  1.
       -3    1    3    3    0  502  0.63660671141E+03 -0.13964470776E+04  0.12826573835E+04  0.20001356252E+04  0.10100000352E+00 0. -1.
</event>
<event>
 5   0  0.2996969E-07  0.3575980E+04  0.7818609E-02  0.8096016E-01
       -2   -1    0    0    0  501  0.00000000000E+00  0.00000000000E+00  0.27192829335E+04  0.27192829335E+04  0.25500000920E-02 0. -1.
        2   -1    0    0  501    0  0.00000000000E+00  0.00000000000E+00 -0.11756441514E+04  0.11756441514E+04  0.25500000920E-02 0.  1.
    10030    2    1    2    0    0  0.00000000000E+00  0.00000000000E+00  0.15436387821E+04  0.38949270848E+04  0.35759804679E+04 0.  0.
        1    1    3    3  502    0 -0.17208699436E+04 -0.83957134113E+02  0.25120538086E+03  0.17411336268E+04  0.50400001928E-02 0.  1.
       -1    1    3    3    0  502  0.17208699436E+04  0.83957134113E+02  0.12924334013E+04  0.21537934580E+04  0.50400001928E-02 0. -1.
</event>
<event>
 5   0  0.9646615E-08  0.3630486E+04  0.7818609E-02  0.8083544E-01
       -1   -1    0    0    0  501  0.00000000000E+00  0.00000000000E+00  0.15883944833E+04  0.15883944833E+04  0.50400001928E-02 0.  1.
        1   -1    0    0  501    0  0.00000000000E+00  0.00000000000E+00 -0.20744889847E+04  0.20744889847E+04  0.50400001928E-02 0. -1.
    10030    2    1    2    0    0  0.00000000000E+00  0.00000000000E+00 -0.48609450135E+03  0.36628834680E+04  0.36304858402E+04 0.  0.
        2    1    3    3  502    0  0.27079804676E+03  0.79467641923E+03 -0.18668393557E+04  0.20469321859E+04  0.25500000920E-02 0. -1.
       -2    1    3    3    0  502 -0.27079804676E+03 -0.79467641923E+03  0.13807448544E+04  0.16159512822E+04  0.25500000920E-02 0.  1.
</event>
<event>
 5   0  0.9341000E-08  0.3738102E+04  0.7818609E-02  0.8059570E-01
       -1   -1    0    0    0  501  0.00000000000E+00  0.00000000000E+00  0.12989666083E+04  0.12989666083E+04  0.50400001928E-02 0.  1.
        1   -1    0    0  501    0  0.00000000000E+00  0.00000000000E+00 -0.26893314583E+04  0.26893314583E+04  0.50400001928E-02 0. -1.
    10030    2    1    2    0    0  0.00000000000E+00  0.00000000000E+00 -0.13903648501E+04  0.39882980666E+04  0.37381020655E+04 0.  0.
        1    1    3    3  502    0  0.55169499840E+03  0.83354121166E+03  0.98982383663E+03  0.14067372002E+04  0.50400001928E-02 0.  1.
       -1    1    3    3    0  502 -0.55169499840E+03 -0.83354121166E+03 -0.23801886867E+04  0.25815608664E+04  0.50400001928E-02 0. -1.
</event>
<event>
 5   0  0.9646615E-08  0.3730919E+04  0.7818609E-02  0.8061144E-01
        1   -1    0    0  501    0  0.00000000000E+00  0.00000000000E+00  0.13464559003E+04  0.13464559003E+04  0.50400001928E-02 0.  1.
       -1   -1    0    0    0  501  0.00000000000E+00  0.00000000000E+00 -0.25845179886E+04  0.25845179886E+04  0.50400001928E-02 0. -1.
    10030    2    1    2    0    0  0.00000000000E+00  0.00000000000E+00 -0.12380620882E+04  0.39309738889E+04  0.37309191872E+04 0.  0.
        2    1    3    3  502    0 -0.12425028324E+04 -0.54588381054E+03  0.72949530387E+03  0.15407679324E+04  0.25500000920E-02 0.  1.
       -2    1    3    3    0  502  0.12425028324E+04  0.54588381054E+03 -0.19675573921E+04  0.23902059565E+04  0.25500000920E-02 0. -1.
</event>
<event>
 5   0  0.3032442E-07  0.3665966E+04  0.7818609E-02  0.8075546E-01
        2   -1    0    0  501    0  0.00000000000E+00  0.00000000000E+00  0.21155833479E+04  0.21155833479E+04  0.25500000920E-02 0. -1.
       -2   -1    0    0    0  501  0.00000000000E+00  0.00000000000E+00 -0.15881322817E+04  0.15881322817E+04  0.25500000920E-02 0.  1.
    10030    2    1    2    0    0  0.00000000000E+00  0.00000000000E+00  0.52745106622E+03  0.37037156297E+04  0.36659657443E+04 0.  0.
        3    1    3    3  502    0 -0.59339347085E+03 -0.16853141878E+04  0.67711680266E+03  0.19107294150E+04  0.10100000352E+00 0. -1.
       -3    1    3    3    0  502  0.59339347085E+03  0.16853141878E+04 -0.14966573644E+03  0.17929862146E+04  0.10100000352E+00 0.  1.
</event>
<event>
 5   0  0.9646615E-08  0.3699664E+04  0.7818609E-02  0.8068036E-01
        1   -1    0    0  501    0  0.00000000000E+00  0.00000000000E+00  0.18476224827E+04  0.18476224827E+04  0.50400001928E-02 0.  1.
       -1   -1    0    0    0  501  0.00000000000E+00  0.00000000000E+00 -0.18520444367E+04  0.18520444367E+04  0.50400001928E-02 0. -1.
    10030    2    1    2    0    0  0.00000000000E+00  0.00000000000E+00 -0.44219540271E+01  0.36996669194E+04  0.36996642767E+04 0.  0.
        2    1    3    3  502    0 -0.90749400662E+03  0.94655338717E+02  0.16069433456E+04  0.18479101497E+04  0.25500000920E-02 0.  1.
       -2    1    3    3    0  502  0.90749400662E+03 -0.94655338717E+02 -0.16113652997E+04  0.18517567697E+04  0.25500000920E-02 0. -1.
</event>
<event>
 5   0  0.2897133E-07  0.3686408E+04  0.7818609E-02  0.8070981E-01
       -2   -1    0    0    0  501  0.00000000000E+00  0.00000000000E+00  0.20421698218E+04  0.20421698218E+04  0.25500000920E-02 0. -1.
        2   -1    0    0  501    0  0.00000000000E+00  0.00000000000E+00 -0.16636230422E+04  0.16636230422E+04  0.25500000920E-02 0.  1.
    10030    2    1    2    0    0  0.00000000000E+00  0.00000000000E+00  0.37854677961E+03  0.37057928640E+04  0.36864078839E+04 0.  0.
        4    1    3    3  502    0  0.11327866133E+04 -0.76499556319E+03 -0.10537463015E+04  0.17259219576E+04  0.12699999809E+01 0. -1.
       -4    1    3    3    0  502 -0.11327866133E+04  0.76499556319E+03  0.14322930811E+04  0.19798709064E+04  0.12699999809E+01 0.  1.
</event>
<event>
 5   0  0.9341000E-08  0.3714909E+04  0.7818609E-02  0.8064666E-01
       -1   -1    0    0    0  501  0.00000000000E+00  0.00000000000E+00  0.10921891882E+04  0.10921891882E+04  0.50400001928E-02 0. -1.
        1   -1    0    0  501    0  0.00000000000E+00  0.00000000000E+00 -0.31589184815E+04  0.31589184815E+04  0.50400001928E-02 0.  1.
    10030    2    1    2    0    0  0.00000000000E+00  0.00000000000E+00 -0.20667292933E+04  0.42511076698E+04  0.37149086729E+04 0.  0.
        3    1    3    3  502    0  0.18152857168E+04  0.16883408590E+03 -0.14401590401E+04  0.23233220296E+04  0.10100000352E+00 0.  1.
       -3    1    3    3    0  502 -0.18152857168E+04 -0.16883408590E+03 -0.62657025323E+03  0.19277856402E+04  0.10100000352E+00 0. -1.
</event>
<event>
 5   0  0.9341000E-08  0.3691847E+04  0.7818609E-02  0.8069771E-01
       -1   -1    0    0    0  501  0.00000000000E+00  0.00000000000E+00  0.18078949792E+04  0.18078949792E+04  0.50400001928E-02 0.  1.
        1   -1    0    0  501    0  0.00000000000E+00  0.00000000000E+00 -0.18847518469E+04  0.18847518469E+04  0.50400001928E-02 0. -1.
    10030    2    1    2    0    0  0.00000000000E+00  0.00000000000E+00 -0.76856867636E+02  0.36926468261E+04  0.36918469096E+04 0.  0.
        1    1    3    3  502    0 -0.14772742161E+04 -0.45087006582E+03  0.97263700254E+03  0.18252796127E+04  0.50400001928E-02 0. -1.
       -1    1    3    3    0  502  0.14772742161E+04  0.45087006582E+03 -0.10494938702E+04  0.18673672133E+04  0.50400001928E-02 0.  1.
</event>
<event>
 5   0  0.2897133E-07  0.3714300E+04  0.7818609E-02  0.8064800E-01
       -2   -1    0    0    0  501  0.00000000000E+00  0.00000000000E+00  0.15754137674E+04  0.15754137674E+04  0.25500000920E-02 0.  1.
        2   -1    0    0  501    0  0.00000000000E+00  0.00000000000E+00 -0.21892695767E+04  0.21892695767E+04  0.25500000920E-02 0. -1.
    10030    2    1    2    0    0  0.00000000000E+00  0.00000000000E+00 -0.61385580926E+03  0.37646833442E+04  0.37142996281E+04 0.  0.
        4    1    3    3  502    0 -0.10000555538E+04 -0.20781442918E+03 -0.18790011688E+04  0.21386783192E+04  0.12699999809E+01 0. -1.
       -4    1    3    3    0  502  0.10000555538E+04  0.20781442918E+03  0.12651453595E+04  0.16260050250E+04  0.12699999809E+01 0.  1.
</event>
<event>
 5   0  0.2913025E-07  0.3705431E+04  0.7818609E-02  0.8066759E-01
       -2   -1    0    0    0  501  0.00000000000E+00  0.00000000000E+00  0.16100478700E+04  0.16100478700E+04  0.25500000920E-02 0. -1.
        2   -1    0    0  501    0  0.00000000000E+00  0.00000000000E+00 -0.21319581290E+04  0.21319581290E+04  0.25500000920E-02 0.  1.
    10030    2    1    2    0    0  0.00000000000E+00  0.00000000000E+00 -0.52191025903E+03  0.37420059991E+04  0.37054309572E+04 0.  0.
        5    1    3    3  502    0  0.79469441946E+03 -0.64730351878E+03 -0.18195593811E+04  0.20883868169E+04  0.46999998093E+01 0.  1.
       -5    1    3    3    0  502 -0.79469441946E+03  0.64730351878E+03  0.12976491220E+04  0.16536191822E+04  0.46999998093E+01 0. -1.
</event>
<event>
 5   0  0.9646615E-08  0.3821427E+04  0.7818609E-02  0.8041572E-01
        1   -1    0    0  501    0  0.00000000000E+00  0.00000000000E+00  0.21999550846E+04  0.21999550846E+04  0.50400001928E-02 0.  1.
       -1   -1    0    0    0  501  0.00000000000E+00  0.00000000000E+00 -0.16595005057E+04  0.16595005057E+04  0.50400001928E-02 0. -1.
    10030    2    1    2    0    0  0.00000000000E+00  0.00000000000E+00  0.54045457896E+03  0.38594555903E+04  0.38214272597E+04 0.  0.
        2    1    3    3  502    0  0.55872086862E+03  0.54785225042E+03 -0.14902530412E+04  0.16832008865E+04  0.25500000920E-02 0. -1.
       -2    1    3    3    0  502 -0.55872086862E+03 -0.54785225042E+03  0.20307076202E+04  0.21762547038E+04  0.25500000920E-02 0.  1.
</event>
<event>
 5   0  0.9341000E-08  0.3668012E+04  0.7818609E-02  0.8075088E-01
       -1   -1    0    0    0  501  0.00000000000E+00  0.00000000000E+00  0.14529594754E+04  0.14529594754E+04  0.50400001928E-02 0.  1.
        1   -1    0    0  501    0  0.00000000000E+00  0.00000000000E+00 -0.23149834823E+04  0.23149834823E+04  0.50400001928E-02 0. -1.
    10030    2    1    2    0    0  0.00000000000E+00  0.00000000000E+00 -0.86202400694E+03  0.37679429578E+04  0.36680115518E+04 0.  0.
        4    1    3    3  502    0  0.14916971542E+04 -0.21895545476E+03  0.64169525445E+03  0.16385592157E+04  0.12699999809E+01 0.  1.
       -4    1    3    3    0  502 -0.14916971542E+04  0.21895545476E+03 -0.15037192614E+04  0.21293837420E+04  0.12699999809E+01 0. -1.
</event>
<event>
 5   0  0.9341000E-08  0.3697230E+04  0.7818609E-02  0.8068576E-01
        1   -1    0    0  501    0  0.00000000000E+00  0.00000000000E+00  0.13758002045E+04  0.13758002045E+04  0.50400001928E-02 0. -1.
       -1   -1    0    0    0  501  0.00000000000E+00  0.00000000000E+00 -0.24839199814E+04  0.24839199815E+04  0.50400001928E-02 0.  1.
    10030    2    1    2    0    0  0.00000000000E+00  0.00000000000E+00 -0.11081197769E+04  0.38597201860E+04  0.36972301083E+04 0.  0.
        1    1    3    3  502    0  0.72149044545E+03 -0.87031966718E+03 -0.20810020202E+04  0.23682428495E+04  0.50400001928E-02 0.  1.
       -1    1    3    3    0  502 -0.72149044545E+03  0.87031966718E+03  0.97288224327E+03  0.14914773365E+04  0.50400001928E-02 0. -1.
</event>
<event>
 5   0  0.9418945E-08  0.3693292E+04  0.7818609E-02  0.8069450E-01
       -1   -1    0    0    0  501  0.00000000000E+00  0.00000000000E+00  0.23997845535E+04  0.23997845535E+04  0.50400001928E-02 0. -1.
        1   -1    0    0  501    0  0.00000000000E+00  0.00000000000E+00 -0.14210032143E+04  0.14210032144E+04  0.50400001928E-02 0.  1.
    10030    2    1    2    0    0  0.00000000000E+00  0.00000000000E+00  0.97878133912E+03  0.38207877678E+04  0.36932920622E+04 0.  0.
        5    1    3    3  502    0 -0.90862342401E+03  0.15861185077E+04  0.21821390057E+03  0.18409258116E+04  0.46999998093E+01 0.  1.
       -5    1    3    3    0  502  0.90862342401E+03 -0.15861185077E+04  0.76056743855E+03  0.19798619563E+04  0.46999998093E+01 0. -1.
</event>
<event>
 5   0  0.9341000E-08  0.3671333E+04  0.7818609E-02  0.8074345E-01
       -1   -1    0    0    0  501  0.00000000000E+00  0.00000000000E+00  0.20878249429E+04  0.20878249429E+04  0.50400001928E-02 0.  1.
        1   -1    0    0  501    0  0.00000000000E+00  0.00000000000E+00 -0.16139628840E+04  0.16139628840E+04  0.50400001928E-02 0. -1.
    10030    2    1    2    0    0  0.00000000000E+00  0.00000000000E+00  0.47386205882E+03  0.37017878269E+04  0.36713332544E+04 0.  0.
        3    1    3    3  502    0  0.82748155302E+03  0.11710205775E+04 -0.91872533147E+03  0.17029595293E+04  0.10100000352E+00 0. -1.
       -3    1    3    3    0  502 -0.82748155302E+03 -0.11710205775E+04  0.13925873903E+04  0.19988282976E+04  0.10100000352E+00 0.  1.
</event>
<event>
 5   0  0.2996969E-07  0.3647348E+04  0.7818609E-02  0.8079731E-01
        2   -1    0    0  501    0  0.00000000000E+00  0.00000000000E+00  0.25933770931E+04  0.25933770931E+04  0.25500000920E-02 0. -1.
       -2   -1    0    0    0  501  0.00000000000E+00  0.00000000000E+00 -0.12824152957E+04  0.12824152957E+04  0.25500000920E-02 0.  1.
    10030    2    1    2    0    0  0.00000000000E+00  0.00000000000E+00  0.13109617974E+04  0.38757923888E+04  0.36473477771E+04 0.  0.
        1    1    3    3  502    0  0.68839510619E+03 -0.16440393969E+04  0.10657083172E+04  0.20766529749E+04  0.50400001928E-02 0.  1.
       -1    1    3    3    0  502 -0.68839510619E+03  0.16440393969E+04  0.24525348016E+03  0.17991394139E+04  0.50400001928E-02 0. -1.
</event>
<event>
 5   0  0.9418945E-08  0.3637325E+04  0.7818609E-02  0.8081995E-01
       -1   -1    0    0    0  501  0.00000000000E+00  0.00000000000E+00  0.16417022487E+04  0.16417022487E+04  0.50400001928E-02 0.  1.
        1   -1    0    0  501    0  0.00000000000E+00  0.00000000000E+00 -0.20146971441E+04  0.20146971441E+04  0.50400001928E-02 0. -1.
    10030    2    1    2    0    0  0.00000000000E+00  0.00000000000E+00 -0.37299489537E+03  0.36563993928E+04  0.36373247487E+04 0.  0.
        5    1    3    3  502    0 -0.14326571973E+04 -0.56650094927E+03  0.78504944366E+03  0.17290907118E+04  0.46999998093E+01 0.  1.
       -5    1    3    3    0  502  0.14326571973E+04  0.56650094927E+03 -0.11580443390E+04  0.19273086810E+04  0.46999998093E+01 0. -1.
</event>
<event>
 5   0  0.9341000E-08  0.3706458E+04  0.7818609E-02  0.8066532E-01
       -1   -1    0    0    0  501  0.00000000000E+00  0.00000000000E+00  0.11405948268E+04  0.11405948268E+04  0.50400001928E-02 0. -1.
        1   -1    0    0  501    0  0.00000000000E+00  0.00000000000E+00 -0.30111103007E+04  0.30111103007E+04  0.50400001928E-02 0.  1.
    10030    2    1    2    0    0  0.00000000000E+00  0.00000000000E+00 -0.18705154739E+04  0.41517051275E+04  0.37064575174E+04 0.  0.
        1    1    3    3  502    0  0.15430604663E+04  0.45644112413E+03  0.94457376078E+02  0.16119231677E+04  0.50400001928E-02 0. -1.
       -1    1    3    3    0  502 -0.15430604663E+04 -0.45644112413E+03 -0.19649728500E+04  0.25397819599E+04  0.50400001928E-02 0.  1.
</event>
<event>
 5   0  0.9341000E-08  0.3515334E+04  0.7818609E-02  0.8110165E-01
        1   -1    0    0  501    0  0.00000000000E+00  0.00000000000E+00  0.18886398407E+04  0.18886398407E+04  0.50400001928E-02 0. -1.
       -1   -1    0    0    0  501  0.00000000000E+00  0.00000000000E+00 -0.16357772271E+04  0.16357772271E+04  0.50400001928E-02 0.  1.
    10030    2    1    2    0    0  0.00000000000E+00  0.00000000000E+00  0.25286261351E+03  0.35244170678E+04  0.35153344317E+04 0.  0.
        3    1    3    3  502    0  0.15033117831E+04  0.75194838052E+03  0.64158897542E+03  0.17991690048E+04  0.10100000352E+00 0. -1.
       -3    1    3    3    0  502 -0.15033117831E+04 -0.75194838052E+03 -0.38872636191E+03  0.17252480630E+04  0.10100000352E+00 0.  1.
</event>
<event>
 5   0  0.9341000E-08  0.3744298E+04  0.7818609E-02  0.8058215E-01
       -1   -1    0    0    0  501  0.00000000000E+00  0.00000000000E+00  0.16187152995E+04  0.16187152995E+04  0.50400001928E-02 0. -1.
        1   -1    0    0  501    0  0.00000000000E+00  0.00000000000E+00 -0.21652612995E+04  0.21652612995E+04  0.50400001928E-02 0.  1.
    10030    2    1    2    0    0  0.00000000000E+00  0.00000000000E+00 -0.54654599997E+03  0.37839765990E+04  0.37442978476E+04 0.  0.
        4    1    3    3  502    0  0.53320848355E+03  0.14857279251E+04  0.74399288322E+03  0.17450575284E+04  0.12699999809E+01 0. -1.
       -4    1    3    3    0  502 -0.53320848355E+03 -0.14857279251E+04 -0.12905388832E+04  0.20389190706E+04  0.12699999809E+01 0.  1.
</event>
<event>
 5   0  0.9341000E-08  0.3690362E+04  0.7818609E-02  0.8070101E-01
        1   -1    0    0  501    0  0.00000000000E+00  0.00000000000E+00  0.27094244112E+04  0.27094244112E+04  0.50400001928E-02 0. -1.
       -1   -1    0    0    0  501  0.00000000000E+00  0.00000000000E+00 -0.12566108825E+04  0.12566108826E+04  0.50400001928E-02 0.  1.
    10030    2    1    2    0    0  0.00000000000E+00  0.00000000000E+00  0.14528135287E+04  0.39660352938E+04  0.36903616086E+04 0.  0.
        3    1    3    3  502    0 -0.22497748782E+03  0.13416860520E+04 -0.61329148583E+03  0.14922676666E+04  0.10100000352E+00 0.  1.
       -3    1    3    3    0  502  0.22497748782E+03 -0.13416860520E+04  0.20661050145E+04  0.24737676272E+04  0.10100000352E+00 0. -1.
</event>
<event>
 5   0  0.2996969E-07  0.3579124E+04  0.7818609E-02  0.8095290E-01
        2   -1    0    0  501    0  0.00000000000E+00  0.00000000000E+00  0.21543853443E+04  0.21543853443E+04  0.25500000920E-02 0. -1.
       -2   -1    0    0    0  501  0.00000000000E+00  0.00000000000E+00 -0.14865174363E+04  0.14865174363E+04  0.25500000920E-02 0.  1.
    10030    2    1    2    0    0  0.00000000000E+00  0.00000000000E+00  0.66786790793E+03  0.36409027806E+04  0.35791235680E+04 0.  0.
        1    1    3    3  502    0 -0.29160073841E+03  0.74685588779E+03  0.19614582862E+04  0.21189958273E+04  0.50400001928E-02 0. -1.
       -1    1    3    3    0  502  0.29160073841E+03 -0.74685588779E+03 -0.12935903782E+04  0.15219069533E+04  0.50400001928E-02 0.  1.
</event>
<event>
 5   0  0.3032442E-07  0.3738793E+04  0.7818609E-02  0.8059419E-01
       -2   -1    0    0    0  501  0.00000000000E+00  0.00000000000E+00  0.15960430048E+04  0.15960430048E+04  0.25500000920E-02 0.  1.
        2   -1    0    0  501    0  0.00000000000E+00  0.00000000000E+00 -0.21895668802E+04  0.21895668802E+04  0.25500000920E-02 0. -1.
    10030    2    1    2    0    0  0.00000000000E+00  0.00000000000E+00 -0.59352387538E+03  0.37856098851E+04  0.37387928013E+04 0.  0.
        3    1    3    3  502    0  0.12257569932E+04  0.54411305555E+03  0.10218914535E+04  0.16860609053E+04  0.10100000352E+00 0.  1.
       -3    1    3    3    0  502 -0.12257569932E+04 -0.54411305555E+03 -0.16154153289E+04  0.20995489798E+04  0.10100000352E+00 0. -1.
</event>
<event>
 5   0  0.9341000E-08  0.3697516E+04  0.7818609E-02  0.8068513E-01
        1   -1    0    0  501    0  0.00000000000E+00  0.00000000000E+00  0.20738707123E+04  0.20738707123E+04  0.50400001928E-02 0. -1.
       -1   -1    0    0    0  501  0.00000000000E+00  0.00000000000E+00 -0.16480803878E+04  0.16480803878E+04  0.50400001928E-02 0.  1.
    10030    2    1    2    0    0  0.00000000000E+00  0.00000000000E+00  0.42579032454E+03  0.37219511001E+04  0.36975157324E+04 0.  0.
        3    1    3    3  502    0 -0.21051218878E+02 -0.14808845955E+04 -0.90096320539E+03  0.17335504166E+04  0.10100000352E+00 0.  1.
       -3    1    3    3    0  502  0.21051218878E+02  0.14808845955E+04  0.13267535299E+04  0.19884006836E+04  0.10100000352E+00 0. -1.
</event>
<event>
 5   0  0.9341000E-08  0.3607451E+04  0.7818609E-02  0.8088787E-01
       -4   -1    0    0    0  501  0.00000000000E+00  0.00000000000E+00  0.18471568690E+04  0.18471573055E+04  0.12699999809E+01 0.  1.
        4   -1    0    0  501    0  0.00000000000E+00  0.00000000000E+00 -0.17613145551E+04  0.17613150129E+04  0.12699999809E+01 0. -1.
    10030    2    1    2    0    0  0.00000000000E+00  0.00000000000E+00  0.85842313900E+02  0.36084723185E+04  0.36074511182E+04 0.  0.
        1    1    3    3  502    0 -0.17230912938E+04  0.30317514840E+03  0.48175608974E+03  0.18146756480E+04  0.50400001928E-02 0.  1.
       -1    1    3    3    0  502  0.17230912938E+04 -0.30317514840E+03 -0.39591377584E+03  0.17937966705E+04  0.50400001928E-02 0. -1.
</event>
<event>
 5   0  0.9341000E-08  0.3372570E+04  0.7818609E-02  0.8144672E-01
        1   -1    0    0  501    0  0.00000000000E+00  0.00000000000E+00  0.16975237523E+04  0.16975237523E+04  0.50400001928E-02 0.  1.
       -1   -1    0    0    0  501  0.00000000000E+00  0.00000000000E+00 -0.16751204360E+04  0.16751204360E+04  0.50400001928E-02 0. -1.
    10030    2    1    2    0    0  0.00000000000E+00  0.00000000000E+00  0.22403316322E+02  0.33726441883E+04  0.33725697787E+04 0.  0.
        4    1    3    3  502    0  0.54912386236E+02  0.63469261428E+03  0.15725512662E+04  0.16966936030E+04  0.12699999809E+01 0.  1.
       -4    1    3    3    0  502 -0.54912386236E+02 -0.63469261428E+03 -0.15501479499E+04  0.16759505853E+04  0.12699999809E+01 0. -1.
</event>
<event>
 5   0  0.9646615E-08  0.3573803E+04  0.7818609E-02  0.8096519E-01
        1   -1    0    0  501    0  0.00000000000E+00  0.00000000000E+00  0.12726778211E+04  0.12726778211E+04  0.50400001928E-02 0.  1.
       -1   -1    0    0    0  501  0.00000000000E+00  0.00000000000E+00 -0.25088964578E+04  0.25088964578E+04  0.50400001928E-02 0. -1.
    10030    2    1    2    0    0  0.00000000000E+00  0.00000000000E+00 -0.12362186368E+04  0.37815742789E+04  0.35738029477E+04 0.  0.
        2    1    3    3  502    0  0.14487250880E+03 -0.67300354813E+03 -0.23629437706E+04  0.24611836751E+04  0.25500000920E-02 0. -1.
       -2    1    3    3    0  502 -0.14487250880E+03  0.67300354813E+03  0.11267251338E+04  0.13203906039E+04  0.25500000920E-02 0.  1.
</event>
<event>
 5   0  0.9341000E-08  0.3696654E+04  0.7818609E-02  0.8068704E-01
        1   -1    0    0  501    0  0.00000000000E+00  0.00000000000E+00  0.19178763995E+04  0.19178763995E+04  0.50400001928E-02 0. -1.
       -1   -1    0    0    0  501  0.00000000000E+00  0.00000000000E+00 -0.17813001282E+04  0.17813001282E+04  0.50400001928E-02 0.  1.
    10030    2    1    2    0    0  0.00000000000E+00  0.00000000000E+00  0.13657627131E+03  0.36991765277E+04  0.36966544205E+04 0.  0.
        1    1    3    3  502    0  0.10404774830E+04  0.90813905831E+03 -0.11609650217E+04  0.18042033487E+04  0.50400001928E-02 0.  1.
       -1    1    3    3    0  502 -0.10404774830E+04 -0.90813905831E+03  0.12975412930E+04  0.18949731789E+04  0.50400001928E-02 0. -1.
</event>
<event>
 5   0  0.9418945E-08  0.3738052E+04  0.7818609E-02  0.8059581E-01
       -1   -1    0    0    0  501  0.00000000000E+00  0.00000000000E+00  0.14083136219E+04  0.14083136219E+04  0.50400001928E-02 0. -1.
        1   -1    0    0  501    0  0.00000000000E+00  0.00000000000E+00 -0.24804544759E+04  0.24804544759E+04  0.50400001928E-02 0.  1.
    10030    2    1    2    0    0  0.00000000000E+00  0.00000000000E+00 -0.10721408540E+04  0.38887680978E+04  0.37380518064E+04 0.  0.
        5    1    3    3  502    0  0.77534246782E+03 -0.16905562176E+04 -0.72817625521E+03  0.19973479957E+04  0.46999998093E+01 0. -1.
       -5    1    3    3    0  502 -0.77534246782E+03  0.16905562176E+04 -0.34396459878E+03  0.18914201021E+04  0.46999998093E+01 0.  1.
</event>
<event>
 5   0  0.2913025E-07  0.3702525E+04  0.7818609E-02  0.8067402E-01
       -2   -1    0    0    0  501  0.00000000000E+00  0.00000000000E+00  0.19188192976E+04  0.19188192976E+04  0.25500000920E-02 0.  1.
        2   -1    0    0  501    0  0.00000000000E+00  0.00000000000E+00 -0.17860845477E+04  0.17860845477E+04  0.25500000920E-02 0. -1.
    10030    2    1    2    0    0  0.00000000000E+00  0.00000000000E+00  0.13273474986E+03  0.37049038453E+04  0.37025253530E+04 0.  0.
        5    1    3    3  502    0  0.63189788734E+03  0.12158102751E+04  0.13120212109E+04  0.18970796802E+04  0.46999998093E+01 0.  1.
       -5    1    3    3    0  502 -0.63189788734E+03 -0.12158102751E+04 -0.11792864610E+04  0.18078241652E+04  0.46999998093E+01 0. -1.
</event>
<event>
 5   0  0.2897133E-07  0.3711487E+04  0.7818609E-02  0.8065421E-01
       -2   -1    0    0    0  501  0.00000000000E+00  0.00000000000E+00  0.14504226956E+04  0.14504226956E+04  0.25500000920E-02 0.  1.
        2   -1    0    0  501    0  0.00000000000E+00  0.00000000000E+00 -0.23743311238E+04  0.23743311238E+04  0.25500000920E-02 0. -1.
    10030    2    1    2    0    0  0.00000000000E+00  0.00000000000E+00 -0.92390842818E+03  0.38247538193E+04  0.37114868981E+04 0.  0.
        4    1    3    3  502    0 -0.14870806849E+04  0.98097480026E+03  0.73579706831E+02  0.17830132103E+04  0.12699999809E+01 0.  1.
       -4    1    3    3    0  502  0.14870806849E+04 -0.98097480026E+03 -0.99748813501E+03  0.20417406090E+04  0.12699999809E+01 0. -1.
</event>
<event>
 5   0  0.9418945E-08  0.3494626E+04  0.7818609E-02  0.8115065E-01
        1   -1    0    0  501    0  0.00000000000E+00  0.00000000000E+00  0.25882793427E+04  0.25882793427E+04  0.50400001928E-02 0.  1.
       -1   -1    0    0    0  501  0.00000000000E+00  0.00000000000E+00 -0.11795879084E+04  0.11795879084E+04  0.50400001928E-02 0. -1.
    10030    2    1    2    0    0  0.00000000000E+00  0.00000000000E+00  0.14086914343E+04  0.37678672511E+04  0.34946261696E+04 0.  0.
        5    1    3    3  502    0  0.16976444061E+04  0.40208695759E+03  0.59975319256E+03  0.18448296488E+04  0.46999998093E+01 0.  1.
       -5    1    3    3    0  502 -0.16976444061E+04 -0.40208695759E+03  0.80893824176E+03  0.19230376023E+04  0.46999998093E+01 0. -1.
</event>
<event>
 5   0  0.2996969E-07  0.3675283E+04  0.7818609E-02  0.8073462E-01
       -2   -1    0    0    0  501  0.00000000000E+00  0.00000000000E+00  0.25734343738E+04  0.25734343738E+04  0.25500000920E-02 0.  1.
        2   -1    0    0  501    0  0.00000000000E+00  0.00000000000E+00 -0.13122253905E+04  0.13122253906E+04  0.25500000920E-02 0. -1.
    10030    2    1    2    0    0  0.00000000000E+00  0.00000000000E+00  0.12612089832E+04  0.38856597643E+04  0.36752828061E+04 0.  0.
        1    1    3    3  502    0 -0.44314077032E+03  0.58588152544E+02  0.25150812699E+04  0.25544941002E+04  0.50400001928E-02 0.  1.
       -1    1    3    3    0  502  0.44314077032E+03 -0.58588152544E+02 -0.12538722867E+04  0.13311656641E+04  0.50400001928E-02 0. -1.
</event>
<event>
 5   0  0.2897133E-07  0.3799450E+04  0.7818609E-02  0.8046273E-01
        2   -1    0    0  501    0  0.00000000000E+00  0.00000000000E+00  0.13110591344E+04  0.13110591344E+04  0.25500000920E-02 0. -1.
       -2   -1    0    0    0  501  0.00000000000E+00  0.00000000000E+00 -0.27527019249E+04  0.27527019249E+04  0.25500000920E-02 0.  1.
    10030    2    1    2    0    0  0.00000000000E+00  0.00000000000E+00 -0.14416427904E+04  0.40637610593E+04  0.37994499617E+04 0.  0.
        4    1    3    3  502    0 -0.79582233257E+03  0.14850885884E+04  0.21779912594E+03  0.16988994593E+04  0.12699999809E+01 0. -1.
       -4    1    3    3    0  502  0.79582233257E+03 -0.14850885884E+04 -0.16594419164E+04  0.23648616000E+04  0.12699999809E+01 0.  1.
</event>
<event>
 5   0  0.2897133E-07  0.3692997E+04  0.7818609E-02  0.8069516E-01
        2   -1    0    0  501    0  0.00000000000E+00  0.00000000000E+00  0.25212028557E+04  0.25212028557E+04  0.25500000920E-02 0.  1.
       -2   -1    0    0    0  501  0.00000000000E+00  0.00000000000E+00 -0.13523529335E+04  0.13523529336E+04  0.25500000920E-02 0. -1.
    10030    2    1    2    0    0  0.00000000000E+00  0.00000000000E+00  0.11688499222E+04  0.38735557893E+04  0.36929966575E+04 0.  0.
        4    1    3    3  502    0 -0.51187728516E+03  0.80299183501E+03 -0.10749280490E+04  0.14360662121E+04  0.12699999809E+01 0. -1.
       -4    1    3    3    0  502  0.51187728516E+03 -0.80299183501E+03  0.22437779711E+04  0.24374895772E+04  0.12699999809E+01 0.  1.
</event>
<event>
 5   0  0.9341000E-08  0.3706215E+04  0.7818609E-02  0.8066586E-01
       -1   -1    0    0    0  501  0.00000000000E+00  0.00000000000E+00  0.17292631902E+04  0.17292631902E+04  0.50400001928E-02 0.  1.
        1   -1    0    0  501    0  0.00000000000E+00  0.00000000000E+00 -0.19858207805E+04  0.19858207805E+04  0.50400001928E-02 0. -1.
    10030    2    1    2    0    0  0.00000000000E+00  0.00000000000E+00 -0.25655759032E+03  0.37150839708E+04  0.37062146609E+04 0.  0.
        1    1    3    3  502    0 -0.48828386580E+03  0.14534978195E+04 -0.11714082380E+04  0.19295787895E+04  0.50400001928E-02 0. -1.
       -1    1    3    3    0  502  0.48828386580E+03 -0.14534978195E+04  0.91485064768E+03  0.17855051813E+04  0.50400001928E-02 0.  1.
</event>
<event>
 5   0  0.9418945E-08  0.3672482E+04  0.7818609E-02  0.8074088E-01
       -1   -1    0    0    0  501  0.00000000000E+00  0.00000000000E+00  0.26526328286E+04  0.26526328286E+04  0.50400001928E-02 0. -1.
        1   -1    0    0  501    0  0.00000000000E+00  0.00000000000E+00 -0.12711076646E+04  0.12711076646E+04  0.50400001928E-02 0.  1.
    10030    2    1    2    0    0  0.00000000000E+00  0.00000000000E+00  0.13815251640E+04  0.39237404932E+04  0.36724824955E+04 0.  0.
        5    1    3    3  502    0 -0.39390157533E+03  0.94546699999E+03 -0.93754519520E+03  0.13885529814E+04  0.46999998093E+01 0.  1.
       -5    1    3    3    0  502  0.39390157533E+03 -0.94546699999E+03  0.23190703592E+04  0.25351875118E+04  0.46999998093E+01 0. -1.
</event>
<event>
 5   0  0.9341000E-08  0.3689385E+04  0.7818609E-02  0.8070318E-01
        1   -1    0    0  501    0  0.00000000000E+00  0.00000000000E+00  0.17978777210E+04  0.17978777210E+04  0.50400001928E-02 0. -1.
       -1   -1    0    0    0  501  0.00000000000E+00  0.00000000000E+00 -0.18927258622E+04  0.18927258622E+04  0.50400001928E-02 0.  1.
    10030    2    1    2    0    0  0.00000000000E+00  0.00000000000E+00 -0.94848141243E+02  0.36906035832E+04  0.36893845880E+04 0.  0.
        3    1    3    3  502    0 -0.25704384351E+03 -0.19443716330E+03 -0.18643425303E+04  0.18919964134E+04  0.10100000352E+00 0.  1.
       -3    1    3    3    0  502  0.25704384351E+03  0.19443716330E+03  0.17694943891E+04  0.17986071698E+04  0.10100000352E+00 0. -1.
</event>
<event>
 5   0  0.2897133E-07  0.3708719E+04  0.7818609E-02  0.8066032E-01
       -2   -1    0    0    0  501  0.00000000000E+00  0.00000000000E+00  0.16026989026E+04  0.16026989026E+04  0.25500000920E-02 0. -1.
        2   -1    0    0  501    0  0.00000000000E+00  0.00000000000E+00 -0.21455371709E+04  0.21455371709E+04  0.25500000920E-02 0.  1.
    10030    2    1    2    0    0  0.00000000000E+00  0.00000000000E+00 -0.54283826830E+03  0.37482360735E+04  0.37087194929E+04 0.  0.
        4    1    3    3  502    0  0.81530475961E+03  0.31170502799E+03  0.13820960976E+04  0.16346477026E+04  0.12699999809E+01 0. -1.
       -4    1    3    3    0  502 -0.81530475961E+03 -0.31170502799E+03 -0.19249343659E+04  0.21135883709E+04  0.12699999809E+01 0.  1.
</event>
<event>
 5   0  0.9341000E-08  0.3665054E+04  0.7818609E-02  0.8075751E-01
       -1   -1    0    0    0  501  0.00000000000E+00  0.00000000000E+00  0.34724207303E+04  0.34724207303E+04  0.50400001928E-02 0. -1.
        1   -1    0    0  501    0  0.00000000000E+00  0.00000000000E+00 -0.96709346833E+03  0.96709346834E+03  0.50400001928E-02 0.  1.
    10030    2    1    2    0    0  0.00000000000E+00  0.00000000000E+00  0.25053272620E+04  0.44395141987E+04  0.36650541102E+04 0.  0.
        4    1    3    3  502    0  0.16360760803E+04  0.77899281358E+03  0.15834620944E+04  0.24064348238E+04  0.12699999809E+01 0. -1.
       -4    1    3    3    0  502 -0.16360760803E+04 -0.77899281358E+03  0.92186516762E+03  0.20330793748E+04  0.12699999809E+01 0.  1.
</event>
<event>
 5   0  0.2996969E-07  0.3703262E+04  0.7818609E-02  0.8067239E-01
        2   -1    0    0  501    0  0.00000000000E+00  0.00000000000E+00  0.20581707105E+04  0.20581707105E+04  0.25500000920E-02 0.  1.
       -2   -1    0    0    0  501  0.00000000000E+00  0.00000000000E+00 -0.16658178200E+04  0.16658178200E+04  0.25500000920E-02 0. -1.
    10030    2    1    2    0    0  0.00000000000E+00  0.00000000000E+00  0.39235289045E+03  0.37239885305E+04  0.37032620464E+04 0.  0.
        1    1    3    3  502    0  0.17828715154E+03  0.25984531030E+03 -0.16386538045E+04  0.16686797730E+04  0.50400001928E-02 0. -1.
       -1    1    3    3    0  502 -0.17828715154E+03 -0.25984531030E+03  0.20310066949E+04  0.20553087575E+04  0.50400001928E-02 0.  1.
</event>
<event>
 5   0  0.9418945E-08  0.3715979E+04  0.7818609E-02  0.8064430E-01
        1   -1    0    0  501    0  0.00000000000E+00  0.00000000000E+00  0.17646560251E+04  0.17646560251E+04  0.50400001928E-02 0.  1.
       -1   -1    0    0    0  501  0.00000000000E+00  0.00000000000E+00 -0.19562593518E+04  0.19562593518E+04  0.50400001928E-02 0. -1.
    10030    2    1    2    0    0  0.00000000000E+00  0.00000000000E+00 -0.19160332670E+03  0.37209153770E+04  0.37159789299E+04 0.  0.
        5    1    3    3  502    0 -0.10167027168E+04 -0.79929543765E+03 -0.14315697276E+04  0.19292411944E+04  0.46999998093E+01 0. -1.
       -5    1    3    3    0  502  0.10167027168E+04  0.79929543765E+03  0.12399664009E+04  0.17916741826E+04  0.46999998093E+01 0.  1.
</event>
<event>
 5   0  0.3032442E-07  0.3686971E+04  0.7818609E-02  0.8070855E-01
       -2   -1    0    0    0  501  0.00000000000E+00  0.00000000000E+00  0.22646701234E+04  0.22646701234E+04  0.25500000920E-02 0.  1.
        2   -1    0    0  501    0  0.00000000000E+00  0.00000000000E+00 -0.15006329438E+04  0.15006329438E+04  0.25500000920E-02 0. -1.
    10030    2    1    2    0    0  0.00000000000E+00  0.00000000000E+00  0.76403717965E+03  0.37653030673E+04  0.36869708944E+04 0.  0.
        3    1    3    3  502    0 -0.71361823821E+03 -0.28168556369E+03 -0.13298526233E+04  0.15352868646E+04  0.10100000352E+00 0. -1.
       -3    1    3    3    0  502  0.71361823821E+03  0.28168556369E+03  0.20938898030E+04  0.22300162026E+04  0.10100000352E+00 0.  1.
</event>
<event>
 5   0  0.2996969E-07  0.3696940E+04  0.7818609E-02  0.8068640E-01
        2   -1    0    0  501    0  0.00000000000E+00  0.00000000000E+00  0.27879659771E+04  0.27879659771E+04  0.25500000920E-02 0. -1.
       -2   -1    0    0    0  501  0.00000000000E+00  0.00000000000E+00 -0.12255679708E+04  0.12255679708E+04  0.25500000920E-02 0.  1.
    10030    2    1    2    0    0  0.00000000000E+00  0.00000000000E+00  0.15623980063E+04  0.40135339479E+04  0.36969402512E+04 0.  0.
        1    1    3    3  502    0  0.21751506374E+03  0.97065269803E+03 -0.91022236978E+03  0.13483264537E+04  0.50400001928E-02 0.  1.
       -1    1    3    3    0  502 -0.21751506374E+03 -0.97065269803E+03  0.24726203761E+04  0.26652074943E+04  0.50400001928E-02 0. -1.
</event>
<event>
 5   0  0.9418945E-08  0.3693787E+04  0.7818609E-02  0.8069340E-01
       -1   -1    0    0    0  501  0.00000000000E+00  0.00000000000E+00  0.13247813573E+04  0.13247813573E+04  0.50400001928E-02 0.  1.
        1   -1    0    0  501    0  0.00000000000E+00  0.00000000000E+00 -0.25747760267E+04  0.25747760267E+04  0.50400001928E-02 0. -1.
    10030    2    1    2    0    0  0.00000000000E+00  0.00000000000E+00 -0.12499946693E+04  0.38995573840E+04  0.36937868262E+04 0.  0.
        5    1    3    3  502    0 -0.26262193955E+02  0.54532073749E+03 -0.24876337093E+04  0.25468427457E+04  0.46999998093E+01 0. -1.
       -5    1    3    3    0  502  0.26262193955E+02 -0.54532073749E+03  0.12376390400E+04  0.13527146383E+04  0.46999998093E+01 0.  1.
</event>
<event>
 5   0  0.9646615E-08  0.3718367E+04  0.7818609E-02  0.8063904E-01
       -1   -1    0    0    0  501  0.00000000000E+00  0.00000000000E+00  0.17596142446E+04  0.17596142446E+04  0.50400001928E-02 0.  1.
        1   -1    0    0  501    0  0.00000000000E+00  0.00000000000E+00 -0.19643867055E+04  0.19643867055E+04  0.50400001928E-02 0. -1.
    10030    2    1    2    0    0  0.00000000000E+00  0.00000000000E+00 -0.20477246091E+03  0.37240009501E+04  0.37183667537E+04 0.  0.
        2    1    3    3  502    0 -0.10203201419E+04  0.96019561719E+03 -0.13263402942E+04  0.19293023069E+04  0.25500000920E-02 0. -1.
       -2    1    3    3    0  502  0.10203201419E+04 -0.96019561719E+03  0.11215678333E+04  0.17946986432E+04  0.25500000920E-02 0.  1.
</event>
<event>
 5   0  0.3008879E-07  0.3671854E+04  0.7818609E-02  0.8074228E-01
       -2   -1    0    0    0  501  0.00000000000E+00  0.00000000000E+00  0.18735848534E+04  0.18735848534E+04  0.25500000920E-02 0.  1.
        2   -1    0    0  501    0  0.00000000000E+00  0.00000000000E+00 -0.17990264586E+04  0.17990264586E+04  0.25500000920E-02 0. -1.
    10030    2    1    2    0    0  0.00000000000E+00  0.00000000000E+00  0.74558394773E+02  0.36726113119E+04  0.36718544217E+04 0.  0.
        2    1    3    3  502    0 -0.11470375404E+04  0.91832991607E+03  0.11382348388E+04  0.18586563700E+04  0.25500000920E-02 0.  1.
       -2    1    3    3    0  502  0.11470375404E+04 -0.91832991607E+03 -0.10636764440E+04  0.18139549419E+04  0.25500000920E-02 0. -1.
</event>
<event>
 5   0  0.3008879E-07  0.3712069E+04  0.7818609E-02  0.8065292E-01
       -2   -1    0    0    0  501  0.00000000000E+00  0.00000000000E+00  0.36549293269E+04  0.36549293269E+04  0.25500000920E-02 0. -1.
        2   -1    0    0  501    0  0.00000000000E+00  0.00000000000E+00 -0.94252550971E+03  0.94252550972E+03  0.25500000920E-02 0.  1.
    10030    2    1    2    0    0  0.00000000000E+00  0.00000000000E+00  0.27124038171E+04  0.45974548366E+04  0.37120690332E+04 0.  0.
        2    1    3    3  502    0 -0.15633064364E+04 -0.54043831413E+03  0.31344578850E+03  0.16835227494E+04  0.25500000920E-02 0.  1.
       -2    1    3    3    0  502  0.15633064364E+04  0.54043831413E+03  0.23989580286E+04  0.29139320872E+04  0.25500000920E-02 0. -1.
</event>
<event>
 5   0  0.9341000E-08  0.3714947E+04  0.7818609E-02  0.8064657E-01
       -1   -1    0    0    0  501  0.00000000000E+00  0.00000000000E+00  0.22954822496E+04  0.22954822497E+04  0.50400001928E-02 0. -1.
        1   -1    0    0  501    0  0.00000000000E+00  0.00000000000E+00 -0.15030430000E+04  0.15030430000E+04  0.50400001928E-02 0.  1.
    10030    2    1    2    0    0  0.00000000000E+00  0.00000000000E+00  0.79243924966E+03  0.37985252497E+04  0.37149473896E+04 0.  0.
        3    1    3    3  502    0  0.50852648281E+02 -0.94479636442E+03 -0.12381726558E+04  0.15582996175E+04  0.10100000352E+00 0.  1.
       -3    1    3    3    0  502 -0.50852648281E+02  0.94479636442E+03  0.20306119055E+04  0.22402256322E+04  0.10100000352E+00 0. -1.
</event>
<event>
 5   0  0.9646615E-08  0.3705962E+04  0.7818609E-02  0.8066642E-01
       -1   -1    0    0    0  501  0.00000000000E+00  0.00000000000E+00  0.16026241965E+04  0.16026241965E+04  0.50400001928E-02 0. -1.
        1   -1    0    0  501    0  0.00000000000E+00  0.00000000000E+00 -0.21424480569E+04  0.21424480569E+04  0.50400001928E-02 0.  1.
    10030    2    1    2    0    0  0.00000000000E+00  0.00000000000E+00 -0.53982386040E+03  0.37450722534E+04  0.37059622748E+04 0.  0.
        2    1    3    3  502    0 -0.83535825814E+03  0.13256205106E+04  0.72969123861E+03  0.17284508848E+04  0.25500000920E-02 0. -1.
       -2    1    3    3    0  502  0.83535825814E+03 -0.13256205106E+04 -0.12695150990E+04  0.20166213685E+04  0.25500000920E-02 0.  1.
</event>
<event>
 5   0  0.2996969E-07  0.3693547E+04  0.7818609E-02  0.8069393E-01
        2   -1    0    0  501    0  0.00000000000E+00  0.00000000000E+00  0.27013115861E+04  0.27013115861E+04  0.25500000920E-02 0. -1.
       -2   -1    0    0    0  501  0.00000000000E+00  0.00000000000E+00 -0.12625619452E+04  0.12625619452E+04  0.25500000920E-02 0.  1.
    10030    2    1    2    0    0  0.00000000000E+00  0.00000000000E+00  0.14387496409E+04  0.39638735314E+04  0.36935474606E+04 0.  0.
        1    1    3    3  502    0  0.96830311194E+03  0.35725829890E+03  0.23629061015E+04  0.25784820444E+04  0.50400001928E-02 0. -1.
       -1    1    3    3    0  502 -0.96830311194E+03 -0.35725829890E+03 -0.92415646055E+03  0.13853914870E+04  0.50400001928E-02 0.  1.
</event>
<event>
 5   0  0.9341000E-08  0.3721895E+04  0.7818609E-02  0.8063127E-01
        1   -1    0    0  501    0  0.00000000000E+00  0.00000000000E+00  0.19024803544E+04  0.19024803544E+04  0.50400001928E-02 0. -1.
       -1   -1    0    0    0  501  0.00000000000E+00  0.00000000000E+00 -0.18203208594E+04  0.18203208594E+04  0.50400001928E-02 0.  1.
    10030    2    1    2    0    0  0.00000000000E+00  0.00000000000E+00  0.82159494937E+02  0.37228012138E+04  0.37218945035E+04 0.  0.
        4    1    3    3  502    0 -0.82818478668E+03 -0.10866193284E+04  0.13049109899E+04  0.18892924364E+04  0.12699999809E+01 0. -1.
       -4    1    3    3    0  502  0.82818478668E+03  0.10866193284E+04 -0.12227514949E+04  0.18335087775E+04  0.12699999809E+01 0.  1.
</event>
<event>
 5   0  0.2996969E-07  0.3580600E+04  0.7818609E-02  0.8094950E-01
        2   -1    0    0  501    0  0.00000000000E+00  0.00000000000E+00  0.16911576420E+04  0.16911576420E+04  0.25500000920E-02 0.  1.
       -2   -1    0    0    0  501  0.00000000000E+00  0.00000000000E+00 -0.18952548396E+04  0.18952548396E+04  0.25500000920E-02 0. -1.
    10030    2    1    2    0    0  0.00000000000E+00  0.00000000000E+00 -0.20409719763E+03  0.35864124816E+04  0.35806003439E+04 0.  0.
        1    1    3    3  502    0  0.12039067337E+03 -0.90309581140E+03 -0.16456857543E+04  0.18810522483E+04  0.50400001928E-02 0. -1.
       -1    1    3    3    0  502 -0.12039067337E+03  0.90309581140E+03  0.14415885567E+04  0.17053602334E+04  0.50400001928E-02 0.  1.
</event>
<event>
 5   0  0.9341000E-08  0.3680699E+04  0.7818609E-02  0.8072253E-01
        1   -1    0    0  501    0  0.00000000000E+00  0.00000000000E+00  0.18716424843E+04  0.18716424843E+04  0.50400001928E-02 0. -1.
       -1   -1    0    0    0  501  0.00000000000E+00  0.00000000000E+00 -0.18095792876E+04  0.18095792876E+04  0.50400001928E-02 0.  1.
    10030    2    1    2    0    0  0.00000000000E+00  0.00000000000E+00  0.62063196697E+02  0.36812217720E+04  0.36806985606E+04 0.  0.
        1    1    3    3  502    0 -0.14583860186E+04 -0.38391625290E+03  0.10859819956E+04  0.18583967185E+04  0.50400001928E-02 0. -1.
       -1    1    3    3    0  502  0.14583860186E+04  0.38391625290E+03 -0.10239187989E+04  0.18228250534E+04  0.50400001928E-02 0.  1.
</event>
<event>
 5   0  0.2897133E-07  0.3690510E+04  0.7818609E-02  0.8070068E-01
        2   -1    0    0  501    0  0.00000000000E+00  0.00000000000E+00  0.20883119265E+04  0.20883119265E+04  0.25500000920E-02 0.  1.
       -2   -1    0    0    0  501  0.00000000000E+00  0.00000000000E+00 -0.16304868464E+04  0.16304868464E+04  0.25500000920E-02 0. -1.
    10030    2    1    2    0    0  0.00000000000E+00  0.00000000000E+00  0.45782508011E+03  0.37187987729E+04  0.36905095189E+04 0.  0.
        4    1    3    3  502    0 -0.52610995249E+03  0.16444010271E+04 -0.42732223066E+03  0.17786096598E+04  0.12699999809E+01 0. -1.
       -4    1    3    3    0  502  0.52610995249E+03 -0.16444010271E+04  0.88514731077E+03  0.19401891131E+04  0.12699999809E+01 0.  1.
</event>
<event>
 5   0  0.3032442E-07  0.3729543E+04  0.7818609E-02  0.8061446E-01
       -2   -1    0    0    0  501  0.00000000000E+00  0.00000000000E+00  0.19143936369E+04  0.19143936369E+04  0.25500000920E-02 0. -1.
        2   -1    0    0  501    0  0.00000000000E+00  0.00000000000E+00 -0.18164358210E+04  0.18164358210E+04  0.25500000920E-02 0.  1.
    10030    2    1    2    0    0  0.00000000000E+00  0.00000000000E+00  0.97957815897E+02  0.37308294579E+04  0.37295432308E+04 0.  0.
        3    1    3    3  502    0 -0.94731252279E+03 -0.11693788285E+04 -0.10525481190E+04  0.18364926935E+04  0.10100000352E+00 0.  1.
       -3    1    3    3    0  502  0.94731252279E+03  0.11693788285E+04  0.11505059349E+04  0.18943367644E+04  0.10100000352E+00 0. -1.
</event>
<event>
 5   0  0.3008879E-07  0.3682946E+04  0.7818609E-02  0.8071752E-01
       -2   -1    0    0    0  501  0.00000000000E+00  0.00000000000E+00  0.16013517609E+04  0.16013517609E+04  0.25500000920E-02 0. -1.
        2   -1    0    0  501    0  0.00000000000E+00  0.00000000000E+00 -0.21175996674E+04  0.21175996674E+04  0.25500000920E-02 0.  1.
    10030    2    1    2    0    0  0.00000000000E+00  0.00000000000E+00 -0.51624790653E+03  0.37189514283E+04  0.36829455365E+04 0.  0.
        2    1    3    3  502    0 -0.65426845608E+03  0.79941969336E+03 -0.17974560664E+04  0.20731587902E+04  0.25500000920E-02 0.  1.
       -2    1    3    3    0  502  0.65426845608E+03 -0.79941969336E+03  0.12812081598E+04  0.16457926381E+04  0.25500000920E-02 0. -1.
</event>
<event>
 5   0  0.2996969E-07  0.3709453E+04  0.7818609E-02  0.8065870E-01
       -2   -1    0    0    0  501  0.00000000000E+00  0.00000000000E+00  0.29280940393E+04  0.29280940393E+04  0.25500000920E-02 0.  1.
        2   -1    0    0  501    0  0.00000000000E+00  0.00000000000E+00 -0.11748291409E+04  0.11748291409E+04  0.25500000920E-02 0. -1.
    10030    2    1    2    0    0  0.00000000000E+00  0.00000000000E+00  0.17532648984E+04  0.41029231801E+04  0.37094529001E+04 0.  0.
        1    1    3    3  502    0 -0.15986557024E+04  0.94023429092E+03  0.85847035262E+03  0.20437005463E+04  0.50400001928E-02 0. -1.
       -1    1    3    3    0  502  0.15986557024E+04 -0.94023429092E+03  0.89479454575E+03  0.20592226338E+04  0.50400001928E-02 0.  1.
</event>
<event>
 5   0  0.9341000E-08  0.3699166E+04  0.7818609E-02  0.8068147E-01
       -1   -1    0    0    0  501  0.00000000000E+00  0.00000000000E+00  0.14426601387E+04  0.14426601387E+04  0.50400001928E-02 0. -1.
        1   -1    0    0  501    0  0.00000000000E+00  0.00000000000E+00 -0.23712840451E+04  0.23712840451E+04  0.50400001928E-02 0.  1.
    10030    2    1    2    0    0  0.00000000000E+00  0.00000000000E+00 -0.92862390642E+03  0.38139441839E+04  0.36991658354E+04 0.  0.
        4    1    3    3  502    0  0.11180469259E+04  0.12877461710E+04  0.27388998055E+03  0.17272337606E+04  0.12699999809E+01 0. -1.
       -4    1    3    3    0  502 -0.11180469259E+04 -0.12877461710E+04 -0.12025138870E+04  0.20867104233E+04  0.12699999809E+01 0.  1.
</event>
<event>
 5   0  0.3008879E-07  0.3602538E+04  0.7818609E-02  0.8089911E-01
        2   -1    0    0  501    0  0.00000000000E+00  0.00000000000E+00  0.26756491396E+04  0.26756491396E+04  0.25500000920E-02 0. -1.
       -2   -1    0    0    0  501  0.00000000000E+00  0.00000000000E+00 -0.12126292089E+04  0.12126292089E+04  0.25500000920E-02 0.  1.
    10030    2    1    2    0    0  0.00000000000E+00  0.00000000000E+00  0.14630199307E+04  0.38882783485E+04  0.36025381605E+04 0.  0.
        2    1    3    3  502    0  0.47547250860E+03  0.42271574897E+03  0.25503445972E+04  0.26285015266E+04  0.25500000920E-02 0. -1.
       -2    1    3    3    0  502 -0.47547250860E+03 -0.42271574897E+03 -0.10873246664E+04  0.12597768220E+04  0.25500000920E-02 0.  1.
</event>
<event>
 5   0  0.9418945E-08  0.3700357E+04  0.7818609E-02  0.8067883E-01
       -1   -1    0    0    0  501  0.00000000000E+00  0.00000000000E+00  0.15765151584E+04  0.15765151584E+04  0.50400001928E-02 0. -1.
        1   -1    0    0  501    0  0.00000000000E+00  0.00000000000E+00 -0.21713465113E+04  0.21713465113E+04  0.50400001928E-02 0.  1.
    10030    2    1    2    0    0  0.00000000000E+00  0.00000000000E+00 -0.59483135291E+03  0.37478616697E+04  0.37003571121E+04 0.  0.
        5    1    3    3  502    0  0.12191852876E+04  0.83551509720E+03  0.82981429398E+03  0.16950256917E+04  0.46999998093E+01 0. -1.
       -5    1    3    3    0  502 -0.12191852876E+04 -0.83551509720E+03 -0.14246456469E+04  0.20528359780E+04  0.46999998093E+01 0.  1.
</event>
<event>
 5   0  0.9341000E-08  0.3695847E+04  0.7818609E-02  0.8068883E-01
        1   -1    0    0  501    0  0.00000000000E+00  0.00000000000E+00  0.14276463448E+04  0.14276463449E+04  0.50400001928E-02 0. -1.
       -1   -1    0    0    0  501  0.00000000000E+00  0.00000000000E+00 -0.23919235046E+04  0.23919235046E+04  0.50400001928E-02 0.  1.
    10030    2    1    2    0    0  0.00000000000E+00  0.00000000000E+00 -0.96427715977E+03  0.38195698495E+04  0.36958467763E+04 0.  0.
        4    1    3    3  502    0 -0.17668143308E+04  0.54135123799E+03 -0.49370212923E+03  0.19127042238E+04  0.12699999809E+01 0.  1.
       -4    1    3    3    0  502  0.17668143308E+04 -0.54135123799E+03 -0.47057503054E+03  0.19068656257E+04  0.12699999809E+01 0. -1.
</event>
<event>
 5   0  0.9646615E-08  0.3668550E+04  0.7818609E-02  0.8074967E-01
        1   -1    0    0  501    0  0.00000000000E+00  0.00000000000E+00  0.28772003449E+04  0.28772003449E+04  0.50400001928E-02 0. -1.
       -1   -1    0    0    0  501  0.00000000000E+00  0.00000000000E+00 -0.11693885617E+04  0.11693885617E+04  0.50400001928E-02 0.  1.
    10030    2    1    2    0    0  0.00000000000E+00  0.00000000000E+00  0.17078117832E+04  0.40465889067E+04  0.36685502167E+04 0.  0.
        2    1    3    3  502    0  0.40882606453E+03  0.15490103023E+04 -0.13145267527E+03  0.16074363047E+04  0.25500000920E-02 0.  1.
       -2    1    3    3    0  502 -0.40882606453E+03 -0.15490103023E+04  0.18392644585E+04  0.24391526020E+04  0.25500000920E-02 0. -1.
</event>
<event>
 5   0  0.9418945E-08  0.3658613E+04  0.7818609E-02  0.8077196E-01
       -1   -1    0    0    0  501  0.00000000000E+00  0.00000000000E+00  0.12985377342E+04  0.12985377342E+04  0.50400001928E-02 0. -1.
        1   -1    0    0  501    0  0.00000000000E+00  0.00000000000E+00 -0.25770235918E+04  0.25770235918E+04  0.50400001928E-02 0.  1.
    10030    2    1    2    0    0  0.00000000000E+00  0.00000000000E+00 -0.12784858576E+04  0.38755613259E+04  0.36586130573E+04 0.  0.
        5    1    3    3  502    0 -0.86313071540E+02  0.96833504414E+02 -0.25721391223E+04  0.25754122832E+04  0.46999998093E+01 0.  1.
       -5    1    3    3    0  502  0.86313071540E+02 -0.96833504414E+02  0.12936532647E+04  0.13001490427E+04  0.46999998093E+01 0. -1.
</event>
<event>
 5   0  0.3032442E-07  0.3734992E+04  0.7818609E-02  0.8060251E-01
       -2   -1    0    0    0  501  0.00000000000E+00  0.00000000000E+00  0.20564166201E+04  0.20564166201E+04  0.25500000920E-02 0. -1.
        2   -1    0    0  501    0  0.00000000000E+00  0.00000000000E+00 -0.16959312577E+04  0.16959312577E+04  0.25500000920E-02 0.  1.
    10030    2    1    2    0    0  0.00000000000E+00  0.00000000000E+00  0.36048536244E+03  0.37523478779E+04  0.37349919545E+04 0.  0.
        3    1    3    3  502    0  0.88633877433E+03  0.14166788109E+04  0.10177626756E+04  0.19566338826E+04  0.10100000352E+00 0. -1.
       -3    1    3    3    0  502 -0.88633877433E+03 -0.14166788109E+04 -0.65727731320E+03  0.17957139953E+04  0.10100000352E+00 0.  1.
</event>
<event>
 5   0  0.2897133E-07  0.3715904E+04  0.7818609E-02  0.8064446E-01
       -2   -1    0    0    0  501  0.00000000000E+00  0.00000000000E+00  0.14956675663E+04  0.14956675663E+04  0.25500000920E-02 0. -1.
        2   -1    0    0  501    0  0.00000000000E+00  0.00000000000E+00 -0.23079900916E+04  0.23079900916E+04  0.25500000920E-02 0.  1.
    10030    2    1    2    0    0  0.00000000000E+00  0.00000000000E+00 -0.81232252529E+03  0.38036576579E+04  0.37159041556E+04 0.  0.
        4    1    3    3  502    0 -0.30683630884E+03  0.70907550168E+03  0.13234304845E+04  0.15324511241E+04  0.12699999809E+01 0. -1.
       -4    1    3    3    0  502  0.30683630884E+03 -0.70907550168E+03 -0.21357530098E+04  0.22712065338E+04  0.12699999809E+01 0.  1.
</event>
<event>
 5   0  0.2913025E-07  0.3695135E+04  0.7818609E-02  0.8069041E-01
        2   -1    0    0  501    0  0.00000000000E+00  0.00000000000E+00  0.12804717097E+04  0.12804717098E+04  0.25500000920E-02 0.  1.
       -2   -1    0    0    0  501  0.00000000000E+00  0.00000000000E+00 -0.26658190656E+04  0.26658190656E+04  0.25500000920E-02 0. -1.
    10030    2    1    2    0    0  0.00000000000E+00  0.00000000000E+00 -0.13853473559E+04  0.39462907754E+04  0.36951351244E+04 0.  0.
        5    1    3    3  502    0 -0.29786033341E+03  0.10791321425E+04 -0.22623475986E+04  0.25241802048E+04  0.46999998093E+01 0. -1.
       -5    1    3    3    0  502  0.29786033341E+03 -0.10791321425E+04  0.87700024273E+03  0.14221105706E+04  0.46999998093E+01 0.  1.
</event>
<event>
 5   0  0.9646615E-08  0.3484838E+04  0.7818609E-02  0.8117392E-01
        1   -1    0    0  501    0  0.00000000000E+00  0.00000000000E+00  0.19400807818E+04  0.19400807818E+04  0.50400001928E-02 0.  1.
       -1   -1    0    0    0  501  0.00000000000E+00  0.00000000000E+00 -0.15648959544E+04  0.15648959544E+04  0.50400001928E-02 0. -1.
    10030    2    1    2    0    0  0.00000000000E+00  0.00000000000E+00  0.37518482735E+03  0.35049767362E+04  0.34848383415E+04 0.  0.
        2    1    3    3  502    0 -0.70940167587E+03  0.14184882438E+04 -0.53814859991E+03  0.16748025409E+04  0.25500000920E-02 0. -1.
       -2    1    3    3    0  502  0.70940167587E+03 -0.14184882438E+04  0.91333342726E+03  0.18301741952E+04  0.25500000920E-02 0.  1.
</event>
<event>
 5   0  0.9646615E-08  0.3766933E+04  0.7818609E-02  0.8053288E-01
       -1   -1    0    0    0  501  0.00000000000E+00  0.00000000000E+00  0.19511499929E+04  0.19511499929E+04  0.50400001928E-02 0.  1.
        1   -1    0    0  501    0  0.00000000000E+00  0.00000000000E+00 -0.18181308741E+04  0.18181308741E+04  0.50400001928E-02 0. -1.
    10030    2    1    2    0    0  0.00000000000E+00  0.00000000000E+00  0.13301911878E+03  0.37692808670E+04  0.37669329923E+04 0.  0.
        2    1    3    3  502    0 -0.70926544071E+03 -0.11878542338E+04  0.13453479652E+04  0.19297710469E+04  0.25500000920E-02 0.  1.
       -2    1    3    3    0  502  0.70926544071E+03  0.11878542338E+04 -0.12123288464E+04  0.18395098200E+04  0.25500000920E-02 0. -1.
</event>
<event>
 5   0  0.9341000E-08  0.3702010E+04  0.7818609E-02  0.8067516E-01
        1   -1    0    0  501    0  0.00000000000E+00  0.00000000000E+00  0.16844787845E+04  0.16844787845E+04  0.50400001928E-02 0.  1.
       -1   -1    0    0    0  501  0.00000000000E+00  0.00000000000E+00 -0.20339941537E+04  0.20339941537E+04  0.50400001928E-02 0. -1.
    10030    2    1    2    0    0  0.00000000000E+00  0.00000000000E+00 -0.34951536919E+03  0.37184729382E+04  0.37020102645E+04 0.  0.
        4    1    3    3  502    0  0.31580639431E+03  0.10302176270E+04 -0.16864875092E+04  0.20013304998E+04  0.12699999809E+01 0. -1.
       -4    1    3    3    0  502 -0.31580639431E+03 -0.10302176270E+04  0.13369721400E+04  0.17171424384E+04  0.12699999809E+01 0.  1.
</event>
<event>
 5   0  0.9341000E-08  0.3671414E+04  0.7818609E-02  0.8074327E-01
        1   -1    0    0  501    0  0.00000000000E+00  0.00000000000E+00  0.20467205775E+04  0.20467205775E+04  0.50400001928E-02 0.  1.
       -1   -1    0    0    0  501  0.00000000000E+00  0.00000000000E+00 -0.16464481367E+04  0.16464481367E+04  0.50400001928E-02 0. -1.
    10030    2    1    2    0    0  0.00000000000E+00  0.00000000000E+00  0.40027244080E+03  0.36931687141E+04  0.36714135049E+04 0.  0.
        3    1    3    3  502    0 -0.65760570527E+03 -0.71533125988E+03 -0.13665505294E+04  0.16767839559E+04  0.10100000352E+00 0. -1.
       -3    1    3    3    0  502  0.65760570527E+03  0.71533125988E+03  0.17668229702E+04  0.20163847583E+04  0.10100000352E+00 0.  1.
</event>
<event>
 5   0  0.2897133E-07  0.3909931E+04  0.7818609E-02  0.8022967E-01
        2   -1    0    0  501    0  0.00000000000E+00  0.00000000000E+00  0.22543134572E+04  0.22543134572E+04  0.25500000920E-02 0. -1.
       -2   -1    0    0    0  501  0.00000000000E+00  0.00000000000E+00 -0.16953673297E+04  0.16953673297E+04  0.25500000920E-02 0.  1.
    10030    2    1    2    0    0  0.00000000000E+00  0.00000000000E+00  0.55894612751E+03  0.39496807869E+04  0.39099306318E+04 0.  0.
        4    1    3    3  502    0 -0.62994412444E+02  0.12729426027E+04  0.17769529722E+04  0.21867589360E+04  0.12699999809E+01 0. -1.
       -4    1    3    3    0  502  0.62994412444E+02 -0.12729426027E+04 -0.12180068447E+04  0.17629218509E+04  0.12699999809E+01 0.  1.
</event>
<event>
 5   0  0.2913025E-07  0.3494805E+04  0.7818609E-02  0.8115022E-01
       -2   -1    0    0    0  501  0.00000000000E+00  0.00000000000E+00  0.20812212450E+04  0.20812212450E+04  0.25500000920E-02 0.  1.
        2   -1    0    0  501    0  0.00000000000E+00  0.00000000000E+00 -0.14671265166E+04  0.14671265166E+04  0.25500000920E-02 0. -1.
    10030    2    1    2    0    0  0.00000000000E+00  0.00000000000E+00  0.61409472834E+03  0.35483477616E+04  0.34948046443E+04 0.  0.
        5    1    3    3  502    0 -0.83792995860E+03 -0.12379402116E+04  0.12257697260E+04  0.19331725464E+04  0.46999998093E+01 0.  1.
       -5    1    3    3    0  502  0.83792995860E+03  0.12379402116E+04 -0.61167499762E+03  0.16151752152E+04  0.46999998093E+01 0. -1.
</event>
<event>
 5   0  0.9418945E-08  0.3718814E+04  0.7818609E-02  0.8063805E-01
        1   -1    0    0  501    0  0.00000000000E+00  0.00000000000E+00  0.27425150616E+04  0.27425150616E+04  0.50400001928E-02 0.  1.
       -1   -1    0    0    0  501  0.00000000000E+00  0.00000000000E+00 -0.12606654647E+04  0.12606654647E+04  0.50400001928E-02 0. -1.
    10030    2    1    2    0    0  0.00000000000E+00  0.00000000000E+00  0.14818495969E+04  0.40031805263E+04  0.37188138026E+04 0.  0.
        5    1    3    3  502    0  0.13894846824E+04 -0.10756157838E+04  0.86352333898E+02  0.17592884393E+04  0.46999998093E+01 0. -1.
       -5    1    3    3    0  502 -0.13894846824E+04  0.10756157838E+04  0.13954972630E+04  0.22438920870E+04  0.46999998093E+01 0.  1.
</event>
<event>
 5   0  0.2996969E-07  0.3745890E+04  0.7818609E-02  0.8057868E-01
        2   -1    0    0  501    0  0.00000000000E+00  0.00000000000E+00  0.13681620204E+04  0.13681620204E+04  0.25500000920E-02 0. -1.
       -2   -1    0    0    0  501  0.00000000000E+00  0.00000000000E+00 -0.25639669771E+04  0.25639669771E+04  0.25500000920E-02 0.  1.
    10030    2    1    2    0    0  0.00000000000E+00  0.00000000000E+00 -0.11958049567E+04  0.39321289975E+04  0.37458896084E+04 0.  0.
        1    1    3    3  502    0 -0.57812824275E+03  0.13423161831E+04 -0.18274077855E+04  0.23399709859E+04  0.50400001928E-02 0.  1.
       -1    1    3    3    0  502  0.57812824275E+03 -0.13423161831E+04  0.63160282876E+03  0.15921580116E+04  0.50400001928E-02 0. -1.
</event>
<event>
 5   0  0.3008879E-07  0.3762752E+04  0.7818609E-02  0.8054196E-01
       -2   -1    0    0    0  501  0.00000000000E+00  0.00000000000E+00  0.18734365378E+04  0.18734365378E+04  0.25500000920E-02 0.  1.
        2   -1    0    0  501    0  0.00000000000E+00  0.00000000000E+00 -0.18893492623E+04  0.18893492623E+04  0.25500000920E-02 0. -1.
    10030    2    1    2    0    0  0.00000000000E+00  0.00000000000E+00 -0.15912724508E+02  0.37627858001E+04  0.37627521527E+04 0.  0.
        2    1    3    3  502    0  0.30650625433E+03  0.65652372722E+03 -0.17442340956E+04  0.18887355740E+04  0.25500000920E-02 0. -1.
       -2    1    3    3    0  502 -0.30650625433E+03 -0.65652372722E+03  0.17283213711E+04  0.18740502261E+04  0.25500000920E-02 0.  1.
</event>
<event>
 5   0  0.3008879E-07  0.3512600E+04  0.7818609E-02  0.8110810E-01
       -2   -1    0    0    0  501  0.00000000000E+00  0.00000000000E+00  0.15339077545E+04  0.15339077545E+04  0.25500000920E-02 0.  1.
        2   -1    0    0  501    0  0.00000000000E+00  0.00000000000E+00 -0.20109361106E+04  0.20109361106E+04  0.25500000920E-02 0. -1.
    10030    2    1    2    0    0  0.00000000000E+00  0.00000000000E+00 -0.47702835610E+03  0.35448438651E+04  0.35126004576E+04 0.  0.
        2    1    3    3  502    0  0.62637913725E+02  0.15385842851E+04  0.61388424213E+03  0.16577149856E+04  0.25500000920E-02 0.  1.
       -2    1    3    3    0  502 -0.62637913725E+02 -0.15385842851E+04 -0.10909125982E+04  0.18871288795E+04  0.25500000920E-02 0. -1.
</event>
<event>
 5   0  0.9341000E-08  0.3672601E+04  0.7818609E-02  0.8074061E-01
       -1   -1    0    0    0  501  0.00000000000E+00  0.00000000000E+00  0.15001702499E+04  0.15001702499E+04  0.50400001928E-02 0.  1.
        1   -1    0    0  501    0  0.00000000000E+00  0.00000000000E+00 -0.22477445191E+04  0.22477445191E+04  0.50400001928E-02 0. -1.
    10030    2    1    2    0    0  0.00000000000E+00  0.00000000000E+00 -0.74757426922E+03  0.37479147691E+04  0.36726009623E+04 0.  0.
        4    1    3    3  502    0 -0.65534541112E+03  0.72722691476E+03  0.12116686013E+04  0.15577159580E+04  0.12699999809E+01 0.  1.
       -4    1    3    3    0  502  0.65534541112E+03 -0.72722691476E+03 -0.19592428705E+04  0.21901988111E+04  0.12699999809E+01 0. -1.
</event>
<event>
 5   0  0.9341000E-08  0.3727286E+04  0.7818609E-02  0.8061942E-01
       -1   -1    0    0    0  501  0.00000000000E+00  0.00000000000E+00  0.21551191479E+04  0.21551191479E+04  0.50400001928E-02 0. -1.
        1   -1    0    0  501    0  0.00000000000E+00  0.00000000000E+00 -0.16115883813E+04  0.16115883813E+04  0.50400001928E-02 0.  1.
    10030    2    1    2    0    0  0.00000000000E+00  0.00000000000E+00  0.54353076657E+03  0.37667075292E+04  0.37272858646E+04 0.  0.
        1    1    3    3  502    0 -0.14834321434E+04 -0.82882856208E+03  0.10451286703E+04  0.19949490337E+04  0.50400001928E-02 0. -1.
       -1    1    3    3    0  502  0.14834321434E+04  0.82882856208E+03 -0.50159790370E+03  0.17717584955E+04  0.50400001928E-02 0.  1.
</event>
<event>
 5   0  0.2913025E-07  0.3718337E+04  0.7818609E-02  0.8063910E-01
       -2   -1    0    0    0  501  0.00000000000E+00  0.00000000000E+00  0.12848805897E+04  0.12848805897E+04  0.25500000920E-02 0. -1.
        2   -1    0    0  501    0  0.00000000000E+00  0.00000000000E+00 -0.26901397853E+04  0.26901397853E+04  0.25500000920E-02 0.  1.
    10030    2    1    2    0    0  0.00000000000E+00  0.00000000000E+00 -0.14052591956E+04  0.39750203750E+04  0.37183374745E+04 0.  0.
        5    1    3    3  502    0  0.76003998530E+03  0.16948030304E+04 -0.78860667964E+03  0.20179050216E+04  0.46999998093E+01 0. -1.
       -5    1    3    3    0  502 -0.76003998530E+03 -0.16948030304E+04 -0.61665251597E+03  0.19571153534E+04  0.46999998093E+01 0.  1.
</event>
<event>
 5   0  0.9418945E-08  0.3701669E+04  0.7818609E-02  0.8067592E-01
       -1   -1    0    0    0  501  0.00000000000E+00  0.00000000000E+00  0.28183851057E+04  0.28183851057E+04  0.50400001928E-02 0. -1.
        1   -1    0    0  501    0  0.00000000000E+00  0.00000000000E+00 -0.12154437276E+04  0.12154437276E+04  0.50400001928E-02 0.  1.
    10030    2    1    2    0    0  0.00000000000E+00  0.00000000000E+00  0.16029413781E+04  0.40338288333E+04  0.37016690822E+04 0.  0.
        5    1    3    3  502    0 -0.65684271961E+02  0.10610297299E+04 -0.84956129311E+03  0.13608361371E+04  0.46999998093E+01 0.  1.
       -5    1    3    3    0  502  0.65684271961E+02 -0.10610297299E+04  0.24525026712E+04  0.26729926961E+04  0.46999998093E+01 0. -1.
</event>
<event>
 5   0  0.3008879E-07  0.3679364E+04  0.7818609E-02  0.8072551E-01
       -2   -1    0    0    0  501  0.00000000000E+00  0.00000000000E+00  0.17690437344E+04  0.17690437344E+04  0.25500000920E-02 0. -1.
        2   -1    0    0  501    0  0.00000000000E+00  0.00000000000E+00 -0.19131404520E+04  0.19131404520E+04  0.25500000920E-02 0.  1.
    10030    2    1    2    0    0  0.00000000000E+00  0.00000000000E+00 -0.14409671761E+03  0.36821841864E+04  0.36793636024E+04 0.  0.
        2    1    3    3  502    0 -0.10765799381E+04 -0.37630181691E+03  0.13725961650E+04  0.17845581113E+04  0.25500000920E-02 0. -1.
       -2    1    3    3    0  502  0.10765799381E+04  0.37630181691E+03 -0.15166928826E+04  0.18976260751E+04  0.25500000920E-02 0.  1.
</event>
<event>
 5   0  0.2897133E-07  0.3716793E+04  0.7818609E-02  0.8064251E-01
        2   -1    0    0  501    0  0.00000000000E+00  0.00000000000E+00  0.14190544573E+04  0.14190544573E+04  0.25500000920E-02 0. -1.
       -2   -1    0    0    0  501  0.00000000000E+00  0.00000000000E+00 -0.24337594122E+04  0.24337594122E+04  0.25500000920E-02 0.  1.
    10030    2    1    2    0    0  0.00000000000E+00  0.00000000000E+00 -0.10147049548E+04  0.38528138695E+04  0.37167927797E+04 0.  0.
        4    1    3    3  502    0 -0.10509262949E+04  0.12518396927E+04 -0.14240734510E+04  0.21678412074E+04  0.12699999809E+01 0.  1.
       -4    1    3    3    0  502  0.10509262949E+04 -0.12518396927E+04  0.40936849619E+03  0.16849726621E+04  0.12699999809E+01 0. -1.
</event>
<event>
 5   0  0.9341000E-08  0.3731774E+04  0.7818609E-02  0.8060956E-01
        1   -1    0    0  501    0  0.00000000000E+00  0.00000000000E+00  0.18042380484E+04  0.18042380484E+04  0.50400001928E-02 0. -1.
       -1   -1    0    0    0  501  0.00000000000E+00  0.00000000000E+00 -0.19296429002E+04  0.19296429002E+04  0.50400001928E-02 0.  1.
    10030    2    1    2    0    0  0.00000000000E+00  0.00000000000E+00 -0.12540485181E+03  0.37338809486E+04  0.37317744521E+04 0.  0.
        4    1    3    3  502    0 -0.78305189995E+03  0.61589474509E+02  0.16307570096E+04  0.18100645234E+04  0.12699999809E+01 0. -1.
       -4    1    3    3    0  502  0.78305189995E+03 -0.61589474509E+02 -0.17561618615E+04  0.19238164252E+04  0.12699999809E+01 0.  1.
</event>
<event>
 5   0  0.2913025E-07  0.3673020E+04  0.7818609E-02  0.8073967E-01
        2   -1    0    0  501    0  0.00000000000E+00  0.00000000000E+00  0.27191789471E+04  0.27191789471E+04  0.25500000920E-02 0. -1.
       -2   -1    0    0    0  501  0.00000000000E+00  0.00000000000E+00 -0.12403630332E+04  0.12403630332E+04  0.25500000920E-02 0.  1.
    10030    2    1    2    0    0  0.00000000000E+00  0.00000000000E+00  0.14788159139E+04  0.39595419803E+04  0.36730200363E+04 0.  0.
        5    1    3    3  502    0  0.14333011600E+04  0.54990939713E+03 -0.34718606354E+03  0.15739481608E+04  0.46999998093E+01 0.  1.
       -5    1    3    3    0  502 -0.14333011600E+04 -0.54990939713E+03  0.18260019774E+04  0.23855938195E+04  0.46999998093E+01 0. -1.
</event>
<event>
 5   0  0.3032442E-07  0.3628894E+04  0.7818609E-02  0.8083905E-01
       -2   -1    0    0    0  501  0.00000000000E+00  0.00000000000E+00  0.11628736333E+04  0.11628736333E+04  0.25500000920E-02 0.  1.
        2   -1    0    0  501    0  0.00000000000E+00  0.00000000000E+00 -0.28311050459E+04  0.28311050459E+04  0.25500000920E-02 0. -1.
    10030    2    1    2    0    0  0.00000000000E+00  0.00000000000E+00 -0.16682314126E+04  0.39939786792E+04  0.36288937218E+04 0.  0.
        3    1    3    3  502    0  0.38607106971E+03 -0.84450291916E+03  0.88155115577E+03  0.12803782651E+04  0.10100000352E+00 0.  1.
       -3    1    3    3    0  502 -0.38607106971E+03  0.84450291916E+03 -0.25497825684E+04  0.27136004141E+04  0.10100000352E+00 0. -1.
</event>
<event>
 5   0  0.2897133E-07  0.3730392E+04  0.7818609E-02  0.8061260E-01
       -2   -1    0    0    0  501  0.00000000000E+00  0.00000000000E+00  0.14364914987E+04  0.14364914987E+04  0.25500000920E-02 0. -1.
        2   -1    0    0  501    0  0.00000000000E+00  0.00000000000E+00 -0.24218422885E+04  0.24218422885E+04  0.25500000920E-02 0.  1.
    10030    2    1    2    0    0  0.00000000000E+00  0.00000000000E+00 -0.98535078979E+03  0.38583337872E+04  0.37303918607E+04 0.  0.
        4    1    3    3  502    0  0.13173592590E+03 -0.34526591352E+03 -0.23835990287E+04  0.24120756306E+04  0.12699999809E+01 0.  1.
       -4    1    3    3    0  502 -0.13173592590E+03  0.34526591352E+03  0.13982482389E+04  0.14462581566E+04  0.12699999809E+01 0. -1.
</event>
<event>
 5   0  0.9646615E-08  0.3720862E+04  0.7818609E-02  0.8063354E-01
        1   -1    0    0  501    0  0.00000000000E+00  0.00000000000E+00  0.23995378167E+04  0.23995378167E+04  0.50400001928E-02 0.  1.
       -1   -1    0    0    0  501  0.00000000000E+00  0.00000000000E+00 -0.14424457971E+04  0.14424457971E+04  0.50400001928E-02 0. -1.
    10030    2    1    2    0    0  0.00000000000E+00  0.00000000000E+00  0.95709201952E+03  0.38419836138E+04  0.37208618565E+04 0.  0.
        2    1    3    3  502    0 -0.97683024186E+03 -0.15800634318E+04  0.58387375472E+03  0.19472304259E+04  0.25500000920E-02 0.  1.
       -2    1    3    3    0  502  0.97683024186E+03  0.15800634318E+04  0.37321826481E+03  0.18947531879E+04  0.25500000920E-02 0. -1.
</event>
<event>
 5   0  0.2913025E-07  0.3699902E+04  0.7818609E-02  0.8067983E-01
       -2   -1    0    0    0  501  0.00000000000E+00  0.00000000000E+00  0.15199938281E+04  0.15199938281E+04  0.25500000920E-02 0.  1.
        2   -1    0    0  501    0  0.00000000000E+00  0.00000000000E+00 -0.22515351638E+04  0.22515351638E+04  0.25500000920E-02 0. -1.
    10030    2    1    2    0    0  0.00000000000E+00  0.00000000000E+00 -0.73154133568E+03  0.37715289918E+04  0.36999024596E+04 0.  0.
        5    1    3    3  502    0 -0.92247537241E+03 -0.75196258653E+03 -0.18094828301E+04  0.21657928679E+04  0.46999998093E+01 0. -1.
       -5    1    3    3    0  502  0.92247537241E+03  0.75196258653E+03  0.10779414944E+04  0.16057361239E+04  0.46999998093E+01 0.  1.
</event>
<event>
 5   0  0.9418945E-08  0.3688293E+04  0.7818609E-02  0.8070561E-01
        1   -1    0    0  501    0  0.00000000000E+00  0.00000000000E+00  0.19493714459E+04  0.19493714459E+04  0.50400001928E-02 0. -1.
       -1   -1    0    0    0  501  0.00000000000E+00  0.00000000000E+00 -0.17446018380E+04  0.17446018380E+04  0.50400001928E-02 0.  1.
    10030    2    1    2    0    0  0.00000000000E+00  0.00000000000E+00  0.20476960787E+03  0.36939732839E+04  0.36882933763E+04 0.  0.
        5    1    3    3  502    0 -0.13567468297E+04  0.70974416825E+03  0.11317594775E+04  0.19040484104E+04  0.46999998093E+01 0. -1.
       -5    1    3    3    0  502  0.13567468297E+04 -0.70974416825E+03 -0.92698986966E+03  0.17899248735E+04  0.46999998093E+01 0.  1.
</event>
<event>
 5   0  0.2897133E-07  0.3689644E+04  0.7818609E-02  0.8070261E-01
        2   -1    0    0  501    0  0.00000000000E+00  0.00000000000E+00  0.26564068176E+04  0.26564068176E+04  0.25500000920E-02 0. -1.
       -2   -1    0    0    0  501  0.00000000000E+00  0.00000000000E+00 -0.12811926044E+04  0.12811926044E+04  0.25500000920E-02 0.  1.
    10030    2    1    2    0    0  0.00000000000E+00  0.00000000000E+00  0.13752142131E+04  0.39375994220E+04  0.36896443021E+04 0.  0.
        4    1    3    3  502    0  0.10896751784E+04 -0.25345740378E+03  0.22530649415E+04  0.25155388873E+04  0.12699999809E+01 0. -1.
       -4    1    3    3    0  502 -0.10896751784E+04  0.25345740378E+03 -0.87785072839E+03  0.14220605347E+04  0.12699999809E+01 0.  1.
</event>
<event>
 5   0  0.9341000E-08  0.3692292E+04  0.7818609E-02  0.8069672E-01
       -1   -1    0    0    0  501  0.00000000000E+00  0.00000000000E+00  0.18743535460E+04  0.18743535460E+04  0.50400001928E-02 0. -1.
        1   -1    0    0  501    0  0.00000000000E+00  0.00000000000E+00 -0.18183625016E+04  0.18183625016E+04  0.50400001928E-02 0.  1.
    10030    2    1    2    0    0  0.00000000000E+00  0.00000000000E+00  0.55991044389E+02  0.36927160476E+04  0.36922915393E+04 0.  0.
        1    1    3    3  502    0 -0.15833179192E+04 -0.89052505391E+03  0.35715901887E+03  0.18513489865E+04  0.50400001928E-02 0. -1.
       -1    1    3    3    0  502  0.15833179192E+04  0.89052505391E+03 -0.30116797448E+03  0.18413670611E+04  0.50400001928E-02 0.  1.
</event>
<event>
 5   0  0.2913025E-07  0.3717519E+04  0.7818609E-02  0.8064090E-01
        2   -1    0    0  501    0  0.00000000000E+00  0.00000000000E+00  0.26284208815E+04  0.26284208815E+04  0.25500000920E-02 0. -1.
       -2   -1    0    0    0  501  0.00000000000E+00  0.00000000000E+00 -0.13144726739E+04  0.13144726739E+04  0.25500000920E-02 0.  1.
    10030    2    1    2    0    0  0.00000000000E+00  0.00000000000E+00  0.13139482076E+04  0.39428935554E+04  0.37175192934E+04 0.  0.
        5    1    3    3  502    0 -0.28613546634E+03 -0.24520271175E+03 -0.12735285667E+04  0.13281170788E+04  0.46999998093E+01 0.  1.
       -5    1    3    3    0  502  0.28613546634E+03  0.24520271175E+03  0.25874767742E+04  0.26147764765E+04  0.46999998093E+01 0. -1.
</event>
<event>
 5   0  0.9418945E-08  0.3475851E+04  0.7818609E-02  0.8119537E-01
       -1   -1    0    0    0  501  0.00000000000E+00  0.00000000000E+00  0.99021790714E+03  0.99021790715E+03  0.50400001928E-02 0. -1.
        1   -1    0    0  501    0  0.00000000000E+00  0.00000000000E+00 -0.30502223764E+04  0.30502223764E+04  0.50400001928E-02 0.  1.
    10030    2    1    2    0    0  0.00000000000E+00  0.00000000000E+00 -0.20600044693E+04  0.40404402836E+04  0.34758508702E+04 0.  0.
        5    1    3    3  502    0 -0.54303610585E+03 -0.14669124102E+03 -0.29414717814E+04  0.29947762626E+04  0.46999998093E+01 0.  1.
       -5    1    3    3    0  502  0.54303610585E+03  0.14669124102E+03  0.88146731210E+03  0.10456640210E+04  0.46999998093E+01 0. -1.
</event>
<event>
 5   0  0.9418945E-08  0.3738366E+04  0.7818609E-02  0.8059512E-01
       -1   -1    0    0    0  501  0.00000000000E+00  0.00000000000E+00  0.19929589127E+04  0.19929589127E+04  0.50400001928E-02 0.  1.
        1   -1    0    0  501    0  0.00000000000E+00  0.00000000000E+00 -0.17530942824E+04  0.17530942824E+04  0.50400001928E-02 0. -1.
    10030    2    1    2    0    0  0.00000000000E+00  0.00000000000E+00  0.23986463027E+03  0.37460531951E+04  0.37383658862E+04 0.  0.
        5    1    3    3  502    0  0.33093350585E+03  0.18387243839E+04  0.61516302199E+02  0.18692861447E+04  0.46999998093E+01 0.  1.
       -5    1    3    3    0  502 -0.33093350585E+03 -0.18387243839E+04  0.17834832807E+03  0.18767670504E+04  0.46999998093E+01 0. -1.
</event>
<event>
 5   0  0.2913025E-07  0.3730834E+04  0.7818609E-02  0.8061163E-01
       -2   -1    0    0    0  501  0.00000000000E+00  0.00000000000E+00  0.15861622027E+04  0.15861622027E+04  0.25500000920E-02 0.  1.
        2   -1    0    0  501    0  0.00000000000E+00  0.00000000000E+00 -0.21938367665E+04  0.21938367665E+04  0.25500000920E-02 0. -1.
    10030    2    1    2    0    0  0.00000000000E+00  0.00000000000E+00 -0.60767456382E+03  0.37799989692E+04  0.37308342005E+04 0.  0.
        5    1    3    3  502    0 -0.52987843155E+03 -0.14716557748E+03  0.15021591767E+04  0.15996665720E+04  0.46999998093E+01 0.  1.
       -5    1    3    3    0  502  0.52987843155E+03  0.14716557748E+03 -0.21098337405E+04  0.21803323972E+04  0.46999998093E+01 0. -1.
</event>
<event>
 5   0  0.9341000E-08  0.3693060E+04  0.7818609E-02  0.8069502E-01
        1   -1    0    0  501    0  0.00000000000E+00  0.00000000000E+00  0.18660937644E+04  0.18660937644E+04  0.50400001928E-02 0.  1.
       -1   -1    0    0    0  501  0.00000000000E+00  0.00000000000E+00 -0.18271713617E+04  0.18271713617E+04  0.50400001928E-02 0. -1.
    10030    2    1    2    0    0  0.00000000000E+00  0.00000000000E+00  0.38922402705E+02  0.36932651261E+04  0.36930600237E+04 0.  0.
        1    1    3    3  502    0 -0.93133638499E+03 -0.14450259808E+04  0.69343151774E+03  0.18537353686E+04  0.50400001928E-02 0. -1.
       -1    1    3    3    0  502  0.93133638499E+03  0.14450259808E+04 -0.65450911503E+03  0.18395297575E+04  0.50400001928E-02 0.  1.
</event>
<event>
 5   0  0.9341000E-08  0.3728590E+04  0.7818609E-02  0.8061655E-01
        1   -1    0    0  501    0  0.00000000000E+00  0.00000000000E+00  0.21722715937E+04  0.21722715937E+04  0.50400001928E-02 0. -1.
       -1   -1    0    0    0  501  0.00000000000E+00  0.00000000000E+00 -0.15999817811E+04  0.15999817811E+04  0.50400001928E-02 0.  1.
    10030    2    1    2    0    0  0.00000000000E+00  0.00000000000E+00  0.57228981268E+03  0.37722533748E+04  0.37285895315E+04 0.  0.
        4    1    3    3  502    0  0.88268270969E+03 -0.16059542109E+04  0.63275828120E+03  0.19387115177E+04  0.12699999809E+01 0.  1.
       -4    1    3    3    0  502 -0.88268270969E+03  0.16059542109E+04 -0.60468468524E+02  0.18335418572E+04  0.12699999809E+01 0. -1.
</event>
<event>
 5   0  0.9418945E-08  0.3688408E+04  0.7818609E-02  0.8070536E-01
       -1   -1    0    0    0  501  0.00000000000E+00  0.00000000000E+00  0.26030043200E+04  0.26030043200E+04  0.50400001928E-02 0.  1.
        1   -1    0    0  501    0  0.00000000000E+00  0.00000000000E+00 -0.13066009906E+04  0.13066009906E+04  0.50400001928E-02 0. -1.
    10030    2    1    2    0    0  0.00000000000E+00  0.00000000000E+00  0.12964033294E+04  0.39096053106E+04  0.36884077991E+04 0.  0.
        5    1    3    3  502    0  0.75245597783E+03 -0.15123635457E+04  0.14326034394E+04  0.22149059117E+04  0.46999998093E+01 0.  1.
       -5    1    3    3    0  502 -0.75245597783E+03  0.15123635457E+04 -0.13620011008E+03  0.16946993989E+04  0.46999998093E+01 0. -1.
</event>
<event>
 5   0  0.9341000E-08  0.3678167E+04  0.7818609E-02  0.8072818E-01
       -1   -1    0    0    0  501  0.00000000000E+00  0.00000000000E+00  0.11089514443E+04  0.11089514443E+04  0.50400001928E-02 0.  1.
        1   -1    0    0  501    0  0.00000000000E+00  0.00000000000E+00 -0.30499336690E+04  0.30499336690E+04  0.50400001928E-02 0. -1.
    10030    2    1    2    0    0  0.00000000000E+00  0.00000000000E+00 -0.19409822247E+04  0.41588851133E+04  0.36781671236E+04 0.  0.
        4    1    3    3  502    0  0.20714480382E+03  0.18148121489E+04 -0.72857885112E+03  0.19665403278E+04  0.12699999809E+01 0.  1.
       -4    1    3    3    0  502 -0.20714480382E+03 -0.18148121489E+04 -0.12124033736E+04  0.21923447856E+04  0.12699999809E+01 0. -1.
</event>
<event>
 5   0  0.9341000E-08  0.4088945E+04  0.7818609E-02  0.7986840E-01
        1   -1    0    0  501    0  0.00000000000E+00  0.00000000000E+00  0.16102941562E+04  0.16102941562E+04  0.50400001928E-02 0.  1.
       -1   -1    0    0    0  501  0.00000000000E+00  0.00000000000E+00 -0.25957175061E+04  0.25957175061E+04  0.50400001928E-02 0. -1.
    10030    2    1    2    0    0  0.00000000000E+00  0.00000000000E+00 -0.98542334990E+03  0.42060116623E+04  0.40889454539E+04 0.  0.
        4    1    3    3  502    0 -0.52368745022E+03 -0.32179065628E+03 -0.24984264433E+04  0.25729232552E+04  0.12699999809E+01 0. -1.
       -4    1    3    3    0  502  0.52368745022E+03  0.32179065628E+03  0.15130030934E+04  0.16330884071E+04  0.12699999809E+01 0.  1.
</event>
<event>
 5   0  0.9341000E-08  0.3721344E+04  0.7818609E-02  0.8063248E-01
        1   -1    0    0  501    0  0.00000000000E+00  0.00000000000E+00  0.21291895236E+04  0.21291895236E+04  0.50400001928E-02 0.  1.
       -1   -1    0    0    0  501  0.00000000000E+00  0.00000000000E+00 -0.16260174870E+04  0.16260174870E+04  0.50400001928E-02 0. -1.
    10030    2    1    2    0    0  0.00000000000E+00  0.00000000000E+00  0.50317203663E+03  0.37552070106E+04  0.37213435200E+04 0.  0.
        4    1    3    3  502    0  0.66910615515E+03  0.46719069365E+03 -0.14357928807E+04  0.16515062822E+04  0.12699999809E+01 0. -1.
       -4    1    3    3    0  502 -0.66910615515E+03 -0.46719069365E+03  0.19389649173E+04  0.21037007284E+04  0.12699999809E+01 0.  1.
</event>
<event>
 5   0  0.9341000E-08  0.3698591E+04  0.7818609E-02  0.8068274E-01
       -1   -1    0    0    0  501  0.00000000000E+00  0.00000000000E+00  0.15354849435E+04  0.15354849435E+04  0.50400001928E-02 0. -1.
        1   -1    0    0  501    0  0.00000000000E+00  0.00000000000E+00 -0.22272400011E+04  0.22272400011E+04  0.50400001928E-02 0.  1.
    10030    2    1    2    0    0  0.00000000000E+00  0.00000000000E+00 -0.69175505755E+03  0.37627249446E+04  0.36985908058E+04 0.  0.
        3    1    3    3  502    0  0.15011310563E+04  0.42250287564E+03 -0.13570902813E+04  0.20672680450E+04  0.10100000352E+00 0.  1.
       -3    1    3    3    0  502 -0.15011310563E+04 -0.42250287564E+03  0.66533522376E+03  0.16954568996E+04  0.10100000352E+00 0. -1.
</event>
<event>
 5   0  0.3008879E-07  0.3710314E+04  0.7818609E-02  0.8065680E-01
       -2   -1    0    0    0  501  0.00000000000E+00  0.00000000000E+00  0.12112688378E+04  0.12112688378E+04  0.25500000920E-02 0.  1.
        2   -1    0    0  501    0  0.00000000000E+00  0.00000000000E+00 -0.28413243217E+04  0.28413243217E+04  0.25500000920E-02 0. -1.
    10030    2    1    2    0    0  0.00000000000E+00  0.00000000000E+00 -0.16300554839E+04  0.40525931596E+04  0.37103140617E+04 0.  0.
        2    1    3    3  502    0 -0.43302716593E+03  0.68638350220E+03 -0.26371470633E+04  0.27591990635E+04  0.25500000920E-02 0. -1.
       -2    1    3    3    0  502  0.43302716593E+03 -0.68638350220E+03  0.10070915794E+04  0.12933940961E+04  0.25500000920E-02 0.  1.
</event>
<event>
 5   0  0.9341000E-08  0.3680532E+04  0.7818609E-02  0.8072290E-01
        1   -1    0    0  501    0  0.00000000000E+00  0.00000000000E+00  0.13650655360E+04  0.13650655360E+04  0.50400001928E-02 0.  1.
       -1   -1    0    0    0  501  0.00000000000E+00  0.00000000000E+00 -0.24808911640E+04  0.24808911640E+04  0.50400001928E-02 0. -1.
    10030    2    1    2    0    0  0.00000000000E+00  0.00000000000E+00 -0.11158256280E+04  0.38459567000E+04  0.36805320412E+04 0.  0.
        3    1    3    3  502    0  0.15114334155E+03 -0.16426772287E+04  0.29443654212E+03  0.16756866279E+04  0.10100000352E+00 0.  1.
       -3    1    3    3    0  502 -0.15114334155E+03  0.16426772287E+04 -0.14102621701E+04  0.21702700721E+04  0.10100000352E+00 0. -1.
</event>
<event>
 5   0  0.9341000E-08  0.3718912E+04  0.7818609E-02  0.8063784E-01
        1   -1    0    0  501    0  0.00000000000E+00  0.00000000000E+00  0.28148027470E+04  0.28148027470E+04  0.50400001928E-02 0. -1.
       -1   -1    0    0    0  501  0.00000000000E+00  0.00000000000E+00 -0.12283545709E+04  0.12283545709E+04  0.50400001928E-02 0.  1.
    10030    2    1    2    0    0  0.00000000000E+00  0.00000000000E+00  0.15864481760E+04  0.40431573179E+04  0.37189115722E+04 0.  0.
        1    1    3    3  502    0 -0.69243134507E+03  0.16863808148E+04  0.39489987968E+03  0.18652847866E+04  0.50400001928E-02 0. -1.
       -1    1    3    3    0  502  0.69243134507E+03 -0.16863808148E+04  0.11915482964E+04  0.21778725313E+04  0.50400001928E-02 0.  1.
</event>
<event>
 5   0  0.2913025E-07  0.3707025E+04  0.7818609E-02  0.8066407E-01
        2   -1    0    0  501    0  0.00000000000E+00  0.00000000000E+00  0.19649444493E+04  0.19649444493E+04  0.25500000920E-02 0.  1.
       -2   -1    0    0    0  501  0.00000000000E+00  0.00000000000E+00 -0.17484001967E+04  0.17484001967E+04  0.25500000920E-02 0. -1.
    10030    2    1    2    0    0  0.00000000000E+00  0.00000000000E+00  0.21654425257E+03  0.37133446459E+04  0.37070253636E+04 0.  0.
        5    1    3    3  502    0  0.54966530263E+03  0.89217968297E+03  0.16397244951E+04  0.19459791986E+04  0.46999998093E+01 0.  1.
       -5    1    3    3    0  502 -0.54966530263E+03 -0.89217968297E+03 -0.14231802425E+04  0.17673654473E+04  0.46999998093E+01 0. -1.
</event>
<event>
 5   0  0.9646615E-08  0.3700149E+04  0.7818609E-02  0.8067929E-01
        1   -1    0    0  501    0  0.00000000000E+00  0.00000000000E+00  0.20311442448E+04  0.20311442448E+04  0.50400001928E-02 0.  1.
       -1   -1    0    0    0  501  0.00000000000E+00  0.00000000000E+00 -0.16851469650E+04  0.16851469650E+04  0.50400001928E-02 0. -1.
    10030    2    1    2    0    0  0.00000000000E+00  0.00000000000E+00  0.34599727980E+03  0.37162912098E+04  0.37001494887E+04 0.  0.
        2    1    3    3  502    0 -0.16187758316E+04  0.58442031046E+02 -0.72472718143E+03  0.17745647781E+04  0.25500000920E-02 0. -1.
       -2    1    3    3    0  502  0.16187758316E+04 -0.58442031046E+02  0.10707244612E+04  0.19417264318E+04  0.25500000920E-02 0.  1.
</event>
<event>
 5   0  0.9418945E-08  0.3694991E+04  0.7818609E-02  0.8069073E-01
        1   -1    0    0  501    0  0.00000000000E+00  0.00000000000E+00  0.14451001579E+04  0.14451001579E+04  0.50400001928E-02 0. -1.
       -1   -1    0    0    0  501  0.00000000000E+00  0.00000000000E+00 -0.23619400440E+04  0.23619400440E+04  0.50400001928E-02 0.  1.
    10030    2    1    2    0    0  0.00000000000E+00  0.00000000000E+00 -0.91683988611E+03  0.38070402020E+04  0.36949911668E+04 0.  0.
        5    1    3    3  502    0 -0.57876961893E+03  0.17198678968E+04 -0.10106216656E+03  0.18174585293E+04  0.46999998093E+01 0. -1.
       -5    1    3    3    0  502  0.57876961893E+03 -0.17198678968E+04 -0.81577771954E+03  0.19895816726E+04  0.46999998093E+01 0.  1.
</event>
<event>
 5   0  0.9341000E-08  0.3708924E+04  0.7818609E-02  0.8065987E-01
        1   -1    0    0  501    0  0.00000000000E+00  0.00000000000E+00  0.16428661584E+04  0.16428661584E+04  0.50400001928E-02 0. -1.
       -1   -1    0    0    0  501  0.00000000000E+00  0.00000000000E+00 -0.20933110362E+04  0.20933110362E+04  0.50400001928E-02 0.  1.
    10030    2    1    2    0    0  0.00000000000E+00  0.00000000000E+00 -0.45044487779E+03  0.37361771946E+04  0.37089242971E+04 0.  0.
        4    1    3    3  502    0 -0.81754900100E+03  0.16526197073E+04 -0.25041389766E+02  0.18439541616E+04  0.12699999809E+01 0. -1.
       -4    1    3    3    0  502  0.81754900100E+03 -0.16526197073E+04 -0.42540348802E+03  0.18922230330E+04  0.12699999809E+01 0.  1.
</event>
<event>
 5   0  0.9341000E-08  0.3701290E+04  0.7818609E-02  0.8067676E-01
       -1   -1    0    0    0  501  0.00000000000E+00  0.00000000000E+00  0.15590443068E+04  0.15590443068E+04  0.50400001928E-02 0. -1.
        1   -1    0    0  501    0  0.00000000000E+00  0.00000000000E+00 -0.21967859762E+04  0.21967859762E+04  0.50400001928E-02 0.  1.
    10030    2    1    2    0    0  0.00000000000E+00  0.00000000000E+00 -0.63774166934E+03  0.37558302830E+04  0.37012898668E+04 0.  0.
        4    1    3    3  502    0  0.91912742612E+03  0.14936323248E+04  0.28072736565E+03  0.17761030977E+04  0.12699999809E+01 0. -1.
       -4    1    3    3    0  502 -0.91912742612E+03 -0.14936323248E+04 -0.91846903499E+03  0.19797271853E+04  0.12699999809E+01 0.  1.
</event>
<event>
 5   0  0.2897133E-07  0.3716895E+04  0.7818609E-02  0.8064228E-01
       -2   -1    0    0    0  501  0.00000000000E+00  0.00000000000E+00  0.28069161230E+04  0.28069161230E+04  0.25500000920E-02 0.  1.
        2   -1    0    0  501    0  0.00000000000E+00  0.00000000000E+00 -0.12304704100E+04  0.12304704100E+04  0.25500000920E-02 0. -1.
    10030    2    1    2    0    0  0.00000000000E+00  0.00000000000E+00  0.15764457130E+04  0.40373865329E+04  0.37168950658E+04 0.  0.
        4    1    3    3  502    0  0.72186947035E+03  0.69106042980E+03 -0.91378053915E+03  0.13541257462E+04  0.12699999809E+01 0. -1.
       -4    1    3    3    0  502 -0.72186947035E+03 -0.69106042980E+03  0.24902262522E+04  0.26832607867E+04  0.12699999809E+01 0.  1.
</event>
<event>
 5   0  0.9341000E-08  0.3730144E+04  0.7818609E-02  0.8061314E-01
       -1   -1    0    0    0  501  0.00000000000E+00  0.00000000000E+00  0.14673647938E+04  0.14673647938E+04  0.50400001928E-02 0. -1.
        1   -1    0    0  501    0  0.00000000000E+00  0.00000000000E+00 -0.23705716369E+04  0.23705716369E+04  0.50400001928E-02 0.  1.
    10030    2    1    2    0    0  0.00000000000E+00  0.00000000000E+00 -0.90320684305E+03  0.38379364307E+04  0.37301438907E+04 0.  0.
        3    1    3    3  502    0 -0.10908839382E+01 -0.79209251309E+03  0.12857053666E+04  0.15101159026E+04  0.10100000352E+00 0. -1.
       -3    1    3    3    0  502  0.10908839382E+01  0.79209251309E+03 -0.21889122097E+04  0.23278205281E+04  0.10100000352E+00 0.  1.
</event>
<event>
 5   0  0.3008879E-07  0.3699007E+04  0.7818609E-02  0.8068182E-01
       -2   -1    0    0    0  501  0.00000000000E+00  0.00000000000E+00  0.18655120934E+04  0.18655120934E+04  0.25500000920E-02 0. -1.
        2   -1    0    0  501    0  0.00000000000E+00  0.00000000000E+00 -0.18336323984E+04  0.18336323984E+04  0.25500000920E-02 0.  1.
    10030    2    1    2    0    0  0.00000000000E+00  0.00000000000E+00  0.31879694979E+02  0.36991444918E+04  0.36990071176E+04 0.  0.
        2    1    3    3  502    0 -0.17270640521E+04 -0.43515504987E+03 -0.48262982510E+03  0.18452755094E+04  0.25500000920E-02 0.  1.
       -2    1    3    3    0  502  0.17270640521E+04  0.43515504987E+03  0.51450952008E+03  0.18538689824E+04  0.25500000920E-02 0. -1.
</event>
<event>
 5   0  0.2913025E-07  0.3759255E+04  0.7818609E-02  0.8054956E-01
        2   -1    0    0  501    0  0.00000000000E+00  0.00000000000E+00  0.13329013123E+04  0.13329013123E+04  0.25500000920E-02 0.  1.
       -2   -1    0    0    0  501  0.00000000000E+00  0.00000000000E+00 -0.26506083818E+04  0.26506083818E+04  0.25500000920E-02 0. -1.
    10030    2    1    2    0    0  0.00000000000E+00  0.00000000000E+00 -0.13177070696E+04  0.39835096941E+04  0.37592549211E+04 0.  0.
        5    1    3    3  502    0  0.78982789916E+03  0.88484351649E+03  0.88628091300E+03  0.14806390869E+04  0.46999998093E+01 0.  1.
       -5    1    3    3    0  502 -0.78982789916E+03 -0.88484351649E+03 -0.22039879826E+04  0.25028706072E+04  0.46999998093E+01 0. -1.
</event>
<event>
 5   0  0.3032442E-07  0.3681227E+04  0.7818609E-02  0.8072135E-01
        2   -1    0    0  501    0  0.00000000000E+00  0.00000000000E+00  0.11019248440E+04  0.11019248440E+04  0.25500000920E-02 0.  1.
       -2   -1    0    0    0  501  0.00000000000E+00  0.00000000000E+00 -0.30744916467E+04  0.30744916467E+04  0.25500000920E-02 0. -1.
    10030    2    1    2    0    0  0.00000000000E+00  0.00000000000E+00 -0.19725668027E+04  0.41764164907E+04  0.36812273650E+04 0.  0.
        3    1    3    3  502    0  0.83924491833E+01 -0.44089103066E+03  0.10411101031E+04  0.11306483057E+04  0.10100000352E+00 0.  1.
       -3    1    3    3    0  502 -0.83924491833E+01  0.44089103066E+03 -0.30136769058E+04  0.30457681850E+04  0.10100000352E+00 0. -1.
</event>
<event>
 5   0  0.9646615E-08  0.3711828E+04  0.7818609E-02  0.8065346E-01
       -1   -1    0    0    0  501  0.00000000000E+00  0.00000000000E+00  0.16608790532E+04  0.16608790532E+04  0.50400001928E-02 0.  1.
        1   -1    0    0  501    0  0.00000000000E+00  0.00000000000E+00 -0.20738519807E+04  0.20738519807E+04  0.50400001928E-02 0. -1.
    10030    2    1    2    0    0  0.00000000000E+00  0.00000000000E+00 -0.41297292751E+03  0.37347310339E+04  0.37118282903E+04 0.  0.
        2    1    3    3  502    0 -0.37172636228E+03  0.58585191006E+03 -0.19384483533E+04  0.20588795417E+04  0.25500000920E-02 0. -1.
       -2    1    3    3    0  502  0.37172636228E+03 -0.58585191006E+03  0.15254754258E+04  0.16758514921E+04  0.25500000920E-02 0.  1.
</event>
<event>
 5   0  0.3032442E-07  0.3352858E+04  0.7818609E-02  0.8149574E-01
       -2   -1    0    0    0  501  0.00000000000E+00  0.00000000000E+00  0.12474524502E+04  0.12474524502E+04  0.25500000920E-02 0. -1.
        2   -1    0    0  501    0  0.00000000000E+00  0.00000000000E+00 -0.22529226118E+04  0.22529226118E+04  0.25500000920E-02 0.  1.
    10030    2    1    2    0    0  0.00000000000E+00  0.00000000000E+00 -0.10054701615E+04  0.35003750620E+04  0.33528577854E+04 0.  0.
        3    1    3    3  502    0  0.66854374133E+03  0.45985067344E+03  0.10287777049E+04  0.13102659853E+04  0.10100000352E+00 0. -1.
       -3    1    3    3    0  502 -0.66854374133E+03 -0.45985067344E+03 -0.20342478664E+04  0.21901090768E+04  0.10100000352E+00 0.  1.
</event>
<event>
 5   0  0.9418945E-08  0.3686030E+04  0.7818609E-02  0.8071065E-01
        1   -1    0    0  501    0  0.00000000000E+00  0.00000000000E+00  0.26230679790E+04  0.26230679790E+04  0.50400001928E-02 0.  1.
       -1   -1    0    0    0  501  0.00000000000E+00  0.00000000000E+00 -0.12949353667E+04  0.12949353667E+04  0.50400001928E-02 0. -1.
    10030    2    1    2    0    0  0.00000000000E+00  0.00000000000E+00  0.13281326123E+04  0.39180033457E+04  0.36860295687E+04 0.  0.
        5    1    3    3  502    0  0.11933484231E+04  0.62928619527E+03 -0.67058164963E+03  0.15065800388E+04  0.46999998093E+01 0. -1.
       -5    1    3    3    0  502 -0.11933484231E+04 -0.62928619527E+03  0.19987142619E+04  0.24114233069E+04  0.46999998093E+01 0.  1.
</event>
<event>
 5   0  0.9341000E-08  0.3699516E+04  0.7818609E-02  0.8068069E-01
       -1   -1    0    0    0  501  0.00000000000E+00  0.00000000000E+00  0.20527817830E+04  0.20527817830E+04  0.50400001928E-02 0.  1.
        1   -1    0    0  501    0  0.00000000000E+00  0.00000000000E+00 -0.16668133512E+04  0.16668133512E+04  0.50400001928E-02 0. -1.
    10030    2    1    2    0    0  0.00000000000E+00  0.00000000000E+00  0.38596843186E+03  0.37195951342E+04  0.36995156889E+04 0.  0.
        3    1    3    3  502    0  0.10846132524E+04  0.22858200299E+03  0.16818892135E+04  0.20142956526E+04  0.10100000352E+00 0.  1.
       -3    1    3    3    0  502 -0.10846132524E+04 -0.22858200299E+03 -0.12959207816E+04  0.17052994816E+04  0.10100000352E+00 0. -1.
</event>
<event>
 5   0  0.9341000E-08  0.3689139E+04  0.7818609E-02  0.8070373E-01
        1   -1    0    0  501    0  0.00000000000E+00  0.00000000000E+00  0.12498948741E+04  0.12498948741E+04  0.50400001928E-02 0. -1.
       -1   -1    0    0    0  501  0.00000000000E+00  0.00000000000E+00 -0.27221786901E+04  0.27221786901E+04  0.50400001928E-02 0.  1.
    10030    2    1    2    0    0  0.00000000000E+00  0.00000000000E+00 -0.14722838160E+04  0.39720735642E+04  0.36891392986E+04 0.  0.
        1    1    3    3  502    0 -0.26935041705E+03  0.10101008278E+04  0.90014364964E+03  0.13795332252E+04  0.50400001928E-02 0. -1.
       -1    1    3    3    0  502  0.26935041705E+03 -0.10101008278E+04 -0.23724274656E+04  0.25925403390E+04  0.50400001928E-02 0.  1.
</event>
<event>
 5   0  0.2897133E-07  0.3708654E+04  0.7818609E-02  0.8066047E-01
        2   -1    0    0  501    0  0.00000000000E+00  0.00000000000E+00  0.22762838302E+04  0.22762838302E+04  0.25500000920E-02 0. -1.
       -2   -1    0    0    0  501  0.00000000000E+00  0.00000000000E+00 -0.15105888987E+04  0.15105888987E+04  0.25500000920E-02 0.  1.
    10030    2    1    2    0    0  0.00000000000E+00  0.00000000000E+00  0.76569493142E+03  0.37868727289E+04  0.37086542488E+04 0.  0.
        4    1    3    3  502    0 -0.12775234613E+04 -0.68791232506E+03 -0.79616443758E+03  0.16550434997E+04  0.12699999809E+01 0.  1.
       -4    1    3    3    0  502  0.12775234613E+04  0.68791232506E+03  0.15618593690E+04  0.21318292292E+04  0.12699999809E+01 0. -1.
</event>
<event>
 5   0  0.9341000E-08  0.3712283E+04  0.7818609E-02  0.8065245E-01
       -1   -1    0    0    0  501  0.00000000000E+00  0.00000000000E+00  0.17383343830E+04  0.17383343831E+04  0.50400001928E-02 0.  1.
        1   -1    0    0  501    0  0.00000000000E+00  0.00000000000E+00 -0.19819328738E+04  0.19819328738E+04  0.50400001928E-02 0. -1.
    10030    2    1    2    0    0  0.00000000000E+00  0.00000000000E+00 -0.24359849078E+03  0.37202672569E+04  0.37122834264E+04 0.  0.
        1    1    3    3  502    0 -0.71534858830E+03  0.40154345271E+03  0.15468045562E+04  0.17508755188E+04  0.50400001928E-02 0.  1.
       -1    1    3    3    0  502  0.71534858830E+03 -0.40154345271E+03 -0.17904030470E+04  0.19693917381E+04  0.50400001928E-02 0. -1.
</event>
<event>
 5   0  0.2913025E-07  0.3665988E+04  0.7818609E-02  0.8075541E-01
       -2   -1    0    0    0  501  0.00000000000E+00  0.00000000000E+00  0.17894187954E+04  0.17894187954E+04  0.25500000920E-02 0. -1.
        2   -1    0    0  501    0  0.00000000000E+00  0.00000000000E+00 -0.18776299480E+04  0.18776299480E+04  0.25500000920E-02 0.  1.
    10030    2    1    2    0    0  0.00000000000E+00  0.00000000000E+00 -0.88211152561E+02  0.36670487434E+04  0.36659876267E+04 0.  0.
        5    1    3    3  502    0  0.11437162301E+04  0.35836875512E+03 -0.14313484617E+04  0.18668946109E+04  0.46999998093E+01 0.  1.
       -5    1    3    3    0  502 -0.11437162301E+04 -0.35836875512E+03  0.13431373091E+04  0.18001541325E+04  0.46999998093E+01 0. -1.
</event>
<event>
 5   0  0.9418945E-08  0.3688476E+04  0.7818609E-02  0.8070521E-01
        1   -1    0    0  501    0  0.00000000000E+00  0.00000000000E+00  0.20778710615E+04  0.20778710616E+04  0.50400001928E-02 0. -1.
       -1   -1    0    0    0  501  0.00000000000E+00  0.00000000000E+00 -0.16368739061E+04  0.16368739061E+04  0.50400001928E-02 0.  1.
    10030    2    1    2    0    0  0.00000000000E+00  0.00000000000E+00  0.44099715548E+03  0.37147449676E+04  0.36884755229E+04 0.  0.
        5    1    3    3  502    0 -0.82592517691E+03 -0.75500319775E+03 -0.12558916925E+04  0.16821023333E+04  0.46999998093E+01 0.  1.
       -5    1    3    3    0  502  0.82592517691E+03  0.75500319775E+03  0.16968888480E+04  0.20326426343E+04  0.46999998093E+01 0. -1.
</event>
<event>
 5   0  0.3008879E-07  0.3680198E+04  0.7818609E-02  0.8072364E-01
        2   -1    0    0  501    0  0.00000000000E+00  0.00000000000E+00  0.17866174024E+04  0.17866174024E+04  0.25500000920E-02 0. -1.
       -2   -1    0    0    0  501  0.00000000000E+00  0.00000000000E+00 -0.18951820069E+04  0.18951820069E+04  0.25500000920E-02 0.  1.
    10030    2    1    2    0    0  0.00000000000E+00  0.00000000000E+00 -0.10856460454E+03  0.36817994093E+04  0.36801984481E+04 0.  0.
        2    1    3    3  502    0  0.18317632601E+04  0.85761094312E+02 -0.20683977949E+03  0.18453981415E+04  0.25500000920E-02 0. -1.
       -2    1    3    3    0  502 -0.18317632601E+04 -0.85761094312E+02  0.98275174948E+02  0.18364012678E+04  0.25500000920E-02 0.  1.
</event>
<event>
 5   0  0.2897133E-07  0.3500999E+04  0.7818609E-02  0.8113553E-01
       -2   -1    0    0    0  501  0.00000000000E+00  0.00000000000E+00  0.14427425651E+04  0.14427425651E+04  0.25500000920E-02 0. -1.
        2   -1    0    0  501    0  0.00000000000E+00  0.00000000000E+00 -0.21239057678E+04  0.21239057678E+04  0.25500000920E-02 0.  1.
    10030    2    1    2    0    0  0.00000000000E+00  0.00000000000E+00 -0.68116320268E+03  0.35666483329E+04  0.35009994318E+04 0.  0.
        4    1    3    3  502    0 -0.90890117188E+03  0.32197712629E+03  0.11477989734E+04  0.14990712813E+04  0.12699999809E+01 0. -1.
       -4    1    3    3    0  502  0.90890117188E+03 -0.32197712629E+03 -0.18289621761E+04  0.20675770516E+04  0.12699999809E+01 0.  1.
</event>
<event>
 5   0  0.3008879E-07  0.3680132E+04  0.7818609E-02  0.8072379E-01
        2   -1    0    0  501    0  0.00000000000E+00  0.00000000000E+00  0.24615124428E+04  0.24615124428E+04  0.25500000920E-02 0. -1.
       -2   -1    0    0    0  501  0.00000000000E+00  0.00000000000E+00 -0.13755131371E+04  0.13755131371E+04  0.25500000920E-02 0.  1.
    10030    2    1    2    0    0  0.00000000000E+00  0.00000000000E+00  0.10859993057E+04  0.38370255800E+04  0.36801319011E+04 0.  0.
        2    1    3    3  502    0 -0.56237370034E+03  0.14119748734E+04 -0.53848004165E+03  0.16124199134E+04  0.25500000920E-02 0. -1.
       -2    1    3    3    0  502  0.56237370034E+03 -0.14119748734E+04  0.16244793473E+04  0.22246056666E+04  0.25500000920E-02 0.  1.
</event>
<event>
 5   0  0.9341000E-08  0.3710933E+04  0.7818609E-02  0.8065543E-01
       -1   -1    0    0    0  501  0.00000000000E+00  0.00000000000E+00  0.26686299923E+04  0.26686299923E+04  0.50400001928E-02 0. -1.
        1   -1    0    0  501    0  0.00000000000E+00  0.00000000000E+00 -0.12900839440E+04  0.12900839440E+04  0.50400001928E-02 0.  1.
    10030    2    1    2    0    0  0.00000000000E+00  0.00000000000E+00  0.13785460483E+04  0.39587139364E+04  0.37109334167E+04 0.  0.
        4    1    3    3  502    0  0.66300271406E+03  0.51546697085E+03  0.24542788431E+04  0.25939863241E+04  0.12699999809E+01 0. -1.
       -4    1    3    3    0  502 -0.66300271406E+03 -0.51546697085E+03 -0.10757327948E+04  0.13647276123E+04  0.12699999809E+01 0.  1.
</event>
<event>
 5   0  0.2913025E-07  0.3687436E+04  0.7818609E-02  0.8070752E-01
       -2   -1    0    0    0  501  0.00000000000E+00  0.00000000000E+00  0.14684898128E+04  0.14684898128E+04  0.25500000920E-02 0.  1.
        2   -1    0    0  501    0  0.00000000000E+00  0.00000000000E+00 -0.23148240418E+04  0.23148240418E+04  0.25500000920E-02 0. -1.
    10030    2    1    2    0    0  0.00000000000E+00  0.00000000000E+00 -0.84633422900E+03  0.37833138546E+04  0.36874357072E+04 0.  0.
        5    1    3    3  502    0 -0.74628719088E+03 -0.15222891961E+04 -0.11665505295E+04  0.20579531569E+04  0.46999998093E+01 0. -1.
       -5    1    3    3    0  502  0.74628719088E+03  0.15222891961E+04  0.32021630054E+03  0.17253606977E+04  0.46999998093E+01 0.  1.
</event>
<event>
 5   0  0.9646615E-08  0.3672022E+04  0.7818609E-02  0.8074191E-01
        1   -1    0    0  501    0  0.00000000000E+00  0.00000000000E+00  0.25922531448E+04  0.25922531448E+04  0.50400001928E-02 0. -1.
       -1   -1    0    0    0  501  0.00000000000E+00  0.00000000000E+00 -0.13003883766E+04  0.13003883766E+04  0.50400001928E-02 0.  1.
    10030    2    1    2    0    0  0.00000000000E+00  0.00000000000E+00  0.12918647681E+04  0.38926415214E+04  0.36720217095E+04 0.  0.
        2    1    3    3  502    0  0.63270746264E+03 -0.52380063446E+03 -0.10947488663E+04  0.13686346913E+04  0.25500000920E-02 0.  1.
       -2    1    3    3    0  502 -0.63270746264E+03  0.52380063446E+03  0.23866136345E+04  0.25240068301E+04  0.25500000920E-02 0. -1.
</event>
<event>
 5   0  0.9341000E-08  0.3730714E+04  0.7818609E-02  0.8061189E-01
        1   -1    0    0  501    0  0.00000000000E+00  0.00000000000E+00  0.13116597108E+04  0.13116597108E+04  0.50400001928E-02 0. -1.
       -1   -1    0    0    0  501  0.00000000000E+00  0.00000000000E+00 -0.26527898911E+04  0.26527898911E+04  0.50400001928E-02 0.  1.
    10030    2    1    2    0    0  0.00000000000E+00  0.00000000000E+00 -0.13411301803E+04  0.39644496019E+04  0.37307144739E+04 0.  0.
        1    1    3    3  502    0  0.15851721214E+04 -0.72070909355E+03 -0.13813236035E+04  0.22226666753E+04  0.50400001928E-02 0.  1.
       -1    1    3    3    0  502 -0.15851721214E+04  0.72070909355E+03  0.40193423185E+02  0.17417829266E+04  0.50400001928E-02 0. -1.
</event>
<event>
 5   0  0.9418945E-08  0.3716215E+04  0.7818609E-02  0.8064378E-01
        1   -1    0    0  501    0  0.00000000000E+00  0.00000000000E+00  0.15225272297E+04  0.15225272297E+04  0.50400001928E-02 0.  1.
       -1   -1    0    0    0  501  0.00000000000E+00  0.00000000000E+00 -0.22676535693E+04  0.22676535693E+04  0.50400001928E-02 0. -1.
    10030    2    1    2    0    0  0.00000000000E+00  0.00000000000E+00 -0.74512633961E+03  0.37901807990E+04  0.37162154441E+04 0.  0.
        5    1    3    3  502    0 -0.17974959256E+04 -0.36262725658E+03 -0.66503620514E+02  0.18349209659E+04  0.46999998093E+01 0.  1.
       -5    1    3    3    0  502  0.17974959256E+04  0.36262725658E+03 -0.67862271910E+03  0.19552598330E+04  0.46999998093E+01 0. -1.
</event>
<event>
 5   0  0.9341000E-08  0.3665514E+04  0.7818609E-02  0.8075648E-01
       -1   -1    0    0    0  501  0.00000000000E+00  0.00000000000E+00  0.13329825727E+04  0.13329825727E+04  0.50400001928E-02 0. -1.
        1   -1    0    0  501    0  0.00000000000E+00  0.00000000000E+00 -0.25199118505E+04  0.25199118505E+04  0.50400001928E-02 0.  1.
    10030    2    1    2    0    0  0.00000000000E+00  0.00000000000E+00 -0.11869292778E+04  0.38528944233E+04  0.36655141967E+04 0.  0.
        4    1    3    3  502    0  0.16062346681E+04  0.37378247133E+03 -0.14338964010E+04  0.21853520647E+04  0.12699999809E+01 0. -1.
       -4    1    3    3    0  502 -0.16062346681E+04 -0.37378247133E+03  0.24696712327E+03  0.16675423586E+04  0.12699999809E+01 0.  1.
</event>
<event>
 5   0  0.2996969E-07  0.3729584E+04  0.7818609E-02  0.8061437E-01
       -2   -1    0    0    0  501  0.00000000000E+00  0.00000000000E+00  0.29815853224E+04  0.29815853224E+04  0.25500000920E-02 0.  1.
        2   -1    0    0  501    0  0.00000000000E+00  0.00000000000E+00 -0.11663085123E+04  0.11663085123E+04  0.25500000920E-02 0. -1.
    10030    2    1    2    0    0  0.00000000000E+00  0.00000000000E+00  0.18152768101E+04  0.41478938346E+04  0.37295835379E+04 0.  0.
        1    1    3    3  502    0 -0.31930587878E+03 -0.16366817142E+04 -0.20708889643E+02  0.16676666742E+04  0.50400001928E-02 0. -1.
       -1    1    3    3    0  502  0.31930587878E+03  0.16366817142E+04  0.18359856997E+04  0.24802271605E+04  0.50400001928E-02 0.  1.
</event>
<event>
 5   0  0.9341000E-08  0.3663258E+04  0.7818609E-02  0.8076153E-01
        1   -1    0    0  501    0  0.00000000000E+00  0.00000000000E+00  0.21753874592E+04  0.21753874592E+04  0.50400001928E-02 0.  1.
       -1   -1    0    0    0  501  0.00000000000E+00  0.00000000000E+00 -0.15421917591E+04  0.15421917591E+04  0.50400001928E-02 0. -1.
    10030    2    1    2    0    0  0.00000000000E+00  0.00000000000E+00  0.63319570017E+03  0.37175792183E+04  0.36632579010E+04 0.  0.
        1    1    3    3  502    0 -0.21393241217E+03  0.18185134118E+04  0.27002056960E+03  0.18508563461E+04  0.50400001928E-02 0.  1.
       -1    1    3    3    0  502  0.21393241217E+03 -0.18185134118E+04  0.36317513057E+03  0.18667228722E+04  0.50400001928E-02 0. -1.
</event>
<event>
 5   0  0.3032442E-07  0.3698155E+04  0.7818609E-02  0.8068371E-01
       -2   -1    0    0    0  501  0.00000000000E+00  0.00000000000E+00  0.20398276617E+04  0.20398276617E+04  0.25500000920E-02 0.  1.
        2   -1    0    0  501    0  0.00000000000E+00  0.00000000000E+00 -0.16761652283E+04  0.16761652283E+04  0.25500000920E-02 0. -1.
    10030    2    1    2    0    0  0.00000000000E+00  0.00000000000E+00  0.36366243344E+03  0.37159928900E+04  0.36981553230E+04 0.  0.
        3    1    3    3  502    0  0.34796399783E+03 -0.18156731278E+04  0.21861842101E+03  0.18615965930E+04  0.10100000352E+00 0.  1.
       -3    1    3    3    0  502 -0.34796399783E+03  0.18156731278E+04  0.14504401244E+03  0.18543962970E+04  0.10100000352E+00 0. -1.
</event>
<event>
 5   0  0.2996969E-07  0.3709214E+04  0.7818609E-02  0.8065923E-01
       -2   -1    0    0    0  501  0.00000000000E+00  0.00000000000E+00  0.19386525034E+04  0.19386525034E+04  0.25500000920E-02 0. -1.
        2   -1    0    0  501    0  0.00000000000E+00  0.00000000000E+00 -0.17742049499E+04  0.17742049499E+04  0.25500000920E-02 0.  1.
    10030    2    1    2    0    0  0.00000000000E+00  0.00000000000E+00  0.16444755356E+03  0.37128574533E+04  0.37092138615E+04 0.  0.
        1    1    3    3  502    0 -0.12953741173E+04  0.52815642062E+03  0.13010501700E+04  0.19104122208E+04  0.50400001928E-02 0. -1.
       -1    1    3    3    0  502  0.12953741173E+04 -0.52815642062E+03 -0.11366026164E+04  0.18024452325E+04  0.50400001928E-02 0.  1.
</event>
<event>
 5   0  0.2996969E-07  0.3708620E+04  0.7818609E-02  0.8066054E-01
        2   -1    0    0  501    0  0.00000000000E+00  0.00000000000E+00  0.18186202339E+04  0.18186202339E+04  0.25500000920E-02 0.  1.
       -2   -1    0    0    0  501  0.00000000000E+00  0.00000000000E+00 -0.18906999225E+04  0.18906999225E+04  0.25500000920E-02 0. -1.
    10030    2    1    2    0    0  0.00000000000E+00  0.00000000000E+00 -0.72079688659E+02  0.37093201564E+04  0.37086197623E+04 0.  0.
        1    1    3    3  502    0 -0.16864416904E+04 -0.11616545366E+03 -0.79834199906E+03  0.18694731705E+04  0.50400001928E-02 0. -1.
       -1    1    3    3    0  502  0.16864416904E+04  0.11616545366E+03  0.72626231040E+03  0.18398469859E+04  0.50400001928E-02 0.  1.
</event>
<event>
 5   0  0.2913025E-07  0.3691298E+04  0.7818609E-02  0.8069893E-01
        2   -1    0    0  501    0  0.00000000000E+00  0.00000000000E+00  0.20768931219E+04  0.20768931219E+04  0.25500000920E-02 0. -1.
       -2   -1    0    0    0  501  0.00000000000E+00  0.00000000000E+00 -0.16401519199E+04  0.16401519199E+04  0.25500000920E-02 0.  1.
    10030    2    1    2    0    0  0.00000000000E+00  0.00000000000E+00  0.43674120202E+03  0.37170450418E+04  0.36912980055E+04 0.  0.
        5    1    3    3  502    0  0.10165442069E+04  0.74325208110E+03 -0.11403415534E+04  0.16988780795E+04  0.46999998093E+01 0.  1.
       -5    1    3    3    0  502 -0.10165442069E+04 -0.74325208110E+03  0.15770827554E+04  0.20181669623E+04  0.46999998093E+01 0. -1.
</event>
<event>
 5   0  0.9418945E-08  0.3705255E+04  0.7818609E-02  0.8066798E-01
       -1   -1    0    0    0  501  0.00000000000E+00  0.00000000000E+00  0.16429928233E+04  0.16429928234E+04  0.50400001928E-02 0.  1.
        1   -1    0    0  501    0  0.00000000000E+00  0.00000000000E+00 -0.20890102241E+04  0.20890102241E+04  0.50400001928E-02 0. -1.
    10030    2    1    2    0    0  0.00000000000E+00  0.00000000000E+00 -0.44601740074E+03  0.37320030474E+04  0.37052550822E+04 0.  0.
        5    1    3    3  502    0 -0.78659104517E+03  0.12432300682E+04  0.91111276300E+03  0.17304609304E+04  0.46999998093E+01 0.  1.
       -5    1    3    3    0  502  0.78659104517E+03 -0.12432300682E+04 -0.13571301637E+04  0.20015421170E+04  0.46999998093E+01 0. -1.
</event>
<event>
 5   0  0.3032442E-07  0.3695861E+04  0.7818609E-02  0.8068880E-01
       -2   -1    0    0    0  501  0.00000000000E+00  0.00000000000E+00  0.14242599526E+04  0.14242599526E+04  0.25500000920E-02 0.  1.
        2   -1    0    0  501    0  0.00000000000E+00  0.00000000000E+00 -0.23976292286E+04  0.23976292286E+04  0.25500000920E-02 0. -1.
    10030    2    1    2    0    0  0.00000000000E+00  0.00000000000E+00 -0.97336927605E+03  0.38218891812E+04  0.36958610858E+04 0.  0.
        3    1    3    3  502    0  0.12537335284E+04 -0.79176247139E+03 -0.16270635720E+04  0.22013794423E+04  0.10100000352E+00 0. -1.
       -3    1    3    3    0  502 -0.12537335284E+04  0.79176247139E+03  0.65369429596E+03  0.16205097389E+04  0.10100000352E+00 0.  1.
</event>
<event>
 5   0  0.9341000E-08  0.3702520E+04  0.7818609E-02  0.8067403E-01
        1   -1    0    0  501    0  0.00000000000E+00  0.00000000000E+00  0.16294132670E+04  0.16294132670E+04  0.50400001928E-02 0.  1.
       -1   -1    0    0    0  501  0.00000000000E+00  0.00000000000E+00 -0.21033119460E+04  0.21033119460E+04  0.50400001928E-02 0. -1.
    10030    2    1    2    0    0  0.00000000000E+00  0.00000000000E+00 -0.47389867900E+03  0.37327252129E+04  0.37025204331E+04 0.  0.
        4    1    3    3  502    0  0.96457480837E+03 -0.14411855200E+04 -0.89011002350E+03  0.19492864671E+04  0.12699999809E+01 0.  1.
       -4    1    3    3    0  502 -0.96457480837E+03  0.14411855200E+04  0.41621134450E+03  0.17834387458E+04  0.12699999809E+01 0. -1.
</event>
<event>
 5   0  0.9341000E-08  0.3612657E+04  0.7818609E-02  0.8087599E-01
       -1   -1    0    0    0  501  0.00000000000E+00  0.00000000000E+00  0.11444086536E+04  0.11444086536E+04  0.50400001928E-02 0.  1.
        1   -1    0    0  501    0  0.00000000000E+00  0.00000000000E+00 -0.28510995804E+04  0.28510995804E+04  0.50400001928E-02 0. -1.
    10030    2    1    2    0    0  0.00000000000E+00  0.00000000000E+00 -0.17066909268E+04  0.39955082340E+04  0.36126572116E+04 0.  0.
        1    1    3    3  502    0 -0.12125546445E+04 -0.28588439293E+03  0.59324451275E+03  0.13798397385E+04  0.50400001928E-02 0.  1.
       -1    1    3    3    0  502  0.12125546445E+04  0.28588439293E+03 -0.22999354395E+04  0.26156684955E+04  0.50400001928E-02 0. -1.
</event>
<event>
 5   0  0.9341000E-08  0.3572933E+04  0.7818609E-02  0.8096720E-01
       -1   -1    0    0    0  501  0.00000000000E+00  0.00000000000E+00  0.17536315351E+04  0.17536315351E+04  0.50400001928E-02 0.  1.
        1   -1    0    0  501    0  0.00000000000E+00  0.00000000000E+00 -0.18199159291E+04  0.18199159291E+04  0.50400001928E-02 0. -1.
    10030    2    1    2    0    0  0.00000000000E+00  0.00000000000E+00 -0.66284394024E+02  0.35735474643E+04  0.35729326692E+04 0.  0.
        3    1    3    3  502    0  0.76127736916E+03  0.13933849446E+04 -0.85206090380E+03  0.18019635486E+04  0.10100000352E+00 0. -1.
       -3    1    3    3    0  502 -0.76127736916E+03 -0.13933849446E+04  0.78577650977E+03  0.17715839156E+04  0.10100000352E+00 0.  1.
</event>
<event>
 5   0  0.9341000E-08  0.3717022E+04  0.7818609E-02  0.8064200E-01
        1   -1    0    0  501    0  0.00000000000E+00  0.00000000000E+00  0.17381222532E+04  0.17381222532E+04  0.50400001928E-02 0. -1.
       -1   -1    0    0    0  501  0.00000000000E+00  0.00000000000E+00 -0.19872383688E+04  0.19872383688E+04  0.50400001928E-02 0.  1.
    10030    2    1    2    0    0  0.00000000000E+00  0.00000000000E+00 -0.24911611555E+03  0.37253606220E+04  0.37170220507E+04 0.  0.
        3    1    3    3  502    0  0.13217029865E+04  0.79848569838E+02  0.11825104642E+04  0.17752762001E+04  0.10100000352E+00 0. -1.
       -3    1    3    3    0  502 -0.13217029865E+04 -0.79848569838E+02 -0.14316265798E+04  0.19500844219E+04  0.10100000352E+00 0.  1.
</event>
<event>
 5   0  0.3008879E-07  0.3694209E+04  0.7818609E-02  0.8069246E-01
        2   -1    0    0  501    0  0.00000000000E+00  0.00000000000E+00  0.11433903270E+04  0.11433903270E+04  0.25500000920E-02 0. -1.
       -2   -1    0    0    0  501  0.00000000000E+00  0.00000000000E+00 -0.29839286749E+04  0.29839286749E+04  0.25500000920E-02 0.  1.
    10030    2    1    2    0    0  0.00000000000E+00  0.00000000000E+00 -0.18405383479E+04  0.41273190019E+04  0.36942090809E+04 0.  0.
        2    1    3    3  502    0  0.14408169865E+04  0.80139301311E+03  0.10205376629E+02  0.16487232939E+04  0.25500000920E-02 0. -1.
       -2    1    3    3    0  502 -0.14408169865E+04 -0.80139301311E+03 -0.18507437245E+04  0.24785957081E+04  0.25500000920E-02 0.  1.
</event>
<event>
 5   0  0.9418945E-08  0.3661715E+04  0.7818609E-02  0.8076500E-01
       -1   -1    0    0    0  501  0.00000000000E+00  0.00000000000E+00  0.21854750566E+04  0.21854750566E+04  0.50400001928E-02 0. -1.
        1   -1    0    0  501    0  0.00000000000E+00  0.00000000000E+00 -0.15337805831E+04  0.15337805831E+04  0.50400001928E-02 0.  1.
    10030    2    1    2    0    0  0.00000000000E+00  0.00000000000E+00  0.65169447349E+03  0.37192556397E+04  0.36617150117E+04 0.  0.
        5    1    3    3  502    0  0.11625673910E+04 -0.26983185700E+03  0.17360612043E+04  0.21067279759E+04  0.46999998093E+01 0. -1.
       -5    1    3    3    0  502 -0.11625673910E+04  0.26983185700E+03 -0.10843667308E+04  0.16125276638E+04  0.46999998093E+01 0.  1.
</event>
<event>
 5   0  0.2913025E-07  0.3701070E+04  0.7818609E-02  0.8067725E-01
        2   -1    0    0  501    0  0.00000000000E+00  0.00000000000E+00  0.14774879990E+04  0.14774879990E+04  0.25500000920E-02 0. -1.
       -2   -1    0    0    0  501  0.00000000000E+00  0.00000000000E+00 -0.23177711645E+04  0.23177711645E+04  0.25500000920E-02 0.  1.
    10030    2    1    2    0    0  0.00000000000E+00  0.00000000000E+00 -0.84028316545E+03  0.37952591635E+04  0.37010696183E+04 0.  0.
        5    1    3    3  502    0 -0.13736992937E+03  0.20780169990E+03  0.14602105674E+04  0.14813132806E+04  0.46999998093E+01 0. -1.
       -5    1    3    3    0  502  0.13736992937E+03 -0.20780169990E+03 -0.23004937329E+04  0.23139458829E+04  0.46999998093E+01 0.  1.
</event>
<event>
 5   0  0.9646615E-08  0.3696355E+04  0.7818609E-02  0.8068770E-01
       -1   -1    0    0    0  501  0.00000000000E+00  0.00000000000E+00  0.12071597774E+04  0.12071597774E+04  0.50400001928E-02 0. -1.
        1   -1    0    0  501    0  0.00000000000E+00  0.00000000000E+00 -0.28295845340E+04  0.28295845340E+04  0.50400001928E-02 0.  1.
    10030    2    1    2    0    0  0.00000000000E+00  0.00000000000E+00 -0.16224247566E+04  0.40367443114E+04  0.36963553055E+04 0.  0.
        2    1    3    3  502    0  0.68612524714E+03  0.55628158580E+03  0.96172188203E+03  0.13058047464E+04  0.25500000920E-02 0. -1.
       -2    1    3    3    0  502 -0.68612524714E+03 -0.55628158580E+03 -0.25841466386E+04  0.27309395650E+04  0.25500000920E-02 0.  1.
</event>
<event>
 5   0  0.9646615E-08  0.3718661E+04  0.7818609E-02  0.8063839E-01
        1   -1    0    0  501    0  0.00000000000E+00  0.00000000000E+00  0.11731409207E+04  0.11731409207E+04  0.50400001928E-02 0.  1.
       -1   -1    0    0    0  501  0.00000000000E+00  0.00000000000E+00 -0.29468839982E+04  0.29468839982E+04  0.50400001928E-02 0. -1.
    10030    2    1    2    0    0  0.00000000000E+00  0.00000000000E+00 -0.17737430776E+04  0.41200249189E+04  0.37186611606E+04 0.  0.
        2    1    3    3  502    0 -0.51838437088E+02 -0.78598223193E+03 -0.27528923713E+04  0.28633671962E+04  0.25500000920E-02 0. -1.
       -2    1    3    3    0  502  0.51838437088E+02  0.78598223193E+03  0.97914929375E+03  0.12566577227E+04  0.25500000920E-02 0.  1.
</event>
<event>
 5   0  0.9341000E-08  0.3711563E+04  0.7818609E-02  0.8065404E-01
       -1   -1    0    0    0  501  0.00000000000E+00  0.00000000000E+00  0.17658150120E+04  0.17658150120E+04  0.50400001928E-02 0. -1.
        1   -1    0    0  501    0  0.00000000000E+00  0.00000000000E+00 -0.19503315051E+04  0.19503315051E+04  0.50400001928E-02 0.  1.
    10030    2    1    2    0    0  0.00000000000E+00  0.00000000000E+00 -0.18451649307E+03  0.37161465171E+04  0.37115628245E+04 0.  0.
        1    1    3    3  502    0  0.13827553838E+04 -0.88177144273E+03 -0.96188792807E+03  0.19012526699E+04  0.50400001928E-02 0.  1.
       -1    1    3    3    0  502 -0.13827553838E+04  0.88177144273E+03  0.77737143500E+03  0.18148938472E+04  0.50400001928E-02 0. -1.
</event>
<event>
 5   0  0.9646615E-08  0.3675481E+04  0.7818609E-02  0.8073417E-01
        1   -1    0    0  501    0  0.00000000000E+00  0.00000000000E+00  0.13751371714E+04  0.13751371714E+04  0.50400001928E-02 0. -1.
       -1   -1    0    0    0  501  0.00000000000E+00  0.00000000000E+00 -0.24559654932E+04  0.24559654932E+04  0.50400001928E-02 0.  1.
    10030    2    1    2    0    0  0.00000000000E+00  0.00000000000E+00 -0.10808283218E+04  0.38311026646E+04  0.36754806170E+04 0.  0.
        2    1    3    3  502    0 -0.12894033020E+03  0.15556612334E+04  0.47048532523E+03  0.16303569925E+04  0.25500000920E-02 0. -1.
       -2    1    3    3    0  502  0.12894033020E+03 -0.15556612334E+04 -0.15513136470E+04  0.22007456721E+04  0.25500000920E-02 0.  1.
</event>
<event>
 5   0  0.2996969E-07  0.3721228E+04  0.7818609E-02  0.8063274E-01
       -2   -1    0    0    0  501  0.00000000000E+00  0.00000000000E+00  0.10380593072E+04  0.10380593072E+04  0.25500000920E-02 0. -1.
        2   -1    0    0  501    0  0.00000000000E+00  0.00000000000E+00 -0.33349574383E+04  0.33349574383E+04  0.25500000920E-02 0.  1.
    10030    2    1    2    0    0  0.00000000000E+00  0.00000000000E+00 -0.22968981311E+04  0.43730167454E+04  0.37212275436E+04 0.  0.
        1    1    3    3  502    0 -0.48185628310E+03  0.16735397195E+04 -0.37877864071E+03  0.17822440711E+04  0.50400001928E-02 0. -1.
       -1    1    3    3    0  502  0.48185628310E+03 -0.16735397195E+04 -0.19181194904E+04  0.25907726743E+04  0.50400001928E-02 0.  1.
</event>
<event>
 5   0  0.2996969E-07  0.3485955E+04  0.7818609E-02  0.8117126E-01
       -2   -1    0    0    0  501  0.00000000000E+00  0.00000000000E+00  0.13767381118E+04  0.13767381118E+04  0.25500000920E-02 0.  1.
        2   -1    0    0  501    0  0.00000000000E+00  0.00000000000E+00 -0.22066442564E+04  0.22066442564E+04  0.25500000920E-02 0. -1.
    10030    2    1    2    0    0  0.00000000000E+00  0.00000000000E+00 -0.82990614462E+03  0.35833823682E+04  0.34859553910E+04 0.  0.
        1    1    3    3  502    0  0.24024681142E+03 -0.17000753771E+03  0.13510103186E+04  0.13826966313E+04  0.50400001928E-02 0.  1.
       -1    1    3    3    0  502 -0.24024681142E+03  0.17000753771E+03 -0.21809164632E+04  0.22006857369E+04  0.50400001928E-02 0. -1.
</event>
<event>
 5   0  0.9341000E-08  0.3653301E+04  0.7818609E-02  0.8078390E-01
        1   -1    0    0  501    0  0.00000000000E+00  0.00000000000E+00  0.19792585699E+04  0.19792585699E+04  0.50400001928E-02 0. -1.
       -1   -1    0    0    0  501  0.00000000000E+00  0.00000000000E+00 -0.16858093386E+04  0.16858093386E+04  0.50400001928E-02 0.  1.
    10030    2    1    2    0    0  0.00000000000E+00  0.00000000000E+00  0.29344923131E+03  0.36650679085E+04  0.36533012909E+04 0.  0.
        4    1    3    3  502    0 -0.84449890197E+03  0.31090237585E+03 -0.14479901867E+04  0.17048506904E+04  0.12699999809E+01 0.  1.
       -4    1    3    3    0  502  0.84449890197E+03 -0.31090237585E+03  0.17414394180E+04  0.19602172181E+04  0.12699999809E+01 0. -1.
</event>
<event>
 5   0  0.2913025E-07  0.3692760E+04  0.7818609E-02  0.8069568E-01
        2   -1    0    0  501    0  0.00000000000E+00  0.00000000000E+00  0.27388260920E+04  0.27388260920E+04  0.25500000920E-02 0. -1.
       -2   -1    0    0    0  501  0.00000000000E+00  0.00000000000E+00 -0.12447373553E+04  0.12447373553E+04  0.25500000920E-02 0.  1.
    10030    2    1    2    0    0  0.00000000000E+00  0.00000000000E+00  0.14940887367E+04  0.39835634473E+04  0.36927600228E+04 0.  0.
        5    1    3    3  502    0  0.72365515325E+03 -0.76062871122E+03  0.23854886293E+04  0.26063021520E+04  0.46999998093E+01 0. -1.
       -5    1    3    3    0  502 -0.72365515325E+03  0.76062871122E+03 -0.89139989260E+03  0.13772612954E+04  0.46999998093E+01 0.  1.
</event>
<event>
 5   0  0.9418945E-08  0.3726776E+04  0.7818609E-02  0.8062054E-01
       -1   -1    0    0    0  501  0.00000000000E+00  0.00000000000E+00  0.26951272228E+04  0.26951272228E+04  0.50400001928E-02 0. -1.
        1   -1    0    0  501    0  0.00000000000E+00  0.00000000000E+00 -0.12883306931E+04  0.12883306931E+04  0.50400001928E-02 0.  1.
    10030    2    1    2    0    0  0.00000000000E+00  0.00000000000E+00  0.14067965297E+04  0.39834579159E+04  0.37267761526E+04 0.  0.
        5    1    3    3  502    0  0.90199961086E+03 -0.41970451123E+03 -0.98069492021E+03  0.13969752293E+04  0.46999998093E+01 0.  1.
       -5    1    3    3    0  502 -0.90199961086E+03  0.41970451123E+03  0.23874914499E+04  0.25864826866E+04  0.46999998093E+01 0. -1.
</event>
<event>
 5   0  0.9646615E-08  0.3704197E+04  0.7818609E-02  0.8067032E-01
       -1   -1    0    0    0  501  0.00000000000E+00  0.00000000000E+00  0.27539767843E+04  0.27539767843E+04  0.50400001928E-02 0.  1.
        1   -1    0    0  501    0  0.00000000000E+00  0.00000000000E+00 -0.12455690250E+04  0.12455690250E+04  0.50400001928E-02 0. -1.
    10030    2    1    2    0    0  0.00000000000E+00  0.00000000000E+00  0.15084077593E+04  0.39995458092E+04  0.37041966351E+04 0.  0.
        2    1    3    3  502    0  0.69648756128E+03  0.12144472469E+04  0.20634410069E+04  0.24935448317E+04  0.25500000920E-02 0.  1.
       -2    1    3    3    0  502 -0.69648756128E+03 -0.12144472469E+04 -0.55503324763E+03  0.15060009776E+04  0.25500000920E-02 0. -1.
</event>
<event>
 5   0  0.2913025E-07  0.3697006E+04  0.7818609E-02  0.8068626E-01
       -2   -1    0    0    0  501  0.00000000000E+00  0.00000000000E+00  0.18173514681E+04  0.18173514682E+04  0.25500000920E-02 0.  1.
        2   -1    0    0  501    0  0.00000000000E+00  0.00000000000E+00 -0.18801885376E+04  0.18801885376E+04  0.25500000920E-02 0. -1.
    10030    2    1    2    0    0  0.00000000000E+00  0.00000000000E+00 -0.62837069402E+02  0.36975400057E+04  0.36970060314E+04 0.  0.
        5    1    3    3  502    0 -0.17649157494E+04  0.39407112623E+03  0.35167941665E+03  0.18422595249E+04  0.46999998093E+01 0. -1.
       -5    1    3    3    0  502  0.17649157494E+04 -0.39407112623E+03 -0.41451648605E+03  0.18552804808E+04  0.46999998093E+01 0.  1.
</event>
<event>
 5   0  0.2996969E-07  0.3755393E+04  0.7818609E-02  0.8055796E-01
        2   -1    0    0  501    0  0.00000000000E+00  0.00000000000E+00  0.17897051806E+04  0.17897051806E+04  0.25500000920E-02 0. -1.
       -2   -1    0    0    0  501  0.00000000000E+00  0.00000000000E+00 -0.19700139090E+04  0.19700139090E+04  0.25500000920E-02 0.  1.
    10030    2    1    2    0    0  0.00000000000E+00  0.00000000000E+00 -0.18030872846E+03  0.37597190896E+04  0.37553929748E+04 0.  0.
        1    1    3    3  502    0  0.10058234114E+04  0.72344964844E+03 -0.15026957066E+04  0.19476022477E+04  0.50400001928E-02 0.  1.
       -1    1    3    3    0  502 -0.10058234114E+04 -0.72344964844E+03  0.13223869781E+04  0.18121168419E+04  0.50400001928E-02 0. -1.
</event>
<event>
 5   0  0.9341000E-08  0.3689274E+04  0.7818609E-02  0.8070343E-01
        1   -1    0    0  501    0  0.00000000000E+00  0.00000000000E+00  0.18893184355E+04  0.18893184356E+04  0.50400001928E-02 0. -1.
       -1   -1    0    0    0  501  0.00000000000E+00  0.00000000000E+00 -0.18010125784E+04  0.18010125784E+04  0.50400001928E-02 0.  1.
    10030    2    1    2    0    0  0.00000000000E+00  0.00000000000E+00  0.88305857178E+02  0.36903310139E+04  0.36892743281E+04 0.  0.
        4    1    3    3  502    0  0.13908386017E+04 -0.99029026866E+03 -0.65431479932E+03  0.18284518866E+04  0.12699999809E+01 0.  1.
       -4    1    3    3    0  502 -0.13908386017E+04  0.99029026866E+03  0.74262065650E+03  0.18618791273E+04  0.12699999809E+01 0. -1.
</event>
<event>
 5   0  0.9341000E-08  0.3453959E+04  0.7818609E-02  0.8124789E-01
        3   -1    0    0  501    0  0.00000000000E+00  0.00000000000E+00  0.11498183541E+04  0.11498183585E+04  0.10100000352E+00 0.  1.
       -3   -1    0    0    0  501  0.00000000000E+00  0.00000000000E+00 -0.25938516460E+04  0.25938516480E+04  0.10100000352E+00 0. -1.
    10030    2    1    2    0    0  0.00000000000E+00  0.00000000000E+00 -0.14440332919E+04  0.37436700065E+04  0.34539590283E+04 0.  0.
        5    1    3    3  502    0 -0.13554639176E+04  0.70518569422E+03 -0.15944319191E+04  0.22083488243E+04  0.46999998093E+01 0. -1.
       -5    1    3    3    0  502  0.13554639176E+04 -0.70518569422E+03  0.15039862712E+03  0.15353211821E+04  0.46999998093E+01 0.  1.
</event>
<event>
 5   0  0.9418945E-08  0.3745774E+04  0.7818609E-02  0.8057893E-01
        1   -1    0    0  501    0  0.00000000000E+00  0.00000000000E+00  0.22302630768E+04  0.22302630768E+04  0.50400001928E-02 0. -1.
       -1   -1    0    0    0  501  0.00000000000E+00  0.00000000000E+00 -0.15727763331E+04  0.15727763331E+04  0.50400001928E-02 0.  1.
    10030    2    1    2    0    0  0.00000000000E+00  0.00000000000E+00  0.65748674366E+03  0.38030394099E+04  0.37457736097E+04 0.  0.
        5    1    3    3  502    0  0.18686013566E+04 -0.12595064396E+03  0.31637938628E+03  0.18993821629E+04  0.46999998093E+01 0. -1.
       -5    1    3    3    0  502 -0.18686013566E+04  0.12595064396E+03  0.34110735738E+03  0.19036572470E+04  0.46999998093E+01 0.  1.
</event>
<event>
 5   0  0.9341000E-08  0.3680012E+04  0.7818609E-02  0.8072406E-01
       -1   -1    0    0    0  501  0.00000000000E+00  0.00000000000E+00  0.17432070916E+04  0.17432070916E+04  0.50400001928E-02 0. -1.
        1   -1    0    0  501    0  0.00000000000E+00  0.00000000000E+00 -0.19421801295E+04  0.19421801295E+04  0.50400001928E-02 0.  1.
    10030    2    1    2    0    0  0.00000000000E+00  0.00000000000E+00 -0.19897303793E+03  0.36853872211E+04  0.36800120515E+04 0.  0.
        3    1    3    3  502    0  0.12907399949E+04 -0.69231925537E+03 -0.12148036960E+04  0.19029092768E+04  0.10100000352E+00 0.  1.
       -3    1    3    3    0  502 -0.12907399949E+04  0.69231925537E+03  0.10158306580E+04  0.17824779443E+04  0.10100000352E+00 0. -1.
</event>
<event>
 5   0  0.9341000E-08  0.3701247E+04  0.7818609E-02  0.8067685E-01
       -3   -1    0    0    0  501  0.00000000000E+00  0.00000000000E+00  0.14316701330E+04  0.14316701365E+04  0.10100000352E+00 0.  1.
        3   -1    0    0  501    0  0.00000000000E+00  0.00000000000E+00 -0.23921768194E+04  0.23921768216E+04  0.10100000352E+00 0. -1.
    10030    2    1    2    0    0  0.00000000000E+00  0.00000000000E+00 -0.96050668645E+03  0.38238469581E+04  0.37012474200E+04 0.  0.
        2    1    3    3  502    0 -0.86245088358E+03  0.78460964289E+03  0.10044913053E+04  0.15389725796E+04  0.25500000920E-02 0.  1.
       -2    1    3    3    0  502  0.86245088358E+03 -0.78460964289E+03 -0.19649979917E+04  0.22848743786E+04  0.25500000920E-02 0. -1.
</event>
<event>
 5   0  0.9341000E-08  0.3696161E+04  0.7818609E-02  0.8068813E-01
       -1   -1    0    0    0  501  0.00000000000E+00  0.00000000000E+00  0.29704897744E+04  0.29704897744E+04  0.50400001928E-02 0.  1.
        1   -1    0    0  501    0  0.00000000000E+00  0.00000000000E+00 -0.11497772829E+04  0.11497772829E+04  0.50400001928E-02 0. -1.
    10030    2    1    2    0    0  0.00000000000E+00  0.00000000000E+00  0.18207124915E+04  0.41202670573E+04  0.36961610688E+04 0.  0.
        4    1    3    3  502    0 -0.17486763739E+04 -0.53017997649E+03  0.60215433258E+03  0.19239416106E+04  0.12699999809E+01 0.  1.
       -4    1    3    3    0  502  0.17486763739E+04  0.53017997649E+03  0.12185581589E+04  0.21963254466E+04  0.12699999809E+01 0. -1.
</event>
<event>
 5   0  0.9418945E-08  0.3750422E+04  0.7818609E-02  0.8056879E-01
       -1   -1    0    0    0  501  0.00000000000E+00  0.00000000000E+00  0.24821933008E+04  0.24821933008E+04  0.50400001928E-02 0.  1.
        1   -1    0    0  501    0  0.00000000000E+00  0.00000000000E+00 -0.14166569853E+04  0.14166569853E+04  0.50400001928E-02 0. -1.
    10030    2    1    2    0    0  0.00000000000E+00  0.00000000000E+00  0.10655363155E+04  0.38988502861E+04  0.37504220981E+04 0.  0.
        5    1    3    3  502    0  0.29471395884E+03 -0.18028853011E+02 -0.13923333874E+04  0.14233045032E+04  0.46999998093E+01 0. -1.
       -5    1    3    3    0  502 -0.29471395884E+03  0.18028853011E+02  0.24578697029E+04  0.24755457830E+04  0.46999998093E+01 0.  1.
</event>
<event>
 5   0  0.2897133E-07  0.3704955E+04  0.7818609E-02  0.8066865E-01
       -2   -1    0    0    0  501  0.00000000000E+00  0.00000000000E+00  0.10158022017E+04  0.10158022017E+04  0.25500000920E-02 0.  1.
        2   -1    0    0  501    0  0.00000000000E+00  0.00000000000E+00 -0.33782891401E+04  0.33782891401E+04  0.25500000920E-02 0. -1.
    10030    2    1    2    0    0  0.00000000000E+00  0.00000000000E+00 -0.23624869385E+04  0.43940913418E+04  0.37049553554E+04 0.  0.
        4    1    3    3  502    0 -0.94956824762E+03  0.14401042359E+04 -0.19822061197E+04  0.26276839196E+04  0.12699999809E+01 0.  1.
       -4    1    3    3    0  502  0.94956824762E+03 -0.14401042359E+04 -0.38028081872E+03  0.17664074222E+04  0.12699999809E+01 0. -1.
</event>
<event>
 5   0  0.9418945E-08  0.3690407E+04  0.7818609E-02  0.8070091E-01
       -1   -1    0    0    0  501  0.00000000000E+00  0.00000000000E+00  0.13860798546E+04  0.13860798546E+04  0.50400001928E-02 0. -1.
        1   -1    0    0  501    0  0.00000000000E+00  0.00000000000E+00 -0.24564061811E+04  0.24564061811E+04  0.50400001928E-02 0.  1.
    10030    2    1    2    0    0  0.00000000000E+00  0.00000000000E+00 -0.10703263265E+04  0.38424860357E+04  0.36904065480E+04 0.  0.
        5    1    3    3  502    0 -0.12329426422E+04  0.97570995572E+03 -0.15406693717E+04  0.22013272540E+04  0.46999998093E+01 0.  1.
       -5    1    3    3    0  502  0.12329426422E+04 -0.97570995572E+03  0.47034304522E+03  0.16411587817E+04  0.46999998093E+01 0. -1.
</event>
<event>
 5   0  0.3032442E-07  0.3703621E+04  0.7818609E-02  0.8067160E-01
       -2   -1    0    0    0  501  0.00000000000E+00  0.00000000000E+00  0.21605789666E+04  0.21605789666E+04  0.25500000920E-02 0. -1.
        2   -1    0    0  501    0  0.00000000000E+00  0.00000000000E+00 -0.15871682480E+04  0.15871682480E+04  0.25500000920E-02 0.  1.
    10030    2    1    2    0    0  0.00000000000E+00  0.00000000000E+00  0.57341071857E+03  0.37477472146E+04  0.37036211108E+04 0.  0.
        3    1    3    3  502    0  0.90618410709E+03  0.41776134315E+03 -0.12918511791E+04  0.16323521847E+04  0.10100000352E+00 0.  1.
       -3    1    3    3    0  502 -0.90618410709E+03 -0.41776134315E+03  0.18652618976E+04  0.21153950300E+04  0.10100000352E+00 0. -1.
</event>
<event>
 5   0  0.3032442E-07  0.3679888E+04  0.7818609E-02  0.8072434E-01
        2   -1    0    0  501    0  0.00000000000E+00  0.00000000000E+00  0.17541046608E+04  0.17541046608E+04  0.25500000920E-02 0.  1.
       -2   -1    0    0    0  501  0.00000000000E+00  0.00000000000E+00 -0.19299835270E+04  0.19299835270E+04  0.25500000920E-02 0. -1.
    10030    2    1    2    0    0  0.00000000000E+00  0.00000000000E+00 -0.17587886614E+03  0.36840881878E+04  0.36798875527E+04 0.  0.
        3    1    3    3  502    0  0.14562044587E+04 -0.11161096893E+04  0.50641213030E+02  0.18354282352E+04  0.10100000352E+00 0. -1.
       -3    1    3    3    0  502 -0.14562044587E+04  0.11161096893E+04 -0.22652007917E+03  0.18486599526E+04  0.10100000352E+00 0.  1.
</event>
<event>
 5   0  0.9646615E-08  0.3724898E+04  0.7818609E-02  0.8062466E-01
       -1   -1    0    0    0  501  0.00000000000E+00  0.00000000000E+00  0.15564634780E+04  0.15564634780E+04  0.50400001928E-02 0.  1.
        1   -1    0    0  501    0  0.00000000000E+00  0.00000000000E+00 -0.22285882402E+04  0.22285882402E+04  0.50400001928E-02 0. -1.
    10030    2    1    2    0    0  0.00000000000E+00  0.00000000000E+00 -0.67212476219E+03  0.37850517182E+04  0.37248979602E+04 0.  0.
        2    1    3    3  502    0  0.10026776489E+04 -0.60838255857E+03 -0.18062248508E+04  0.21535877082E+04  0.25500000920E-02 0. -1.
       -2    1    3    3    0  502 -0.10026776489E+04  0.60838255857E+03  0.11341000886E+04  0.16314640101E+04  0.25500000920E-02 0.  1.
</event>
<event>
 5   0  0.2913025E-07  0.3709417E+04  0.7818609E-02  0.8065878E-01
        2   -1    0    0  501    0  0.00000000000E+00  0.00000000000E+00  0.21678137345E+04  0.21678137345E+04  0.25500000920E-02 0. -1.
       -2   -1    0    0    0  501  0.00000000000E+00  0.00000000000E+00 -0.15868261068E+04  0.15868261068E+04  0.25500000920E-02 0.  1.
    10030    2    1    2    0    0  0.00000000000E+00  0.00000000000E+00  0.58098762776E+03  0.37546398413E+04  0.37094168968E+04 0.  0.
        5    1    3    3  502    0 -0.98930570784E+03 -0.77044299921E+03  0.16737610766E+04  0.20913647291E+04  0.46999998093E+01 0. -1.
       -5    1    3    3    0  502  0.98930570784E+03  0.77044299921E+03 -0.10927734488E+04  0.16632751122E+04  0.46999998093E+01 0.  1.
</event>
<event>
 5   0  0.9418945E-08  0.3684824E+04  0.7818609E-02  0.8071333E-01
       -1   -1    0    0    0  501  0.00000000000E+00  0.00000000000E+00  0.12858268943E+04  0.12858268943E+04  0.50400001928E-02 0.  1.
        1   -1    0    0  501    0  0.00000000000E+00  0.00000000000E+00 -0.26399210655E+04  0.26399210655E+04  0.50400001928E-02 0. -1.
    10030    2    1    2    0    0  0.00000000000E+00  0.00000000000E+00 -0.13540941712E+04  0.39257479598E+04  0.36848237434E+04 0.  0.
        5    1    3    3  502    0 -0.18337335670E+04  0.17015803423E+03 -0.61940934626E+03  0.19429932011E+04  0.46999998093E+01 0. -1.
       -5    1    3    3    0  502  0.18337335670E+04 -0.17015803423E+03 -0.73468482492E+03  0.19827547587E+04  0.46999998093E+01 0.  1.
</event>
<event>
 5   0  0.9646615E-08  0.3678576E+04  0.7818609E-02  0.8072726E-01
       -1   -1    0    0    0  501  0.00000000000E+00  0.00000000000E+00  0.14569976995E+04  0.14569976995E+04  0.50400001928E-02 0. -1.
        1   -1    0    0  501    0  0.00000000000E+00  0.00000000000E+00 -0.23218841846E+04  0.23218841846E+04  0.50400001928E-02 0.  1.
    10030    2    1    2    0    0  0.00000000000E+00  0.00000000000E+00 -0.86488648506E+03  0.37788818841E+04  0.36785757654E+04 0.  0.
        2    1    3    3  502    0 -0.14720332969E+02  0.17303425237E+04 -0.10728834352E+04  0.20360208257E+04  0.25500000920E-02 0.  1.
       -2    1    3    3    0  502  0.14720332969E+02 -0.17303425237E+04  0.20799695010E+03  0.17428610583E+04  0.25500000920E-02 0. -1.
</event>
<event>
 5   0  0.2913025E-07  0.3432425E+04  0.7818609E-02  0.8129994E-01
        2   -1    0    0  501    0  0.00000000000E+00  0.00000000000E+00  0.19731437672E+04  0.19731437672E+04  0.25500000920E-02 0. -1.
       -2   -1    0    0    0  501  0.00000000000E+00  0.00000000000E+00 -0.14927374869E+04  0.14927374869E+04  0.25500000920E-02 0.  1.
    10030    2    1    2    0    0  0.00000000000E+00  0.00000000000E+00  0.48040628030E+03  0.34658812541E+04  0.34324251883E+04 0.  0.
        5    1    3    3  502    0  0.54997954995E+03  0.18470976805E+03  0.18711145058E+04  0.19590014771E+04  0.46999998093E+01 0. -1.
       -5    1    3    3    0  502 -0.54997954995E+03 -0.18470976805E+03 -0.13907082255E+04  0.15068797769E+04  0.46999998093E+01 0.  1.
</event>
<event>
 5   0  0.2996969E-07  0.3681755E+04  0.7818609E-02  0.8072017E-01
        2   -1    0    0  501    0  0.00000000000E+00  0.00000000000E+00  0.18720545547E+04  0.18720545547E+04  0.25500000920E-02 0. -1.
       -2   -1    0    0    0  501  0.00000000000E+00  0.00000000000E+00 -0.18102198350E+04  0.18102198350E+04  0.25500000920E-02 0.  1.
    10030    2    1    2    0    0  0.00000000000E+00  0.00000000000E+00  0.61834719693E+02  0.36822743897E+04  0.36817551723E+04 0.  0.
        1    1    3    3  502    0  0.29444254169E+03 -0.84714193638E+03 -0.15769425279E+04  0.18141371522E+04  0.50400001928E-02 0.  1.
       -1    1    3    3    0  502 -0.29444254169E+03  0.84714193638E+03  0.16387772476E+04  0.18681372375E+04  0.50400001928E-02 0. -1.
</event>
<event>
 5   0  0.9646615E-08  0.3697132E+04  0.7818609E-02  0.8068598E-01
        1   -1    0    0  501    0  0.00000000000E+00  0.00000000000E+00  0.28988501140E+04  0.28988501140E+04  0.50400001928E-02 0.  1.
       -1   -1    0    0    0  501  0.00000000000E+00  0.00000000000E+00 -0.11788108005E+04  0.11788108005E+04  0.50400001928E-02 0. -1.
    10030    2    1    2    0    0  0.00000000000E+00  0.00000000000E+00  0.17200393135E+04  0.40776609146E+04  0.36971317659E+04 0.  0.
        2    1    3    3  502    0  0.75550481527E+03  0.96395072955E+03 -0.66712689177E+03  0.13946493554E+04  0.25500000920E-02 0. -1.
       -2    1    3    3    0  502 -0.75550481527E+03 -0.96395072955E+03  0.23871662053E+04  0.26830115591E+04  0.25500000920E-02 0.  1.
</event>
<event>
 5   0  0.2996969E-07  0.3385908E+04  0.7818609E-02  0.8141374E-01
        2   -1    0    0  501    0  0.00000000000E+00  0.00000000000E+00  0.20135343770E+04  0.20135343770E+04  0.25500000920E-02 0.  1.
       -2   -1    0    0    0  501  0.00000000000E+00  0.00000000000E+00 -0.14234143689E+04  0.14234143689E+04  0.25500000920E-02 0. -1.
    10030    2    1    2    0    0  0.00000000000E+00  0.00000000000E+00  0.59012000804E+03  0.34369487459E+04  0.33859083062E+04 0.  0.
        1    1    3    3  502    0  0.74234197447E+03  0.41762635176E+03  0.17801975483E+04  0.19734707213E+04  0.50400001928E-02 0.  1.
       -1    1    3    3    0  502 -0.74234197447E+03 -0.41762635176E+03 -0.11900775402E+04  0.14634780246E+04  0.50400001928E-02 0. -1.
</event>
<event>
 5   0  0.9341000E-08  0.4118248E+04  0.7818609E-02  0.7981108E-01
        1   -1    0    0  501    0  0.00000000000E+00  0.00000000000E+00  0.25427777485E+04  0.25427777485E+04  0.50400001928E-02 0. -1.
       -1   -1    0    0    0  501  0.00000000000E+00  0.00000000000E+00 -0.16674643903E+04  0.16674643903E+04  0.50400001928E-02 0.  1.
    10030    2    1    2    0    0  0.00000000000E+00  0.00000000000E+00  0.87531335825E+03  0.42102421388E+04  0.41182478546E+04 0.  0.
        4    1    3    3  502    0 -0.18532272004E+04  0.81471037686E+03  0.52700957314E+02  0.20250884075E+04  0.12699999809E+01 0.  1.
       -4    1    3    3    0  502  0.18532272004E+04 -0.81471037686E+03  0.82261240094E+03  0.21851537313E+04  0.12699999809E+01 0. -1.
</event>
<event>
 5   0  0.3032442E-07  0.3646254E+04  0.7818609E-02  0.8079978E-01
       -2   -1    0    0    0  501  0.00000000000E+00  0.00000000000E+00  0.14739750802E+04  0.14739750802E+04  0.25500000920E-02 0.  1.
        2   -1    0    0  501    0  0.00000000000E+00  0.00000000000E+00 -0.22549853783E+04  0.22549853783E+04  0.25500000920E-02 0. -1.
    10030    2    1    2    0    0  0.00000000000E+00  0.00000000000E+00 -0.78101029812E+03  0.37289604585E+04  0.36462541074E+04 0.  0.
        3    1    3    3  502    0  0.59976502446E+03 -0.14210210627E+04  0.60353666240E+03  0.16562836286E+04  0.10100000352E+00 0.  1.
       -3    1    3    3    0  502 -0.59976502446E+03  0.14210210627E+04 -0.13845469605E+04  0.20726768299E+04  0.10100000352E+00 0. -1.
</event>
<event>
 5   0  0.9341000E-08  0.3667117E+04  0.7818609E-02  0.8075288E-01
        1   -1    0    0  501    0  0.00000000000E+00  0.00000000000E+00  0.24031110390E+04  0.24031110390E+04  0.50400001928E-02 0. -1.
       -1   -1    0    0    0  501  0.00000000000E+00  0.00000000000E+00 -0.13989937093E+04  0.13989937093E+04  0.50400001928E-02 0.  1.
    10030    2    1    2    0    0  0.00000000000E+00  0.00000000000E+00  0.10041173297E+04  0.38021047483E+04  0.36671172472E+04 0.  0.
        4    1    3    3  502    0  0.24123486738E+03 -0.33400731472E+03  0.23544937573E+04  0.23902714519E+04  0.12699999809E+01 0. -1.
       -4    1    3    3    0  502 -0.24123486738E+03  0.33400731472E+03 -0.13503764276E+04  0.14118332964E+04  0.12699999809E+01 0.  1.
</event>
<event>
 5   0  0.3032442E-07  0.3758776E+04  0.7818609E-02  0.8055060E-01
        2   -1    0    0  501    0  0.00000000000E+00  0.00000000000E+00  0.16520816489E+04  0.16520816489E+04  0.25500000920E-02 0. -1.
       -2   -1    0    0    0  501  0.00000000000E+00  0.00000000000E+00 -0.21379684389E+04  0.21379684389E+04  0.25500000920E-02 0.  1.
    10030    2    1    2    0    0  0.00000000000E+00  0.00000000000E+00 -0.48588678997E+03  0.37900500878E+04  0.37587755580E+04 0.  0.
        3    1    3    3  502    0 -0.16585883099E+03 -0.11149091193E+04 -0.17593067364E+04  0.20894237720E+04  0.10100000352E+00 0.  1.
       -3    1    3    3    0  502  0.16585883099E+03  0.11149091193E+04  0.12734199464E+04  0.17006263159E+04  0.10100000352E+00 0. -1.
</event>
<event>
 5   0  0.2897133E-07  0.3705894E+04  0.7818609E-02  0.8066657E-01
        2   -1    0    0  501    0  0.00000000000E+00  0.00000000000E+00  0.13693748883E+04  0.13693748883E+04  0.25500000920E-02 0. -1.
       -2   -1    0    0    0  501  0.00000000000E+00  0.00000000000E+00 -0.25072844434E+04  0.25072844434E+04  0.25500000920E-02 0.  1.
    10030    2    1    2    0    0  0.00000000000E+00  0.00000000000E+00 -0.11379095552E+04  0.38766593317E+04  0.37058938758E+04 0.  0.
        4    1    3    3  502    0  0.57851348212E+03 -0.76485191490E+03  0.10895791407E+04  0.14515028823E+04  0.12699999809E+01 0. -1.
       -4    1    3    3    0  502 -0.57851348212E+03  0.76485191490E+03 -0.22274886959E+04  0.24251564494E+04  0.12699999809E+01 0.  1.
</event>
<event>
 5   0  0.3008879E-07  0.3707405E+04  0.7818609E-02  0.8066323E-01
        2   -1    0    0  501    0  0.00000000000E+00  0.00000000000E+00  0.13103608427E+04  0.13103608427E+04  0.25500000920E-02 0.  1.
       -2   -1    0    0    0  501  0.00000000000E+00  0.00000000000E+00 -0.26223410878E+04  0.26223410878E+04  0.25500000920E-02 0. -1.
    10030    2    1    2    0    0  0.00000000000E+00  0.00000000000E+00 -0.13119802452E+04  0.39327019305E+04  0.37074050643E+04 0.  0.
        2    1    3    3  502    0  0.16577302376E+03 -0.42577591875E+03  0.12496924786E+04  0.13306002853E+04  0.25500000920E-02 0.  1.
       -2    1    3    3    0  502 -0.16577302376E+03  0.42577591875E+03 -0.25616727237E+04  0.26021016452E+04  0.25500000920E-02 0. -1.
</event>
<event>
 5   0  0.3008879E-07  0.3695625E+04  0.7818609E-02  0.8068932E-01
        2   -1    0    0  501    0  0.00000000000E+00  0.00000000000E+00  0.96395501674E+03  0.96395501674E+03  0.25500000920E-02 0.  1.
       -2   -1    0    0    0  501  0.00000000000E+00  0.00000000000E+00 -0.35420855859E+04  0.35420855859E+04  0.25500000920E-02 0. -1.
    10030    2    1    2    0    0  0.00000000000E+00  0.00000000000E+00 -0.25781305692E+04  0.45060406027E+04  0.36956250731E+04 0.  0.
        2    1    3    3  502    0 -0.11564982103E+04  0.14007093959E+04 -0.87569837927E+03  0.20165124780E+04  0.25500000920E-02 0.  1.
       -2    1    3    3    0  502  0.11564982103E+04 -0.14007093959E+04 -0.17024321899E+04  0.24895281247E+04  0.25500000920E-02 0. -1.
</event>
<event>
 5   0  0.9341000E-08  0.3716730E+04  0.7818609E-02  0.8064264E-01
        1   -1    0    0  501    0  0.00000000000E+00  0.00000000000E+00  0.15332107380E+04  0.15332107380E+04  0.50400001928E-02 0. -1.
       -1   -1    0    0    0  501  0.00000000000E+00  0.00000000000E+00 -0.22524763648E+04  0.22524763648E+04  0.50400001928E-02 0.  1.
    10030    2    1    2    0    0  0.00000000000E+00  0.00000000000E+00 -0.71926562685E+03  0.37856871028E+04  0.37167302564E+04 0.  0.
        4    1    3    3  502    0 -0.49426480189E+03  0.56565282487E+03  0.13716853052E+04  0.15638999335E+04  0.12699999809E+01 0. -1.
       -4    1    3    3    0  502  0.49426480189E+03 -0.56565282487E+03 -0.20909509320E+04  0.22217871693E+04  0.12699999809E+01 0.  1.
</event>
<event>
 5   0  0.3008879E-07  0.3691186E+04  0.7818609E-02  0.8069918E-01
       -2   -1    0    0    0  501  0.00000000000E+00  0.00000000000E+00  0.20938615416E+04  0.20938615416E+04  0.25500000920E-02 0. -1.
        2   -1    0    0  501    0  0.00000000000E+00  0.00000000000E+00 -0.16267615227E+04  0.16267615227E+04  0.25500000920E-02 0.  1.
    10030    2    1    2    0    0  0.00000000000E+00  0.00000000000E+00  0.46710001889E+03  0.37206230643E+04  0.36911859285E+04 0.  0.
        2    1    3    3  502    0  0.52171225230E+03 -0.12405222900E+04 -0.10395084897E+04  0.17004873202E+04  0.25500000920E-02 0.  1.
       -2    1    3    3    0  502 -0.52171225230E+03  0.12405222900E+04  0.15066085086E+04  0.20201357440E+04  0.25500000920E-02 0. -1.
</event>
<event>
 5   0  0.2913025E-07  0.3702071E+04  0.7818609E-02  0.8067503E-01
       -2   -1    0    0    0  501  0.00000000000E+00  0.00000000000E+00  0.18635838595E+04  0.18635838595E+04  0.25500000920E-02 0.  1.
        2   -1    0    0  501    0  0.00000000000E+00  0.00000000000E+00 -0.18385714254E+04  0.18385714254E+04  0.25500000920E-02 0. -1.
    10030    2    1    2    0    0  0.00000000000E+00  0.00000000000E+00  0.25012434166E+02  0.37021552849E+04  0.37020707897E+04 0.  0.
        5    1    3    3  502    0 -0.12375507589E+04  0.10538316794E+04  0.89808662087E+03  0.18570607847E+04  0.46999998093E+01 0.  1.
       -5    1    3    3    0  502  0.12375507589E+04 -0.10538316794E+04 -0.87307418671E+03  0.18450945002E+04  0.46999998093E+01 0. -1.
</event>
<event>
 5   0  0.2913025E-07  0.3601564E+04  0.7818609E-02  0.8090134E-01
        2   -1    0    0  501    0  0.00000000000E+00  0.00000000000E+00  0.20044321156E+04  0.20044321156E+04  0.25500000920E-02 0. -1.
       -2   -1    0    0    0  501  0.00000000000E+00  0.00000000000E+00 -0.16178225491E+04  0.16178225491E+04  0.25500000920E-02 0.  1.
    10030    2    1    2    0    0  0.00000000000E+00  0.00000000000E+00  0.38660956647E+03  0.36222546648E+04  0.36015638130E+04 0.  0.
        5    1    3    3  502    0 -0.10441839176E+04 -0.11778545308E+04  0.10730482680E+04  0.19050238909E+04  0.46999998093E+01 0. -1.
       -5    1    3    3    0  502  0.10441839176E+04  0.11778545308E+04 -0.68643870154E+03  0.17172307738E+04  0.46999998093E+01 0.  1.
</event>
<event>
 5   0  0.3032442E-07  0.3702340E+04  0.7818609E-02  0.8067443E-01
        2   -1    0    0  501    0  0.00000000000E+00  0.00000000000E+00  0.23623028036E+04  0.23623028036E+04  0.25500000920E-02 0.  1.
       -2   -1    0    0    0  501  0.00000000000E+00  0.00000000000E+00 -0.14506312952E+04  0.14506312952E+04  0.25500000920E-02 0. -1.
    10030    2    1    2    0    0  0.00000000000E+00  0.00000000000E+00  0.91167150846E+03  0.38129340988E+04  0.37023400036E+04 0.  0.
        3    1    3    3  502    0  0.10541011473E+04 -0.10155024776E+04  0.16230285300E+04  0.21855425254E+04  0.10100000352E+00 0.  1.
       -3    1    3    3    0  502 -0.10541011473E+04  0.10155024776E+04 -0.71135702158E+03  0.16273915734E+04  0.10100000352E+00 0. -1.
</event>
<event>
 5   0  0.9418945E-08  0.3573977E+04  0.7818609E-02  0.8096479E-01
       -1   -1    0    0    0  501  0.00000000000E+00  0.00000000000E+00  0.13197714361E+04  0.13197714362E+04  0.50400001928E-02 0.  1.
        1   -1    0    0  501    0  0.00000000000E+00  0.00000000000E+00 -0.24196073284E+04  0.24196073284E+04  0.50400001928E-02 0. -1.
    10030    2    1    2    0    0  0.00000000000E+00  0.00000000000E+00 -0.10998358922E+04  0.37393787645E+04  0.35739774138E+04 0.  0.
        5    1    3    3  502    0 -0.17687704006E+04 -0.40031189992E+02 -0.28698038354E+03  0.17923534966E+04  0.46999998093E+01 0.  1.
       -5    1    3    3    0  502  0.17687704006E+04  0.40031189992E+02 -0.81285550867E+03  0.19470252680E+04  0.46999998093E+01 0. -1.
</event>
<event>
 5   0  0.9341000E-08  0.3734219E+04  0.7818609E-02  0.8060420E-01
        1   -1    0    0  501    0  0.00000000000E+00  0.00000000000E+00  0.24212911228E+04  0.24212911228E+04  0.50400001928E-02 0. -1.
       -1   -1    0    0    0  501  0.00000000000E+00  0.00000000000E+00 -0.14397684566E+04  0.14397684566E+04  0.50400001928E-02 0.  1.
    10030    2    1    2    0    0  0.00000000000E+00  0.00000000000E+00  0.98152266615E+03  0.38610595794E+04  0.37342193738E+04 0.  0.
        1    1    3    3  502    0  0.14163491710E+04  0.11478303182E+04  0.90761698408E+03  0.20364989574E+04  0.50400001928E-02 0. -1.
       -1    1    3    3    0  502 -0.14163491710E+04 -0.11478303182E+04  0.73905682061E+02  0.18245606220E+04  0.50400001928E-02 0.  1.
</event>
<event>
 5   0  0.3032442E-07  0.3688058E+04  0.7818609E-02  0.8070613E-01
        2   -1    0    0  501    0  0.00000000000E+00  0.00000000000E+00  0.29759291540E+04  0.29759291540E+04  0.25500000920E-02 0.  1.
       -2   -1    0    0    0  501  0.00000000000E+00  0.00000000000E+00 -0.11426494503E+04  0.11426494503E+04  0.25500000920E-02 0. -1.
    10030    2    1    2    0    0  0.00000000000E+00  0.00000000000E+00  0.18332797037E+04  0.41185786042E+04  0.36880584658E+04 0.  0.
        3    1    3    3  502    0  0.26898106089E+03  0.13061835415E+04 -0.50559717425E+03  0.14262169428E+04  0.10100000352E+00 0. -1.
       -3    1    3    3    0  502 -0.26898106089E+03 -0.13061835415E+04  0.23388768780E+04  0.26923616614E+04  0.10100000352E+00 0.  1.
</event>
<event>
 5   0  0.9646615E-08  0.3729997E+04  0.7818609E-02  0.8061346E-01
       -1   -1    0    0    0  501  0.00000000000E+00  0.00000000000E+00  0.14899231888E+04  0.14899231888E+04  0.50400001928E-02 0. -1.
        1   -1    0    0  501    0  0.00000000000E+00  0.00000000000E+00 -0.23344960356E+04  0.23344960356E+04  0.50400001928E-02 0.  1.
    10030    2    1    2    0    0  0.00000000000E+00  0.00000000000E+00 -0.84457284682E+03  0.38244192244E+04  0.37299971998E+04 0.  0.
        2    1    3    3  502    0 -0.25968556145E+02 -0.17762181956E+04 -0.10046381320E+04  0.20408143523E+04  0.25500000920E-02 0.  1.
       -2    1    3    3    0  502  0.25968556145E+02  0.17762181956E+04  0.16006528516E+03  0.17836048721E+04  0.25500000920E-02 0. -1.
</event>
<event>
 5   0  0.2897133E-07  0.3743559E+04  0.7818609E-02  0.8058377E-01
        2   -1    0    0  501    0  0.00000000000E+00  0.00000000000E+00  0.14309382553E+04  0.14309382553E+04  0.25500000920E-02 0. -1.
       -2   -1    0    0    0  501  0.00000000000E+00  0.00000000000E+00 -0.24484346036E+04  0.24484346036E+04  0.25500000920E-02 0.  1.
    10030    2    1    2    0    0  0.00000000000E+00  0.00000000000E+00 -0.10174963483E+04  0.38793728590E+04  0.37435591300E+04 0.  0.
        4    1    3    3  502    0  0.66654164015E+03 -0.17465399164E+04 -0.41110839147E+03  0.19140771040E+04  0.12699999809E+01 0.  1.
       -4    1    3    3    0  502 -0.66654164015E+03  0.17465399164E+04 -0.60638795683E+03  0.19652957550E+04  0.12699999809E+01 0. -1.
</event>
<event>
 5   0  0.9341000E-08  0.3730811E+04  0.7818609E-02  0.8061168E-01
        1   -1    0    0  501    0  0.00000000000E+00  0.00000000000E+00  0.16852453695E+04  0.16852453695E+04  0.50400001928E-02 0.  1.
       -1   -1    0    0    0  501  0.00000000000E+00  0.00000000000E+00 -0.20648258454E+04  0.20648258454E+04  0.50400001928E-02 0. -1.
    10030    2    1    2    0    0  0.00000000000E+00  0.00000000000E+00 -0.37958047591E+03  0.37500712149E+04  0.37308112763E+04 0.  0.
        4    1    3    3  502    0  0.11379355174E+04 -0.69978997283E+03  0.11189039284E+04  0.17425701885E+04  0.12699999809E+01 0.  1.
       -4    1    3    3    0  502 -0.11379355174E+04  0.69978997283E+03 -0.14984844044E+04  0.20075010264E+04  0.12699999809E+01 0. -1.
</event>
<event>
 5   0  0.2897133E-07  0.3703368E+04  0.7818609E-02  0.8067216E-01
       -2   -1    0    0    0  501  0.00000000000E+00  0.00000000000E+00  0.15187125623E+04  0.15187125623E+04  0.25500000920E-02 0.  1.
        2   -1    0    0  501    0  0.00000000000E+00  0.00000000000E+00 -0.22576583758E+04  0.22576583758E+04  0.25500000920E-02 0. -1.
    10030    2    1    2    0    0  0.00000000000E+00  0.00000000000E+00 -0.73894581354E+03  0.37763709381E+04  0.37033682704E+04 0.  0.
        4    1    3    3  502    0  0.15375383803E+04  0.74836706551E+03  0.35492140362E+03  0.17464387625E+04  0.12699999809E+01 0.  1.
       -4    1    3    3    0  502 -0.15375383803E+04 -0.74836706551E+03 -0.10938672172E+04  0.20299321755E+04  0.12699999809E+01 0. -1.
</event>
<event>
 5   0  0.2996969E-07  0.3656385E+04  0.7818609E-02  0.8077697E-01
       -2   -1    0    0    0  501  0.00000000000E+00  0.00000000000E+00  0.20728176217E+04  0.20728176217E+04  0.25500000920E-02 0.  1.
        2   -1    0    0  501    0  0.00000000000E+00  0.00000000000E+00 -0.16124367503E+04  0.16124367503E+04  0.25500000920E-02 0. -1.
    10030    2    1    2    0    0  0.00000000000E+00  0.00000000000E+00  0.46038087137E+03  0.36852543720E+04  0.36563847226E+04 0.  0.
        1    1    3    3  502    0 -0.13294493548E+04 -0.90560015089E+03 -0.64542678456E+03  0.17332405933E+04  0.50400001928E-02 0. -1.
       -1    1    3    3    0  502  0.13294493548E+04  0.90560015089E+03  0.11058076559E+04  0.19520137787E+04  0.50400001928E-02 0.  1.
</event>
<event>
 5   0  0.3008879E-07  0.3688962E+04  0.7818609E-02  0.8070412E-01
       -2   -1    0    0    0  501  0.00000000000E+00  0.00000000000E+00  0.15752446419E+04  0.15752446419E+04  0.25500000920E-02 0. -1.
        2   -1    0    0  501    0  0.00000000000E+00  0.00000000000E+00 -0.21597349636E+04  0.21597349636E+04  0.25500000920E-02 0.  1.
    10030    2    1    2    0    0  0.00000000000E+00  0.00000000000E+00 -0.58449032166E+03  0.37349796055E+04  0.36889624175E+04 0.  0.
        2    1    3    3  502    0  0.16523292819E+04  0.24785671715E+03 -0.10833277577E+04  0.19912870307E+04  0.25500000920E-02 0.  1.
       -2    1    3    3    0  502 -0.16523292819E+04 -0.24785671715E+03  0.49883743607E+03  0.17436925748E+04  0.25500000920E-02 0. -1.
</event>
<event>
 5   0  0.9341000E-08  0.3688219E+04  0.7818609E-02  0.8070578E-01
       -1   -1    0    0    0  501  0.00000000000E+00  0.00000000000E+00  0.13202863135E+04  0.13202863135E+04  0.50400001928E-02 0.  1.
        1   -1    0    0  501    0  0.00000000000E+00  0.00000000000E+00 -0.25757590775E+04  0.25757590775E+04  0.50400001928E-02 0. -1.
    10030    2    1    2    0    0  0.00000000000E+00  0.00000000000E+00 -0.12554727640E+04  0.38960453910E+04  0.36882187879E+04 0.  0.
        3    1    3    3  502    0  0.79158537609E+02  0.91391027455E+03  0.10621712098E+04  0.14034620597E+04  0.10100000352E+00 0.  1.
       -3    1    3    3    0  502 -0.79158537609E+02 -0.91391027455E+03 -0.23176439738E+04  0.24925833313E+04  0.10100000352E+00 0. -1.
</event>
<event>
 5   0  0.9341000E-08  0.3694803E+04  0.7818609E-02  0.8069115E-01
        1   -1    0    0  501    0  0.00000000000E+00  0.00000000000E+00  0.24626631318E+04  0.24626631318E+04  0.50400001928E-02 0. -1.
       -1   -1    0    0    0  501  0.00000000000E+00  0.00000000000E+00 -0.13858542572E+04  0.13858542573E+04  0.50400001928E-02 0.  1.
    10030    2    1    2    0    0  0.00000000000E+00  0.00000000000E+00  0.10768088746E+04  0.38485173891E+04  0.36948029368E+04 0.  0.
        1    1    3    3  502    0  0.15985828452E+04 -0.39789681387E+03 -0.33250464072E+03  0.16805797581E+04  0.50400001928E-02 0.  1.
       -1    1    3    3    0  502 -0.15985828452E+04  0.39789681387E+03  0.14093135153E+04  0.21679376309E+04  0.50400001928E-02 0. -1.
</event>
<event>
 5   0  0.9646615E-08  0.3682185E+04  0.7818609E-02  0.8071921E-01
        1   -1    0    0  501    0  0.00000000000E+00  0.00000000000E+00  0.11199290768E+04  0.11199290768E+04  0.50400001928E-02 0.  1.
       -1   -1    0    0    0  501  0.00000000000E+00  0.00000000000E+00 -0.30266392216E+04  0.30266392216E+04  0.50400001928E-02 0. -1.
    10030    2    1    2    0    0  0.00000000000E+00  0.00000000000E+00 -0.19067101449E+04  0.41465682984E+04  0.36821848238E+04 0.  0.
        2    1    3    3  502    0 -0.18128560073E+04  0.14539235615E+03 -0.12758953572E+04  0.22215973539E+04  0.25500000920E-02 0. -1.
       -2    1    3    3    0  502  0.18128560073E+04 -0.14539235615E+03 -0.63081478771E+03  0.19249709445E+04  0.25500000920E-02 0.  1.
</event>
<event>
 5   0  0.3008879E-07  0.3684841E+04  0.7818609E-02  0.8071330E-01
        2   -1    0    0  501    0  0.00000000000E+00  0.00000000000E+00  0.25363428301E+04  0.25363428301E+04  0.25500000920E-02 0.  1.
       -2   -1    0    0    0  501  0.00000000000E+00  0.00000000000E+00 -0.13383494432E+04  0.13383494432E+04  0.25500000920E-02 0. -1.
    10030    2    1    2    0    0  0.00000000000E+00  0.00000000000E+00  0.11979933869E+04  0.38746922734E+04  0.36848408457E+04 0.  0.
        2    1    3    3  502    0  0.17487340627E+04 -0.40991052821E+03  0.10305252869E+04  0.20707679325E+04  0.25500000920E-02 0.  1.
       -2    1    3    3    0  502 -0.17487340627E+04  0.40991052821E+03  0.16746810002E+03  0.18039243409E+04  0.25500000920E-02 0. -1.
</event>
<event>
 5   0  0.2913025E-07  0.3688456E+04  0.7818609E-02  0.8070525E-01
        2   -1    0    0  501    0  0.00000000000E+00  0.00000000000E+00  0.23713632157E+04  0.23713632157E+04  0.25500000920E-02 0. -1.
       -2   -1    0    0    0  501  0.00000000000E+00  0.00000000000E+00 -0.14342706487E+04  0.14342706487E+04  0.25500000920E-02 0.  1.
    10030    2    1    2    0    0  0.00000000000E+00  0.00000000000E+00  0.93709256700E+03  0.38056338644E+04  0.36884558600E+04 0.  0.
        5    1    3    3  502    0  0.10737357337E+04  0.13833240229E+04  0.10654232613E+04  0.20497908659E+04  0.46999998093E+01 0. -1.
       -5    1    3    3    0  502 -0.10737357337E+04 -0.13833240229E+04 -0.12833069429E+03  0.17558429985E+04  0.46999998093E+01 0.  1.
</event>
<event>
 5   0  0.9341000E-08  0.3659703E+04  0.7818609E-02  0.8076951E-01
        1   -1    0    0  501    0  0.00000000000E+00  0.00000000000E+00  0.15574713510E+04  0.15574713510E+04  0.50400001928E-02 0.  1.
       -1   -1    0    0    0  501  0.00000000000E+00  0.00000000000E+00 -0.21498668406E+04  0.21498668406E+04  0.50400001928E-02 0. -1.
    10030    2    1    2    0    0  0.00000000000E+00  0.00000000000E+00 -0.59239548958E+03  0.37073381915E+04  0.36597027271E+04 0.  0.
        1    1    3    3  502    0 -0.11866437810E+04 -0.14910962025E+03  0.11067470079E+04  0.16294925840E+04  0.50400001928E-02 0.  1.
       -1    1    3    3    0  502  0.11866437810E+04  0.14910962025E+03 -0.16991424975E+04  0.20778456075E+04  0.50400001928E-02 0. -1.
</event>
<event>
 5   0  0.2996969E-07  0.3691168E+04  0.7818609E-02  0.8069922E-01
        2   -1    0    0  501    0  0.00000000000E+00  0.00000000000E+00  0.20566898743E+04  0.20566898743E+04  0.25500000920E-02 0. -1.
       -2   -1    0    0    0  501  0.00000000000E+00  0.00000000000E+00 -0.16561468985E+04  0.16561468985E+04  0.25500000920E-02 0.  1.
    10030    2    1    2    0    0  0.00000000000E+00  0.00000000000E+00  0.40054297573E+03  0.37128367728E+04  0.36911681384E+04 0.  0.
        1    1    3    3  502    0 -0.10262547373E+04 -0.11267558788E+04  0.12472482374E+04  0.19693668429E+04  0.50400001928E-02 0. -1.
       -1    1    3    3    0  502  0.10262547373E+04  0.11267558788E+04 -0.84670526171E+03  0.17434699299E+04  0.50400001928E-02 0.  1.
</event>
<event>
 5   0  0.9341000E-08  0.3710363E+04  0.7818609E-02  0.8065669E-01
       -1   -1    0    0    0  501  0.00000000000E+00  0.00000000000E+00  0.17497518558E+04  0.17497518558E+04  0.50400001928E-02 0.  1.
        1   -1    0    0  501    0  0.00000000000E+00  0.00000000000E+00 -0.19669635001E+04  0.19669635001E+04  0.50400001928E-02 0. -1.
    10030    2    1    2    0    0  0.00000000000E+00  0.00000000000E+00 -0.21721164436E+03  0.37167153559E+04  0.37103628042E+04 0.  0.
        1    1    3    3  502    0  0.97254432213E+03  0.15514209855E+04 -0.40735880025E+03  0.18758173485E+04  0.50400001928E-02 0.  1.
       -1    1    3    3    0  502 -0.97254432213E+03 -0.15514209855E+04  0.19014715589E+03  0.18408980074E+04  0.50400001928E-02 0. -1.
</event>
<event>
 5   0  0.2913025E-07  0.3763247E+04  0.7818609E-02  0.8054088E-01
       -2   -1    0    0    0  501  0.00000000000E+00  0.00000000000E+00  0.19415308123E+04  0.19415308123E+04  0.25500000920E-02 0.  1.
        2   -1    0    0  501    0  0.00000000000E+00  0.00000000000E+00 -0.18235642836E+04  0.18235642836E+04  0.25500000920E-02 0. -1.
    10030    2    1    2    0    0  0.00000000000E+00  0.00000000000E+00  0.11796652870E+03  0.37650950958E+04  0.37632466008E+04 0.  0.
        5    1    3    3  502    0 -0.46554796207E+03  0.80833544472E+03  0.16939043729E+04  0.19337722748E+04  0.46999998093E+01 0.  1.
       -5    1    3    3    0  502  0.46554796207E+03 -0.80833544472E+03 -0.15759378442E+04  0.18313228211E+04  0.46999998093E+01 0. -1.
</event>
<event>
 5   0  0.2996969E-07  0.3698084E+04  0.7818609E-02  0.8068387E-01
       -2   -1    0    0    0  501  0.00000000000E+00  0.00000000000E+00  0.14703610653E+04  0.14703610653E+04  0.25500000920E-02 0. -1.
        2   -1    0    0  501    0  0.00000000000E+00  0.00000000000E+00 -0.23252492885E+04  0.23252492885E+04  0.25500000920E-02 0.  1.
    10030    2    1    2    0    0  0.00000000000E+00  0.00000000000E+00 -0.85488822318E+03  0.37956103538E+04  0.36980838395E+04 0.  0.
        1    1    3    3  502    0  0.59397534144E+03  0.40568399578E+03  0.13208777242E+04  0.15040293126E+04  0.50400001928E-02 0. -1.
       -1    1    3    3    0  502 -0.59397534144E+03 -0.40568399578E+03 -0.21757659474E+04  0.22915810413E+04  0.50400001928E-02 0.  1.
</event>
<event>
 5   0  0.2913025E-07  0.3294408E+04  0.7818609E-02  0.8164320E-01
        2   -1    0    0  501    0  0.00000000000E+00  0.00000000000E+00  0.19591493406E+04  0.19591493406E+04  0.25500000920E-02 0. -1.
       -2   -1    0    0    0  501  0.00000000000E+00  0.00000000000E+00 -0.13849284525E+04  0.13849284525E+04  0.25500000920E-02 0.  1.
    10030    2    1    2    0    0  0.00000000000E+00  0.00000000000E+00  0.57422088804E+03  0.33440777931E+04  0.32944083927E+04 0.  0.
        5    1    3    3  502    0 -0.81639337501E+03 -0.39502038225E+03  0.16828763416E+04  0.19117097364E+04  0.46999998093E+01 0. -1.
       -5    1    3    3    0  502  0.81639337501E+03  0.39502038225E+03 -0.11086554536E+04  0.14323680567E+04  0.46999998093E+01 0.  1.
</event>
<event>
 5   0  0.2913025E-07  0.3331307E+04  0.7818609E-02  0.8154975E-01
       -2   -1    0    0    0  501  0.00000000000E+00  0.00000000000E+00  0.23208614429E+04  0.23208614429E+04  0.25500000920E-02 0.  1.
        2   -1    0    0  501    0  0.00000000000E+00  0.00000000000E+00 -0.11954190547E+04  0.11954190547E+04  0.25500000920E-02 0. -1.
    10030    2    1    2    0    0  0.00000000000E+00  0.00000000000E+00  0.11254423882E+04  0.35162804976E+04  0.33313072463E+04 0.  0.
        5    1    3    3  502    0  0.15672704640E+04  0.36497908686E+03  0.10165155818E+04  0.19033844749E+04  0.46999998093E+01 0.  1.
       -5    1    3    3    0  502 -0.15672704640E+04 -0.36497908686E+03  0.10892680638E+03  0.16128960228E+04  0.46999998093E+01 0. -1.
</event>
<event>
 5   0  0.9646615E-08  0.3669488E+04  0.7818609E-02  0.8074757E-01
       -1   -1    0    0    0  501  0.00000000000E+00  0.00000000000E+00  0.14136948357E+04  0.14136948357E+04  0.50400001928E-02 0.  1.
        1   -1    0    0  501    0  0.00000000000E+00  0.00000000000E+00 -0.23811969915E+04  0.23811969915E+04  0.50400001928E-02 0. -1.
    10030    2    1    2    0    0  0.00000000000E+00  0.00000000000E+00 -0.96750215584E+03  0.37948918272E+04  0.36694881875E+04 0.  0.
        2    1    3    3  502    0  0.22678411616E+03 -0.15598018601E+04 -0.14549248223E+04  0.21450452482E+04  0.25500000920E-02 0. -1.
       -2    1    3    3    0  502 -0.22678411616E+03  0.15598018601E+04  0.48742266650E+03  0.16498465789E+04  0.25500000920E-02 0.  1.
</event>
<event>
 5   0  0.2996969E-07  0.3742506E+04  0.7818609E-02  0.8058607E-01
       -2   -1    0    0    0  501  0.00000000000E+00  0.00000000000E+00  0.14010527998E+04  0.14010527998E+04  0.25500000920E-02 0.  1.
        2   -1    0    0  501    0  0.00000000000E+00  0.00000000000E+00 -0.24992549383E+04  0.24992549383E+04  0.25500000920E-02 0. -1.
    10030    2    1    2    0    0  0.00000000000E+00  0.00000000000E+00 -0.10982021385E+04  0.39003077381E+04  0.37425061810E+04 0.  0.
        1    1    3    3  502    0 -0.12980085711E+04 -0.94225932325E+03  0.45533659893E+03  0.16673362892E+04  0.50400001928E-02 0.  1.
       -1    1    3    3    0  502  0.12980085711E+04  0.94225932325E+03 -0.15535387375E+04  0.22329714489E+04  0.50400001928E-02 0. -1.
</event>
<event>
 5   0  0.9646615E-08  0.3708565E+04  0.7818609E-02  0.8066066E-01
       -1   -1    0    0    0  501  0.00000000000E+00  0.00000000000E+00  0.19462463451E+04  0.19462463451E+04  0.50400001928E-02 0.  1.
        1   -1    0    0  501    0  0.00000000000E+00  0.00000000000E+00 -0.17666636950E+04  0.17666636950E+04  0.50400001928E-02 0. -1.
    10030    2    1    2    0    0  0.00000000000E+00  0.00000000000E+00  0.17958265019E+03  0.37129100401E+04  0.37085645522E+04 0.  0.
        2    1    3    3  502    0 -0.11898939260E+04  0.14038529335E+04  0.31746082971E+03  0.18674667312E+04  0.25500000920E-02 0. -1.
       -2    1    3    3    0  502  0.11898939260E+04 -0.14038529335E+04 -0.13787817952E+03  0.18454433089E+04  0.25500000920E-02 0.  1.
</event>
<event>
 5   0  0.2897133E-07  0.3691178E+04  0.7818609E-02  0.8069920E-01
        2   -1    0    0  501    0  0.00000000000E+00  0.00000000000E+00  0.32755741595E+04  0.32755741595E+04  0.25500000920E-02 0.  1.
       -2   -1    0    0    0  501  0.00000000000E+00  0.00000000000E+00 -0.10398784831E+04  0.10398784831E+04  0.25500000920E-02 0. -1.
    10030    2    1    2    0    0  0.00000000000E+00  0.00000000000E+00  0.22356956764E+04  0.43154526425E+04  0.36911781794E+04 0.  0.
        4    1    3    3  502    0 -0.78756656852E+03  0.13097785902E+04 -0.91740877022E+02  0.15310777435E+04  0.12699999809E+01 0. -1.
       -4    1    3    3    0  502  0.78756656852E+03 -0.13097785902E+04  0.23274365534E+04  0.27843748990E+04  0.12699999809E+01 0.  1.
</event>
<event>
 5   0  0.9341000E-08  0.3679042E+04  0.7818609E-02  0.8072622E-01
       -1   -1    0    0    0  501  0.00000000000E+00  0.00000000000E+00  0.18908374269E+04  0.18908374269E+04  0.50400001928E-02 0.  1.
        1   -1    0    0  501    0  0.00000000000E+00  0.00000000000E+00 -0.17895970307E+04  0.17895970307E+04  0.50400001928E-02 0. -1.
    10030    2    1    2    0    0  0.00000000000E+00  0.00000000000E+00  0.10124039619E+03  0.36804344576E+04  0.36790417473E+04 0.  0.
        3    1    3    3  502    0  0.28887671327E+03 -0.14882739791E+04 -0.99161287577E+03  0.18115477631E+04  0.10100000352E+00 0. -1.
       -3    1    3    3    0  502 -0.28887671327E+03  0.14882739791E+04  0.10928532720E+04  0.18688866945E+04  0.10100000352E+00 0.  1.
</event>
<event>
 5   0  0.3032442E-07  0.3306799E+04  0.7818609E-02  0.8161168E-01
       -2   -1    0    0    0  501  0.00000000000E+00  0.00000000000E+00  0.13426740732E+04  0.13426740732E+04  0.25500000920E-02 0.  1.
        2   -1    0    0  501    0  0.00000000000E+00  0.00000000000E+00 -0.20360340390E+04  0.20360340390E+04  0.25500000920E-02 0. -1.
    10030    2    1    2    0    0  0.00000000000E+00  0.00000000000E+00 -0.69335996575E+03  0.33787081122E+04  0.33067991268E+04 0.  0.
        3    1    3    3  502    0  0.84269606858E+02 -0.14041667249E+04  0.54108985735E+03  0.15071707939E+04  0.10100000352E+00 0.  1.
       -3    1    3    3    0  502 -0.84269606858E+02  0.14041667249E+04 -0.12344498231E+04  0.18715373183E+04  0.10100000352E+00 0. -1.
</event>
<event>
 5   0  0.9341000E-08  0.3693310E+04  0.7818609E-02  0.8069446E-01
       -1   -1    0    0    0  501  0.00000000000E+00  0.00000000000E+00  0.25026701900E+04  0.25026701900E+04  0.50400001928E-02 0. -1.
        1   -1    0    0  501    0  0.00000000000E+00  0.00000000000E+00 -0.13625985528E+04  0.13625985528E+04  0.50400001928E-02 0.  1.
    10030    2    1    2    0    0  0.00000000000E+00  0.00000000000E+00  0.11400716372E+04  0.38652687428E+04  0.36933100488E+04 0.  0.
        4    1    3    3  502    0 -0.91036717715E+03 -0.16058179186E+04  0.51551839188E+03  0.19165543066E+04  0.12699999809E+01 0. -1.
       -4    1    3    3    0  502  0.91036717715E+03  0.16058179186E+04  0.62455324532E+03  0.19487144362E+04  0.12699999809E+01 0.  1.
</event>
<event>
 5   0  0.2996969E-07  0.3541264E+04  0.7818609E-02  0.8104080E-01
       -2   -1    0    0    0  501  0.00000000000E+00  0.00000000000E+00  0.19683399849E+04  0.19683399849E+04  0.25500000920E-02 0.  1.
        2   -1    0    0  501    0  0.00000000000E+00  0.00000000000E+00 -0.15927830063E+04  0.15927830063E+04  0.25500000920E-02 0. -1.
    10030    2    1    2    0    0  0.00000000000E+00  0.00000000000E+00  0.37555697862E+03  0.35611229911E+04  0.35412644513E+04 0.  0.
        1    1    3    3  502    0 -0.15273073778E+04 -0.49764654558E+03 -0.56125995250E+03  0.17015677021E+04  0.50400001928E-02 0. -1.
       -1    1    3    3    0  502  0.15273073778E+04  0.49764654558E+03  0.93681693112E+03  0.18595552890E+04  0.50400001928E-02 0.  1.
</event>
<event>
 5   0  0.9418945E-08  0.3358119E+04  0.7818609E-02  0.8148262E-01
        1   -1    0    0  501    0  0.00000000000E+00  0.00000000000E+00  0.20337582289E+04  0.20337582290E+04  0.50400001928E-02 0. -1.
       -1   -1    0    0    0  501  0.00000000000E+00  0.00000000000E+00 -0.13862222756E+04  0.13862222756E+04  0.50400001928E-02 0.  1.
    10030    2    1    2    0    0  0.00000000000E+00  0.00000000000E+00  0.64753595331E+03  0.34199805046E+04  0.33581190927E+04 0.  0.
        5    1    3    3  502    0  0.84490447685E+03  0.14435062964E+04  0.17393582972E+03  0.16816211718E+04  0.46999998093E+01 0. -1.
       -5    1    3    3    0  502 -0.84490447685E+03 -0.14435062964E+04  0.47360012358E+03  0.17383593328E+04  0.46999998093E+01 0.  1.
</event>
<event>
 5   0  0.9341000E-08  0.3685759E+04  0.7818609E-02  0.8071125E-01
       -1   -1    0    0    0  501  0.00000000000E+00  0.00000000000E+00  0.13278878922E+04  0.13278878922E+04  0.50400001928E-02 0.  1.
        1   -1    0    0  501    0  0.00000000000E+00  0.00000000000E+00 -0.25575992910E+04  0.25575992910E+04  0.50400001928E-02 0. -1.
    10030    2    1    2    0    0  0.00000000000E+00  0.00000000000E+00 -0.12297113988E+04  0.38854871832E+04  0.36857591520E+04 0.  0.
        4    1    3    3  502    0  0.95833074420E+03  0.61296758394E+03  0.91356454329E+03  0.14590164022E+04  0.12699999809E+01 0.  1.
       -4    1    3    3    0  502 -0.95833074420E+03 -0.61296758394E+03 -0.21432759421E+04  0.24264707810E+04  0.12699999809E+01 0. -1.
</event>
<event>
 5   0  0.3032442E-07  0.3753421E+04  0.7818609E-02  0.8056225E-01
        2   -1    0    0  501    0  0.00000000000E+00  0.00000000000E+00  0.14660772994E+04  0.14660772994E+04  0.25500000920E-02 0. -1.
       -2   -1    0    0    0  501  0.00000000000E+00  0.00000000000E+00 -0.24023580800E+04  0.24023580800E+04  0.25500000920E-02 0.  1.
    10030    2    1    2    0    0  0.00000000000E+00  0.00000000000E+00 -0.93628078062E+03  0.38684353795E+04  0.37534211841E+04 0.  0.
        3    1    3    3  502    0  0.85100247176E+03 -0.14099069868E+04  0.45943769492E+03  0.17097151587E+04  0.10100000352E+00 0. -1.
       -3    1    3    3    0  502 -0.85100247176E+03  0.14099069868E+04 -0.13957184755E+04  0.21587202207E+04  0.10100000352E+00 0.  1.
</event>
<event>
 5   0  0.9341000E-08  0.3660677E+04  0.7818609E-02  0.8076733E-01
       -3   -1    0    0    0  501  0.00000000000E+00  0.00000000000E+00  0.12373400066E+04  0.12373400107E+04  0.10100000352E+00 0. -1.
        3   -1    0    0  501    0  0.00000000000E+00  0.00000000000E+00 -0.27075335626E+04  0.27075335645E+04  0.10100000352E+00 0.  1.
    10030    2    1    2    0    0  0.00000000000E+00  0.00000000000E+00 -0.14701935560E+04  0.39448735752E+04  0.36606773187E+04 0.  0.
        4    1    3    3  502    0 -0.32705221786E+03 -0.17799621189E+04 -0.10300415222E+04  0.20823581461E+04  0.12699999809E+01 0. -1.
       -4    1    3    3    0  502  0.32705221786E+03  0.17799621189E+04 -0.44015203379E+03  0.18625154291E+04  0.12699999809E+01 0.  1.
</event>
<event>
 5   0  0.9341000E-08  0.3720583E+04  0.7818609E-02  0.8063416E-01
       -1   -1    0    0    0  501  0.00000000000E+00  0.00000000000E+00  0.18715371776E+04  0.18715371776E+04  0.50400001928E-02 0. -1.
        1   -1    0    0  501    0  0.00000000000E+00  0.00000000000E+00 -0.18491132795E+04  0.18491132795E+04  0.50400001928E-02 0.  1.
    10030    2    1    2    0    0  0.00000000000E+00  0.00000000000E+00  0.22423898056E+02  0.37206504572E+04  0.37205828835E+04 0.  0.
        3    1    3    3  502    0 -0.98736224808E+03 -0.77241987735E+03 -0.13632829347E+04  0.18520413187E+04  0.10100000352E+00 0.  1.
       -3    1    3    3    0  502  0.98736224808E+03  0.77241987735E+03  0.13857068327E+04  0.18686091385E+04  0.10100000352E+00 0. -1.
</event>
<event>
 5   0  0.9646615E-08  0.3688889E+04  0.7818609E-02  0.8070429E-01
       -1   -1    0    0    0  501  0.00000000000E+00  0.00000000000E+00  0.19094118592E+04  0.19094118593E+04  0.50400001928E-02 0. -1.
        1   -1    0    0  501    0  0.00000000000E+00  0.00000000000E+00 -0.17816875978E+04  0.17816875978E+04  0.50400001928E-02 0.  1.
    10030    2    1    2    0    0  0.00000000000E+00  0.00000000000E+00  0.12772426141E+03  0.36910994571E+04  0.36888889540E+04 0.  0.
        2    1    3    3  502    0 -0.83643146437E+03  0.16425181948E+04  0.13092328810E+03  0.18478702666E+04  0.25500000920E-02 0. -1.
       -2    1    3    3    0  502  0.83643146437E+03 -0.16425181948E+04 -0.31990266880E+01  0.18432291905E+04  0.25500000920E-02 0.  1.
</event>
<event>
 5   0  0.3008879E-07  0.3710608E+04  0.7818609E-02  0.8065615E-01
       -2   -1    0    0    0  501  0.00000000000E+00  0.00000000000E+00  0.12310720385E+04  0.12310720385E+04  0.25500000920E-02 0. -1.
        2   -1    0    0  501    0  0.00000000000E+00  0.00000000000E+00 -0.27960606270E+04  0.27960606270E+04  0.25500000920E-02 0.  1.
    10030    2    1    2    0    0  0.00000000000E+00  0.00000000000E+00 -0.15649885885E+04  0.40271326655E+04  0.37106075275E+04 0.  0.
        2    1    3    3  502    0  0.40973528495E+02 -0.38211196847E+03 -0.27523901966E+04  0.27790898116E+04  0.25500000920E-02 0.  1.
       -2    1    3    3    0  502 -0.40973528495E+02  0.38211196847E+03  0.11874016080E+04  0.12480428539E+04  0.25500000920E-02 0. -1.
</event>
<event>
 5   0  0.9341000E-08  0.3679949E+04  0.7818609E-02  0.8072420E-01
       -1   -1    0    0    0  501  0.00000000000E+00  0.00000000000E+00  0.24189388947E+04  0.24189388947E+04  0.50400001928E-02 0.  1.
        1   -1    0    0  501    0  0.00000000000E+00  0.00000000000E+00 -0.13995829340E+04  0.13995829340E+04  0.50400001928E-02 0. -1.
    10030    2    1    2    0    0  0.00000000000E+00  0.00000000000E+00  0.10193559607E+04  0.38185218287E+04  0.36799486928E+04 0.  0.
        4    1    3    3  502    0  0.67498511786E+03  0.39217839923E+03  0.22385812266E+04  0.23707923416E+04  0.12699999809E+01 0.  1.
       -4    1    3    3    0  502 -0.67498511786E+03 -0.39217839923E+03 -0.12192252659E+04  0.14477294871E+04  0.12699999809E+01 0. -1.
</event>
<event>
 5   0  0.9646615E-08  0.3650692E+04  0.7818609E-02  0.8078978E-01
        1   -1    0    0  501    0  0.00000000000E+00  0.00000000000E+00  0.17663046001E+04  0.17663046001E+04  0.50400001928E-02 0.  1.
       -1   -1    0    0    0  501  0.00000000000E+00  0.00000000000E+00 -0.18863611577E+04  0.18863611577E+04  0.50400001928E-02 0. -1.
    10030    2    1    2    0    0  0.00000000000E+00  0.00000000000E+00 -0.12005655764E+03  0.36526657578E+04  0.36506922030E+04 0.  0.
        2    1    3    3  502    0  0.89032108070E+03  0.15005958400E+04 -0.59644205497E+03  0.18439638355E+04  0.25500000920E-02 0. -1.
       -2    1    3    3    0  502 -0.89032108070E+03 -0.15005958400E+04  0.47638549733E+03  0.18087019223E+04  0.25500000920E-02 0.  1.
</event>
<event>
 5   0  0.9341000E-08  0.3701891E+04  0.7818609E-02  0.8067543E-01
       -1   -1    0    0    0  501  0.00000000000E+00  0.00000000000E+00  0.14561409049E+04  0.14561409049E+04  0.50400001928E-02 0.  1.
        1   -1    0    0  501    0  0.00000000000E+00  0.00000000000E+00 -0.23527939832E+04  0.23527939832E+04  0.50400001928E-02 0. -1.
    10030    2    1    2    0    0  0.00000000000E+00  0.00000000000E+00 -0.89665307831E+03  0.38089348881E+04  0.37018911706E+04 0.  0.
        3    1    3    3  502    0 -0.17242037691E+04  0.20683537948E+03  0.21077427590E+03  0.17493099546E+04  0.10100000352E+00 0.  1.
       -3    1    3    3    0  502  0.17242037691E+04 -0.20683537948E+03 -0.11074273542E+04  0.20596249335E+04  0.10100000352E+00 0. -1.
</event>
<event>
 5   0  0.2996969E-07  0.3694483E+04  0.7818609E-02  0.8069186E-01
       -2   -1    0    0    0  501  0.00000000000E+00  0.00000000000E+00  0.12090375987E+04  0.12090375987E+04  0.25500000920E-02 0.  1.
        2   -1    0    0  501    0  0.00000000000E+00  0.00000000000E+00 -0.28223286405E+04  0.28223286405E+04  0.25500000920E-02 0. -1.
    10030    2    1    2    0    0  0.00000000000E+00  0.00000000000E+00 -0.16132910418E+04  0.40313662392E+04  0.36944831532E+04 0.  0.
        1    1    3    3  502    0 -0.10050518566E+04  0.14123796997E+04 -0.11020262669E+03  0.17369773371E+04  0.50400001928E-02 0.  1.
       -1    1    3    3    0  502  0.10050518566E+04 -0.14123796997E+04 -0.15030884151E+04  0.22943889021E+04  0.50400001928E-02 0. -1.
</event>
<event>
 5   0  0.2897133E-07  0.4152775E+04  0.7818609E-02  0.7974417E-01
       -2   -1    0    0    0  501  0.00000000000E+00  0.00000000000E+00  0.23041544522E+04  0.23041544522E+04  0.25500000920E-02 0. -1.
        2   -1    0    0  501    0  0.00000000000E+00  0.00000000000E+00 -0.18711354826E+04  0.18711354826E+04  0.25500000920E-02 0.  1.
    10030    2    1    2    0    0  0.00000000000E+00  0.00000000000E+00  0.43301896960E+03  0.41752899348E+04  0.41527750494E+04 0.  0.
        4    1    3    3  502    0 -0.96596162029E+03  0.16894621268E+04  0.94432602146E+03  0.21631267595E+04  0.12699999809E+01 0. -1.
       -4    1    3    3    0  502  0.96596162029E+03 -0.16894621268E+04 -0.51130705185E+03  0.20121631753E+04  0.12699999809E+01 0.  1.
</event>
<event>
 5   0  0.9341000E-08  0.3557075E+04  0.7818609E-02  0.8100396E-01
        1   -1    0    0  501    0  0.00000000000E+00  0.00000000000E+00  0.20329185246E+04  0.20329185246E+04  0.50400001928E-02 0. -1.
       -1   -1    0    0    0  501  0.00000000000E+00  0.00000000000E+00 -0.15559873333E+04  0.15559873333E+04  0.50400001928E-02 0.  1.
    10030    2    1    2    0    0  0.00000000000E+00  0.00000000000E+00  0.47693119132E+03  0.35889058580E+04  0.35570749073E+04 0.  0.
        3    1    3    3  502    0 -0.19414196459E+03 -0.17503170770E+04  0.48947792527E+03  0.18278100618E+04  0.10100000352E+00 0. -1.
       -3    1    3    3    0  502  0.19414196459E+03  0.17503170770E+04 -0.12546733951E+02  0.17610957962E+04  0.10100000352E+00 0.  1.
</event>
<event>
 5   0  0.2996969E-07  0.3727273E+04  0.7818609E-02  0.8061944E-01
       -2   -1    0    0    0  501  0.00000000000E+00  0.00000000000E+00  0.16241189061E+04  0.16241189061E+04  0.25500000920E-02 0. -1.
        2   -1    0    0  501    0  0.00000000000E+00  0.00000000000E+00 -0.21384772920E+04  0.21384772920E+04  0.25500000920E-02 0.  1.
    10030    2    1    2    0    0  0.00000000000E+00  0.00000000000E+00 -0.51435838589E+03  0.37625961981E+04  0.37272732125E+04 0.  0.
        1    1    3    3  502    0  0.43717281386E+03 -0.80644302724E+03  0.13804372092E+04  0.16574309379E+04  0.50400001928E-02 0. -1.
       -1    1    3    3    0  502 -0.43717281386E+03  0.80644302724E+03 -0.18947955951E+04  0.21051652602E+04  0.50400001928E-02 0.  1.
</event>
<event>
 5   0  0.2897133E-07  0.3719875E+04  0.7818609E-02  0.8063571E-01
        2   -1    0    0  501    0  0.00000000000E+00  0.00000000000E+00  0.28054618633E+04  0.28054618633E+04  0.25500000920E-02 0. -1.
       -2   -1    0    0    0  501  0.00000000000E+00  0.00000000000E+00 -0.12330832117E+04  0.12330832117E+04  0.25500000920E-02 0.  1.
    10030    2    1    2    0    0  0.00000000000E+00  0.00000000000E+00  0.15723786516E+04  0.40385450750E+04  0.37198752263E+04 0.  0.
        4    1    3    3  502    0 -0.12320239761E+04  0.10829632693E+04 -0.16565866717E+03  0.16486773266E+04  0.12699999809E+01 0.  1.
       -4    1    3    3    0  502  0.12320239761E+04 -0.10829632693E+04  0.17380373188E+04  0.23898677484E+04  0.12699999809E+01 0. -1.
</event>
<event>
 5   0  0.2913025E-07  0.3711477E+04  0.7818609E-02  0.8065423E-01
        2   -1    0    0  501    0  0.00000000000E+00  0.00000000000E+00  0.22885035439E+04  0.22885035439E+04  0.25500000920E-02 0. -1.
       -2   -1    0    0    0  501  0.00000000000E+00  0.00000000000E+00 -0.15048109340E+04  0.15048109340E+04  0.25500000920E-02 0.  1.
    10030    2    1    2    0    0  0.00000000000E+00  0.00000000000E+00  0.78369260990E+03  0.37933144780E+04  0.37114768788E+04 0.  0.
        5    1    3    3  502    0 -0.16272309507E+04 -0.48412565676E+03 -0.37399909719E+03  0.17384348228E+04  0.46999998093E+01 0.  1.
       -5    1    3    3    0  502  0.16272309507E+04  0.48412565676E+03  0.11576917071E+04  0.20548796552E+04  0.46999998093E+01 0. -1.
</event>
<event>
 5   0  0.2996969E-07  0.3396217E+04  0.7818609E-02  0.8138835E-01
        2   -1    0    0  501    0  0.00000000000E+00  0.00000000000E+00  0.12711876423E+04  0.12711876423E+04  0.25500000920E-02 0. -1.
       -2   -1    0    0    0  501  0.00000000000E+00  0.00000000000E+00 -0.22684087977E+04  0.22684087977E+04  0.25500000920E-02 0.  1.
    10030    2    1    2    0    0  0.00000000000E+00  0.00000000000E+00 -0.99722115544E+03  0.35395964400E+04  0.33962174437E+04 0.  0.
        1    1    3    3  502    0 -0.71780096722E+03 -0.98236641241E+03  0.73600618033E+03  0.14219659259E+04  0.50400001928E-02 0. -1.
       -1    1    3    3    0  502  0.71780096722E+03  0.98236641241E+03 -0.17332273358E+04  0.21176305141E+04  0.50400001928E-02 0.  1.
</event>
<event>
 5   0  0.2913025E-07  0.3616939E+04  0.7818609E-02  0.8086623E-01
        2   -1    0    0  501    0  0.00000000000E+00  0.00000000000E+00  0.11497836323E+04  0.11497836323E+04  0.25500000920E-02 0.  1.
       -2   -1    0    0    0  501  0.00000000000E+00  0.00000000000E+00 -0.28445022911E+04  0.28445022911E+04  0.25500000920E-02 0. -1.
    10030    2    1    2    0    0  0.00000000000E+00  0.00000000000E+00 -0.16947186587E+04  0.39942859234E+04  0.36169391349E+04 0.  0.
        5    1    3    3  502    0  0.16827063030E+04  0.43289174127E+03 -0.29338260324E+03  0.17620985227E+04  0.46999998093E+01 0.  1.
       -5    1    3    3    0  502 -0.16827063030E+04 -0.43289174127E+03 -0.14013360555E+04  0.22321874008E+04  0.46999998093E+01 0. -1.
</event>
<event>
 5   0  0.2996969E-07  0.3686924E+04  0.7818609E-02  0.8070866E-01
        2   -1    0    0  501    0  0.00000000000E+00  0.00000000000E+00  0.18632218465E+04  0.18632218465E+04  0.25500000920E-02 0.  1.
       -2   -1    0    0    0  501  0.00000000000E+00  0.00000000000E+00 -0.18239117260E+04  0.18239117260E+04  0.25500000920E-02 0. -1.
    10030    2    1    2    0    0  0.00000000000E+00  0.00000000000E+00  0.39310120522E+02  0.36871335725E+04  0.36869240155E+04 0.  0.
        1    1    3    3  502    0  0.89383153110E+03  0.16076271052E+04 -0.10263213671E+03  0.18422630297E+04  0.50400001928E-02 0.  1.
       -1    1    3    3    0  502 -0.89383153110E+03 -0.16076271052E+04  0.14194225723E+03  0.18448705428E+04  0.50400001928E-02 0. -1.
</event>
<event>
 5   0  0.9341000E-08  0.3543050E+04  0.7818609E-02  0.8103663E-01
        1   -1    0    0  501    0  0.00000000000E+00  0.00000000000E+00  0.14285972898E+04  0.14285972898E+04  0.50400001928E-02 0.  1.
       -1   -1    0    0    0  501  0.00000000000E+00  0.00000000000E+00 -0.21967711043E+04  0.21967711043E+04  0.50400001928E-02 0. -1.
    10030    2    1    2    0    0  0.00000000000E+00  0.00000000000E+00 -0.76817381446E+03  0.36253683941E+04  0.35430502373E+04 0.  0.
        4    1    3    3  502    0  0.17892016151E+03  0.16970127187E+04 -0.87099461765E+03  0.19158543339E+04  0.12699999809E+01 0. -1.
       -4    1    3    3    0  502 -0.17892016151E+03 -0.16970127187E+04  0.10282080319E+03  0.17095140603E+04  0.12699999809E+01 0.  1.
</event>
<event>
 5   0  0.9341000E-08  0.3720945E+04  0.7818609E-02  0.8063336E-01
        1   -1    0    0  501    0  0.00000000000E+00  0.00000000000E+00  0.18853892521E+04  0.18853892521E+04  0.50400001928E-02 0. -1.
       -1   -1    0    0    0  501  0.00000000000E+00  0.00000000000E+00 -0.18358854666E+04  0.18358854666E+04  0.50400001928E-02 0.  1.
    10030    2    1    2    0    0  0.00000000000E+00  0.00000000000E+00  0.49503785444E+02  0.37212747187E+04  0.37209454320E+04 0.  0.
        3    1    3    3  502    0 -0.99437334322E+03 -0.43150513714E+03 -0.14874611791E+04  0.18405205238E+04  0.10100000352E+00 0.  1.
       -3    1    3    3    0  502  0.99437334322E+03  0.43150513714E+03  0.15369649646E+04  0.18807541949E+04  0.10100000352E+00 0. -1.
</event>
<event>
 5   0  0.2996969E-07  0.3701765E+04  0.7818609E-02  0.8067571E-01
        2   -1    0    0  501    0  0.00000000000E+00  0.00000000000E+00  0.25007568448E+04  0.25007568448E+04  0.25500000920E-02 0.  1.
       -2   -1    0    0    0  501  0.00000000000E+00  0.00000000000E+00 -0.13698920245E+04  0.13698920245E+04  0.25500000920E-02 0. -1.
    10030    2    1    2    0    0  0.00000000000E+00  0.00000000000E+00  0.11308648203E+04  0.38706488693E+04  0.37017654474E+04 0.  0.
        1    1    3    3  502    0  0.46739344394E+03 -0.26916923236E+03  0.24167623525E+04  0.24762166657E+04  0.50400001928E-02 0.  1.
       -1    1    3    3    0  502 -0.46739344394E+03  0.26916923236E+03 -0.12858975322E+04  0.13944322036E+04  0.50400001928E-02 0. -1.
</event>
<event>
 5   0  0.9646615E-08  0.3682511E+04  0.7818609E-02  0.8071849E-01
        1   -1    0    0  501    0  0.00000000000E+00  0.00000000000E+00  0.16227291096E+04  0.16227291097E+04  0.50400001928E-02 0.  1.
       -1   -1    0    0    0  501  0.00000000000E+00  0.00000000000E+00 -0.20892102358E+04  0.20892102358E+04  0.50400001928E-02 0. -1.
    10030    2    1    2    0    0  0.00000000000E+00  0.00000000000E+00 -0.46648112611E+03  0.37119393454E+04  0.36825112441E+04 0.  0.
        2    1    3    3  502    0  0.40174796569E+03 -0.88822759564E+03 -0.18077322149E+04  0.20538367633E+04  0.25500000920E-02 0. -1.
       -2    1    3    3    0  502 -0.40174796569E+03  0.88822759564E+03  0.13412510888E+04  0.16581025821E+04  0.25500000920E-02 0.  1.
</event>
<event>
 5   0  0.3008879E-07  0.3684235E+04  0.7818609E-02  0.8071465E-01
        2   -1    0    0  501    0  0.00000000000E+00  0.00000000000E+00  0.20888856566E+04  0.20888856566E+04  0.25500000920E-02 0. -1.
       -2   -1    0    0    0  501  0.00000000000E+00  0.00000000000E+00 -0.16245009300E+04  0.16245009300E+04  0.25500000920E-02 0.  1.
    10030    2    1    2    0    0  0.00000000000E+00  0.00000000000E+00  0.46438472659E+03  0.37133865866E+04  0.36842348958E+04 0.  0.
        2    1    3    3  502    0  0.75210685666E+03  0.14627669237E+04  0.10682404188E+04  0.19612468965E+04  0.25500000920E-02 0. -1.
       -2    1    3    3    0  502 -0.75210685666E+03 -0.14627669237E+04 -0.60385569216E+03  0.17521396901E+04  0.25500000920E-02 0.  1.
</event>
<event>
 5   0  0.9341000E-08  0.3283436E+04  0.7818609E-02  0.8167123E-01
       -1   -1    0    0    0  501  0.00000000000E+00  0.00000000000E+00  0.14218259799E+04  0.14218259799E+04  0.50400001928E-02 0.  1.
        1   -1    0    0  501    0  0.00000000000E+00  0.00000000000E+00 -0.18956175907E+04  0.18956175907E+04  0.50400001928E-02 0. -1.
    10030    2    1    2    0    0  0.00000000000E+00  0.00000000000E+00 -0.47379161079E+03  0.33174435707E+04  0.32834362114E+04 0.  0.
        4    1    3    3  502    0 -0.66346653305E+03  0.14981743852E+04 -0.13325463777E+03  0.16439199312E+04  0.12699999809E+01 0. -1.
       -4    1    3    3    0  502  0.66346653305E+03 -0.14981743852E+04 -0.34053697301E+03  0.16735236394E+04  0.12699999809E+01 0.  1.
</event>
<event>
 5   0  0.2913025E-07  0.3694692E+04  0.7818609E-02  0.8069139E-01
        2   -1    0    0  501    0  0.00000000000E+00  0.00000000000E+00  0.20472986821E+04  0.20472986821E+04  0.25500000920E-02 0.  1.
       -2   -1    0    0    0  501  0.00000000000E+00  0.00000000000E+00 -0.16669216570E+04  0.16669216570E+04  0.25500000920E-02 0. -1.
    10030    2    1    2    0    0  0.00000000000E+00  0.00000000000E+00  0.38037702508E+03  0.37142203391E+04  0.36946916037E+04 0.  0.
        5    1    3    3  502    0 -0.13013890412E+04  0.75841127563E+03  0.12653570261E+04  0.19672192539E+04  0.46999998093E+01 0.  1.
       -5    1    3    3    0  502  0.13013890412E+04 -0.75841127563E+03 -0.88498000100E+03  0.17470010852E+04  0.46999998093E+01 0. -1.
</event>
<event>
 5   0  0.9341000E-08  0.3689703E+04  0.7818609E-02  0.8070248E-01
        1   -1    0    0  501    0  0.00000000000E+00  0.00000000000E+00  0.16142916866E+04  0.16142916866E+04  0.50400001928E-02 0.  1.
       -1   -1    0    0    0  501  0.00000000000E+00  0.00000000000E+00 -0.21083406456E+04  0.21083406456E+04  0.50400001928E-02 0. -1.
    10030    2    1    2    0    0  0.00000000000E+00  0.00000000000E+00 -0.49404895896E+03  0.37226323323E+04  0.36897028481E+04 0.  0.
        1    1    3    3  502    0  0.46381632823E+02  0.23735021937E+03 -0.20922786307E+04  0.21062089761E+04  0.50400001928E-02 0. -1.
       -1    1    3    3    0  502 -0.46381632823E+02 -0.23735021937E+03  0.15982296718E+04  0.16164233561E+04  0.50400001928E-02 0.  1.
</event>
<event>
 5   0  0.2996969E-07  0.3710075E+04  0.7818609E-02  0.8065733E-01
        2   -1    0    0  501    0  0.00000000000E+00  0.00000000000E+00  0.13607669731E+04  0.13607669731E+04  0.25500000920E-02 0. -1.
       -2   -1    0    0    0  501  0.00000000000E+00  0.00000000000E+00 -0.25288417575E+04  0.25288417575E+04  0.25500000920E-02 0.  1.
    10030    2    1    2    0    0  0.00000000000E+00  0.00000000000E+00 -0.11680747844E+04  0.38896087306E+04  0.37100751172E+04 0.  0.
        1    1    3    3  502    0  0.40655332979E+03 -0.23824854808E+03 -0.24650493281E+04  0.25096844763E+04  0.50400001928E-02 0.  1.
       -1    1    3    3    0  502 -0.40655332979E+03  0.23824854808E+03  0.12969745437E+04  0.13799242543E+04  0.50400001928E-02 0. -1.
</event>
<event>
 5   0  0.9646615E-08  0.3490348E+04  0.7818609E-02  0.8116081E-01
       -1   -1    0    0    0  501  0.00000000000E+00  0.00000000000E+00  0.10959801968E+04  0.10959801969E+04  0.50400001928E-02 0.  1.
        1   -1    0    0  501    0  0.00000000000E+00  0.00000000000E+00 -0.27789114985E+04  0.27789114985E+04  0.50400001928E-02 0. -1.
    10030    2    1    2    0    0  0.00000000000E+00  0.00000000000E+00 -0.16829313016E+04  0.38748916953E+04  0.34903478171E+04 0.  0.
        2    1    3    3  502    0  0.49306121269E+03 -0.16562264458E+04 -0.57080960214E+03  0.18198953270E+04  0.25500000920E-02 0.  1.
       -2    1    3    3    0  502 -0.49306121269E+03  0.16562264458E+04 -0.11121216995E+04  0.20549963683E+04  0.25500000920E-02 0. -1.
</event>
<event>
 5   0  0.9646615E-08  0.3735215E+04  0.7818609E-02  0.8060202E-01
        1   -1    0    0  501    0  0.00000000000E+00  0.00000000000E+00  0.35400570255E+04  0.35400570255E+04  0.50400001928E-02 0.  1.
       -1   -1    0    0    0  501  0.00000000000E+00  0.00000000000E+00 -0.98528312358E+03  0.98528312360E+03  0.50400001928E-02 0. -1.
    10030    2    1    2    0    0  0.00000000000E+00  0.00000000000E+00  0.25547739019E+04  0.45253401491E+04  0.37352153586E+04 0.  0.
        2    1    3    3  502    0  0.16791888724E+04  0.17838623993E+03  0.22439310177E+04  0.28083310581E+04  0.25500000920E-02 0.  1.
       -2    1    3    3    0  502 -0.16791888724E+04 -0.17838623993E+03  0.31084288425E+03  0.17170090910E+04  0.25500000920E-02 0. -1.
</event>
<event>
 5   0  0.9418945E-08  0.3695479E+04  0.7818609E-02  0.8068964E-01
       -1   -1    0    0    0  501  0.00000000000E+00  0.00000000000E+00  0.17866334528E+04  0.17866334528E+04  0.50400001928E-02 0.  1.
        1   -1    0    0  501    0  0.00000000000E+00  0.00000000000E+00 -0.19109358462E+04  0.19109358462E+04  0.50400001928E-02 0. -1.
    10030    2    1    2    0    0  0.00000000000E+00  0.00000000000E+00 -0.12430239342E+03  0.36975692990E+04  0.36954793513E+04 0.  0.
        5    1    3    3  502    0 -0.15153800315E+04 -0.98377812658E+03 -0.44957009288E+03  0.18618086369E+04  0.46999998093E+01 0. -1.
       -5    1    3    3    0  502  0.15153800315E+04  0.98377812658E+03  0.32526769946E+03  0.18357606621E+04  0.46999998093E+01 0.  1.
</event>
<event>
 5   0  0.9418945E-08  0.3736053E+04  0.7818609E-02  0.8060019E-01
        1   -1    0    0  501    0  0.00000000000E+00  0.00000000000E+00  0.22541532900E+04  0.22541532900E+04  0.50400001928E-02 0. -1.
       -1   -1    0    0    0  501  0.00000000000E+00  0.00000000000E+00 -0.15480416274E+04  0.15480416274E+04  0.50400001928E-02 0.  1.
    10030    2    1    2    0    0  0.00000000000E+00  0.00000000000E+00  0.70611166266E+03  0.38021949174E+04  0.37360530657E+04 0.  0.
        5    1    3    3  502    0  0.12519287902E+03  0.16559729605E+04  0.12235235080E+04  0.20627533948E+04  0.46999998093E+01 0. -1.
       -5    1    3    3    0  502 -0.12519287902E+03 -0.16559729605E+04 -0.51741184537E+03  0.17394415226E+04  0.46999998093E+01 0.  1.
</event>
<event>
 5   0  0.9341000E-08  0.3708203E+04  0.7818609E-02  0.8066146E-01
       -1   -1    0    0    0  501  0.00000000000E+00  0.00000000000E+00  0.16528902915E+04  0.16528902915E+04  0.50400001928E-02 0.  1.
        1   -1    0    0  501    0  0.00000000000E+00  0.00000000000E+00 -0.20798063455E+04  0.20798063455E+04  0.50400001928E-02 0. -1.
    10030    2    1    2    0    0  0.00000000000E+00  0.00000000000E+00 -0.42691605393E+03  0.37326966370E+04  0.37082026464E+04 0.  0.
        4    1    3    3  502    0  0.16039940799E+04 -0.33726315540E+03  0.65895392368E+03  0.17665688016E+04  0.12699999809E+01 0.  1.
       -4    1    3    3    0  502 -0.16039940799E+04  0.33726315540E+03 -0.10858699776E+04  0.19661278355E+04  0.12699999809E+01 0. -1.
</event>
<event>
 5   0  0.2897133E-07  0.3669649E+04  0.7818609E-02  0.8074721E-01
        2   -1    0    0  501    0  0.00000000000E+00  0.00000000000E+00  0.27929087550E+04  0.27929087550E+04  0.25500000920E-02 0.  1.
       -2   -1    0    0    0  501  0.00000000000E+00  0.00000000000E+00 -0.12054031409E+04  0.12054031409E+04  0.25500000920E-02 0. -1.
    10030    2    1    2    0    0  0.00000000000E+00  0.00000000000E+00  0.15875056141E+04  0.39983118960E+04  0.36696490217E+04 0.  0.
        4    1    3    3  502    0 -0.15887108747E+03  0.49512886248E+03 -0.11234396643E+04  0.12379462448E+04  0.12699999809E+01 0. -1.
       -4    1    3    3    0  502  0.15887108747E+03 -0.49512886248E+03  0.27109452784E+04  0.27603656512E+04  0.12699999809E+01 0.  1.
</event>
<event>
 5   0  0.2996969E-07  0.3606687E+04  0.7818609E-02  0.8088962E-01
        2   -1    0    0  501    0  0.00000000000E+00  0.00000000000E+00  0.18991099859E+04  0.18991099859E+04  0.25500000920E-02 0. -1.
       -2   -1    0    0    0  501  0.00000000000E+00  0.00000000000E+00 -0.17124065994E+04  0.17124065994E+04  0.25500000920E-02 0.  1.
    10030    2    1    2    0    0  0.00000000000E+00  0.00000000000E+00  0.18670338647E+03  0.36115165853E+04  0.36066873847E+04 0.  0.
        1    1    3    3  502    0  0.16245243493E+04  0.77325363036E+03  0.21618596602E+03  0.18121084157E+04  0.50400001928E-02 0.  1.
       -1    1    3    3    0  502 -0.16245243493E+04 -0.77325363036E+03 -0.29482579547E+02  0.17994081696E+04  0.50400001928E-02 0. -1.
</event>
<event>
 5   0  0.2913025E-07  0.3695645E+04  0.7818609E-02  0.8068928E-01
       -2   -1    0    0    0  501  0.00000000000E+00  0.00000000000E+00  0.27822134556E+04  0.27822134556E+04  0.25500000920E-02 0. -1.
        2   -1    0    0  501    0  0.00000000000E+00  0.00000000000E+00 -0.12272415343E+04  0.12272415343E+04  0.25500000920E-02 0.  1.
    10030    2    1    2    0    0  0.00000000000E+00  0.00000000000E+00  0.15549719214E+04  0.40094549899E+04  0.36956449559E+04 0.  0.
        5    1    3    3  502    0 -0.10593967268E+04 -0.25340966182E+03  0.23968398628E+04  0.26327554576E+04  0.46999998093E+01 0. -1.
       -5    1    3    3    0  502  0.10593967268E+04  0.25340966182E+03 -0.84186794142E+03  0.13766995323E+04  0.46999998093E+01 0.  1.
</event>
<event>
 5   0  0.3008879E-07  0.3677967E+04  0.7818609E-02  0.8072862E-01
       -2   -1    0    0    0  501  0.00000000000E+00  0.00000000000E+00  0.12136808489E+04  0.12136808489E+04  0.25500000920E-02 0.  1.
        2   -1    0    0  501    0  0.00000000000E+00  0.00000000000E+00 -0.27864488547E+04  0.27864488547E+04  0.25500000920E-02 0. -1.
    10030    2    1    2    0    0  0.00000000000E+00  0.00000000000E+00 -0.15727680058E+04  0.40001297036E+04  0.36779666183E+04 0.  0.
        2    1    3    3  502    0  0.65182450427E+03  0.12900362514E+04 -0.20229873936E+04  0.24862716483E+04  0.25500000920E-02 0. -1.
       -2    1    3    3    0  502 -0.65182450427E+03 -0.12900362514E+04  0.45021938780E+03  0.15138580553E+04  0.25500000920E-02 0.  1.
</event>
<event>
 5   0  0.9646615E-08  0.3672429E+04  0.7818609E-02  0.8074099E-01
       -1   -1    0    0    0  501  0.00000000000E+00  0.00000000000E+00  0.22274017825E+04  0.22274017825E+04  0.50400001928E-02 0. -1.
        1   -1    0    0  501    0  0.00000000000E+00  0.00000000000E+00 -0.15137297627E+04  0.15137297627E+04  0.50400001928E-02 0.  1.
    10030    2    1    2    0    0  0.00000000000E+00  0.00000000000E+00  0.71367201979E+03  0.37411315453E+04  0.36724293713E+04 0.  0.
        2    1    3    3  502    0 -0.75156444350E+03  0.12334228111E+04  0.15118470796E+04  0.20908999344E+04  0.25500000920E-02 0. -1.
       -2    1    3    3    0  502  0.75156444350E+03 -0.12334228111E+04 -0.79817505976E+03  0.16502316109E+04  0.25500000920E-02 0.  1.
</event>
<event>
 5   0  0.9341000E-08  0.3679277E+04  0.7818609E-02  0.8072570E-01
        1   -1    0    0  501    0  0.00000000000E+00  0.00000000000E+00  0.11190042373E+04  0.11190042373E+04  0.50400001928E-02 0.  1.
       -1   -1    0    0    0  501  0.00000000000E+00  0.00000000000E+00 -0.30243582479E+04  0.30243582479E+04  0.50400001928E-02 0. -1.
    10030    2    1    2    0    0  0.00000000000E+00  0.00000000000E+00 -0.19053540107E+04  0.41433624852E+04  0.36792769368E+04 0.  0.
        1    1    3    3  502    0  0.41726321478E+03 -0.48412830471E+03 -0.28953107417E+04  0.29650148561E+04  0.50400001928E-02 0. -1.
       -1    1    3    3    0  502 -0.41726321478E+03  0.48412830471E+03  0.98995673099E+03  0.11783476291E+04  0.50400001928E-02 0.  1.
</event>
<event>
 5   0  0.2913025E-07  0.3688525E+04  0.7818609E-02  0.8070510E-01
        2   -1    0    0  501    0  0.00000000000E+00  0.00000000000E+00  0.14952314935E+04  0.14952314935E+04  0.25500000920E-02 0.  1.
       -2   -1    0    0    0  501  0.00000000000E+00  0.00000000000E+00 -0.22747670678E+04  0.22747670678E+04  0.25500000920E-02 0. -1.
    10030    2    1    2    0    0  0.00000000000E+00  0.00000000000E+00 -0.77953557422E+03  0.37699985613E+04  0.36885245615E+04 0.  0.
        5    1    3    3  502    0 -0.89673607427E+03 -0.82529695258E+03 -0.18045504452E+04  0.21775387588E+04  0.46999998093E+01 0. -1.
       -5    1    3    3    0  502  0.89673607427E+03  0.82529695258E+03  0.10250148710E+04  0.15924598025E+04  0.46999998093E+01 0.  1.
</event>
<event>
 5   0  0.2996969E-07  0.3710461E+04  0.7818609E-02  0.8065647E-01
        2   -1    0    0  501    0  0.00000000000E+00  0.00000000000E+00  0.12776364057E+04  0.12776364057E+04  0.25500000920E-02 0. -1.
       -2   -1    0    0    0  501  0.00000000000E+00  0.00000000000E+00 -0.26939435293E+04  0.26939435293E+04  0.25500000920E-02 0.  1.
    10030    2    1    2    0    0  0.00000000000E+00  0.00000000000E+00 -0.14163071236E+04  0.39715799349E+04  0.37104610645E+04 0.  0.
        1    1    3    3  502    0  0.93057499989E+03  0.13657343823E+04  0.19419120683E+03  0.16640043444E+04  0.50400001928E-02 0. -1.
       -1    1    3    3    0  502 -0.93057499989E+03 -0.13657343823E+04 -0.16104983304E+04  0.23075755905E+04  0.50400001928E-02 0.  1.
</event>
<event>
 5   0  0.9341000E-08  0.3709207E+04  0.7818609E-02  0.8065925E-01
        3   -1    0    0  501    0  0.00000000000E+00  0.00000000000E+00  0.13927865870E+04  0.13927865907E+04  0.10100000352E+00 0.  1.
       -3   -1    0    0    0  501  0.00000000000E+00  0.00000000000E+00 -0.24695482928E+04  0.24695482948E+04  0.10100000352E+00 0. -1.
    10030    2    1    2    0    0  0.00000000000E+00  0.00000000000E+00 -0.10767617057E+04  0.38623348855E+04  0.37092067881E+04 0.  0.
        1    1    3    3  502    0  0.14634798383E+04  0.40988719397E+03  0.56840723612E+03  0.16226113320E+04  0.50400001928E-02 0.  1.
       -1    1    3    3    0  502 -0.14634798383E+04 -0.40988719397E+03 -0.16451689419E+04  0.22397235535E+04  0.50400001928E-02 0. -1.
</event>
<event>
 5   0  0.9341000E-08  0.3861630E+04  0.7818609E-02  0.8033057E-01
       -1   -1    0    0    0  501  0.00000000000E+00  0.00000000000E+00  0.18389316035E+04  0.18389316035E+04  0.50400001928E-02 0. -1.
        1   -1    0    0  501    0  0.00000000000E+00  0.00000000000E+00 -0.20272898657E+04  0.20272898657E+04  0.50400001928E-02 0.  1.
    10030    2    1    2    0    0  0.00000000000E+00  0.00000000000E+00 -0.18835826219E+03  0.38662214692E+04  0.38616304347E+04 0.  0.
        3    1    3    3  502    0 -0.81415859006E+03 -0.16095998307E+04  0.59539335190E+03  0.18995154852E+04  0.10100000352E+00 0. -1.
       -3    1    3    3    0  502  0.81415859006E+03  0.16095998307E+04 -0.78375161409E+03  0.19667059840E+04  0.10100000352E+00 0.  1.
</event>
<event>
 5   0  0.2913025E-07  0.3709174E+04  0.7818609E-02  0.8065932E-01
        2   -1    0    0  501    0  0.00000000000E+00  0.00000000000E+00  0.15153908016E+04  0.15153908016E+04  0.25500000920E-02 0.  1.
       -2   -1    0    0    0  501  0.00000000000E+00  0.00000000000E+00 -0.22697063928E+04  0.22697063928E+04  0.25500000920E-02 0. -1.
    10030    2    1    2    0    0  0.00000000000E+00  0.00000000000E+00 -0.75431559125E+03  0.37850971945E+04  0.37091735953E+04 0.  0.
        5    1    3    3  502    0  0.16010365685E+04  0.52438954206E+03 -0.11683785393E+04  0.20502275451E+04  0.46999998093E+01 0.  1.
       -5    1    3    3    0  502 -0.16010365685E+04 -0.52438954206E+03  0.41406294801E+03  0.17348696494E+04  0.46999998093E+01 0. -1.
</event>
<event>
 5   0  0.9341000E-08  0.3754617E+04  0.7818609E-02  0.8055965E-01
       -1   -1    0    0    0  501  0.00000000000E+00  0.00000000000E+00  0.19946498905E+04  0.19946498905E+04  0.50400001928E-02 0. -1.
        1   -1    0    0  501    0  0.00000000000E+00  0.00000000000E+00 -0.17668696132E+04  0.17668696132E+04  0.50400001928E-02 0.  1.
    10030    2    1    2    0    0  0.00000000000E+00  0.00000000000E+00  0.22778027723E+03  0.37615195037E+04  0.37546165080E+04 0.  0.
        3    1    3    3  502    0 -0.70839531265E+03  0.11452212314E+04  0.14243204799E+04  0.19601133711E+04  0.10100000352E+00 0. -1.
       -3    1    3    3    0  502  0.70839531265E+03 -0.11452212314E+04 -0.11965402026E+04  0.18014061326E+04  0.10100000352E+00 0.  1.
</event>
<event>
 5   0  0.2913025E-07  0.3710509E+04  0.7818609E-02  0.8065637E-01
        2   -1    0    0  501    0  0.00000000000E+00  0.00000000000E+00  0.11779912448E+04  0.11779912448E+04  0.25500000920E-02 0. -1.
       -2   -1    0    0    0  501  0.00000000000E+00  0.00000000000E+00 -0.29218967221E+04  0.29218967221E+04  0.25500000920E-02 0.  1.
    10030    2    1    2    0    0  0.00000000000E+00  0.00000000000E+00 -0.17439054773E+04  0.40998879669E+04  0.37105087289E+04 0.  0.
        5    1    3    3  502    0 -0.14999875394E+04  0.62046200104E+03 -0.18645618254E+04  0.24721546480E+04  0.46999998093E+01 0.  1.
       -5    1    3    3    0  502  0.14999875394E+04 -0.62046200104E+03  0.12065634801E+03  0.16277333189E+04  0.46999998093E+01 0. -1.
</event>
<event>
 5   0  0.9646615E-08  0.3365140E+04  0.7818609E-02  0.8146515E-01
        1   -1    0    0  501    0  0.00000000000E+00  0.00000000000E+00  0.24666191001E+04  0.24666191001E+04  0.50400001928E-02 0. -1.
       -1   -1    0    0    0  501  0.00000000000E+00  0.00000000000E+00 -0.11477420701E+04  0.11477420701E+04  0.50400001928E-02 0.  1.
    10030    2    1    2    0    0  0.00000000000E+00  0.00000000000E+00  0.13188770300E+04  0.36143611702E+04  0.33651404204E+04 0.  0.
        2    1    3    3  502    0  0.27221189535E+03 -0.10995337094E+04 -0.67687838493E+03  0.13195597910E+04  0.25500000920E-02 0.  1.
       -2    1    3    3    0  502 -0.27221189535E+03  0.10995337094E+04  0.19957554149E+04  0.22948013792E+04  0.25500000920E-02 0. -1.
</event>
<event>
 5   0  0.2996969E-07  0.3901022E+04  0.7818609E-02  0.8024817E-01
       -2   -1    0    0    0  501  0.00000000000E+00  0.00000000000E+00  0.14082561298E+04  0.14082561298E+04  0.25500000920E-02 0. -1.
        2   -1    0    0  501    0  0.00000000000E+00  0.00000000000E+00 -0.27015639190E+04  0.27015639190E+04  0.25500000920E-02 0.  1.
    10030    2    1    2    0    0  0.00000000000E+00  0.00000000000E+00 -0.12933077892E+04  0.41098200489E+04  0.39010224040E+04 0.  0.
        1    1    3    3  502    0 -0.51596016759E+03 -0.18787979911E+04 -0.74319464280E+03  0.20852901628E+04  0.50400001928E-02 0.  1.
       -1    1    3    3    0  502  0.51596016759E+03  0.18787979911E+04 -0.55011314640E+03  0.20245298861E+04  0.50400001928E-02 0. -1.
</event>
<event>
 5   0  0.9646615E-08  0.3711459E+04  0.7818609E-02  0.8065427E-01
       -1   -1    0    0    0  501  0.00000000000E+00  0.00000000000E+00  0.21057285517E+04  0.21057285518E+04  0.50400001928E-02 0.  1.
        1   -1    0    0  501    0  0.00000000000E+00  0.00000000000E+00 -0.16354108458E+04  0.16354108458E+04  0.50400001928E-02 0. -1.
    10030    2    1    2    0    0  0.00000000000E+00  0.00000000000E+00  0.47031770597E+03  0.37411393975E+04  0.37114586415E+04 0.  0.
        2    1    3    3  502    0  0.80340942280E+03  0.74589773038E+03 -0.12741130901E+04  0.16808314285E+04  0.25500000920E-02 0. -1.
       -2    1    3    3    0  502 -0.80340942280E+03 -0.74589773038E+03  0.17444307961E+04  0.20603079690E+04  0.25500000920E-02 0.  1.
</event>
<event>
 5   0  0.2897133E-07  0.3424608E+04  0.7818609E-02  0.8131893E-01
       -2   -1    0    0    0  501  0.00000000000E+00  0.00000000000E+00  0.18537673385E+04  0.18537673385E+04  0.25500000920E-02 0.  1.
        2   -1    0    0  501    0  0.00000000000E+00  0.00000000000E+00 -0.15816360368E+04  0.15816360368E+04  0.25500000920E-02 0. -1.
    10030    2    1    2    0    0  0.00000000000E+00  0.00000000000E+00  0.27213130173E+03  0.34354033754E+04  0.34246081391E+04 0.  0.
        4    1    3    3  502    0 -0.79751215210E+03 -0.92151196653E+03  0.13426762965E+04  0.18132818830E+04  0.12699999809E+01 0.  1.
       -4    1    3    3    0  502  0.79751215210E+03  0.92151196653E+03 -0.10705449948E+04  0.16221214923E+04  0.12699999809E+01 0. -1.
</event>
<event>
 5   0  0.9341000E-08  0.3692716E+04  0.7818609E-02  0.8069578E-01
        1   -1    0    0  501    0  0.00000000000E+00  0.00000000000E+00  0.24776942641E+04  0.24776942641E+04  0.50400001928E-02 0. -1.
       -1   -1    0    0    0  501  0.00000000000E+00  0.00000000000E+00 -0.13758910760E+04  0.13758910760E+04  0.50400001928E-02 0.  1.
    10030    2    1    2    0    0  0.00000000000E+00  0.00000000000E+00  0.11018031880E+04  0.38535853401E+04  0.36927157633E+04 0.  0.
        4    1    3    3  502    0 -0.15687117975E+04  0.29924043797E+03 -0.41609113853E+03  0.16503136041E+04  0.12699999809E+01 0.  1.
       -4    1    3    3    0  502  0.15687117975E+04 -0.29924043797E+03  0.15178943266E+04  0.22032717360E+04  0.12699999809E+01 0. -1.
</event>
<event>
 5   0  0.9646615E-08  0.3597253E+04  0.7818609E-02  0.8091121E-01
       -1   -1    0    0    0  501  0.00000000000E+00  0.00000000000E+00  0.33407348531E+04  0.33407348531E+04  0.50400001928E-02 0. -1.
        1   -1    0    0  501    0  0.00000000000E+00  0.00000000000E+00 -0.96836711659E+03  0.96836711660E+03  0.50400001928E-02 0.  1.
    10030    2    1    2    0    0  0.00000000000E+00  0.00000000000E+00  0.23723677365E+04  0.43091019697E+04  0.35972532727E+04 0.  0.
        2    1    3    3  502    0  0.32876016173E+03  0.79539888709E+03 -0.70568668100E+03  0.11129853212E+04  0.25500000920E-02 0.  1.
       -2    1    3    3    0  502 -0.32876016173E+03 -0.79539888709E+03  0.30780544175E+04  0.31961166485E+04  0.25500000920E-02 0. -1.
</event>
<event>
 5   0  0.9418945E-08  0.3656726E+04  0.7818609E-02  0.8077620E-01
       -1   -1    0    0    0  501  0.00000000000E+00  0.00000000000E+00  0.22641760619E+04  0.22641760619E+04  0.50400001928E-02 0. -1.
        1   -1    0    0  501    0  0.00000000000E+00  0.00000000000E+00 -0.14764359863E+04  0.14764359863E+04  0.50400001928E-02 0.  1.
    10030    2    1    2    0    0  0.00000000000E+00  0.00000000000E+00  0.78774007562E+03  0.37406120481E+04  0.36567258672E+04 0.  0.
        5    1    3    3  502    0 -0.34074963622E+02 -0.87816042228E+03  0.20339473246E+04  0.22156919099E+04  0.46999998093E+01 0. -1.
       -5    1    3    3    0  502  0.34074963622E+02  0.87816042228E+03 -0.12462072490E+04  0.15249201382E+04  0.46999998093E+01 0.  1.
</event>
<event>
 5   0  0.9646615E-08  0.3723850E+04  0.7818609E-02  0.8062697E-01
       -1   -1    0    0    0  501  0.00000000000E+00  0.00000000000E+00  0.13580731719E+04  0.13580731719E+04  0.50400001928E-02 0.  1.
        1   -1    0    0  501    0  0.00000000000E+00  0.00000000000E+00 -0.25527079815E+04  0.25527079815E+04  0.50400001928E-02 0. -1.
    10030    2    1    2    0    0  0.00000000000E+00  0.00000000000E+00 -0.11946348096E+04  0.39107811535E+04  0.37238497421E+04 0.  0.
        2    1    3    3  502    0 -0.15706809300E+03  0.13604395072E+04 -0.19221077328E+04  0.23600771544E+04  0.25500000920E-02 0. -1.
       -2    1    3    3    0  502  0.15706809300E+03 -0.13604395072E+04  0.72747292320E+03  0.15507039990E+04  0.25500000920E-02 0.  1.
</event>
<event>
 5   0  0.9341000E-08  0.3640069E+04  0.7818609E-02  0.8081374E-01
        1   -1    0    0  501    0  0.00000000000E+00  0.00000000000E+00  0.20756341465E+04  0.20756341465E+04  0.50400001928E-02 0.  1.
       -1   -1    0    0    0  501  0.00000000000E+00  0.00000000000E+00 -0.15959105385E+04  0.15959105385E+04  0.50400001928E-02 0. -1.
    10030    2    1    2    0    0  0.00000000000E+00  0.00000000000E+00  0.47972360800E+03  0.36715446849E+04  0.36400694545E+04 0.  0.
        3    1    3    3  502    0 -0.81898057954E+03 -0.16052910076E+04 -0.16973024980E+02  0.18022143331E+04  0.10100000352E+00 0. -1.
       -3    1    3    3    0  502  0.81898057954E+03  0.16052910076E+04  0.49669663298E+03  0.18693303518E+04  0.10100000352E+00 0.  1.
</event>
<event>
 5   0  0.9418945E-08  0.3688086E+04  0.7818609E-02  0.8070607E-01
        1   -1    0    0  501    0  0.00000000000E+00  0.00000000000E+00  0.25054799925E+04  0.25054799925E+04  0.50400001928E-02 0.  1.
       -1   -1    0    0    0  501  0.00000000000E+00  0.00000000000E+00 -0.13572229650E+04  0.13572229650E+04  0.50400001928E-02 0. -1.
    10030    2    1    2    0    0  0.00000000000E+00  0.00000000000E+00  0.11482570275E+04  0.38627029575E+04  0.36880862160E+04 0.  0.
        5    1    3    3  502    0 -0.72621132238E+03 -0.77036521111E+03 -0.10072003065E+04  0.14612734141E+04  0.46999998093E+01 0. -1.
       -5    1    3    3    0  502  0.72621132238E+03  0.77036521111E+03  0.21554573340E+04  0.24014295434E+04  0.46999998093E+01 0.  1.
</event>
<event>
 5   0  0.9418945E-08  0.3675093E+04  0.7818609E-02  0.8073504E-01
       -1   -1    0    0    0  501  0.00000000000E+00  0.00000000000E+00  0.13254205805E+04  0.13254205805E+04  0.50400001928E-02 0.  1.
        1   -1    0    0  501    0  0.00000000000E+00  0.00000000000E+00 -0.25475517709E+04  0.25475517709E+04  0.50400001928E-02 0. -1.
    10030    2    1    2    0    0  0.00000000000E+00  0.00000000000E+00 -0.12221311904E+04  0.38729723514E+04  0.36750932217E+04 0.  0.
        5    1    3    3  502    0 -0.21959673121E+03  0.25836129576E+03  0.12921596916E+04  0.13359161808E+04  0.46999998093E+01 0.  1.
       -5    1    3    3    0  502  0.21959673121E+03 -0.25836129576E+03 -0.25142908820E+04  0.25370561706E+04  0.46999998093E+01 0. -1.
</event>
<event>
 5   0  0.9418945E-08  0.3795268E+04  0.7818609E-02  0.8047171E-01
       -1   -1    0    0    0  501  0.00000000000E+00  0.00000000000E+00  0.19576026902E+04  0.19576026902E+04  0.50400001928E-02 0. -1.
        1   -1    0    0  501    0  0.00000000000E+00  0.00000000000E+00 -0.18395021253E+04  0.18395021253E+04  0.50400001928E-02 0.  1.
    10030    2    1    2    0    0  0.00000000000E+00  0.00000000000E+00  0.11810056485E+03  0.37971048155E+04  0.37952677424E+04 0.  0.
        5    1    3    3  502    0  0.98508249846E+03 -0.16211547531E+04  0.94081556389E+01  0.18970083989E+04  0.46999998093E+01 0.  1.
       -5    1    3    3    0  502 -0.98508249846E+03  0.16211547531E+04  0.10869240921E+03  0.19000964165E+04  0.46999998093E+01 0. -1.
</event>
<event>
 5   0  0.2897133E-07  0.3693409E+04  0.7818609E-02  0.8069424E-01
        2   -1    0    0  501    0  0.00000000000E+00  0.00000000000E+00  0.23752417446E+04  0.23752417446E+04  0.25500000920E-02 0.  1.
       -2   -1    0    0    0  501  0.00000000000E+00  0.00000000000E+00 -0.14357770268E+04  0.14357770268E+04  0.25500000920E-02 0. -1.
    10030    2    1    2    0    0  0.00000000000E+00  0.00000000000E+00  0.93946471779E+03  0.38110187715E+04  0.36934090107E+04 0.  0.
        4    1    3    3  502    0  0.71745451973E+03  0.16649238920E+04  0.83250023915E+03  0.19949362935E+04  0.12699999809E+01 0.  1.
       -4    1    3    3    0  502 -0.71745451973E+03 -0.16649238920E+04  0.10696447864E+03  0.18160824780E+04  0.12699999809E+01 0. -1.
</event>
<event>
 5   0  0.9341000E-08  0.3687269E+04  0.7818609E-02  0.8070789E-01
       -1   -1    0    0    0  501  0.00000000000E+00  0.00000000000E+00  0.15809314128E+04  0.15809314128E+04  0.50400001928E-02 0.  1.
        1   -1    0    0  501    0  0.00000000000E+00  0.00000000000E+00 -0.21499903795E+04  0.21499903795E+04  0.50400001928E-02 0. -1.
    10030    2    1    2    0    0  0.00000000000E+00  0.00000000000E+00 -0.56905896669E+03  0.37309217923E+04  0.36872685436E+04 0.  0.
        4    1    3    3  502    0 -0.14213711809E+04 -0.10672049178E+04 -0.77998283567E+03  0.19410299347E+04  0.12699999809E+01 0. -1.
       -4    1    3    3    0  502  0.14213711809E+04  0.10672049178E+04  0.21092386899E+03  0.17898918576E+04  0.12699999809E+01 0.  1.
</event>
<event>
 5   0  0.3032442E-07  0.3707136E+04  0.7818609E-02  0.8066382E-01
       -2   -1    0    0    0  501  0.00000000000E+00  0.00000000000E+00  0.19647185744E+04  0.19647185744E+04  0.25500000920E-02 0. -1.
        2   -1    0    0  501    0  0.00000000000E+00  0.00000000000E+00 -0.17487054443E+04  0.17487054443E+04  0.25500000920E-02 0.  1.
    10030    2    1    2    0    0  0.00000000000E+00  0.00000000000E+00  0.21601313012E+03  0.37134240187E+04  0.37071358580E+04 0.  0.
        3    1    3    3  502    0  0.39604578258E+03 -0.65622142640E+02  0.19206493208E+04  0.19621550273E+04  0.10100000352E+00 0. -1.
       -3    1    3    3    0  502 -0.39604578258E+03  0.65622142640E+02 -0.17046361906E+04  0.17512689914E+04  0.10100000352E+00 0.  1.
</event>
<event>
 5   0  0.2996969E-07  0.3737861E+04  0.7818609E-02  0.8059623E-01
       -2   -1    0    0    0  501  0.00000000000E+00  0.00000000000E+00  0.19985067567E+04  0.19985067567E+04  0.25500000920E-02 0. -1.
        2   -1    0    0  501    0  0.00000000000E+00  0.00000000000E+00 -0.17477558129E+04  0.17477558129E+04  0.25500000920E-02 0.  1.
    10030    2    1    2    0    0  0.00000000000E+00  0.00000000000E+00  0.25075094380E+03  0.37462625696E+04  0.37378613143E+04 0.  0.
        1    1    3    3  502    0 -0.16138715023E+04  0.81540352911E+03 -0.34837888468E+03  0.18414211871E+04  0.50400001928E-02 0.  1.
       -1    1    3    3    0  502  0.16138715023E+04 -0.81540352911E+03  0.59912982848E+03  0.19048413825E+04  0.50400001928E-02 0. -1.
</event>
<event>
 5   0  0.9341000E-08  0.3704582E+04  0.7818609E-02  0.8066947E-01
       -1   -1    0    0    0  501  0.00000000000E+00  0.00000000000E+00  0.25736415876E+04  0.25736415876E+04  0.50400001928E-02 0.  1.
        1   -1    0    0  501    0  0.00000000000E+00  0.00000000000E+00 -0.13331237095E+04  0.13331237095E+04  0.50400001928E-02 0. -1.
    10030    2    1    2    0    0  0.00000000000E+00  0.00000000000E+00  0.12405178782E+04  0.39067652971E+04  0.37045823625E+04 0.  0.
        4    1    3    3  502    0 -0.12281675044E+04  0.69034392429E+03 -0.64787125478E+03  0.15507123938E+04  0.12699999809E+01 0. -1.
       -4    1    3    3    0  502  0.12281675044E+04 -0.69034392429E+03  0.18883891329E+04  0.23560529033E+04  0.12699999809E+01 0.  1.
</event>
<event>
 5   0  0.2996969E-07  0.3708457E+04  0.7818609E-02  0.8066090E-01
       -2   -1    0    0    0  501  0.00000000000E+00  0.00000000000E+00  0.13518930551E+04  0.13518930551E+04  0.25500000920E-02 0. -1.
        2   -1    0    0  501    0  0.00000000000E+00  0.00000000000E+00 -0.25432210227E+04  0.25432210227E+04  0.25500000920E-02 0.  1.
    10030    2    1    2    0    0  0.00000000000E+00  0.00000000000E+00 -0.11913279676E+04  0.38951140778E+04  0.37084567346E+04 0.  0.
        1    1    3    3  502    0  0.21838618428E+03 -0.89227433873E+03  0.10960949181E+04  0.14301293965E+04  0.50400001928E-02 0. -1.
       -1    1    3    3    0  502 -0.21838618428E+03  0.89227433873E+03 -0.22874228857E+04  0.24649846813E+04  0.50400001928E-02 0.  1.
</event>
<event>
 5   0  0.3032442E-07  0.3740010E+04  0.7818609E-02  0.8059153E-01
        2   -1    0    0  501    0  0.00000000000E+00  0.00000000000E+00  0.22509622915E+04  0.22509622915E+04  0.25500000920E-02 0.  1.
       -2   -1    0    0    0  501  0.00000000000E+00  0.00000000000E+00 -0.15535212627E+04  0.15535212627E+04  0.25500000920E-02 0. -1.
    10030    2    1    2    0    0  0.00000000000E+00  0.00000000000E+00  0.69744102883E+03  0.38044835542E+04  0.37400095088E+04 0.  0.
        3    1    3    3  502    0  0.63179937546E+03 -0.13774288073E+04 -0.76581196100E+03  0.16979247745E+04  0.10100000352E+00 0. -1.
       -3    1    3    3    0  502 -0.63179937546E+03  0.13774288073E+04  0.14632529898E+04  0.21065587797E+04  0.10100000352E+00 0.  1.
</event>
<event>
 5   0  0.9646615E-08  0.3720295E+04  0.7818609E-02  0.8063479E-01
        1   -1    0    0  501    0  0.00000000000E+00  0.00000000000E+00  0.26687263415E+04  0.26687263415E+04  0.50400001928E-02 0.  1.
       -1   -1    0    0    0  501  0.00000000000E+00  0.00000000000E+00 -0.12965546857E+04  0.12965546857E+04  0.50400001928E-02 0. -1.
    10030    2    1    2    0    0  0.00000000000E+00  0.00000000000E+00  0.13721716559E+04  0.39652810272E+04  0.37202954952E+04 0.  0.
        2    1    3    3  502    0  0.16640651793E+02  0.17832571311E+04  0.12222467231E+03  0.17875183293E+04  0.25500000920E-02 0. -1.
       -2    1    3    3    0  502 -0.16640651793E+02 -0.17832571311E+04  0.12499469836E+04  0.21777626980E+04  0.25500000920E-02 0.  1.
</event>
<event>
 5   0  0.3032442E-07  0.3676046E+04  0.7818609E-02  0.8073291E-01
       -2   -1    0    0    0  501  0.00000000000E+00  0.00000000000E+00  0.16259547344E+04  0.16259547344E+04  0.25500000920E-02 0. -1.
        2   -1    0    0  501    0  0.00000000000E+00  0.00000000000E+00 -0.20777503827E+04  0.20777503827E+04  0.25500000920E-02 0.  1.
    10030    2    1    2    0    0  0.00000000000E+00  0.00000000000E+00 -0.45179564831E+03  0.37037051171E+04  0.36760457405E+04 0.  0.
        3    1    3    3  502    0 -0.48214669563E+03  0.30701822226E+03 -0.19859253964E+04  0.20665491321E+04  0.10100000352E+00 0.  1.
       -3    1    3    3    0  502  0.48214669563E+03 -0.30701822226E+03  0.15341297481E+04  0.16371559850E+04  0.10100000352E+00 0. -1.
</event>
<event>
 5   0  0.9341000E-08  0.3677516E+04  0.7818609E-02  0.8072963E-01
       -1   -1    0    0    0  501  0.00000000000E+00  0.00000000000E+00  0.14932726664E+04  0.14932726664E+04  0.50400001928E-02 0.  1.
        1   -1    0    0  501    0  0.00000000000E+00  0.00000000000E+00 -0.22641746795E+04  0.22641746795E+04  0.50400001928E-02 0. -1.
    10030    2    1    2    0    0  0.00000000000E+00  0.00000000000E+00 -0.77090201309E+03  0.37574473458E+04  0.36775155531E+04 0.  0.
        1    1    3    3  502    0 -0.83559158911E+03 -0.15727621545E+04  0.81914497565E+02  0.17828359665E+04  0.50400001928E-02 0.  1.
       -1    1    3    3    0  502  0.83559158911E+03  0.15727621545E+04 -0.85281651066E+03  0.19746113793E+04  0.50400001928E-02 0. -1.
</event>
<event>
 5   0  0.9646615E-08  0.3705354E+04  0.7818609E-02  0.8066776E-01
       -1   -1    0    0    0  501  0.00000000000E+00  0.00000000000E+00  0.22840489233E+04  0.22840489233E+04  0.50400001928E-02 0.  1.
        1   -1    0    0  501    0  0.00000000000E+00  0.00000000000E+00 -0.15027755315E+04  0.15027755315E+04  0.50400001928E-02 0. -1.
    10030    2    1    2    0    0  0.00000000000E+00  0.00000000000E+00  0.78127339179E+03  0.37868244549E+04  0.37053544148E+04 0.  0.
        2    1    3    3  502    0 -0.75649169522E+03  0.19005049304E+03 -0.13267924876E+04  0.15390832271E+04  0.25500000920E-02 0. -1.
       -2    1    3    3    0  502  0.75649169522E+03 -0.19005049304E+03  0.21080658794E+04  0.22477412277E+04  0.25500000920E-02 0.  1.
</event>
<event>
 5   0  0.9341000E-08  0.3736718E+04  0.7818609E-02  0.8059873E-01
       -1   -1    0    0    0  501  0.00000000000E+00  0.00000000000E+00  0.13676165629E+04  0.13676165629E+04  0.50400001928E-02 0. -1.
        1   -1    0    0  501    0  0.00000000000E+00  0.00000000000E+00 -0.25524450266E+04  0.25524450266E+04  0.50400001928E-02 0.  1.
    10030    2    1    2    0    0  0.00000000000E+00  0.00000000000E+00 -0.11848284637E+04  0.39200615895E+04  0.37367183969E+04 0.  0.
        1    1    3    3  502    0 -0.13160531030E+03 -0.15321593112E+04 -0.17055777985E+04  0.22964816000E+04  0.50400001928E-02 0.  1.
       -1    1    3    3    0  502  0.13160531030E+03  0.15321593112E+04  0.52074933486E+03  0.16235799895E+04  0.50400001928E-02 0. -1.
</event>
<event>
 5   0  0.2996969E-07  0.3736318E+04  0.7818609E-02  0.8059961E-01
        2   -1    0    0  501    0  0.00000000000E+00  0.00000000000E+00  0.97516447721E+03  0.97516447722E+03  0.25500000920E-02 0. -1.
       -2   -1    0    0    0  501  0.00000000000E+00  0.00000000000E+00 -0.35789023724E+04  0.35789023724E+04  0.25500000920E-02 0.  1.
    10030    2    1    2    0    0  0.00000000000E+00  0.00000000000E+00 -0.26037378952E+04  0.45540668496E+04  0.37363182204E+04 0.  0.
        1    1    3    3  502    0  0.11306142397E+04 -0.89043934911E+03  0.14998666857E+03  0.14469508610E+04  0.50400001928E-02 0. -1.
       -1    1    3    3    0  502 -0.11306142397E+04  0.89043934911E+03 -0.27537245637E+04  0.31071159886E+04  0.50400001928E-02 0.  1.
</event>
<event>
 5   0  0.9341000E-08  0.3717188E+04  0.7818609E-02  0.8064163E-01
       -1   -1    0    0    0  501  0.00000000000E+00  0.00000000000E+00  0.24622134916E+04  0.24622134916E+04  0.50400001928E-02 0. -1.
        1   -1    0    0  501    0  0.00000000000E+00  0.00000000000E+00 -0.14029540626E+04  0.14029540627E+04  0.50400001928E-02 0.  1.
    10030    2    1    2    0    0  0.00000000000E+00  0.00000000000E+00  0.10592594289E+04  0.38651675542E+04  0.37171884112E+04 0.  0.
        1    1    3    3  502    0 -0.12938639727E+04 -0.12378552845E+04  0.11805939228E+02  0.17906727969E+04  0.50400001928E-02 0.  1.
       -1    1    3    3    0  502  0.12938639727E+04  0.12378552845E+04  0.10474534897E+04  0.20744947574E+04  0.50400001928E-02 0. -1.
</event>
<event>
 5   0  0.9341000E-08  0.3705755E+04  0.7818609E-02  0.8066688E-01
       -1   -1    0    0    0  501  0.00000000000E+00  0.00000000000E+00  0.21870708725E+04  0.21870708725E+04  0.50400001928E-02 0.  1.
        1   -1    0    0  501    0  0.00000000000E+00  0.00000000000E+00 -0.15697505190E+04  0.15697505190E+04  0.50400001928E-02 0. -1.
    10030    2    1    2    0    0  0.00000000000E+00  0.00000000000E+00  0.61732035346E+03  0.37568213915E+04  0.37057553277E+04 0.  0.
        4    1    3    3  502    0  0.18202083076E+04 -0.10869429801E+03 -0.24781503977E+02  0.18236196065E+04  0.12699999809E+01 0. -1.
       -4    1    3    3    0  502 -0.18202083076E+04  0.10869429801E+03  0.64210185743E+03  0.19332017850E+04  0.12699999809E+01 0.  1.
</event>
<event>
 5   0  0.3008879E-07  0.3748243E+04  0.7818609E-02  0.8057354E-01
       -2   -1    0    0    0  501  0.00000000000E+00  0.00000000000E+00  0.16338812856E+04  0.16338812856E+04  0.25500000920E-02 0.  1.
        2   -1    0    0  501    0  0.00000000000E+00  0.00000000000E+00 -0.21496862817E+04  0.21496862817E+04  0.25500000920E-02 0. -1.
    10030    2    1    2    0    0  0.00000000000E+00  0.00000000000E+00 -0.51580499603E+03  0.37835675673E+04  0.37482434209E+04 0.  0.
        2    1    3    3  502    0  0.41310964351E+03  0.18200936186E+04 -0.42959907666E+03  0.19151907802E+04  0.25500000920E-02 0. -1.
       -2    1    3    3    0  502 -0.41310964351E+03 -0.18200936186E+04 -0.86205919363E+02  0.18683767871E+04  0.25500000920E-02 0.  1.
</event>
<event>
 5   0  0.3008879E-07  0.3717143E+04  0.7818609E-02  0.8064173E-01
        2   -1    0    0  501    0  0.00000000000E+00  0.00000000000E+00  0.21353387863E+04  0.21353387863E+04  0.25500000920E-02 0. -1.
       -2   -1    0    0    0  501  0.00000000000E+00  0.00000000000E+00 -0.16176766076E+04  0.16176766076E+04  0.25500000920E-02 0.  1.
    10030    2    1    2    0    0  0.00000000000E+00  0.00000000000E+00  0.51766217872E+03  0.37530153939E+04  0.37171427758E+04 0.  0.
        2    1    3    3  502    0 -0.16038759503E+04  0.51996030433E+03 -0.53070716424E+03  0.17676048416E+04  0.25500000920E-02 0.  1.
       -2    1    3    3    0  502  0.16038759503E+04 -0.51996030433E+03  0.10483693430E+04  0.19854105523E+04  0.25500000920E-02 0. -1.
</event>
<event>
 5   0  0.2913025E-07  0.3690725E+04  0.7818609E-02  0.8070020E-01
        2   -1    0    0  501    0  0.00000000000E+00  0.00000000000E+00  0.19915961835E+04  0.19915961835E+04  0.25500000920E-02 0.  1.
       -2   -1    0    0    0  501  0.00000000000E+00  0.00000000000E+00 -0.17098658578E+04  0.17098658578E+04  0.25500000920E-02 0. -1.
    10030    2    1    2    0    0  0.00000000000E+00  0.00000000000E+00  0.28173032578E+03  0.37014620413E+04  0.36907247617E+04 0.  0.
        5    1    3    3  502    0 -0.14378769869E+04 -0.93000048659E+03 -0.54884851621E+03  0.17982346672E+04  0.46999998093E+01 0. -1.
       -5    1    3    3    0  502  0.14378769869E+04  0.93000048659E+03  0.83057884199E+03  0.19032273741E+04  0.46999998093E+01 0.  1.
</event>
<event>
 5   0  0.2996969E-07  0.3739054E+04  0.7818609E-02  0.8059362E-01
        2   -1    0    0  501    0  0.00000000000E+00  0.00000000000E+00  0.33041337419E+04  0.33041337419E+04  0.25500000920E-02 0. -1.
       -2   -1    0    0    0  501  0.00000000000E+00  0.00000000000E+00 -0.10578056382E+04  0.10578056382E+04  0.25500000920E-02 0.  1.
    10030    2    1    2    0    0  0.00000000000E+00  0.00000000000E+00  0.22463281037E+04  0.43619393802E+04  0.37390540524E+04 0.  0.
        1    1    3    3  502    0 -0.69066765444E+03  0.53978225266E+03  0.30495358612E+04  0.31730199586E+04  0.50400001928E-02 0. -1.
       -1    1    3    3    0  502  0.69066765444E+03 -0.53978225266E+03 -0.80320775751E+03  0.11889194215E+04  0.50400001928E-02 0.  1.
</event>
<event>
 5   0  0.9341000E-08  0.3701090E+04  0.7818609E-02  0.8067720E-01
       -1   -1    0    0    0  501  0.00000000000E+00  0.00000000000E+00  0.14737217244E+04  0.14737217244E+04  0.50400001928E-02 0.  1.
        1   -1    0    0  501    0  0.00000000000E+00  0.00000000000E+00 -0.23237195007E+04  0.23237195007E+04  0.50400001928E-02 0. -1.
    10030    2    1    2    0    0  0.00000000000E+00  0.00000000000E+00 -0.84999777636E+03  0.37974412251E+04  0.37010895205E+04 0.  0.
        3    1    3    3  502    0 -0.24121759278E+03 -0.35241038713E+03  0.14224700489E+04  0.14851936097E+04  0.10100000352E+00 0.  1.
       -3    1    3    3    0  502  0.24121759278E+03  0.35241038713E+03 -0.22724678253E+04  0.23122476154E+04  0.10100000352E+00 0. -1.
</event>
<event>
 5   0  0.2897133E-07  0.3695689E+04  0.7818609E-02  0.8068918E-01
       -2   -1    0    0    0  501  0.00000000000E+00  0.00000000000E+00  0.31843052869E+04  0.31843052869E+04  0.25500000920E-02 0. -1.
        2   -1    0    0  501    0  0.00000000000E+00  0.00000000000E+00 -0.10722993758E+04  0.10722993758E+04  0.25500000920E-02 0.  1.
    10030    2    1    2    0    0  0.00000000000E+00  0.00000000000E+00  0.21120059111E+04  0.42566046626E+04  0.36956886077E+04 0.  0.
        4    1    3    3  502    0  0.23187650858E+03  0.18243930650E+04  0.84884274374E+03  0.20255153387E+04  0.12699999809E+01 0.  1.
       -4    1    3    3    0  502 -0.23187650858E+03 -0.18243930650E+04  0.12631631674E+04  0.22310893239E+04  0.12699999809E+01 0. -1.
</event>
<event>
 5   0  0.2913025E-07  0.3726508E+04  0.7818609E-02  0.8062113E-01
       -2   -1    0    0    0  501  0.00000000000E+00  0.00000000000E+00  0.12999725606E+04  0.12999725606E+04  0.25500000920E-02 0. -1.
        2   -1    0    0  501    0  0.00000000000E+00  0.00000000000E+00 -0.26706071545E+04  0.26706071545E+04  0.25500000920E-02 0.  1.
    10030    2    1    2    0    0  0.00000000000E+00  0.00000000000E+00 -0.13706345939E+04  0.39705797151E+04  0.37265082965E+04 0.  0.
        5    1    3    3  502    0 -0.11179249895E+04  0.14579693046E+04 -0.35473326334E+03  0.18711730421E+04  0.46999998093E+01 0. -1.
       -5    1    3    3    0  502  0.11179249895E+04 -0.14579693046E+04 -0.10159013306E+04  0.20994066731E+04  0.46999998093E+01 0.  1.
</event>
<event>
 5   0  0.3032442E-07  0.3690212E+04  0.7818609E-02  0.8070135E-01
       -2   -1    0    0    0  501  0.00000000000E+00  0.00000000000E+00  0.17036421808E+04  0.17036421808E+04  0.25500000920E-02 0.  1.
        2   -1    0    0  501    0  0.00000000000E+00  0.00000000000E+00 -0.19983158886E+04  0.19983158886E+04  0.25500000920E-02 0. -1.
    10030    2    1    2    0    0  0.00000000000E+00  0.00000000000E+00 -0.29467370778E+03  0.37019580694E+04  0.36902115053E+04 0.  0.
        3    1    3    3  502    0 -0.76765565634E+03  0.10192395991E+04 -0.14843473236E+04  0.19574042900E+04  0.10100000352E+00 0. -1.
       -3    1    3    3    0  502  0.76765565634E+03 -0.10192395991E+04  0.11896736158E+04  0.17445537795E+04  0.10100000352E+00 0.  1.
</event>
<event>
 5   0  0.9341000E-08  0.3546509E+04  0.7818609E-02  0.8102856E-01
       -1   -1    0    0    0  501  0.00000000000E+00  0.00000000000E+00  0.20319301416E+04  0.20319301416E+04  0.50400001928E-02 0.  1.
        1   -1    0    0  501    0  0.00000000000E+00  0.00000000000E+00 -0.15475097085E+04  0.15475097085E+04  0.50400001928E-02 0. -1.
    10030    2    1    2    0    0  0.00000000000E+00  0.00000000000E+00  0.48442043314E+03  0.35794398501E+04  0.35465090561E+04 0.  0.
        1    1    3    3  502    0  0.67544768916E+03  0.88393144083E+03  0.16359260227E+04  0.19783372626E+04  0.50400001928E-02 0.  1.
       -1    1    3    3    0  502 -0.67544768916E+03 -0.88393144083E+03 -0.11515055896E+04  0.16011025875E+04  0.50400001928E-02 0. -1.
</event>
<event>
 5   0  0.9646615E-08  0.3696779E+04  0.7818609E-02  0.8068676E-01
        1   -1    0    0  501    0  0.00000000000E+00  0.00000000000E+00  0.17724301178E+04  0.17724301178E+04  0.50400001928E-02 0.  1.
       -1   -1    0    0    0  501  0.00000000000E+00  0.00000000000E+00 -0.19276037485E+04  0.19276037485E+04  0.50400001928E-02 0. -1.
    10030    2    1    2    0    0  0.00000000000E+00  0.00000000000E+00 -0.15517363072E+03  0.37000338663E+04  0.36967785646E+04 0.  0.
        2    1    3    3  502    0  0.10591036009E+04  0.14375827390E+04  0.40053496811E+03  0.18299652537E+04  0.25500000920E-02 0. -1.
       -2    1    3    3    0  502 -0.10591036009E+04 -0.14375827390E+04 -0.55570859883E+03  0.18700686126E+04  0.25500000920E-02 0.  1.
</event>
<event>
 5   0  0.9646615E-08  0.3701458E+04  0.7818609E-02  0.8067639E-01
       -1   -1    0    0    0  501  0.00000000000E+00  0.00000000000E+00  0.19772573651E+04  0.19772573651E+04  0.50400001928E-02 0.  1.
        1   -1    0    0  501    0  0.00000000000E+00  0.00000000000E+00 -0.17322976729E+04  0.17322976729E+04  0.50400001928E-02 0. -1.
    10030    2    1    2    0    0  0.00000000000E+00  0.00000000000E+00  0.24495969212E+03  0.37095550380E+04  0.37014582706E+04 0.  0.
        2    1    3    3  502    0  0.15332258046E+04  0.44006733673E+03  0.10630196648E+04  0.19168858695E+04  0.25500000920E-02 0.  1.
       -2    1    3    3    0  502 -0.15332258046E+04 -0.44006733673E+03 -0.81805997269E+03  0.17926691685E+04  0.25500000920E-02 0. -1.
</event>
<event>
 5   0  0.3008879E-07  0.3693222E+04  0.7818609E-02  0.8069466E-01
       -2   -1    0    0    0  501  0.00000000000E+00  0.00000000000E+00  0.11754690180E+04  0.11754690180E+04  0.25500000920E-02 0. -1.
        2   -1    0    0  501    0  0.00000000000E+00  0.00000000000E+00 -0.29009454238E+04  0.29009454238E+04  0.25500000920E-02 0.  1.
    10030    2    1    2    0    0  0.00000000000E+00  0.00000000000E+00 -0.17254764058E+04  0.40764144418E+04  0.36932216119E+04 0.  0.
        2    1    3    3  502    0  0.39284956568E+03 -0.15431147474E+04 -0.18948752485E+04  0.24750931522E+04  0.25500000920E-02 0.  1.
       -2    1    3    3    0  502 -0.39284956568E+03  0.15431147474E+04  0.16939884265E+03  0.16013212896E+04  0.25500000920E-02 0. -1.
</event>
<event>
 5   0  0.2897133E-07  0.3688723E+04  0.7818609E-02  0.8070466E-01
        2   -1    0    0  501    0  0.00000000000E+00  0.00000000000E+00  0.15899978947E+04  0.15899978947E+04  0.25500000920E-02 0. -1.
       -2   -1    0    0    0  501  0.00000000000E+00  0.00000000000E+00 -0.21394171689E+04  0.21394171689E+04  0.25500000920E-02 0.  1.
    10030    2    1    2    0    0  0.00000000000E+00  0.00000000000E+00 -0.54941927417E+03  0.37294150636E+04  0.36887227027E+04 0.  0.
        4    1    3    3  502    0 -0.10649984369E+04  0.42639370843E+02  0.12470951842E+04  0.16405144918E+04  0.12699999809E+01 0. -1.
       -4    1    3    3    0  502  0.10649984369E+04 -0.42639370843E+02 -0.17965144583E+04  0.20889005717E+04  0.12699999809E+01 0.  1.
</event>
<event>
 5   0  0.2913025E-07  0.3698909E+04  0.7818609E-02  0.8068204E-01
       -2   -1    0    0    0  501  0.00000000000E+00  0.00000000000E+00  0.17801969367E+04  0.17801969367E+04  0.25500000920E-02 0. -1.
        2   -1    0    0  501    0  0.00000000000E+00  0.00000000000E+00 -0.19214067262E+04  0.19214067262E+04  0.25500000920E-02 0.  1.
    10030    2    1    2    0    0  0.00000000000E+00  0.00000000000E+00 -0.14120978952E+03  0.37016036629E+04  0.36989092274E+04 0.  0.
        5    1    3    3  502    0 -0.16443236206E+04  0.76055488079E+03  0.30144055988E+03  0.18366089396E+04  0.46999998093E+01 0.  1.
       -5    1    3    3    0  502  0.16443236206E+04 -0.76055488079E+03 -0.44265034940E+03  0.18649947233E+04  0.46999998093E+01 0. -1.
</event>
<event>
 5   0  0.9341000E-08  0.3247823E+04  0.7818609E-02  0.8176300E-01
        1   -1    0    0  501    0  0.00000000000E+00  0.00000000000E+00  0.20959977762E+04  0.20959977762E+04  0.50400001928E-02 0.  1.
       -1   -1    0    0    0  501  0.00000000000E+00  0.00000000000E+00 -0.12581546215E+04  0.12581546215E+04  0.50400001928E-02 0. -1.
    10030    2    1    2    0    0  0.00000000000E+00  0.00000000000E+00  0.83784315472E+03  0.33541523976E+04  0.32478234488E+04 0.  0.
        1    1    3    3  502    0 -0.83563534670E+02  0.15420546505E+04 -0.99687874483E+02  0.15475312862E+04  0.50400001928E-02 0.  1.
       -1    1    3    3    0  502  0.83563534670E+02 -0.15420546505E+04  0.93753102920E+03  0.18066211114E+04  0.50400001928E-02 0. -1.
</event>
<event>
 5   0  0.9341000E-08  0.3707651E+04  0.7818609E-02  0.8066268E-01
        1   -1    0    0  501    0  0.00000000000E+00  0.00000000000E+00  0.19566219201E+04  0.19566219201E+04  0.50400001928E-02 0. -1.
       -1   -1    0    0    0  501  0.00000000000E+00  0.00000000000E+00 -0.17564296776E+04  0.17564296776E+04  0.50400001928E-02 0.  1.
    10030    2    1    2    0    0  0.00000000000E+00  0.00000000000E+00  0.20019224255E+03  0.37130515977E+04  0.37076509050E+04 0.  0.
        4    1    3    3  502    0  0.14883792979E+04  0.93646563652E+03 -0.48763724522E+03  0.18248376691E+04  0.12699999809E+01 0.  1.
       -4    1    3    3    0  502 -0.14883792979E+04 -0.93646563652E+03  0.68782948777E+03  0.18882139286E+04  0.12699999809E+01 0. -1.
</event>
<event>
 5   0  0.3008879E-07  0.3699307E+04  0.7818609E-02  0.8068115E-01
       -2   -1    0    0    0  501  0.00000000000E+00  0.00000000000E+00  0.21729823148E+04  0.21729823148E+04  0.25500000920E-02 0. -1.
        2   -1    0    0  501    0  0.00000000000E+00  0.00000000000E+00 -0.15744345584E+04  0.15744345584E+04  0.25500000920E-02 0.  1.
    10030    2    1    2    0    0  0.00000000000E+00  0.00000000000E+00  0.59854775640E+03  0.37474168731E+04  0.36993072060E+04 0.  0.
        2    1    3    3  502    0  0.94632899272E+02  0.20725915436E+03 -0.15601648955E+04  0.15767137483E+04  0.25500000920E-02 0.  1.
       -2    1    3    3    0  502 -0.94632899272E+02 -0.20725915436E+03  0.21587126519E+04  0.21707031249E+04  0.25500000920E-02 0. -1.
</event>
<event>
 5   0  0.2996969E-07  0.3719175E+04  0.7818609E-02  0.8063726E-01
       -2   -1    0    0    0  501  0.00000000000E+00  0.00000000000E+00  0.10966228798E+04  0.10966228798E+04  0.25500000920E-02 0.  1.
        2   -1    0    0  501    0  0.00000000000E+00  0.00000000000E+00 -0.31533770089E+04  0.31533770089E+04  0.25500000920E-02 0. -1.
    10030    2    1    2    0    0  0.00000000000E+00  0.00000000000E+00 -0.20567541291E+04  0.42499998888E+04  0.37191748422E+04 0.  0.
        1    1    3    3  502    0 -0.34526452293E+03  0.10526317734E+04 -0.27351470246E+04  0.29509778867E+04  0.50400001928E-02 0. -1.
       -1    1    3    3    0  502  0.34526452293E+03 -0.10526317734E+04  0.67839289551E+03  0.12990220021E+04  0.50400001928E-02 0.  1.
</event>
<event>
 5   0  0.2996969E-07  0.3678956E+04  0.7818609E-02  0.8072641E-01
       -2   -1    0    0    0  501  0.00000000000E+00  0.00000000000E+00  0.13729404777E+04  0.13729404777E+04  0.25500000920E-02 0. -1.
        2   -1    0    0  501    0  0.00000000000E+00  0.00000000000E+00 -0.24645492320E+04  0.24645492320E+04  0.25500000920E-02 0.  1.
    10030    2    1    2    0    0  0.00000000000E+00  0.00000000000E+00 -0.10916087544E+04  0.38374897097E+04  0.36789560475E+04 0.  0.
        1    1    3    3  502    0  0.15894521543E+04  0.13643389847E+03 -0.15010779622E+04  0.21904810905E+04  0.50400001928E-02 0.  1.
       -1    1    3    3    0  502 -0.15894521543E+04 -0.13643389847E+03  0.40946920780E+03  0.16470086192E+04  0.50400001928E-02 0. -1.
</event>
<event>
 5   0  0.9646615E-08  0.3762901E+04  0.7818609E-02  0.8054164E-01
       -1   -1    0    0    0  501  0.00000000000E+00  0.00000000000E+00  0.14011486441E+04  0.14011486441E+04  0.50400001928E-02 0.  1.
        1   -1    0    0  501    0  0.00000000000E+00  0.00000000000E+00 -0.25263950882E+04  0.25263950882E+04  0.50400001928E-02 0. -1.
    10030    2    1    2    0    0  0.00000000000E+00  0.00000000000E+00 -0.11252464441E+04  0.39275437323E+04  0.37629005048E+04 0.  0.
        2    1    3    3  502    0 -0.14338069800E+04  0.79797165889E+03 -0.15233841117E+04  0.22390311244E+04  0.25500000920E-02 0. -1.
       -2    1    3    3    0  502  0.14338069800E+04 -0.79797165889E+03  0.39813766760E+03  0.16885126078E+04  0.25500000920E-02 0.  1.
</event>
<event>
 5   0  0.2913025E-07  0.3695219E+04  0.7818609E-02  0.8069022E-01
        2   -1    0    0  501    0  0.00000000000E+00  0.00000000000E+00  0.24092270507E+04  0.24092270507E+04  0.25500000920E-02 0. -1.
       -2   -1    0    0    0  501  0.00000000000E+00  0.00000000000E+00 -0.14169115886E+04  0.14169115886E+04  0.25500000920E-02 0.  1.
    10030    2    1    2    0    0  0.00000000000E+00  0.00000000000E+00  0.99231546217E+03  0.38261386393E+04  0.36952194672E+04 0.  0.
        5    1    3    3  502    0 -0.10762296265E+03  0.17598639925E+04  0.10679319579E+04  0.20613599227E+04  0.46999998093E+01 0.  1.
       -5    1    3    3    0  502  0.10762296265E+03 -0.17598639925E+04 -0.75616495746E+02  0.17647787166E+04  0.46999998093E+01 0. -1.
</event>
<event>
 5   0  0.9341000E-08  0.3770962E+04  0.7818609E-02  0.8052415E-01
       -1   -1    0    0    0  501  0.00000000000E+00  0.00000000000E+00  0.28725018282E+04  0.28725018282E+04  0.50400001928E-02 0. -1.
        1   -1    0    0  501    0  0.00000000000E+00  0.00000000000E+00 -0.12376106803E+04  0.12376106803E+04  0.50400001928E-02 0.  1.
    10030    2    1    2    0    0  0.00000000000E+00  0.00000000000E+00  0.16348911478E+04  0.41101125085E+04  0.37709621806E+04 0.  0.
        4    1    3    3  502    0  0.16677937107E+04  0.84930020879E+03  0.56844647596E+03  0.19560111745E+04  0.12699999809E+01 0. -1.
       -4    1    3    3    0  502 -0.16677937107E+04 -0.84930020879E+03  0.10664446719E+04  0.21541013340E+04  0.12699999809E+01 0.  1.
</event>
<event>
 5   0  0.9341000E-08  0.3728282E+04  0.7818609E-02  0.8061723E-01
        1   -1    0    0  501    0  0.00000000000E+00  0.00000000000E+00  0.20169656987E+04  0.20169656987E+04  0.50400001928E-02 0.  1.
       -1   -1    0    0    0  501  0.00000000000E+00  0.00000000000E+00 -0.17228956467E+04  0.17228956467E+04  0.50400001928E-02 0. -1.
    10030    2    1    2    0    0  0.00000000000E+00  0.00000000000E+00  0.29407005198E+03  0.37398613454E+04  0.37282818680E+04 0.  0.
        1    1    3    3  502    0  0.18070661845E+04  0.11525955604E+03  0.59141030716E+03  0.19048724660E+04  0.50400001928E-02 0.  1.
       -1    1    3    3    0  502 -0.18070661845E+04 -0.11525955604E+03 -0.29734025518E+03  0.18349888794E+04  0.50400001928E-02 0. -1.
</event>
<event>
 5   0  0.9341000E-08  0.3643376E+04  0.7818609E-02  0.8080628E-01
       -1   -1    0    0    0  501  0.00000000000E+00  0.00000000000E+00  0.19647768553E+04  0.19647768554E+04  0.50400001928E-02 0.  1.
        1   -1    0    0  501    0  0.00000000000E+00  0.00000000000E+00 -0.16890195562E+04  0.16890195562E+04  0.50400001928E-02 0. -1.
    10030    2    1    2    0    0  0.00000000000E+00  0.00000000000E+00  0.27575729911E+03  0.36537964116E+04  0.36433756503E+04 0.  0.
        1    1    3    3  502    0 -0.86186678971E+03  0.74815640447E+02  0.17456280028E+04  0.19482373745E+04  0.50400001928E-02 0.  1.
       -1    1    3    3    0  502  0.86186678971E+03 -0.74815640447E+02 -0.14698707037E+04  0.17055590371E+04  0.50400001928E-02 0. -1.
</event>
<event>
 5   0  0.9646615E-08  0.3703678E+04  0.7818609E-02  0.8067147E-01
       -1   -1    0    0    0  501  0.00000000000E+00  0.00000000000E+00  0.12565643288E+04  0.12565643288E+04  0.50400001928E-02 0.  1.
        1   -1    0    0  501    0  0.00000000000E+00  0.00000000000E+00 -0.27291144680E+04  0.27291144681E+04  0.50400001928E-02 0. -1.
    10030    2    1    2    0    0  0.00000000000E+00  0.00000000000E+00 -0.14725501393E+04  0.39856787968E+04  0.37036781122E+04 0.  0.
        2    1    3    3  502    0 -0.26700126060E+03  0.28443710768E+02 -0.27080541823E+04  0.27213335283E+04  0.25500000920E-02 0. -1.
       -2    1    3    3    0  502  0.26700126060E+03 -0.28443710768E+02  0.12355040430E+04  0.12643452686E+04  0.25500000920E-02 0.  1.
</event>
<event>
 5   0  0.9341000E-08  0.3681772E+04  0.7818609E-02  0.8072013E-01
        1   -1    0    0  501    0  0.00000000000E+00  0.00000000000E+00  0.15451639574E+04  0.15451639574E+04  0.50400001928E-02 0.  1.
       -1   -1    0    0    0  501  0.00000000000E+00  0.00000000000E+00 -0.21932045112E+04  0.21932045112E+04  0.50400001928E-02 0. -1.
    10030    2    1    2    0    0  0.00000000000E+00  0.00000000000E+00 -0.64804055381E+03  0.37383684687E+04  0.36817716181E+04 0.  0.
        3    1    3    3  502    0  0.40623852189E+03  0.85112986254E+03 -0.19292748075E+04  0.21474526939E+04  0.10100000352E+00 0. -1.
       -3    1    3    3    0  502 -0.40623852189E+03 -0.85112986254E+03  0.12812342536E+04  0.15909157748E+04  0.10100000352E+00 0.  1.
</event>
<event>
 5   0  0.3032442E-07  0.3703660E+04  0.7818609E-02  0.8067151E-01
       -2   -1    0    0    0  501  0.00000000000E+00  0.00000000000E+00  0.15827238139E+04  0.15827238139E+04  0.25500000920E-02 0.  1.
        2   -1    0    0  501    0  0.00000000000E+00  0.00000000000E+00 -0.21666914298E+04  0.21666914298E+04  0.25500000920E-02 0. -1.
    10030    2    1    2    0    0  0.00000000000E+00  0.00000000000E+00 -0.58396761587E+03  0.37494152436E+04  0.37036598781E+04 0.  0.
        3    1    3    3  502    0  0.73740700241E+03  0.15873920708E+04  0.32021128027E+03  0.17793588587E+04  0.10100000352E+00 0.  1.
       -3    1    3    3    0  502 -0.73740700241E+03 -0.15873920708E+04 -0.90417889615E+03  0.19700563850E+04  0.10100000352E+00 0. -1.
</event>
<event>
 5   0  0.9341000E-08  0.3710577E+04  0.7818609E-02  0.8065622E-01
        1   -1    0    0  501    0  0.00000000000E+00  0.00000000000E+00  0.15807714941E+04  0.15807714941E+04  0.50400001928E-02 0.  1.
       -1   -1    0    0    0  501  0.00000000000E+00  0.00000000000E+00 -0.21774778262E+04  0.21774778262E+04  0.50400001928E-02 0. -1.
    10030    2    1    2    0    0  0.00000000000E+00  0.00000000000E+00 -0.59670633212E+03  0.37582493202E+04  0.37105767081E+04 0.  0.
        3    1    3    3  502    0 -0.14630280929E+04 -0.20005318438E+03 -0.14360036797E+04  0.20597521830E+04  0.10100000352E+00 0. -1.
       -3    1    3    3    0  502  0.14630280929E+04  0.20005318438E+03  0.83929734754E+03  0.16984971372E+04  0.10100000352E+00 0.  1.
</event>
<event>
 5   0  0.2897133E-07  0.3698109E+04  0.7818609E-02  0.8068381E-01
       -2   -1    0    0    0  501  0.00000000000E+00  0.00000000000E+00  0.11900104273E+04  0.11900104273E+04  0.25500000920E-02 0. -1.
        2   -1    0    0  501    0  0.00000000000E+00  0.00000000000E+00 -0.28730861933E+04  0.28730861933E+04  0.25500000920E-02 0.  1.
    10030    2    1    2    0    0  0.00000000000E+00  0.00000000000E+00 -0.16830757660E+04  0.40630966206E+04  0.36981089917E+04 0.  0.
        4    1    3    3  502    0 -0.15657089389E+04 -0.52481556299E+03  0.72511647891E+02  0.16529172419E+04  0.12699999809E+01 0.  1.
       -4    1    3    3    0  502  0.15657089389E+04  0.52481556299E+03 -0.17555874139E+04  0.24101793787E+04  0.12699999809E+01 0. -1.
</event>
<event>
 5   0  0.3032442E-07  0.3673868E+04  0.7818609E-02  0.8073778E-01
        2   -1    0    0  501    0  0.00000000000E+00  0.00000000000E+00  0.23587942301E+04  0.23587942301E+04  0.25500000920E-02 0. -1.
       -2   -1    0    0    0  501  0.00000000000E+00  0.00000000000E+00 -0.14305298864E+04  0.14305298864E+04  0.25500000920E-02 0.  1.
    10030    2    1    2    0    0  0.00000000000E+00  0.00000000000E+00  0.92826434366E+03  0.37893241165E+04  0.36738675219E+04 0.  0.
        3    1    3    3  502    0 -0.84606869115E+02 -0.13720601596E+04 -0.79260845943E+03  0.15868004235E+04  0.10100000352E+00 0.  1.
       -3    1    3    3    0  502  0.84606869115E+02  0.13720601596E+04  0.17208728031E+04  0.22025236930E+04  0.10100000352E+00 0. -1.
</event>
<event>
 5   0  0.3008879E-07  0.3683096E+04  0.7818609E-02  0.8071718E-01
        2   -1    0    0  501    0  0.00000000000E+00  0.00000000000E+00  0.26941313818E+04  0.26941313818E+04  0.25500000920E-02 0.  1.
       -2   -1    0    0    0  501  0.00000000000E+00  0.00000000000E+00 -0.12587725073E+04  0.12587725073E+04  0.25500000920E-02 0. -1.
    10030    2    1    2    0    0  0.00000000000E+00  0.00000000000E+00  0.14353588745E+04  0.39529038890E+04  0.36830957166E+04 0.  0.
        2    1    3    3  502    0  0.10051374784E+04 -0.14489676458E+04  0.14825686684E+03  0.17696860421E+04  0.25500000920E-02 0. -1.
       -2    1    3    3    0  502 -0.10051374784E+04  0.14489676458E+04  0.12871020076E+04  0.21832178469E+04  0.25500000920E-02 0.  1.
</event>
<event>
 5   0  0.9418945E-08  0.3596943E+04  0.7818609E-02  0.8091192E-01
       -1   -1    0    0    0  501  0.00000000000E+00  0.00000000000E+00  0.28230188528E+04  0.28230188528E+04  0.50400001928E-02 0. -1.
        1   -1    0    0  501    0  0.00000000000E+00  0.00000000000E+00 -0.11457592683E+04  0.11457592683E+04  0.50400001928E-02 0.  1.
    10030    2    1    2    0    0  0.00000000000E+00  0.00000000000E+00  0.16772595845E+04  0.39687781211E+04  0.35969431550E+04 0.  0.
        5    1    3    3  502    0  0.13580921938E+04 -0.59637875586E+03  0.19608204277E+04  0.24586420778E+04  0.46999998093E+01 0. -1.
       -5    1    3    3    0  502 -0.13580921938E+04  0.59637875586E+03 -0.28356084319E+03  0.15101360432E+04  0.46999998093E+01 0.  1.
</event>
<event>
 5   0  0.9341000E-08  0.3390734E+04  0.7818609E-02  0.8140184E-01
        1   -1    0    0  501    0  0.00000000000E+00  0.00000000000E+00  0.17830646024E+04  0.17830646024E+04  0.50400001928E-02 0.  1.
       -1   -1    0    0    0  501  0.00000000000E+00  0.00000000000E+00 -0.16119823437E+04  0.16119823437E+04  0.50400001928E-02 0. -1.
    10030    2    1    2    0    0  0.00000000000E+00  0.00000000000E+00  0.17108225872E+03  0.33950469461E+04  0.33907336414E+04 0.  0.
        1    1    3    3  502    0  0.14802628133E+03 -0.12644567546E+04 -0.10354839176E+04  0.16410330916E+04  0.50400001928E-02 0. -1.
       -1    1    3    3    0  502 -0.14802628133E+03  0.12644567546E+04  0.12065661763E+04  0.17540138545E+04  0.50400001928E-02 0.  1.
</event>
<event>
 5   0  0.2897133E-07  0.3705531E+04  0.7818609E-02  0.8066737E-01
        2   -1    0    0  501    0  0.00000000000E+00  0.00000000000E+00  0.14450588214E+04  0.14450588214E+04  0.25500000920E-02 0. -1.
       -2   -1    0    0    0  501  0.00000000000E+00  0.00000000000E+00 -0.23755014927E+04  0.23755014927E+04  0.25500000920E-02 0.  1.
    10030    2    1    2    0    0  0.00000000000E+00  0.00000000000E+00 -0.93044267128E+03  0.38205603140E+04  0.37055306703E+04 0.  0.
        4    1    3    3  502    0  0.11289549000E+04 -0.98713457877E+03  0.65656255613E+03  0.16370857784E+04  0.12699999809E+01 0. -1.
       -4    1    3    3    0  502 -0.11289549000E+04  0.98713457877E+03 -0.15870052274E+04  0.21834745356E+04  0.12699999809E+01 0.  1.
</event>
<event>
 5   0  0.2897133E-07  0.3744572E+04  0.7818609E-02  0.8058155E-01
        2   -1    0    0  501    0  0.00000000000E+00  0.00000000000E+00  0.21031934826E+04  0.21031934826E+04  0.25500000920E-02 0. -1.
       -2   -1    0    0    0  501  0.00000000000E+00  0.00000000000E+00 -0.16667298349E+04  0.16667298349E+04  0.25500000920E-02 0.  1.
    10030    2    1    2    0    0  0.00000000000E+00  0.00000000000E+00  0.43646364771E+03  0.37699233175E+04  0.37445722458E+04 0.  0.
        4    1    3    3  502    0 -0.37952338515E+03 -0.21821204083E+03  0.20509403404E+04  0.20971438643E+04  0.12699999809E+01 0. -1.
       -4    1    3    3    0  502  0.37952338515E+03  0.21821204083E+03 -0.16144766927E+04  0.16727794532E+04  0.12699999809E+01 0.  1.
</event>
<event>
 5   0  0.2913025E-07  0.3721605E+04  0.7818609E-02  0.8063191E-01
        2   -1    0    0  501    0  0.00000000000E+00  0.00000000000E+00  0.20068634378E+04  0.20068634378E+04  0.25500000920E-02 0.  1.
       -2   -1    0    0    0  501  0.00000000000E+00  0.00000000000E+00 -0.17253718393E+04  0.17253718393E+04  0.25500000920E-02 0. -1.
    10030    2    1    2    0    0  0.00000000000E+00  0.00000000000E+00  0.28149159841E+03  0.37322352771E+04  0.37216048479E+04 0.  0.
        5    1    3    3  502    0  0.27775726666E+03  0.12967611917E+04 -0.11682891239E+04  0.17673879751E+04  0.46999998093E+01 0. -1.
       -5    1    3    3    0  502 -0.27775726666E+03 -0.12967611917E+04  0.14497807223E+04  0.19648473020E+04  0.46999998093E+01 0.  1.
</event>
<event>
 5   0  0.3032442E-07  0.3737061E+04  0.7818609E-02  0.8059798E-01
        2   -1    0    0  501    0  0.00000000000E+00  0.00000000000E+00  0.16260702645E+04  0.16260702645E+04  0.25500000920E-02 0. -1.
       -2   -1    0    0    0  501  0.00000000000E+00  0.00000000000E+00 -0.21471434922E+04  0.21471434922E+04  0.25500000920E-02 0.  1.
    10030    2    1    2    0    0  0.00000000000E+00  0.00000000000E+00 -0.52107322769E+03  0.37732137567E+04  0.37370609769E+04 0.  0.
        3    1    3    3  502    0 -0.38048251765E+03 -0.15226322023E+04  0.76329007446E+03  0.17452184728E+04  0.10100000352E+00 0. -1.
       -3    1    3    3    0  502  0.38048251765E+03  0.15226322023E+04 -0.12843633022E+04  0.20279952840E+04  0.10100000352E+00 0.  1.
</event>
<event>
 5   0  0.2897133E-07  0.3703335E+04  0.7818609E-02  0.8067223E-01
        2   -1    0    0  501    0  0.00000000000E+00  0.00000000000E+00  0.22786241264E+04  0.22786241264E+04  0.25500000920E-02 0.  1.
       -2   -1    0    0    0  501  0.00000000000E+00  0.00000000000E+00 -0.15047114106E+04  0.15047114106E+04  0.25500000920E-02 0. -1.
    10030    2    1    2    0    0  0.00000000000E+00  0.00000000000E+00  0.77391271584E+03  0.37833355370E+04  0.37033345642E+04 0.  0.
        4    1    3    3  502    0  0.28641737524E+03 -0.94873663847E+03  0.19848855765E+04  0.22185374657E+04  0.12699999809E+01 0.  1.
       -4    1    3    3    0  502 -0.28641737524E+03  0.94873663847E+03 -0.12109728606E+04  0.15647980714E+04  0.12699999809E+01 0. -1.
</event>
<event>
 5   0  0.9418945E-08  0.3356699E+04  0.7818609E-02  0.8148616E-01
        1   -1    0    0  501    0  0.00000000000E+00  0.00000000000E+00  0.15368756342E+04  0.15368756342E+04  0.50400001928E-02 0.  1.
       -1   -1    0    0    0  501  0.00000000000E+00  0.00000000000E+00 -0.18328466733E+04  0.18328466733E+04  0.50400001928E-02 0. -1.
    10030    2    1    2    0    0  0.00000000000E+00  0.00000000000E+00 -0.29597103905E+03  0.33697223075E+04  0.33566992081E+04 0.  0.
        5    1    3    3  502    0 -0.82852669700E+03  0.52676107923E+03 -0.15144799401E+04  0.18048837362E+04  0.46999998093E+01 0. -1.
       -5    1    3    3    0  502  0.82852669700E+03 -0.52676107923E+03  0.12185089011E+04  0.15648385713E+04  0.46999998093E+01 0.  1.
</event>
<event>
 5   0  0.9646615E-08  0.3702307E+04  0.7818609E-02  0.8067451E-01
        1   -1    0    0  501    0  0.00000000000E+00  0.00000000000E+00  0.21637537929E+04  0.21637537930E+04  0.50400001928E-02 0.  1.
       -1   -1    0    0    0  501  0.00000000000E+00  0.00000000000E+00 -0.15837152174E+04  0.15837152174E+04  0.50400001928E-02 0. -1.
    10030    2    1    2    0    0  0.00000000000E+00  0.00000000000E+00  0.58003857557E+03  0.37474690103E+04  0.37023072852E+04 0.  0.
        2    1    3    3  502    0  0.18476311756E+04 -0.35842088289E+02  0.18032672928E+03  0.18567561352E+04  0.25500000920E-02 0.  1.
       -2    1    3    3    0  502 -0.18476311756E+04  0.35842088289E+02  0.39971184629E+03  0.18907128752E+04  0.25500000920E-02 0. -1.
</event>
<event>
 5   0  0.2897133E-07  0.3694367E+04  0.7818609E-02  0.8069211E-01
        2   -1    0    0  501    0  0.00000000000E+00  0.00000000000E+00  0.13743602812E+04  0.13743602812E+04  0.25500000920E-02 0.  1.
       -2   -1    0    0    0  501  0.00000000000E+00  0.00000000000E+00 -0.24826734072E+04  0.24826734072E+04  0.25500000920E-02 0. -1.
    10030    2    1    2    0    0  0.00000000000E+00  0.00000000000E+00 -0.11083131260E+04  0.38570336884E+04  0.36943674544E+04 0.  0.
        4    1    3    3  502    0 -0.26069036762E+02  0.15431169386E+04 -0.16138333101E+04  0.22330134452E+04  0.12699999809E+01 0. -1.
       -4    1    3    3    0  502  0.26069036762E+02 -0.15431169386E+04  0.50552018415E+03  0.16240202432E+04  0.12699999809E+01 0.  1.
</event>
<event>
 5   0  0.3032442E-07  0.3722053E+04  0.7818609E-02  0.8063092E-01
        2   -1    0    0  501    0  0.00000000000E+00  0.00000000000E+00  0.13412698211E+04  0.13412698211E+04  0.25500000920E-02 0.  1.
       -2   -1    0    0    0  501  0.00000000000E+00  0.00000000000E+00 -0.25821948441E+04  0.25821948441E+04  0.25500000920E-02 0. -1.
    10030    2    1    2    0    0  0.00000000000E+00  0.00000000000E+00 -0.12409250230E+04  0.39234646652E+04  0.37220532057E+04 0.  0.
        3    1    3    3  502    0 -0.16468921043E+04  0.44712960501E+03  0.16217044010E+03  0.17141988650E+04  0.10100000352E+00 0.  1.
       -3    1    3    3    0  502  0.16468921043E+04 -0.44712960501E+03 -0.14030954631E+04  0.22092658002E+04  0.10100000352E+00 0. -1.
</event>
<event>
 5   0  0.3008879E-07  0.3700415E+04  0.7818609E-02  0.8067870E-01
       -2   -1    0    0    0  501  0.00000000000E+00  0.00000000000E+00  0.16659033459E+04  0.16659033459E+04  0.25500000920E-02 0. -1.
        2   -1    0    0  501    0  0.00000000000E+00  0.00000000000E+00 -0.20549016334E+04  0.20549016334E+04  0.25500000920E-02 0.  1.
    10030    2    1    2    0    0  0.00000000000E+00  0.00000000000E+00 -0.38899828748E+03  0.37208049794E+04  0.37004148452E+04 0.  0.
        2    1    3    3  502    0 -0.15095745475E+04  0.10682458687E+04 -0.13671111185E+03  0.18543609354E+04  0.25500000920E-02 0.  1.
       -2    1    3    3    0  502  0.15095745475E+04 -0.10682458687E+04 -0.25228717563E+03  0.18664440440E+04  0.25500000920E-02 0. -1.
</event>
<event>
 5   0  0.2897133E-07  0.3741675E+04  0.7818609E-02  0.8058788E-01
       -2   -1    0    0    0  501  0.00000000000E+00  0.00000000000E+00  0.25501015806E+04  0.25501015806E+04  0.25500000920E-02 0.  1.
        2   -1    0    0  501    0  0.00000000000E+00  0.00000000000E+00 -0.13725073091E+04  0.13725073091E+04  0.25500000920E-02 0. -1.
    10030    2    1    2    0    0  0.00000000000E+00  0.00000000000E+00  0.11775942715E+04  0.39226088897E+04  0.37416750571E+04 0.  0.
        4    1    3    3  502    0  0.18809471760E+03 -0.17725220464E+04  0.11844420237E+04  0.21401211527E+04  0.12699999809E+01 0. -1.
       -4    1    3    3    0  502 -0.18809471760E+03  0.17725220464E+04 -0.68477521793E+01  0.17824877370E+04  0.12699999809E+01 0.  1.
</event>
<event>
 5   0  0.9341000E-08  0.3674973E+04  0.7818609E-02  0.8073531E-01
       -1   -1    0    0    0  501  0.00000000000E+00  0.00000000000E+00  0.12830643964E+04  0.12830643964E+04  0.50400001928E-02 0.  1.
        1   -1    0    0  501    0  0.00000000000E+00  0.00000000000E+00 -0.26314780165E+04  0.26314780165E+04  0.50400001928E-02 0. -1.
    10030    2    1    2    0    0  0.00000000000E+00  0.00000000000E+00 -0.13484136201E+04  0.39145424129E+04  0.36749725185E+04 0.  0.
        1    1    3    3  502    0  0.39252855203E+03 -0.17946002054E+04 -0.71795993653E+03  0.19723425240E+04  0.50400001928E-02 0. -1.
       -1    1    3    3    0  502 -0.39252855203E+03  0.17946002054E+04 -0.63045368360E+03  0.19421998890E+04  0.50400001928E-02 0.  1.
</event>
<event>
 5   0  0.3008879E-07  0.3714623E+04  0.7818609E-02  0.8064729E-01
        2   -1    0    0  501    0  0.00000000000E+00  0.00000000000E+00  0.30175889482E+04  0.30175889482E+04  0.25500000920E-02 0.  1.
       -2   -1    0    0    0  501  0.00000000000E+00  0.00000000000E+00 -0.11431662765E+04  0.11431662765E+04  0.25500000920E-02 0. -1.
    10030    2    1    2    0    0  0.00000000000E+00  0.00000000000E+00  0.18744226717E+04  0.41607552247E+04  0.37146229536E+04 0.  0.
        2    1    3    3  502    0  0.10099591365E+04  0.13242025933E+04  0.16220784325E+02  0.16654708281E+04  0.25500000920E-02 0. -1.
       -2    1    3    3    0  502 -0.10099591365E+04 -0.13242025933E+04  0.18582018874E+04  0.24952843966E+04  0.25500000920E-02 0.  1.
</event>
<event>
 5   0  0.9418945E-08  0.3718325E+04  0.7818609E-02  0.8063913E-01
        1   -1    0    0  501    0  0.00000000000E+00  0.00000000000E+00  0.18588877539E+04  0.18588877539E+04  0.50400001928E-02 0.  1.
       -1   -1    0    0    0  501  0.00000000000E+00  0.00000000000E+00 -0.18594376835E+04  0.18594376835E+04  0.50400001928E-02 0. -1.
    10030    2    1    2    0    0  0.00000000000E+00  0.00000000000E+00 -0.54992962154E+00  0.37183254374E+04  0.37183253967E+04 0.  0.
        5    1    3    3  502    0 -0.13122711893E+04 -0.66233831979E+02 -0.13155777026E+04  0.18593572482E+04  0.46999998093E+01 0. -1.
       -5    1    3    3    0  502  0.13122711893E+04  0.66233831979E+02  0.13150277730E+04  0.18589681892E+04  0.46999998093E+01 0.  1.
</event>
<event>
 5   0  0.9341000E-08  0.3548774E+04  0.7818609E-02  0.8102327E-01
        1   -1    0    0  501    0  0.00000000000E+00  0.00000000000E+00  0.16849449006E+04  0.16849449006E+04  0.50400001928E-02 0. -1.
       -1   -1    0    0    0  501  0.00000000000E+00  0.00000000000E+00 -0.18685774715E+04  0.18685774715E+04  0.50400001928E-02 0.  1.
    10030    2    1    2    0    0  0.00000000000E+00  0.00000000000E+00 -0.18363257086E+03  0.35535223721E+04  0.35487744826E+04 0.  0.
        3    1    3    3  502    0  0.13131730412E+04 -0.10210829611E+04 -0.71023159489E+03  0.18087185459E+04  0.10100000352E+00 0.  1.
       -3    1    3    3    0  502 -0.13131730412E+04  0.10210829611E+04  0.52659902404E+03  0.17448038262E+04  0.10100000352E+00 0. -1.
</event>
<event>
 5   0  0.2913025E-07  0.3742270E+04  0.7818609E-02  0.8058658E-01
       -2   -1    0    0    0  501  0.00000000000E+00  0.00000000000E+00  0.16429354799E+04  0.16429354799E+04  0.25500000920E-02 0.  1.
        2   -1    0    0  501    0  0.00000000000E+00  0.00000000000E+00 -0.21310311565E+04  0.21310311565E+04  0.25500000920E-02 0. -1.
    10030    2    1    2    0    0  0.00000000000E+00  0.00000000000E+00 -0.48809567655E+03  0.37739666364E+04  0.37422702712E+04 0.  0.
        5    1    3    3  502    0 -0.13455737391E+04 -0.13001360622E+04 -0.22970988575E+03  0.18851289582E+04  0.46999998093E+01 0.  1.
       -5    1    3    3    0  502  0.13455737391E+04  0.13001360622E+04 -0.25838579080E+03  0.18888376782E+04  0.46999998093E+01 0. -1.
</event>
<event>
 5   0  0.9418945E-08  0.3701201E+04  0.7818609E-02  0.8067696E-01
       -1   -1    0    0    0  501  0.00000000000E+00  0.00000000000E+00  0.20238493333E+04  0.20238493333E+04  0.50400001928E-02 0.  1.
        1   -1    0    0  501    0  0.00000000000E+00  0.00000000000E+00 -0.16921824227E+04  0.16921824227E+04  0.50400001928E-02 0. -1.
    10030    2    1    2    0    0  0.00000000000E+00  0.00000000000E+00  0.33166691062E+03  0.37160317561E+04  0.37012010311E+04 0.  0.
        5    1    3    3  502    0 -0.51164696607E+03  0.17784124403E+04  0.17879846114E+03  0.18591730434E+04  0.46999998093E+01 0. -1.
       -5    1    3    3    0  502  0.51164696607E+03 -0.17784124403E+04  0.15286844948E+03  0.18568587126E+04  0.46999998093E+01 0.  1.
</event>
<event>
 5   0  0.3032442E-07  0.3677717E+04  0.7818609E-02  0.8072918E-01
       -2   -1    0    0    0  501  0.00000000000E+00  0.00000000000E+00  0.18755635992E+04  0.18755635992E+04  0.25500000920E-02 0. -1.
        2   -1    0    0  501    0  0.00000000000E+00  0.00000000000E+00 -0.18028716063E+04  0.18028716063E+04  0.25500000920E-02 0.  1.
    10030    2    1    2    0    0  0.00000000000E+00  0.00000000000E+00  0.72691992856E+02  0.36784352055E+04  0.36777168781E+04 0.  0.
        3    1    3    3  502    0 -0.14617560224E+04 -0.80637407779E+03  0.80748979368E+03  0.18544566858E+04  0.10100000352E+00 0. -1.
       -3    1    3    3    0  502  0.14617560224E+04  0.80637407779E+03 -0.73479780083E+03  0.18239785198E+04  0.10100000352E+00 0.  1.
</event>
<event>
 5   0  0.9341000E-08  0.3586645E+04  0.7818609E-02  0.8093558E-01
       -1   -1    0    0    0  501  0.00000000000E+00  0.00000000000E+00  0.11055078439E+04  0.11055078439E+04  0.50400001928E-02 0. -1.
        1   -1    0    0  501    0  0.00000000000E+00  0.00000000000E+00 -0.29090753790E+04  0.29090753790E+04  0.50400001928E-02 0.  1.
    10030    2    1    2    0    0  0.00000000000E+00  0.00000000000E+00 -0.18035675351E+04  0.40145832230E+04  0.35866450341E+04 0.  0.
        1    1    3    3  502    0 -0.16653718817E+04  0.34796921465E+03 -0.15364059509E+04  0.22923981601E+04  0.50400001928E-02 0.  1.
       -1    1    3    3    0  502  0.16653718817E+04 -0.34796921465E+03 -0.26716158426E+03  0.17221850629E+04  0.50400001928E-02 0. -1.
</event>
<event>
 5   0  0.9418945E-08  0.3691603E+04  0.7818609E-02  0.8069825E-01
        1   -1    0    0  501    0  0.00000000000E+00  0.00000000000E+00  0.13101223503E+04  0.13101223503E+04  0.50400001928E-02 0.  1.
       -1   -1    0    0    0  501  0.00000000000E+00  0.00000000000E+00 -0.26005080562E+04  0.26005080562E+04  0.50400001928E-02 0. -1.
    10030    2    1    2    0    0  0.00000000000E+00  0.00000000000E+00 -0.12903857058E+04  0.39106304065E+04  0.36916032976E+04 0.  0.
        5    1    3    3  502    0 -0.28265484948E+03  0.16302970266E+04  0.22138890818E+03  0.16693703296E+04  0.46999998093E+01 0.  1.
       -5    1    3    3    0  502  0.28265484948E+03 -0.16302970266E+04 -0.15117746140E+04  0.22412600769E+04  0.46999998093E+01 0. -1.
</event>
<event>
 5   0  0.3032442E-07  0.3695042E+04  0.7818609E-02  0.8069061E-01
        2   -1    0    0  501    0  0.00000000000E+00  0.00000000000E+00  0.16405976008E+04  0.16405976008E+04  0.25500000920E-02 0.  1.
       -2   -1    0    0    0  501  0.00000000000E+00  0.00000000000E+00 -0.20805433287E+04  0.20805433288E+04  0.25500000920E-02 0. -1.
    10030    2    1    2    0    0  0.00000000000E+00  0.00000000000E+00 -0.43994572797E+03  0.37211409295E+04  0.36950422966E+04 0.  0.
        3    1    3    3  502    0  0.24330172976E+03 -0.54445283165E+02 -0.20635241194E+04  0.20785311694E+04  0.10100000352E+00 0. -1.
       -3    1    3    3    0  502 -0.24330172976E+03  0.54445283165E+02  0.16235783915E+04  0.16426097601E+04  0.10100000352E+00 0.  1.
</event>
<event>
 5   0  0.2913025E-07  0.3696340E+04  0.7818609E-02  0.8068773E-01
        2   -1    0    0  501    0  0.00000000000E+00  0.00000000000E+00  0.18518911192E+04  0.18518911192E+04  0.25500000920E-02 0.  1.
       -2   -1    0    0    0  501  0.00000000000E+00  0.00000000000E+00 -0.18444567560E+04  0.18444567560E+04  0.25500000920E-02 0. -1.
    10030    2    1    2    0    0  0.00000000000E+00  0.00000000000E+00  0.74343631886E+01  0.36963478752E+04  0.36963403989E+04 0.  0.
        5    1    3    3  502    0  0.10854191010E+02 -0.61460447878E+02  0.18508310377E+04  0.18518889871E+04  0.46999998093E+01 0.  1.
       -5    1    3    3    0  502 -0.10854191010E+02  0.61460447878E+02 -0.18433966746E+04  0.18444588881E+04  0.46999998093E+01 0. -1.
</event>
<event>
 5   0  0.2913025E-07  0.3380598E+04  0.7818609E-02  0.8142685E-01
        2   -1    0    0  501    0  0.00000000000E+00  0.00000000000E+00  0.21607113287E+04  0.21607113287E+04  0.25500000920E-02 0.  1.
       -2   -1    0    0    0  501  0.00000000000E+00  0.00000000000E+00 -0.13223007667E+04  0.13223007667E+04  0.25500000920E-02 0. -1.
    10030    2    1    2    0    0  0.00000000000E+00  0.00000000000E+00  0.83841056203E+03  0.34830120954E+04  0.33805977262E+04 0.  0.
        5    1    3    3  502    0  0.11223955405E+04  0.90851090762E+03 -0.48600370088E+03  0.15236093679E+04  0.46999998093E+01 0. -1.
       -5    1    3    3    0  502 -0.11223955405E+04 -0.90851090762E+03  0.13244142629E+04  0.19594027275E+04  0.46999998093E+01 0.  1.
</event>
<event>
 5   0  0.9341000E-08  0.3705816E+04  0.7818609E-02  0.8066674E-01
        1   -1    0    0  501    0  0.00000000000E+00  0.00000000000E+00  0.19922592031E+04  0.19922592031E+04  0.50400001928E-02 0.  1.
       -1   -1    0    0    0  501  0.00000000000E+00  0.00000000000E+00 -0.17233041492E+04  0.17233041492E+04  0.50400001928E-02 0. -1.
    10030    2    1    2    0    0  0.00000000000E+00  0.00000000000E+00  0.26895505396E+03  0.37155633523E+04  0.37058162669E+04 0.  0.
        4    1    3    3  502    0  0.83783304022E+03  0.13998143027E+04  0.10153226370E+04  0.19215425979E+04  0.12699999809E+01 0.  1.
       -4    1    3    3    0  502 -0.83783304022E+03 -0.13998143027E+04 -0.74636758305E+03  0.17940207544E+04  0.12699999809E+01 0. -1.
</event>
<event>
 5   0  0.9341000E-08  0.3472447E+04  0.7818609E-02  0.8120351E-01
        1   -1    0    0  501    0  0.00000000000E+00  0.00000000000E+00  0.18730893398E+04  0.18730893398E+04  0.50400001928E-02 0. -1.
       -1   -1    0    0    0  501  0.00000000000E+00  0.00000000000E+00 -0.16093587528E+04  0.16093587528E+04  0.50400001928E-02 0.  1.
    10030    2    1    2    0    0  0.00000000000E+00  0.00000000000E+00  0.26373058694E+03  0.34824480926E+04  0.34724473927E+04 0.  0.
        4    1    3    3  502    0  0.72384131564E+03  0.67795736578E+03  0.15610656127E+04  0.18494593535E+04  0.12699999809E+01 0. -1.
       -4    1    3    3    0  502 -0.72384131564E+03 -0.67795736578E+03 -0.12973350258E+04  0.16329887391E+04  0.12699999809E+01 0.  1.
</event>
<event>
 5   0  0.9341000E-08  0.3712352E+04  0.7818609E-02  0.8065230E-01
        1   -1    0    0  501    0  0.00000000000E+00  0.00000000000E+00  0.31046192798E+04  0.31046192798E+04  0.50400001928E-02 0. -1.
       -1   -1    0    0    0  501  0.00000000000E+00  0.00000000000E+00 -0.11097621231E+04  0.11097621231E+04  0.50400001928E-02 0.  1.
    10030    2    1    2    0    0  0.00000000000E+00  0.00000000000E+00  0.19948571568E+04  0.42143814029E+04  0.37123517524E+04 0.  0.
        3    1    3    3  502    0 -0.91212657649E+03  0.12791466243E+04 -0.12478618698E+03  0.15759957426E+04  0.10100000352E+00 0.  1.
       -3    1    3    3    0  502  0.91212657649E+03 -0.12791466243E+04  0.21196433437E+04  0.26383856604E+04  0.10100000352E+00 0. -1.
</event>
<event>
 5   0  0.9341000E-08  0.3701505E+04  0.7818609E-02  0.8067628E-01
       -1   -1    0    0    0  501  0.00000000000E+00  0.00000000000E+00  0.19604019478E+04  0.19604019478E+04  0.50400001928E-02 0.  1.
        1   -1    0    0  501    0  0.00000000000E+00  0.00000000000E+00 -0.17472360959E+04  0.17472360959E+04  0.50400001928E-02 0. -1.
    10030    2    1    2    0    0  0.00000000000E+00  0.00000000000E+00  0.21316585197E+03  0.37076380437E+04  0.37015051240E+04 0.  0.
        1    1    3    3  502    0 -0.13984074683E+04  0.46254715213E+03 -0.10158949357E+04  0.17892836096E+04  0.50400001928E-02 0. -1.
       -1    1    3    3    0  502  0.13984074683E+04 -0.46254715213E+03  0.12290607876E+04  0.19183544341E+04  0.50400001928E-02 0.  1.
</event>
<event>
 5   0  0.3032442E-07  0.3693100E+04  0.7818609E-02  0.8069493E-01
       -2   -1    0    0    0  501  0.00000000000E+00  0.00000000000E+00  0.17252004980E+04  0.17252004980E+04  0.25500000920E-02 0. -1.
        2   -1    0    0  501    0  0.00000000000E+00  0.00000000000E+00 -0.19764351504E+04  0.19764351504E+04  0.25500000920E-02 0.  1.
    10030    2    1    2    0    0  0.00000000000E+00  0.00000000000E+00 -0.25123465245E+03  0.37016356484E+04  0.36931000018E+04 0.  0.
        3    1    3    3  502    0 -0.61138328402E+03 -0.83297560109E+03  0.14083148414E+04  0.17467079248E+04  0.10100000352E+00 0. -1.
       -3    1    3    3    0  502  0.61138328402E+03  0.83297560109E+03 -0.16595494938E+04  0.19549277236E+04  0.10100000352E+00 0.  1.
</event>
<event>
 5   0  0.2913025E-07  0.3717704E+04  0.7818609E-02  0.8064050E-01
        2   -1    0    0  501    0  0.00000000000E+00  0.00000000000E+00  0.27858671610E+04  0.27858671610E+04  0.25500000920E-02 0. -1.
       -2   -1    0    0    0  501  0.00000000000E+00  0.00000000000E+00 -0.12403072247E+04  0.12403072247E+04  0.25500000920E-02 0.  1.
    10030    2    1    2    0    0  0.00000000000E+00  0.00000000000E+00  0.15455599363E+04  0.40261743856E+04  0.37177042199E+04 0.  0.
        5    1    3    3  502    0  0.16175783507E+04  0.67459781966E+03  0.10197688792E+03  0.17555806204E+04  0.46999998093E+01 0. -1.
       -5    1    3    3    0  502 -0.16175783507E+04 -0.67459781966E+03  0.14435830484E+04  0.22705937652E+04  0.46999998093E+01 0.  1.
</event>
<event>
 5   0  0.2913025E-07  0.3693299E+04  0.7818609E-02  0.8069448E-01
        2   -1    0    0  501    0  0.00000000000E+00  0.00000000000E+00  0.24387642107E+04  0.24387642107E+04  0.25500000920E-02 0. -1.
       -2   -1    0    0    0  501  0.00000000000E+00  0.00000000000E+00 -0.13982962320E+04  0.13982962320E+04  0.25500000920E-02 0.  1.
    10030    2    1    2    0    0  0.00000000000E+00  0.00000000000E+00  0.10404679787E+04  0.38370604427E+04  0.36932992333E+04 0.  0.
        5    1    3    3  502    0 -0.52140452088E+03  0.17202935472E+04  0.95956552281E+03  0.20376605816E+04  0.46999998093E+01 0. -1.
       -5    1    3    3    0  502  0.52140452088E+03 -0.17202935472E+04  0.80902455930E+02  0.17993998612E+04  0.46999998093E+01 0.  1.
</event>
<event>
 5   0  0.9341000E-08  0.3680364E+04  0.7818609E-02  0.8072327E-01
       -1   -1    0    0    0  501  0.00000000000E+00  0.00000000000E+00  0.18315429953E+04  0.18315429954E+04  0.50400001928E-02 0. -1.
        1   -1    0    0  501    0  0.00000000000E+00  0.00000000000E+00 -0.18488619169E+04  0.18488619169E+04  0.50400001928E-02 0.  1.
    10030    2    1    2    0    0  0.00000000000E+00  0.00000000000E+00 -0.17318921520E+02  0.36804049122E+04  0.36803641631E+04 0.  0.
        1    1    3    3  502    0 -0.16097648253E+04 -0.86703393095E+03  0.19913952691E+03  0.18392246142E+04  0.50400001928E-02 0. -1.
       -1    1    3    3    0  502  0.16097648253E+04  0.86703393095E+03 -0.21645844843E+03  0.18411802981E+04  0.50400001928E-02 0.  1.
</event>
<event>
 5   0  0.2996969E-07  0.3703965E+04  0.7818609E-02  0.8067084E-01
        2   -1    0    0  501    0  0.00000000000E+00  0.00000000000E+00  0.13879630582E+04  0.13879630582E+04  0.25500000920E-02 0. -1.
       -2   -1    0    0    0  501  0.00000000000E+00  0.00000000000E+00 -0.24711311936E+04  0.24711311936E+04  0.25500000920E-02 0.  1.
    10030    2    1    2    0    0  0.00000000000E+00  0.00000000000E+00 -0.10831681354E+04  0.38590942519E+04  0.37039647994E+04 0.  0.
        1    1    3    3  502    0 -0.17541601496E+04  0.57899055439E+03 -0.67953379323E+03  0.19682667677E+04  0.50400001928E-02 0.  1.
       -1    1    3    3    0  502  0.17541601496E+04 -0.57899055439E+03 -0.40363434216E+03  0.18908274842E+04  0.50400001928E-02 0. -1.
</event>
<event>
 5   0  0.2996969E-07  0.3695672E+04  0.7818609E-02  0.8068922E-01
        2   -1    0    0  501    0  0.00000000000E+00  0.00000000000E+00  0.23185432359E+04  0.23185432359E+04  0.25500000920E-02 0.  1.
       -2   -1    0    0    0  501  0.00000000000E+00  0.00000000000E+00 -0.14726912555E+04  0.14726912555E+04  0.25500000920E-02 0. -1.
    10030    2    1    2    0    0  0.00000000000E+00  0.00000000000E+00  0.84585198048E+03  0.37912344914E+04  0.36956722522E+04 0.  0.
        1    1    3    3  502    0 -0.18139734416E+04 -0.25470478020E+03  0.17348389141E+03  0.18399648998E+04  0.50400001928E-02 0. -1.
       -1    1    3    3    0  502  0.18139734416E+04  0.25470478020E+03  0.67236808907E+03  0.19512695916E+04  0.50400001928E-02 0.  1.
</event>
<event>
 5   0  0.9341000E-08  0.3676836E+04  0.7818609E-02  0.8073115E-01
       -1   -1    0    0    0  501  0.00000000000E+00  0.00000000000E+00  0.16180998052E+04  0.16180998052E+04  0.50400001928E-02 0.  1.
        1   -1    0    0  501    0  0.00000000000E+00  0.00000000000E+00 -0.20887342203E+04  0.20887342204E+04  0.50400001928E-02 0. -1.
    10030    2    1    2    0    0  0.00000000000E+00  0.00000000000E+00 -0.47063441519E+03  0.37068340255E+04  0.36768358326E+04 0.  0.
        3    1    3    3  502    0  0.44149280016E+03  0.87135226400E+03 -0.18054607864E+04  0.20527686967E+04  0.10100000352E+00 0. -1.
       -3    1    3    3    0  502 -0.44149280016E+03 -0.87135226400E+03  0.13348263712E+04  0.16540653288E+04  0.10100000352E+00 0.  1.
</event>
<event>
 5   0  0.2897133E-07  0.3684091E+04  0.7818609E-02  0.8071497E-01
       -2   -1    0    0    0  501  0.00000000000E+00  0.00000000000E+00  0.16780097282E+04  0.16780097282E+04  0.25500000920E-02 0.  1.
        2   -1    0    0  501    0  0.00000000000E+00  0.00000000000E+00 -0.20221170023E+04  0.20221170023E+04  0.25500000920E-02 0. -1.
    10030    2    1    2    0    0  0.00000000000E+00  0.00000000000E+00 -0.34410727410E+03  0.37001267304E+04  0.36840912048E+04 0.  0.
        4    1    3    3  502    0 -0.81652479940E+03  0.26416519874E+03  0.14649593347E+04  0.16978231550E+04  0.12699999809E+01 0.  1.
       -4    1    3    3    0  502  0.81652479940E+03 -0.26416519874E+03 -0.18090666088E+04  0.20023035755E+04  0.12699999809E+01 0. -1.
</event>
<event>
 5   0  0.9646615E-08  0.3661386E+04  0.7818609E-02  0.8076573E-01
       -1   -1    0    0    0  501  0.00000000000E+00  0.00000000000E+00  0.11304491958E+04  0.11304491958E+04  0.50400001928E-02 0. -1.
        1   -1    0    0  501    0  0.00000000000E+00  0.00000000000E+00 -0.29646952533E+04  0.29646952533E+04  0.50400001928E-02 0.  1.
    10030    2    1    2    0    0  0.00000000000E+00  0.00000000000E+00 -0.18342460575E+04  0.40951444491E+04  0.36613862756E+04 0.  0.
        2    1    3    3  502    0 -0.88945765288E+03 -0.42784300575E+03  0.80736967354E+03  0.12751589484E+04  0.25500000920E-02 0. -1.
       -2    1    3    3    0  502  0.88945765288E+03  0.42784300575E+03 -0.26416157310E+04  0.28199855007E+04  0.25500000920E-02 0.  1.
</event>
<event>
 5   0  0.3008879E-07  0.3551596E+04  0.7818609E-02  0.8101670E-01
       -2   -1    0    0    0  501  0.00000000000E+00  0.00000000000E+00  0.12271072407E+04  0.12271072408E+04  0.25500000920E-02 0.  1.
        2   -1    0    0  501    0  0.00000000000E+00  0.00000000000E+00 -0.25698308718E+04  0.25698308718E+04  0.25500000920E-02 0. -1.
    10030    2    1    2    0    0  0.00000000000E+00  0.00000000000E+00 -0.13427236311E+04  0.37969381126E+04  0.35515957373E+04 0.  0.
        2    1    3    3  502    0 -0.60948802275E+03 -0.14387899565E+04  0.23064346852E+03  0.15794899804E+04  0.25500000920E-02 0.  1.
       -2    1    3    3    0  502  0.60948802275E+03  0.14387899565E+04 -0.15733670996E+04  0.22174481321E+04  0.25500000920E-02 0. -1.
</event>
<event>
 5   0  0.9341000E-08  0.3484178E+04  0.7818609E-02  0.8117550E-01
       -1   -1    0    0    0  501  0.00000000000E+00  0.00000000000E+00  0.11924015346E+04  0.11924015346E+04  0.50400001928E-02 0.  1.
        1   -1    0    0  501    0  0.00000000000E+00  0.00000000000E+00 -0.25451781037E+04  0.25451781037E+04  0.50400001928E-02 0. -1.
    10030    2    1    2    0    0  0.00000000000E+00  0.00000000000E+00 -0.13527765691E+04  0.37375796383E+04  0.34841781107E+04 0.  0.
        3    1    3    3  502    0 -0.12769462207E+04 -0.58630920441E+02 -0.19460416091E+04  0.23283271226E+04  0.10100000352E+00 0. -1.
       -3    1    3    3    0  502  0.12769462207E+04  0.58630920441E+02  0.59326503999E+03  0.14092525158E+04  0.10100000352E+00 0.  1.
</event>
<event>
 5   0  0.3008879E-07  0.3698738E+04  0.7818609E-02  0.8068242E-01
       -2   -1    0    0    0  501  0.00000000000E+00  0.00000000000E+00  0.13132152504E+04  0.13132152504E+04  0.25500000920E-02 0. -1.
        2   -1    0    0  501    0  0.00000000000E+00  0.00000000000E+00 -0.26044207884E+04  0.26044207884E+04  0.25500000920E-02 0.  1.
    10030    2    1    2    0    0  0.00000000000E+00  0.00000000000E+00 -0.12912055380E+04  0.39176360388E+04  0.36987376754E+04 0.  0.
        2    1    3    3  502    0 -0.17295029690E+04 -0.63659546242E+03 -0.48243788323E+03  0.19050408431E+04  0.25500000920E-02 0. -1.
       -2    1    3    3    0  502  0.17295029690E+04  0.63659546242E+03 -0.80876765479E+03  0.20125951958E+04  0.25500000920E-02 0.  1.
</event>
<event>
 5   0  0.2913025E-07  0.3724389E+04  0.7818609E-02  0.8062578E-01
        2   -1    0    0  501    0  0.00000000000E+00  0.00000000000E+00  0.16874692578E+04  0.16874692578E+04  0.25500000920E-02 0. -1.
       -2   -1    0    0    0  501  0.00000000000E+00  0.00000000000E+00 -0.20550110201E+04  0.20550110201E+04  0.25500000920E-02 0.  1.
    10030    2    1    2    0    0  0.00000000000E+00  0.00000000000E+00 -0.36754176235E+03  0.37424802779E+04  0.37243887664E+04 0.  0.
        5    1    3    3  502    0  0.14025261377E+04 -0.20859155106E+03 -0.13967616932E+04  0.19903656246E+04  0.46999998093E+01 0.  1.
       -5    1    3    3    0  502 -0.14025261377E+04  0.20859155106E+03  0.10292199309E+04  0.17521146533E+04  0.46999998093E+01 0. -1.
</event>
<event>
 5   0  0.2913025E-07  0.3737752E+04  0.7818609E-02  0.8059647E-01
        2   -1    0    0  501    0  0.00000000000E+00  0.00000000000E+00  0.21251340505E+04  0.21251340505E+04  0.25500000920E-02 0. -1.
       -2   -1    0    0    0  501  0.00000000000E+00  0.00000000000E+00 -0.16435190771E+04  0.16435190771E+04  0.25500000920E-02 0.  1.
    10030    2    1    2    0    0  0.00000000000E+00  0.00000000000E+00  0.48161497344E+03  0.37686531276E+04  0.37377524548E+04 0.  0.
        5    1    3    3  502    0 -0.13191436759E+04 -0.83922897611E+03 -0.79148821815E+03  0.17524043487E+04  0.46999998093E+01 0.  1.
       -5    1    3    3    0  502  0.13191436759E+04  0.83922897611E+03  0.12731031916E+04  0.20162487789E+04  0.46999998093E+01 0. -1.
</event>
<event>
 5   0  0.2913025E-07  0.3746779E+04  0.7818609E-02  0.8057673E-01
       -2   -1    0    0    0  501  0.00000000000E+00  0.00000000000E+00  0.27867447327E+04  0.27867447327E+04  0.25500000920E-02 0.  1.
        2   -1    0    0  501    0  0.00000000000E+00  0.00000000000E+00 -0.12593864658E+04  0.12593864658E+04  0.25500000920E-02 0. -1.
    10030    2    1    2    0    0  0.00000000000E+00  0.00000000000E+00  0.15273582669E+04  0.40461311986E+04  0.37467792036E+04 0.  0.
        5    1    3    3  502    0  0.63971355855E+03 -0.17146736506E+04  0.33141402831E+03  0.18598915326E+04  0.46999998093E+01 0. -1.
       -5    1    3    3    0  502 -0.63971355855E+03  0.17146736506E+04  0.11959442386E+04  0.21862396659E+04  0.46999998093E+01 0.  1.
</event>
<event>
 5   0  0.9341000E-08  0.3685621E+04  0.7818609E-02  0.8071156E-01
       -1   -1    0    0    0  501  0.00000000000E+00  0.00000000000E+00  0.17689411694E+04  0.17689411694E+04  0.50400001928E-02 0.  1.
        1   -1    0    0  501    0  0.00000000000E+00  0.00000000000E+00 -0.19197647707E+04  0.19197647707E+04  0.50400001928E-02 0. -1.
    10030    2    1    2    0    0  0.00000000000E+00  0.00000000000E+00 -0.15082360133E+03  0.36887059401E+04  0.36856212169E+04 0.  0.
        3    1    3    3  502    0  0.11846641192E+04  0.51858676818E+03  0.12385425291E+04  0.17906280792E+04  0.10100000352E+00 0.  1.
       -3    1    3    3    0  502 -0.11846641192E+04 -0.51858676818E+03 -0.13893661304E+04  0.18980778609E+04  0.10100000352E+00 0. -1.
</event>
<event>
 5   0  0.9341000E-08  0.3710323E+04  0.7818609E-02  0.8065678E-01
       -1   -1    0    0    0  501  0.00000000000E+00  0.00000000000E+00  0.11958545148E+04  0.11958545148E+04  0.50400001928E-02 0.  1.
        1   -1    0    0  501    0  0.00000000000E+00  0.00000000000E+00 -0.28779623253E+04  0.28779623253E+04  0.50400001928E-02 0. -1.
    10030    2    1    2    0    0  0.00000000000E+00  0.00000000000E+00 -0.16821078105E+04  0.40738168401E+04  0.37103230264E+04 0.  0.
        3    1    3    3  502    0  0.18483037986E+04 -0.15515659006E+03 -0.80110640646E+03  0.20204138150E+04  0.10100000352E+00 0.  1.
       -3    1    3    3    0  502 -0.18483037986E+04  0.15515659006E+03 -0.88100140402E+03  0.20534030251E+04  0.10100000352E+00 0. -1.
</event>
<event>
 5   0  0.9418945E-08  0.3888522E+04  0.7818609E-02  0.8027421E-01
        1   -1    0    0  501    0  0.00000000000E+00  0.00000000000E+00  0.21096518063E+04  0.21096518064E+04  0.50400001928E-02 0. -1.
       -1   -1    0    0    0  501  0.00000000000E+00  0.00000000000E+00 -0.17918367384E+04  0.17918367384E+04  0.50400001928E-02 0.  1.
    10030    2    1    2    0    0  0.00000000000E+00  0.00000000000E+00  0.31781506792E+03  0.39014885448E+04  0.38885223990E+04 0.  0.
        5    1    3    3  502    0  0.12963345173E+03 -0.19163452071E+04  0.46148522590E+03  0.19753922365E+04  0.46999998093E+01 0. -1.
       -5    1    3    3    0  502 -0.12963345173E+03  0.19163452071E+04 -0.14367015798E+03  0.19260963083E+04  0.46999998093E+01 0.  1.
</event>
<event>
 5   0  0.2996969E-07  0.3696291E+04  0.7818609E-02  0.8068784E-01
       -2   -1    0    0    0  501  0.00000000000E+00  0.00000000000E+00  0.15293697905E+04  0.15293697905E+04  0.25500000920E-02 0.  1.
        2   -1    0    0  501    0  0.00000000000E+00  0.00000000000E+00 -0.22333653471E+04  0.22333653471E+04  0.25500000920E-02 0. -1.
    10030    2    1    2    0    0  0.00000000000E+00  0.00000000000E+00 -0.70399555653E+03  0.37627351376E+04  0.36962908398E+04 0.  0.
        1    1    3    3  502    0  0.75472055520E+03  0.12044945809E+04 -0.15544299838E+04  0.21063387397E+04  0.50400001928E-02 0. -1.
       -1    1    3    3    0  502 -0.75472055520E+03 -0.12044945809E+04  0.85043442730E+03  0.16563963979E+04  0.50400001928E-02 0.  1.
</event>
<event>
 5   0  0.9418945E-08  0.3697442E+04  0.7818609E-02  0.8068529E-01
        1   -1    0    0  501    0  0.00000000000E+00  0.00000000000E+00  0.23874892611E+04  0.23874892611E+04  0.50400001928E-02 0. -1.
       -1   -1    0    0    0  501  0.00000000000E+00  0.00000000000E+00 -0.14315328797E+04  0.14315328797E+04  0.50400001928E-02 0.  1.
    10030    2    1    2    0    0  0.00000000000E+00  0.00000000000E+00  0.95595638141E+03  0.38190221407E+04  0.36974420223E+04 0.  0.
        5    1    3    3  502    0  0.15406884546E+04  0.52453723795E+03 -0.42771703654E+03  0.16828024784E+04  0.46999998093E+01 0.  1.
       -5    1    3    3    0  502 -0.15406884546E+04 -0.52453723795E+03  0.13836734180E+04  0.21362196623E+04  0.46999998093E+01 0. -1.
</event>
<event>
 5   0  0.2996969E-07  0.3704522E+04  0.7818609E-02  0.8066960E-01
       -2   -1    0    0    0  501  0.00000000000E+00  0.00000000000E+00  0.13790024183E+04  0.13790024183E+04  0.25500000920E-02 0.  1.
        2   -1    0    0  501    0  0.00000000000E+00  0.00000000000E+00 -0.24879368163E+04  0.24879368163E+04  0.25500000920E-02 0. -1.
    10030    2    1    2    0    0  0.00000000000E+00  0.00000000000E+00 -0.11089343979E+04  0.38669392346E+04  0.37045220400E+04 0.  0.
        1    1    3    3  502    0 -0.35284684117E+03  0.14942802614E+04  0.52705510372E+03  0.16233180450E+04  0.50400001928E-02 0.  1.
       -1    1    3    3    0  502  0.35284684117E+03 -0.14942802614E+04 -0.16359895016E+04  0.22436211896E+04  0.50400001928E-02 0. -1.
</event>
<event>
 5   0  0.3032442E-07  0.3751650E+04  0.7818609E-02  0.8056611E-01
       -2   -1    0    0    0  501  0.00000000000E+00  0.00000000000E+00  0.11226274383E+04  0.11226274383E+04  0.25500000920E-02 0. -1.
        2   -1    0    0  501    0  0.00000000000E+00  0.00000000000E+00 -0.31343611159E+04  0.31343611159E+04  0.25500000920E-02 0.  1.
    10030    2    1    2    0    0  0.00000000000E+00  0.00000000000E+00 -0.20117336776E+04  0.42569885542E+04  0.37516501917E+04 0.  0.
        3    1    3    3  502    0  0.16274056913E+04  0.62819701061E+03 -0.17884290617E+04  0.24983112870E+04  0.10100000352E+00 0.  1.
       -3    1    3    3    0  502 -0.16274056913E+04 -0.62819701061E+03 -0.22330461593E+03  0.17586772671E+04  0.10100000352E+00 0. -1.
</event>
<event>
 5   0  0.3008879E-07  0.3649763E+04  0.7818609E-02  0.8079187E-01
       -2   -1    0    0    0  501  0.00000000000E+00  0.00000000000E+00  0.22126199515E+04  0.22126199515E+04  0.25500000920E-02 0.  1.
        2   -1    0    0  501    0  0.00000000000E+00  0.00000000000E+00 -0.15050898405E+04  0.15050898405E+04  0.25500000920E-02 0. -1.
    10030    2    1    2    0    0  0.00000000000E+00  0.00000000000E+00  0.70753011098E+03  0.37177097919E+04  0.36497626278E+04 0.  0.
        2    1    3    3  502    0 -0.15363976384E+04 -0.29350153706E+03 -0.60369739343E+03  0.16766369310E+04  0.25500000920E-02 0. -1.
       -2    1    3    3    0  502  0.15363976384E+04  0.29350153706E+03  0.13112275044E+04  0.20410728610E+04  0.25500000920E-02 0.  1.
</event>
<event>
 5   0  0.9341000E-08  0.3723767E+04  0.7818609E-02  0.8062715E-01
       -1   -1    0    0    0  501  0.00000000000E+00  0.00000000000E+00  0.17636833466E+04  0.17636833466E+04  0.50400001928E-02 0.  1.
        1   -1    0    0  501    0  0.00000000000E+00  0.00000000000E+00 -0.19655517037E+04  0.19655517037E+04  0.50400001928E-02 0. -1.
    10030    2    1    2    0    0  0.00000000000E+00  0.00000000000E+00 -0.20186835715E+03  0.37292350503E+04  0.37237673433E+04 0.  0.
        4    1    3    3  502    0 -0.12539089790E+03  0.16709086236E+04  0.71201552377E+03  0.18206114975E+04  0.12699999809E+01 0.  1.
       -4    1    3    3    0  502  0.12539089790E+03 -0.16709086236E+04 -0.91388388093E+03  0.19086235528E+04  0.12699999809E+01 0. -1.
</event>
<event>
 5   0  0.2913025E-07  0.3707178E+04  0.7818609E-02  0.8066373E-01
        2   -1    0    0  501    0  0.00000000000E+00  0.00000000000E+00  0.28890830060E+04  0.28890830060E+04  0.25500000920E-02 0. -1.
       -2   -1    0    0    0  501  0.00000000000E+00  0.00000000000E+00 -0.11892327642E+04  0.11892327642E+04  0.25500000920E-02 0.  1.
    10030    2    1    2    0    0  0.00000000000E+00  0.00000000000E+00  0.16998502418E+04  0.40783157703E+04  0.37071779937E+04 0.  0.
        5    1    3    3  502    0 -0.81571113106E+03  0.40868526841E+03  0.26249509324E+04  0.27789922248E+04  0.46999998093E+01 0. -1.
       -5    1    3    3    0  502  0.81571113106E+03 -0.40868526841E+03 -0.92510069062E+03  0.12993235454E+04  0.46999998093E+01 0.  1.
</event>
<event>
 5   0  0.2913025E-07  0.3708178E+04  0.7818609E-02  0.8066152E-01
       -2   -1    0    0    0  501  0.00000000000E+00  0.00000000000E+00  0.21873962778E+04  0.21873962778E+04  0.25500000920E-02 0. -1.
        2   -1    0    0  501    0  0.00000000000E+00  0.00000000000E+00 -0.15715701874E+04  0.15715701874E+04  0.25500000920E-02 0.  1.
    10030    2    1    2    0    0  0.00000000000E+00  0.00000000000E+00  0.61582609040E+03  0.37589664652E+04  0.37081784090E+04 0.  0.
        5    1    3    3  502    0 -0.97895799844E+03 -0.38621498143E+03 -0.12394615953E+04  0.16259790622E+04  0.46999998093E+01 0.  1.
       -5    1    3    3    0  502  0.97895799844E+03  0.38621498143E+03  0.18552876857E+04  0.21329874030E+04  0.46999998093E+01 0. -1.
</event>
<event>
 5   0  0.2996969E-07  0.3696203E+04  0.7818609E-02  0.8068804E-01
        2   -1    0    0  501    0  0.00000000000E+00  0.00000000000E+00  0.23073117824E+04  0.23073117824E+04  0.25500000920E-02 0.  1.
       -2   -1    0    0    0  501  0.00000000000E+00  0.00000000000E+00 -0.14802853694E+04  0.14802853694E+04  0.25500000920E-02 0. -1.
    10030    2    1    2    0    0  0.00000000000E+00  0.00000000000E+00  0.82702641297E+03  0.37875971518E+04  0.36962033895E+04 0.  0.
        1    1    3    3  502    0 -0.15751003504E+04  0.91938679908E+03  0.10735028221E+03  0.18269475316E+04  0.50400001928E-02 0. -1.
       -1    1    3    3    0  502  0.15751003504E+04 -0.91938679908E+03  0.71967613076E+03  0.19606496202E+04  0.50400001928E-02 0.  1.
</event>
<event>
 5   0  0.2897133E-07  0.3690366E+04  0.7818609E-02  0.8070100E-01
        2   -1    0    0  501    0  0.00000000000E+00  0.00000000000E+00  0.17813885982E+04  0.17813885982E+04  0.25500000920E-02 0. -1.
       -2   -1    0    0    0  501  0.00000000000E+00  0.00000000000E+00 -0.19112619944E+04  0.19112619944E+04  0.25500000920E-02 0.  1.
    10030    2    1    2    0    0  0.00000000000E+00  0.00000000000E+00 -0.12987339616E+03  0.36926505926E+04  0.36903660117E+04 0.  0.
        4    1    3    3  502    0 -0.90351277148E+02  0.14739472884E+04  0.10421002080E+04  0.18073899465E+04  0.12699999809E+01 0. -1.
       -4    1    3    3    0  502  0.90351277148E+02 -0.14739472884E+04 -0.11719736041E+04  0.18852606462E+04  0.12699999809E+01 0.  1.
</event>
<event>
 5   0  0.9646615E-08  0.3685339E+04  0.7818609E-02  0.8071219E-01
       -1   -1    0    0    0  501  0.00000000000E+00  0.00000000000E+00  0.14470356141E+04  0.14470356141E+04  0.50400001928E-02 0. -1.
        1   -1    0    0  501    0  0.00000000000E+00  0.00000000000E+00 -0.23464734353E+04  0.23464734353E+04  0.50400001928E-02 0.  1.
    10030    2    1    2    0    0  0.00000000000E+00  0.00000000000E+00 -0.89943782123E+03  0.37935090495E+04  0.36853388601E+04 0.  0.
        2    1    3    3  502    0  0.16905914462E+04 -0.38144173389E+03 -0.10940579139E+04  0.20495267632E+04  0.25500000920E-02 0.  1.
       -2    1    3    3    0  502 -0.16905914462E+04  0.38144173389E+03  0.19462009266E+03  0.17439822862E+04  0.25500000920E-02 0. -1.
</event>
<event>
 5   0  0.9646615E-08  0.3709437E+04  0.7818609E-02  0.8065874E-01
        1   -1    0    0  501    0  0.00000000000E+00  0.00000000000E+00  0.16464525279E+04  0.16464525279E+04  0.50400001928E-02 0.  1.
       -1   -1    0    0    0  501  0.00000000000E+00  0.00000000000E+00 -0.20893287517E+04  0.20893287517E+04  0.50400001928E-02 0. -1.
    10030    2    1    2    0    0  0.00000000000E+00  0.00000000000E+00 -0.44287622379E+03  0.37357812796E+04  0.37094369410E+04 0.  0.
        2    1    3    3  502    0  0.16192895484E+04  0.52988190771E+03  0.51664268541E+03  0.17803912891E+04  0.25500000920E-02 0.  1.
       -2    1    3    3    0  502 -0.16192895484E+04 -0.52988190771E+03 -0.95951890920E+03  0.19553899905E+04  0.25500000920E-02 0. -1.
</event>
<event>
 5   0  0.2913025E-07  0.3658913E+04  0.7818609E-02  0.8077129E-01
        2   -1    0    0  501    0  0.00000000000E+00  0.00000000000E+00  0.16204624702E+04  0.16204624702E+04  0.25500000920E-02 0.  1.
       -2   -1    0    0    0  501  0.00000000000E+00  0.00000000000E+00 -0.20654052575E+04  0.20654052575E+04  0.25500000920E-02 0. -1.
    10030    2    1    2    0    0  0.00000000000E+00  0.00000000000E+00 -0.44494278725E+03  0.36858677277E+04  0.36589133390E+04 0.  0.
        5    1    3    3  502    0 -0.15902867211E+04 -0.79492952104E+03  0.21194180910E+03  0.17904932893E+04  0.46999998093E+01 0.  1.
       -5    1    3    3    0  502  0.15902867211E+04  0.79492952104E+03 -0.65688459636E+03  0.18953744384E+04  0.46999998093E+01 0. -1.
</event>
<event>
 5   0  0.3032442E-07  0.3640293E+04  0.7818609E-02  0.8081324E-01
        2   -1    0    0  501    0  0.00000000000E+00  0.00000000000E+00  0.20762684096E+04  0.20762684096E+04  0.25500000920E-02 0. -1.
       -2   -1    0    0    0  501  0.00000000000E+00  0.00000000000E+00 -0.15956193292E+04  0.15956193292E+04  0.25500000920E-02 0.  1.
    10030    2    1    2    0    0  0.00000000000E+00  0.00000000000E+00  0.48064908049E+03  0.36718877388E+04  0.36402933986E+04 0.  0.
        3    1    3    3  502    0 -0.49025758666E+03  0.15672723986E+04  0.10321464230E+04  0.19395931329E+04  0.10100000352E+00 0. -1.
       -3    1    3    3    0  502  0.49025758666E+03 -0.15672723986E+04 -0.55149734249E+03  0.17322946059E+04  0.10100000352E+00 0.  1.
</event>
<event>
 5   0  0.9646615E-08  0.3649686E+04  0.7818609E-02  0.8079204E-01
        1   -1    0    0  501    0  0.00000000000E+00  0.00000000000E+00  0.22698103859E+04  0.22698103859E+04  0.50400001928E-02 0. -1.
       -1   -1    0    0    0  501  0.00000000000E+00  0.00000000000E+00 -0.14671060574E+04  0.14671060574E+04  0.50400001928E-02 0.  1.
    10030    2    1    2    0    0  0.00000000000E+00  0.00000000000E+00  0.80270432845E+03  0.37369164433E+04  0.36496863242E+04 0.  0.
        2    1    3    3  502    0  0.15436792373E+04 -0.42917097352E+03  0.12956807959E+04  0.20605635241E+04  0.25500000920E-02 0. -1.
       -2    1    3    3    0  502 -0.15436792373E+04  0.42917097352E+03 -0.49297646744E+03  0.16763529192E+04  0.25500000920E-02 0.  1.
</event>
<event>
 5   0  0.2897133E-07  0.3772702E+04  0.7818609E-02  0.8052038E-01
       -2   -1    0    0    0  501  0.00000000000E+00  0.00000000000E+00  0.13757932826E+04  0.13757932826E+04  0.25500000920E-02 0. -1.
        2   -1    0    0  501    0  0.00000000000E+00  0.00000000000E+00 -0.25863774968E+04  0.25863774968E+04  0.25500000920E-02 0.  1.
    10030    2    1    2    0    0  0.00000000000E+00  0.00000000000E+00 -0.12105842142E+04  0.39621707795E+04  0.37727023665E+04 0.  0.
        4    1    3    3  502    0  0.94336101522E+03  0.85651527166E+03  0.85552351209E+03  0.15347542175E+04  0.12699999809E+01 0. -1.
       -4    1    3    3    0  502 -0.94336101522E+03 -0.85651527166E+03 -0.20661077263E+04  0.24274165619E+04  0.12699999809E+01 0.  1.
</event>
<event>
 5   0  0.9341000E-08  0.3705756E+04  0.7818609E-02  0.8066687E-01
        1   -1    0    0  501    0  0.00000000000E+00  0.00000000000E+00  0.11516229013E+04  0.11516229013E+04  0.50400001928E-02 0. -1.
       -1   -1    0    0    0  501  0.00000000000E+00  0.00000000000E+00 -0.29811464726E+04  0.29811464727E+04  0.50400001928E-02 0.  1.
    10030    2    1    2    0    0  0.00000000000E+00  0.00000000000E+00 -0.18295235714E+04  0.41327693740E+04  0.37057558204E+04 0.  0.
        4    1    3    3  502    0  0.11600714261E+04 -0.12630328510E+04 -0.16971233134E+04  0.24127260206E+04  0.12699999809E+01 0.  1.
       -4    1    3    3    0  502 -0.11600714261E+04  0.12630328510E+04 -0.13240025791E+03  0.17200433534E+04  0.12699999809E+01 0. -1.
</event>
<event>
 5   0  0.9341000E-08  0.3707047E+04  0.7818609E-02  0.8066402E-01
        1   -1    0    0  501    0  0.00000000000E+00  0.00000000000E+00  0.16679207685E+04  0.16679207685E+04  0.50400001928E-02 0. -1.
       -1   -1    0    0    0  501  0.00000000000E+00  0.00000000000E+00 -0.20597801400E+04  0.20597801400E+04  0.50400001928E-02 0.  1.
    10030    2    1    2    0    0  0.00000000000E+00  0.00000000000E+00 -0.39185937152E+03  0.37277009085E+04  0.37070473825E+04 0.  0.
        3    1    3    3  502    0  0.68021432217E+03 -0.79472929931E+02  0.15360317455E+04  0.16817850647E+04  0.10100000352E+00 0. -1.
       -3    1    3    3    0  502 -0.68021432217E+03  0.79472929931E+02 -0.19278911170E+04  0.20459158438E+04  0.10100000352E+00 0.  1.
</event>
<event>
 5   0  0.2996969E-07  0.3911980E+04  0.7818609E-02  0.8022542E-01
       -2   -1    0    0    0  501  0.00000000000E+00  0.00000000000E+00  0.23986991186E+04  0.23986991186E+04  0.25500000920E-02 0.  1.
        2   -1    0    0  501    0  0.00000000000E+00  0.00000000000E+00 -0.15949878761E+04  0.15949878761E+04  0.25500000920E-02 0. -1.
    10030    2    1    2    0    0  0.00000000000E+00  0.00000000000E+00  0.80371124250E+03  0.39936869947E+04  0.39119795565E+04 0.  0.
        1    1    3    3  502    0 -0.41738787946E+03 -0.12711822132E+04  0.18584639158E+04  0.22899792548E+04  0.50400001928E-02 0.  1.
       -1    1    3    3    0  502  0.41738787946E+03  0.12711822132E+04 -0.10547526733E+04  0.17037077399E+04  0.50400001928E-02 0. -1.
</event>
<event>
 5   0  0.9646615E-08  0.3699437E+04  0.7818609E-02  0.8068087E-01
        1   -1    0    0  501    0  0.00000000000E+00  0.00000000000E+00  0.21534138801E+04  0.21534138801E+04  0.50400001928E-02 0. -1.
       -1   -1    0    0    0  501  0.00000000000E+00  0.00000000000E+00 -0.15888532162E+04  0.15888532162E+04  0.50400001928E-02 0.  1.
    10030    2    1    2    0    0  0.00000000000E+00  0.00000000000E+00  0.56456066391E+03  0.37422670963E+04  0.36994370216E+04 0.  0.
        2    1    3    3  502    0 -0.15136492022E+04  0.61903417906E+03  0.11566492589E+04  0.20030413701E+04  0.25500000920E-02 0. -1.
       -2    1    3    3    0  502  0.15136492022E+04 -0.61903417906E+03 -0.59208859500E+03  0.17392257262E+04  0.25500000920E-02 0.  1.
</event>
<event>
 5   0  0.2996969E-07  0.3746653E+04  0.7818609E-02  0.8057701E-01
        2   -1    0    0  501    0  0.00000000000E+00  0.00000000000E+00  0.21092578306E+04  0.21092578307E+04  0.25500000920E-02 0. -1.
       -2   -1    0    0    0  501  0.00000000000E+00  0.00000000000E+00 -0.16637854750E+04  0.16637854750E+04  0.25500000920E-02 0.  1.
    10030    2    1    2    0    0  0.00000000000E+00  0.00000000000E+00  0.44547235565E+03  0.37730433057E+04  0.37466531954E+04 0.  0.
        1    1    3    3  502    0 -0.15926769251E+04 -0.89574811587E+03 -0.19292780297E+03  0.18374454038E+04  0.50400001928E-02 0.  1.
       -1    1    3    3    0  502  0.15926769251E+04  0.89574811587E+03  0.63840015861E+03  0.19355979018E+04  0.50400001928E-02 0. -1.
</event>
<event>
 5   0  0.3032442E-07  0.3677026E+04  0.7818609E-02  0.8073072E-01
       -2   -1    0    0    0  501  0.00000000000E+00  0.00000000000E+00  0.17411208904E+04  0.17411208904E+04  0.25500000920E-02 0.  1.
        2   -1    0    0  501    0  0.00000000000E+00  0.00000000000E+00 -0.19413530058E+04  0.19413530058E+04  0.25500000920E-02 0. -1.
    10030    2    1    2    0    0  0.00000000000E+00  0.00000000000E+00 -0.20023211544E+03  0.36824738961E+04  0.36770261212E+04 0.  0.
        3    1    3    3  502    0 -0.17239363822E+04  0.19305819742E+03  0.50980360589E+03  0.18080729643E+04  0.10100000352E+00 0.  1.
       -3    1    3    3    0  502  0.17239363822E+04 -0.19305819742E+03 -0.71003572133E+03  0.18744009318E+04  0.10100000352E+00 0. -1.
</event>
<event>
 5   0  0.9341000E-08  0.3712944E+04  0.7818609E-02  0.8065099E-01
        1   -1    0    0  501    0  0.00000000000E+00  0.00000000000E+00  0.18335936042E+04  0.18335936042E+04  0.50400001928E-02 0. -1.
       -1   -1    0    0    0  501  0.00000000000E+00  0.00000000000E+00 -0.18796357074E+04  0.18796357074E+04  0.50400001928E-02 0.  1.
    10030    2    1    2    0    0  0.00000000000E+00  0.00000000000E+00 -0.46042103184E+02  0.37132293116E+04  0.37129438516E+04 0.  0.
        3    1    3    3  502    0 -0.20751272623E+03 -0.16006794381E+04  0.89424726575E+03  0.18452410080E+04  0.10100000352E+00 0. -1.
       -3    1    3    3    0  502  0.20751272623E+03  0.16006794381E+04 -0.94028936893E+03  0.18679883036E+04  0.10100000352E+00 0.  1.
</event>
<event>
 5   0  0.9341000E-08  0.3628442E+04  0.7818609E-02  0.8084008E-01
        1   -1    0    0  501    0  0.00000000000E+00  0.00000000000E+00  0.28435402125E+04  0.28435402125E+04  0.50400001928E-02 0. -1.
       -1   -1    0    0    0  501  0.00000000000E+00  0.00000000000E+00 -0.11574998037E+04  0.11574998037E+04  0.50400001928E-02 0.  1.
    10030    2    1    2    0    0  0.00000000000E+00  0.00000000000E+00  0.16860404088E+04  0.40010400162E+04  0.36284416699E+04 0.  0.
        1    1    3    3  502    0  0.16340296555E+04 -0.73662405289E+03  0.11524207109E+04  0.21309015475E+04  0.50400001928E-02 0. -1.
       -1    1    3    3    0  502 -0.16340296555E+04  0.73662405289E+03  0.53361969783E+03  0.18701384687E+04  0.50400001928E-02 0.  1.
</event>
<event>
 5   0  0.2996969E-07  0.3713982E+04  0.7818609E-02  0.8064870E-01
       -2   -1    0    0    0  501  0.00000000000E+00  0.00000000000E+00  0.18146167111E+04  0.18146167111E+04  0.25500000920E-02 0.  1.
        2   -1    0    0  501    0  0.00000000000E+00  0.00000000000E+00 -0.19003551414E+04  0.19003551414E+04  0.25500000920E-02 0. -1.
    10030    2    1    2    0    0  0.00000000000E+00  0.00000000000E+00 -0.85738430277E+02  0.37149718525E+04  0.37139823352E+04 0.  0.
        1    1    3    3  502    0  0.66159042237E+03 -0.17351254358E+04 -0.35516645222E+02  0.18573162351E+04  0.50400001928E-02 0. -1.
       -1    1    3    3    0  502 -0.66159042237E+03  0.17351254358E+04 -0.50221785055E+02  0.18576556174E+04  0.50400001928E-02 0.  1.
</event>
<event>
 5   0  0.9646615E-08  0.3706418E+04  0.7818609E-02  0.8066541E-01
       -1   -1    0    0    0  501  0.00000000000E+00  0.00000000000E+00  0.13106690998E+04  0.13106690998E+04  0.50400001928E-02 0. -1.
        1   -1    0    0  501    0  0.00000000000E+00  0.00000000000E+00 -0.26203283977E+04  0.26203283978E+04  0.50400001928E-02 0.  1.
    10030    2    1    2    0    0  0.00000000000E+00  0.00000000000E+00 -0.13096592980E+04  0.39309974975E+04  0.37064179269E+04 0.  0.
        2    1    3    3  502    0 -0.14934882517E+04 -0.72544960547E+03  0.21821170078E+03  0.16746344778E+04  0.25500000920E-02 0. -1.
       -2    1    3    3    0  502  0.14934882517E+04  0.72544960547E+03 -0.15278709988E+04  0.22563630197E+04  0.25500000920E-02 0.  1.
</event>
<event>
 5   0  0.9341000E-08  0.3718139E+04  0.7818609E-02  0.8063954E-01
       -1   -1    0    0    0  501  0.00000000000E+00  0.00000000000E+00  0.17358685034E+04  0.17358685034E+04  0.50400001928E-02 0.  1.
        1   -1    0    0  501    0  0.00000000000E+00  0.00000000000E+00 -0.19910149445E+04  0.19910149445E+04  0.50400001928E-02 0. -1.
    10030    2    1    2    0    0  0.00000000000E+00  0.00000000000E+00 -0.25514644111E+03  0.37268834479E+04  0.37181393906E+04 0.  0.
        1    1    3    3  502    0  0.12398967481E+04  0.12510432462E+04  0.46854127365E+03  0.18226310858E+04  0.50400001928E-02 0. -1.
       -1    1    3    3    0  502 -0.12398967481E+04 -0.12510432462E+04 -0.72368771476E+03  0.19042523621E+04  0.50400001928E-02 0.  1.
</event>
<event>
 5   0  0.3032442E-07  0.3729265E+04  0.7818609E-02  0.8061507E-01
        2   -1    0    0  501    0  0.00000000000E+00  0.00000000000E+00  0.25738112325E+04  0.25738112325E+04  0.25500000920E-02 0.  1.
       -2   -1    0    0    0  501  0.00000000000E+00  0.00000000000E+00 -0.13508581650E+04  0.13508581650E+04  0.25500000920E-02 0. -1.
    10030    2    1    2    0    0  0.00000000000E+00  0.00000000000E+00  0.12229530675E+04  0.39246693975E+04  0.37292647633E+04 0.  0.
        3    1    3    3  502    0  0.61243220186E+03  0.17590242245E+04  0.51964325236E+03  0.19337188380E+04  0.10100000352E+00 0.  1.
       -3    1    3    3    0  502 -0.61243220186E+03 -0.17590242245E+04  0.70330981515E+03  0.19909505596E+04  0.10100000352E+00 0. -1.
</event>
<event>
 5   0  0.9341000E-08  0.3689902E+04  0.7818609E-02  0.8070203E-01
        1   -1    0    0  501    0  0.00000000000E+00  0.00000000000E+00  0.13821688037E+04  0.13821688037E+04  0.50400001928E-02 0. -1.
       -1   -1    0    0    0  501  0.00000000000E+00  0.00000000000E+00 -0.24626836519E+04  0.24626836519E+04  0.50400001928E-02 0.  1.
    10030    2    1    2    0    0  0.00000000000E+00  0.00000000000E+00 -0.10805148482E+04  0.38448524557E+04  0.36899021760E+04 0.  0.
        4    1    3    3  502    0 -0.17887007392E+04 -0.42879377574E+03 -0.68955167790E+03  0.19643822352E+04  0.12699999809E+01 0. -1.
       -4    1    3    3    0  502  0.17887007392E+04  0.42879377574E+03 -0.39096317032E+03  0.18804702205E+04  0.12699999809E+01 0.  1.
</event>
<event>
 5   0  0.9341000E-08  0.3706392E+04  0.7818609E-02  0.8066547E-01
        1   -1    0    0  501    0  0.00000000000E+00  0.00000000000E+00  0.15347131995E+04  0.15347131995E+04  0.50400001928E-02 0. -1.
       -1   -1    0    0    0  501  0.00000000000E+00  0.00000000000E+00 -0.22377705708E+04  0.22377705708E+04  0.50400001928E-02 0.  1.
    10030    2    1    2    0    0  0.00000000000E+00  0.00000000000E+00 -0.70305737131E+03  0.37724837704E+04  0.37063923336E+04 0.  0.
        1    1    3    3  502    0 -0.34121719199E+03 -0.40906399806E+03 -0.21581652660E+04  0.22229349613E+04  0.50400001928E-02 0.  1.
       -1    1    3    3    0  502  0.34121719199E+03  0.40906399806E+03  0.14551078947E+04  0.15495488091E+04  0.50400001928E-02 0. -1.
</event>
<event>
 5   0  0.9341000E-08  0.3702468E+04  0.7818609E-02  0.8067415E-01
       -1   -1    0    0    0  501  0.00000000000E+00  0.00000000000E+00  0.20976130828E+04  0.20976130828E+04  0.50400001928E-02 0.  1.
        1   -1    0    0  501    0  0.00000000000E+00  0.00000000000E+00 -0.16337939286E+04  0.16337939286E+04  0.50400001928E-02 0. -1.
    10030    2    1    2    0    0  0.00000000000E+00  0.00000000000E+00  0.46381915419E+03  0.37314070115E+04  0.37024681062E+04 0.  0.
        1    1    3    3  502    0  0.18184896779E+04  0.18714417819E+03 -0.62158432181E+02  0.18291504374E+04  0.50400001928E-02 0.  1.
       -1    1    3    3    0  502 -0.18184896779E+04 -0.18714417819E+03  0.52597758637E+03  0.19022565740E+04  0.50400001928E-02 0. -1.
</event>
<event>
 5   0  0.3008879E-07  0.3728941E+04  0.7818609E-02  0.8061578E-01
        2   -1    0    0  501    0  0.00000000000E+00  0.00000000000E+00  0.27369201851E+04  0.27369201851E+04  0.25500000920E-02 0. -1.
       -2   -1    0    0    0  501  0.00000000000E+00  0.00000000000E+00 -0.12701321700E+04  0.12701321700E+04  0.25500000920E-02 0.  1.
    10030    2    1    2    0    0  0.00000000000E+00  0.00000000000E+00  0.14667880151E+04  0.40070523551E+04  0.37289410689E+04 0.  0.
        2    1    3    3  502    0 -0.93441195723E+03 -0.11138682076E+04  0.19876765167E+04  0.24626583248E+04  0.25500000920E-02 0. -1.
       -2    1    3    3    0  502  0.93441195723E+03  0.11138682076E+04 -0.52088850161E+03  0.15443940303E+04  0.25500000920E-02 0.  1.
</event>
<event>
 5   0  0.2897133E-07  0.3479716E+04  0.7818609E-02  0.8118614E-01
       -2   -1    0    0    0  501  0.00000000000E+00  0.00000000000E+00  0.13539038809E+04  0.13539038809E+04  0.25500000920E-02 0. -1.
        2   -1    0    0  501    0  0.00000000000E+00  0.00000000000E+00 -0.22358356009E+04  0.22358356009E+04  0.25500000920E-02 0.  1.
    10030    2    1    2    0    0  0.00000000000E+00  0.00000000000E+00 -0.88193172004E+03  0.35897394818E+04  0.34797163660E+04 0.  0.
        4    1    3    3  502    0  0.83621774315E+03 -0.30389763701E+02  0.11326905935E+04  0.14082518401E+04  0.12699999809E+01 0. -1.
       -4    1    3    3    0  502 -0.83621774315E+03  0.30389763701E+02 -0.20146223135E+04  0.21814876417E+04  0.12699999809E+01 0.  1.
</event>
<event>
 5   0  0.3032442E-07  0.3714730E+04  0.7818609E-02  0.8064705E-01
       -2   -1    0    0    0  501  0.00000000000E+00  0.00000000000E+00  0.28937934013E+04  0.28937934013E+04  0.25500000920E-02 0. -1.
        2   -1    0    0  501    0  0.00000000000E+00  0.00000000000E+00 -0.11921394199E+04  0.11921394199E+04  0.25500000920E-02 0.  1.
    10030    2    1    2    0    0  0.00000000000E+00  0.00000000000E+00  0.17016539814E+04  0.40859328212E+04  0.37147302388E+04 0.  0.
        3    1    3    3  502    0  0.15827414909E+04 -0.54253749169E+03  0.17378810216E+04  0.24123946635E+04  0.10100000352E+00 0. -1.
       -3    1    3    3    0  502 -0.15827414909E+04  0.54253749169E+03 -0.36227040216E+02  0.16735381578E+04  0.10100000352E+00 0.  1.
</event>
<event>
 5   0  0.9418945E-08  0.3751796E+04  0.7818609E-02  0.8056579E-01
       -1   -1    0    0    0  501  0.00000000000E+00  0.00000000000E+00  0.12246785272E+04  0.12246785272E+04  0.50400001928E-02 0. -1.
        1   -1    0    0  501    0  0.00000000000E+00  0.00000000000E+00 -0.28734011556E+04  0.28734011556E+04  0.50400001928E-02 0.  1.
    10030    2    1    2    0    0  0.00000000000E+00  0.00000000000E+00 -0.16487226284E+04  0.40980796828E+04  0.37517956742E+04 0.  0.
        5    1    3    3  502    0  0.49168288498E+03 -0.10424578323E+04 -0.24409996390E+04  0.26994391489E+04  0.46999998093E+01 0.  1.
       -5    1    3    3    0  502 -0.49168288498E+03  0.10424578323E+04  0.79227701052E+03  0.13986405338E+04  0.46999998093E+01 0. -1.
</event>
<event>
 5   0  0.2913025E-07  0.3713473E+04  0.7818609E-02  0.8064983E-01
        2   -1    0    0  501    0  0.00000000000E+00  0.00000000000E+00  0.23455116357E+04  0.23455116357E+04  0.25500000920E-02 0.  1.
       -2   -1    0    0    0  501  0.00000000000E+00  0.00000000000E+00 -0.14698162215E+04  0.14698162215E+04  0.25500000920E-02 0. -1.
    10030    2    1    2    0    0  0.00000000000E+00  0.00000000000E+00  0.87569541428E+03  0.38153278572E+04  0.37134733336E+04 0.  0.
        5    1    3    3  502    0  0.54171434817E+03  0.24260442472E+01  0.22625062981E+04  0.23264602210E+04  0.46999998093E+01 0.  1.
       -5    1    3    3    0  502 -0.54171434817E+03 -0.24260442472E+01 -0.13868108838E+04  0.14888676362E+04  0.46999998093E+01 0. -1.
</event>
<event>
 5   0  0.3008879E-07  0.3691412E+04  0.7818609E-02  0.8069868E-01
        2   -1    0    0  501    0  0.00000000000E+00  0.00000000000E+00  0.20113601678E+04  0.20113601678E+04  0.25500000920E-02 0.  1.
       -2   -1    0    0    0  501  0.00000000000E+00  0.00000000000E+00 -0.16936947150E+04  0.16936947150E+04  0.25500000920E-02 0. -1.
    10030    2    1    2    0    0  0.00000000000E+00  0.00000000000E+00  0.31766545282E+03  0.37050548829E+04  0.36914117008E+04 0.  0.
        2    1    3    3  502    0 -0.17016968386E+04  0.10678419402E+03 -0.55050063087E+03  0.17917103391E+04  0.25500000920E-02 0. -1.
       -2    1    3    3    0  502  0.17016968386E+04 -0.10678419402E+03  0.86816608369E+03  0.19133445438E+04  0.25500000920E-02 0.  1.
</event>
<event>
 5   0  0.9341000E-08  0.3712648E+04  0.7818609E-02  0.8065165E-01
       -1   -1    0    0    0  501  0.00000000000E+00  0.00000000000E+00  0.22160901409E+04  0.22160901409E+04  0.50400001928E-02 0. -1.
        1   -1    0    0  501    0  0.00000000000E+00  0.00000000000E+00 -0.15549629110E+04  0.15549629110E+04  0.50400001928E-02 0.  1.
    10030    2    1    2    0    0  0.00000000000E+00  0.00000000000E+00  0.66112722989E+03  0.37710530519E+04  0.37126475602E+04 0.  0.
        3    1    3    3  502    0 -0.87839888935E+03 -0.16015927245E+04 -0.51722945800E+01  0.18266665341E+04  0.10100000352E+00 0.  1.
       -3    1    3    3    0  502  0.87839888935E+03  0.16015927245E+04  0.66629952447E+03  0.19443865178E+04  0.10100000352E+00 0. -1.
</event>
<event>
 5   0  0.2913025E-07  0.3708859E+04  0.7818609E-02  0.8066001E-01
        2   -1    0    0  501    0  0.00000000000E+00  0.00000000000E+00  0.16149039355E+04  0.16149039355E+04  0.25500000920E-02 0.  1.
       -2   -1    0    0    0  501  0.00000000000E+00  0.00000000000E+00 -0.21294814369E+04  0.21294814369E+04  0.25500000920E-02 0. -1.
    10030    2    1    2    0    0  0.00000000000E+00  0.00000000000E+00 -0.51457750136E+03  0.37443853724E+04  0.37088585592E+04 0.  0.
        5    1    3    3  502    0  0.41410126833E+03  0.25322299540E+03  0.15496273959E+04  0.16238746571E+04  0.46999998093E+01 0.  1.
       -5    1    3    3    0  502 -0.41410126833E+03 -0.25322299540E+03 -0.20642048973E+04  0.21205107153E+04  0.46999998093E+01 0. -1.
</event>
<event>
 5   0  0.2913025E-07  0.3318660E+04  0.7818609E-02  0.8158163E-01
       -2   -1    0    0    0  501  0.00000000000E+00  0.00000000000E+00  0.13964788445E+04  0.13964788445E+04  0.25500000920E-02 0. -1.
        2   -1    0    0  501    0  0.00000000000E+00  0.00000000000E+00 -0.19716562453E+04  0.19716562453E+04  0.25500000920E-02 0.  1.
    10030    2    1    2    0    0  0.00000000000E+00  0.00000000000E+00 -0.57517740076E+03  0.33681350898E+04  0.33186601123E+04 0.  0.
        5    1    3    3  502    0  0.59678721957E+03 -0.13364792127E+04 -0.10809213327E+04  0.18195451874E+04  0.46999998093E+01 0.  1.
       -5    1    3    3    0  502 -0.59678721957E+03  0.13364792127E+04  0.50574393191E+03  0.15485899025E+04  0.46999998093E+01 0. -1.
</event>
<event>
 5   0  0.2996969E-07  0.3309180E+04  0.7818609E-02  0.8160563E-01
       -2   -1    0    0    0  501  0.00000000000E+00  0.00000000000E+00  0.13192155131E+04  0.13192155132E+04  0.25500000920E-02 0.  1.
        2   -1    0    0  501    0  0.00000000000E+00  0.00000000000E+00 -0.20752248275E+04  0.20752248275E+04  0.25500000920E-02 0. -1.
    10030    2    1    2    0    0  0.00000000000E+00  0.00000000000E+00 -0.75600931437E+03  0.33944403407E+04  0.33091804337E+04 0.  0.
        1    1    3    3  502    0 -0.51728720231E+02  0.33754138599E+02 -0.20740417962E+04  0.20749613429E+04  0.50400001928E-02 0. -1.
       -1    1    3    3    0  502  0.51728720231E+02 -0.33754138599E+02  0.13180324818E+04  0.13194789977E+04  0.50400001928E-02 0.  1.
</event>
<event>
 5   0  0.2897133E-07  0.3700094E+04  0.7818609E-02  0.8067941E-01
        2   -1    0    0  501    0  0.00000000000E+00  0.00000000000E+00  0.21190260550E+04  0.21190260550E+04  0.25500000920E-02 0. -1.
       -2   -1    0    0    0  501  0.00000000000E+00  0.00000000000E+00 -0.16152109139E+04  0.16152109139E+04  0.25500000920E-02 0.  1.
    10030    2    1    2    0    0  0.00000000000E+00  0.00000000000E+00  0.50381514110E+03  0.37342369689E+04  0.37000940588E+04 0.  0.
        4    1    3    3  502    0 -0.58617773867E+03  0.11684228723E+04 -0.10693159018E+04  0.16888618833E+04  0.12699999809E+01 0.  1.
       -4    1    3    3    0  502  0.58617773867E+03 -0.11684228723E+04  0.15731310429E+04  0.20453750857E+04  0.12699999809E+01 0. -1.
</event>
<event>
 5   0  0.9341000E-08  0.3662229E+04  0.7818609E-02  0.8076384E-01
       -1   -1    0    0    0  501  0.00000000000E+00  0.00000000000E+00  0.23290419016E+04  0.23290419016E+04  0.50400001928E-02 0. -1.
        1   -1    0    0  501    0  0.00000000000E+00  0.00000000000E+00 -0.14396395164E+04  0.14396395164E+04  0.50400001928E-02 0.  1.
    10030    2    1    2    0    0  0.00000000000E+00  0.00000000000E+00  0.88940238520E+03  0.37686814180E+04  0.36622292429E+04 0.  0.
        3    1    3    3  502    0 -0.16752232892E+04  0.35070451638E+02  0.12046644660E+04  0.20636907450E+04  0.10100000352E+00 0. -1.
       -3    1    3    3    0  502  0.16752232892E+04 -0.35070451638E+02 -0.31526208078E+03  0.17049906730E+04  0.10100000352E+00 0.  1.
</event>
<event>
 5   0  0.9341000E-08  0.3700870E+04  0.7818609E-02  0.8067769E-01
        1   -1    0    0  501    0  0.00000000000E+00  0.00000000000E+00  0.21722322894E+04  0.21722322894E+04  0.50400001928E-02 0.  1.
       -1   -1    0    0    0  501  0.00000000000E+00  0.00000000000E+00 -0.15763090691E+04  0.15763090691E+04  0.50400001928E-02 0. -1.
    10030    2    1    2    0    0  0.00000000000E+00  0.00000000000E+00  0.59592322029E+03  0.37485413585E+04  0.37008698750E+04 0.  0.
        4    1    3    3  502    0  0.17228822111E+04 -0.66863481523E+03  0.39250317715E+03  0.18893003960E+04  0.12699999809E+01 0. -1.
       -4    1    3    3    0  502 -0.17228822111E+04  0.66863481523E+03  0.20342004314E+03  0.18592409624E+04  0.12699999809E+01 0.  1.
</event>
<event>
 5   0  0.2996969E-07  0.3707388E+04  0.7818609E-02  0.8066327E-01
        2   -1    0    0  501    0  0.00000000000E+00  0.00000000000E+00  0.31894029046E+04  0.31894029046E+04  0.25500000920E-02 0.  1.
       -2   -1    0    0    0  501  0.00000000000E+00  0.00000000000E+00 -0.10773745092E+04  0.10773745092E+04  0.25500000920E-02 0. -1.
    10030    2    1    2    0    0  0.00000000000E+00  0.00000000000E+00  0.21120283954E+04  0.42667774139E+04  0.37073879695E+04 0.  0.
        1    1    3    3  502    0 -0.14317322161E+04 -0.25813884027E+03 -0.26609608215E+03  0.14789523063E+04  0.50400001928E-02 0. -1.
       -1    1    3    3    0  502  0.14317322161E+04  0.25813884027E+03  0.23781244775E+04  0.27878251075E+04  0.50400001928E-02 0.  1.
</event>
<event>
 5   0  0.9341000E-08  0.3709439E+04  0.7818609E-02  0.8065873E-01
       -1   -1    0    0    0  501  0.00000000000E+00  0.00000000000E+00  0.12227909298E+04  0.12227909298E+04  0.50400001928E-02 0. -1.
        1   -1    0    0  501    0  0.00000000000E+00  0.00000000000E+00 -0.28132229776E+04  0.28132229776E+04  0.50400001928E-02 0.  1.
    10030    2    1    2    0    0  0.00000000000E+00  0.00000000000E+00 -0.15904320478E+04  0.40360139075E+04  0.37094385239E+04 0.  0.
        1    1    3    3  502    0 -0.10157111757E+04  0.64029380935E+03  0.74286413478E+03  0.14119109311E+04  0.50400001928E-02 0. -1.
       -1    1    3    3    0  502  0.10157111757E+04 -0.64029380935E+03 -0.23332961826E+04  0.26241029763E+04  0.50400001928E-02 0.  1.
</event>
<event>
 5   0  0.2897133E-07  0.3704249E+04  0.7818609E-02  0.8067021E-01
       -2   -1    0    0    0  501  0.00000000000E+00  0.00000000000E+00  0.15019065367E+04  0.15019065367E+04  0.25500000920E-02 0.  1.
        2   -1    0    0  501    0  0.00000000000E+00  0.00000000000E+00 -0.22840070473E+04  0.22840070473E+04  0.25500000920E-02 0. -1.
    10030    2    1    2    0    0  0.00000000000E+00  0.00000000000E+00 -0.78210051060E+03  0.37859135841E+04  0.37042489735E+04 0.  0.
        4    1    3    3  502    0  0.30099438610E+03 -0.12278439122E+04 -0.17744664120E+04  0.21787452704E+04  0.12699999809E+01 0. -1.
       -4    1    3    3    0  502 -0.30099438610E+03  0.12278439122E+04  0.99236590140E+03  0.16071683136E+04  0.12699999809E+01 0.  1.
</event>
<event>
 5   0  0.2913025E-07  0.3791887E+04  0.7818609E-02  0.8047898E-01
        2   -1    0    0  501    0  0.00000000000E+00  0.00000000000E+00  0.23814793305E+04  0.23814793305E+04  0.25500000920E-02 0. -1.
       -2   -1    0    0    0  501  0.00000000000E+00  0.00000000000E+00 -0.15093985904E+04  0.15093985904E+04  0.25500000920E-02 0.  1.
    10030    2    1    2    0    0  0.00000000000E+00  0.00000000000E+00  0.87208074012E+03  0.38908779210E+04  0.37918868889E+04 0.  0.
        5    1    3    3  502    0  0.52106097541E+03  0.99181023413E+02 -0.14317087917E+04  0.15268115698E+04  0.46999998093E+01 0.  1.
       -5    1    3    3    0  502 -0.52106097541E+03 -0.99181023413E+02  0.23037895318E+04  0.23640663511E+04  0.46999998093E+01 0. -1.
</event>
<event>
 5   0  0.2913025E-07  0.3688944E+04  0.7818609E-02  0.8070416E-01
       -2   -1    0    0    0  501  0.00000000000E+00  0.00000000000E+00  0.22320092154E+04  0.22320092154E+04  0.25500000920E-02 0. -1.
        2   -1    0    0  501    0  0.00000000000E+00  0.00000000000E+00 -0.15242219204E+04  0.15242219204E+04  0.25500000920E-02 0.  1.
    10030    2    1    2    0    0  0.00000000000E+00  0.00000000000E+00  0.70778729501E+03  0.37562311358E+04  0.36889442243E+04 0.  0.
        5    1    3    3  502    0 -0.85784594376E+03 -0.13421166439E+04  0.13008452392E+04  0.20565498232E+04  0.46999998093E+01 0. -1.
       -5    1    3    3    0  502  0.85784594376E+03  0.13421166439E+04 -0.59305794423E+03  0.16996813125E+04  0.46999998093E+01 0.  1.
</event>
<event>
 5   0  0.9341000E-08  0.3698914E+04  0.7818609E-02  0.8068202E-01
        1   -1    0    0  501    0  0.00000000000E+00  0.00000000000E+00  0.17793909005E+04  0.17793909005E+04  0.50400001928E-02 0.  1.
       -1   -1    0    0    0  501  0.00000000000E+00  0.00000000000E+00 -0.19222823262E+04  0.19222823262E+04  0.50400001928E-02 0. -1.
    10030    2    1    2    0    0  0.00000000000E+00  0.00000000000E+00 -0.14289142570E+03  0.37016732267E+04  0.36989142620E+04 0.  0.
        4    1    3    3  502    0 -0.11234098217E+04  0.13600833336E+04  0.48449881404E+03  0.18293761274E+04  0.12699999809E+01 0. -1.
       -4    1    3    3    0  502  0.11234098217E+04 -0.13600833336E+04 -0.62739023973E+03  0.18722970992E+04  0.12699999809E+01 0.  1.
</event>
<event>
 5   0  0.9341000E-08  0.3583448E+04  0.7818609E-02  0.8094294E-01
        1   -1    0    0  501    0  0.00000000000E+00  0.00000000000E+00  0.22294664028E+04  0.22294664028E+04  0.50400001928E-02 0.  1.
       -1   -1    0    0    0  501  0.00000000000E+00  0.00000000000E+00 -0.14399295054E+04  0.14399295054E+04  0.50400001928E-02 0. -1.
    10030    2    1    2    0    0  0.00000000000E+00  0.00000000000E+00  0.78953689739E+03  0.36693959083E+04  0.35834477559E+04 0.  0.
        4    1    3    3  502    0 -0.10224504286E+04  0.10833127690E+03  0.18973181723E+04  0.21579987035E+04  0.12699999809E+01 0.  1.
       -4    1    3    3    0  502  0.10224504286E+04 -0.10833127690E+03 -0.11077812749E+04  0.15113972047E+04  0.12699999809E+01 0. -1.
</event>
<event>
 5   0  0.9341000E-08  0.3714627E+04  0.7818609E-02  0.8064728E-01
        1   -1    0    0  501    0  0.00000000000E+00  0.00000000000E+00  0.12657652814E+04  0.12657652814E+04  0.50400001928E-02 0.  1.
       -1   -1    0    0    0  501  0.00000000000E+00  0.00000000000E+00 -0.27253178996E+04  0.27253178996E+04  0.50400001928E-02 0. -1.
    10030    2    1    2    0    0  0.00000000000E+00  0.00000000000E+00 -0.14595526182E+04  0.39910831810E+04  0.37146266451E+04 0.  0.
        1    1    3    3  502    0 -0.41193385774E+03 -0.13317955494E+04  0.58885462198E+03  0.15133137991E+04  0.50400001928E-02 0.  1.
       -1    1    3    3    0  502  0.41193385774E+03  0.13317955494E+04 -0.20484072402E+04  0.24777693820E+04  0.50400001928E-02 0. -1.
</event>
<event>
 5   0  0.2913025E-07  0.3700463E+04  0.7818609E-02  0.8067859E-01
       -2   -1    0    0    0  501  0.00000000000E+00  0.00000000000E+00  0.12462121869E+04  0.12462121869E+04  0.25500000920E-02 0.  1.
        2   -1    0    0  501    0  0.00000000000E+00  0.00000000000E+00 -0.27470087893E+04  0.27470087893E+04  0.25500000920E-02 0. -1.
    10030    2    1    2    0    0  0.00000000000E+00  0.00000000000E+00 -0.15007966024E+04  0.39932209762E+04  0.37004625823E+04 0.  0.
        5    1    3    3  502    0 -0.37291846625E+03  0.18649641844E+03  0.11948478788E+04  0.12655167482E+04  0.46999998093E+01 0.  1.
       -5    1    3    3    0  502  0.37291846625E+03 -0.18649641844E+03 -0.26956444811E+04  0.27277042280E+04  0.46999998093E+01 0. -1.
</event>
<event>
 5   0  0.2897133E-07  0.3695709E+04  0.7818609E-02  0.8068913E-01
       -2   -1    0    0    0  501  0.00000000000E+00  0.00000000000E+00  0.18241959297E+04  0.18241959297E+04  0.25500000920E-02 0.  1.
        2   -1    0    0  501    0  0.00000000000E+00  0.00000000000E+00 -0.18718195960E+04  0.18718195960E+04  0.25500000920E-02 0. -1.
    10030    2    1    2    0    0  0.00000000000E+00  0.00000000000E+00 -0.47623666254E+02  0.36960155257E+04  0.36957086942E+04 0.  0.
        4    1    3    3  502    0  0.15822991915E+03 -0.97703907677E+03 -0.15843650490E+04  0.18681157047E+04  0.12699999809E+01 0. -1.
       -4    1    3    3    0  502 -0.15822991915E+03  0.97703907677E+03  0.15367413828E+04  0.18278998209E+04  0.12699999809E+01 0.  1.
</event>
<event>
 5   0  0.2996969E-07  0.3637664E+04  0.7818609E-02  0.8081918E-01
        2   -1    0    0  501    0  0.00000000000E+00  0.00000000000E+00  0.23554892504E+04  0.23554892504E+04  0.25500000920E-02 0. -1.
       -2   -1    0    0    0  501  0.00000000000E+00  0.00000000000E+00 -0.14044430269E+04  0.14044430269E+04  0.25500000920E-02 0.  1.
    10030    2    1    2    0    0  0.00000000000E+00  0.00000000000E+00  0.95104622347E+03  0.37599322772E+04  0.36376643345E+04 0.  0.
        1    1    3    3  502    0  0.58301646172E+03 -0.29440815929E+03  0.22300971267E+04  0.23237722680E+04  0.50400001928E-02 0. -1.
       -1    1    3    3    0  502 -0.58301646172E+03  0.29440815929E+03 -0.12790509033E+04  0.14361600092E+04  0.50400001928E-02 0.  1.
</event>
<event>
 5   0  0.2996969E-07  0.3728058E+04  0.7818609E-02  0.8061772E-01
        2   -1    0    0  501    0  0.00000000000E+00  0.00000000000E+00  0.13282489232E+04  0.13282489232E+04  0.25500000920E-02 0. -1.
       -2   -1    0    0    0  501  0.00000000000E+00  0.00000000000E+00 -0.26159278483E+04  0.26159278483E+04  0.25500000920E-02 0.  1.
    10030    2    1    2    0    0  0.00000000000E+00  0.00000000000E+00 -0.12876789252E+04  0.39441767715E+04  0.37280575895E+04 0.  0.
        1    1    3    3  502    0  0.23087537285E+03 -0.11487168013E+04 -0.21776236191E+04  0.24728320513E+04  0.50400001928E-02 0. -1.
       -1    1    3    3    0  502 -0.23087537285E+03  0.11487168013E+04  0.88994469396E+03  0.14713447202E+04  0.50400001928E-02 0.  1.
</event>
<event>
 5   0  0.9646615E-08  0.3715392E+04  0.7818609E-02  0.8064559E-01
       -1   -1    0    0    0  501  0.00000000000E+00  0.00000000000E+00  0.12059007901E+04  0.12059007902E+04  0.50400001928E-02 0. -1.
        1   -1    0    0  501    0  0.00000000000E+00  0.00000000000E+00 -0.28617899195E+04  0.28617899195E+04  0.50400001928E-02 0.  1.
    10030    2    1    2    0    0  0.00000000000E+00  0.00000000000E+00 -0.16558891293E+04  0.40676907096E+04  0.37153921597E+04 0.  0.
        2    1    3    3  502    0 -0.12946010961E+04 -0.29082313681E+03 -0.22514079724E+04  0.26133135964E+04  0.25500000920E-02 0.  1.
       -2    1    3    3    0  502  0.12946010961E+04  0.29082313681E+03  0.59551884305E+03  0.14543771132E+04  0.25500000920E-02 0. -1.
</event>
<event>
 5   0  0.9341000E-08  0.3671926E+04  0.7818609E-02  0.8074212E-01
        3   -1    0    0  501    0  0.00000000000E+00  0.00000000000E+00  0.13534672089E+04  0.13534672127E+04  0.10100000352E+00 0.  1.
       -3   -1    0    0    0  501  0.00000000000E+00  0.00000000000E+00 -0.24904626458E+04  0.24904626478E+04  0.10100000352E+00 0. -1.
    10030    2    1    2    0    0  0.00000000000E+00  0.00000000000E+00 -0.11369954369E+04  0.38439298605E+04  0.36719256731E+04 0.  0.
        2    1    3    3  502    0  0.53401893183E+03  0.16041686145E+04 -0.13177232023E+04  0.21435782237E+04  0.25500000920E-02 0. -1.
       -2    1    3    3    0  502 -0.53401893183E+03 -0.16041686145E+04  0.18072776537E+03  0.17003516368E+04  0.25500000920E-02 0.  1.
</event>
<event>
 5   0  0.2913025E-07  0.3606451E+04  0.7818609E-02  0.8089016E-01
        2   -1    0    0  501    0  0.00000000000E+00  0.00000000000E+00  0.22164761140E+04  0.22164761140E+04  0.25500000920E-02 0. -1.
       -2   -1    0    0    0  501  0.00000000000E+00  0.00000000000E+00 -0.14670231319E+04  0.14670231319E+04  0.25500000920E-02 0.  1.
    10030    2    1    2    0    0  0.00000000000E+00  0.00000000000E+00  0.74945298206E+03  0.36834992459E+04  0.36064507376E+04 0.  0.
        5    1    3    3  502    0  0.10520403988E+04 -0.15789968458E+02  0.18704448176E+04  0.21460718137E+04  0.46999998093E+01 0. -1.
       -5    1    3    3    0  502 -0.10520403988E+04  0.15789968458E+02 -0.11209918356E+04  0.15374274322E+04  0.46999998093E+01 0.  1.
</event>
<event>
 5   0  0.9341000E-08  0.3687845E+04  0.7818609E-02  0.8070661E-01
       -1   -1    0    0    0  501  0.00000000000E+00  0.00000000000E+00  0.15026400830E+04  0.15026400830E+04  0.50400001928E-02 0. -1.
        1   -1    0    0  501    0  0.00000000000E+00  0.00000000000E+00 -0.22627180012E+04  0.22627180012E+04  0.50400001928E-02 0.  1.
    10030    2    1    2    0    0  0.00000000000E+00  0.00000000000E+00 -0.76007791823E+03  0.37653580842E+04  0.36878453141E+04 0.  0.
        4    1    3    3  502    0  0.43825313907E+03  0.54929331936E+03 -0.21206463918E+04  0.22340393229E+04  0.12699999809E+01 0.  1.
       -4    1    3    3    0  502 -0.43825313907E+03 -0.54929331936E+03  0.13605684735E+04  0.15313187613E+04  0.12699999809E+01 0. -1.
</event>
<event>
 5   0  0.3008879E-07  0.3347129E+04  0.7818609E-02  0.8151006E-01
        2   -1    0    0  501    0  0.00000000000E+00  0.00000000000E+00  0.18548052330E+04  0.18548052330E+04  0.25500000920E-02 0. -1.
       -2   -1    0    0    0  501  0.00000000000E+00  0.00000000000E+00 -0.15100337648E+04  0.15100337648E+04  0.25500000920E-02 0.  1.
    10030    2    1    2    0    0  0.00000000000E+00  0.00000000000E+00  0.34477146821E+03  0.33648389979E+04  0.33471292351E+04 0.  0.
        2    1    3    3  502    0  0.95678476244E+01 -0.20486614635E+03 -0.14973529916E+04  0.15113330748E+04  0.25500000920E-02 0.  1.
       -2    1    3    3    0  502 -0.95678476244E+01  0.20486614635E+03  0.18421244598E+04  0.18535059231E+04  0.25500000920E-02 0. -1.
</event>
<event>
 5   0  0.9341000E-08  0.3690653E+04  0.7818609E-02  0.8070036E-01
       -1   -1    0    0    0  501  0.00000000000E+00  0.00000000000E+00  0.13947224337E+04  0.13947224337E+04  0.50400001928E-02 0. -1.
        1   -1    0    0  501    0  0.00000000000E+00  0.00000000000E+00 -0.24415107692E+04  0.24415107692E+04  0.50400001928E-02 0.  1.
    10030    2    1    2    0    0  0.00000000000E+00  0.00000000000E+00 -0.10467883354E+04  0.38362332029E+04  0.36906529731E+04 0.  0.
        1    1    3    3  502    0  0.27847517121E+03  0.46946748189E+03  0.13088869363E+04  0.14181442626E+04  0.50400001928E-02 0. -1.
       -1    1    3    3    0  502 -0.27847517121E+03 -0.46946748189E+03 -0.23556752717E+04  0.24180889403E+04  0.50400001928E-02 0.  1.
</event>
<event>
 5   0  0.3032442E-07  0.3699933E+04  0.7818609E-02  0.8067977E-01
       -2   -1    0    0    0  501  0.00000000000E+00  0.00000000000E+00  0.18590192128E+04  0.18590192128E+04  0.25500000920E-02 0. -1.
        2   -1    0    0  501    0  0.00000000000E+00  0.00000000000E+00 -0.18409581336E+04  0.18409581336E+04  0.25500000920E-02 0.  1.
    10030    2    1    2    0    0  0.00000000000E+00  0.00000000000E+00  0.18061079189E+02  0.36999773464E+04  0.36999332644E+04 0.  0.
        3    1    3    3  502    0 -0.16760644418E+04 -0.77554499593E+03 -0.99204184345E+02  0.18494603359E+04  0.10100000352E+00 0. -1.
       -3    1    3    3    0  502  0.16760644418E+04  0.77554499593E+03  0.11726526353E+03  0.18505170105E+04  0.10100000352E+00 0.  1.
</event>
<event>
 5   0  0.2913025E-07  0.3664628E+04  0.7818609E-02  0.8075846E-01
        2   -1    0    0  501    0  0.00000000000E+00  0.00000000000E+00  0.30392110211E+04  0.30392110211E+04  0.25500000920E-02 0.  1.
       -2   -1    0    0    0  501  0.00000000000E+00  0.00000000000E+00 -0.11046865297E+04  0.11046865298E+04  0.25500000920E-02 0. -1.
    10030    2    1    2    0    0  0.00000000000E+00  0.00000000000E+00  0.19345244914E+04  0.41438975509E+04  0.36646284811E+04 0.  0.
        5    1    3    3  502    0 -0.11482515680E+04 -0.77526358534E+03 -0.38865770346E+03  0.14389552427E+04  0.46999998093E+01 0. -1.
       -5    1    3    3    0  502  0.11482515680E+04  0.77526358534E+03  0.23231821949E+04  0.27049423082E+04  0.46999998093E+01 0.  1.
</event>
<event>
 5   0  0.9341000E-08  0.3672931E+04  0.7818609E-02  0.8073987E-01
        1   -1    0    0  501    0  0.00000000000E+00  0.00000000000E+00  0.24065796134E+04  0.24065796134E+04  0.50400001928E-02 0.  1.
       -1   -1    0    0    0  501  0.00000000000E+00  0.00000000000E+00 -0.14014101664E+04  0.14014101664E+04  0.50400001928E-02 0. -1.
    10030    2    1    2    0    0  0.00000000000E+00  0.00000000000E+00  0.10051694470E+04  0.38079897798E+04  0.36729307842E+04 0.  0.
        1    1    3    3  502    0  0.84077017552E+02  0.13848469490E+04  0.17500474694E+04  0.22332792396E+04  0.50400001928E-02 0.  1.
       -1    1    3    3    0  502 -0.84077017552E+02 -0.13848469490E+04 -0.74487802236E+03  0.15747105402E+04  0.50400001928E-02 0. -1.
</event>
<event>
 5   0  0.9341000E-08  0.3698194E+04  0.7818609E-02  0.8068362E-01
       -1   -1    0    0    0  501  0.00000000000E+00  0.00000000000E+00  0.23362977775E+04  0.23362977775E+04  0.50400001928E-02 0.  1.
        1   -1    0    0  501    0  0.00000000000E+00  0.00000000000E+00 -0.14634951458E+04  0.14634951459E+04  0.50400001928E-02 0. -1.
    10030    2    1    2    0    0  0.00000000000E+00  0.00000000000E+00  0.87280263166E+03  0.37997929234E+04  0.36981944009E+04 0.  0.
        4    1    3    3  502    0 -0.14707165591E+04  0.10304059641E+04  0.88944000957E+03  0.20039582809E+04  0.12699999809E+01 0. -1.
       -4    1    3    3    0  502  0.14707165591E+04 -0.10304059641E+04 -0.16637377914E+02  0.17958346425E+04  0.12699999809E+01 0.  1.
</event>
<event>
 5   0  0.9418945E-08  0.3699477E+04  0.7818609E-02  0.8068078E-01
       -1   -1    0    0    0  501  0.00000000000E+00  0.00000000000E+00  0.30439040379E+04  0.30439040379E+04  0.50400001928E-02 0. -1.
        1   -1    0    0  501    0  0.00000000000E+00  0.00000000000E+00 -0.11240608163E+04  0.11240608163E+04  0.50400001928E-02 0.  1.
    10030    2    1    2    0    0  0.00000000000E+00  0.00000000000E+00  0.19198432216E+04  0.41679648542E+04  0.36994773996E+04 0.  0.
        5    1    3    3  502    0  0.88598740738E+02  0.15188087954E+04 -0.22539450645E+03  0.15380034679E+04  0.46999998093E+01 0.  1.
       -5    1    3    3    0  502 -0.88598740738E+02 -0.15188087954E+04  0.21452377280E+04  0.26299613863E+04  0.46999998093E+01 0. -1.
</event>
<event>
 5   0  0.2913025E-07  0.3627775E+04  0.7818609E-02  0.8084159E-01
       -2   -1    0    0    0  501  0.00000000000E+00  0.00000000000E+00  0.13562218772E+04  0.13562218772E+04  0.25500000920E-02 0.  1.
        2   -1    0    0  501    0  0.00000000000E+00  0.00000000000E+00 -0.24259955748E+04  0.24259955748E+04  0.25500000920E-02 0. -1.
    10030    2    1    2    0    0  0.00000000000E+00  0.00000000000E+00 -0.10697736976E+04  0.37822174520E+04  0.36277752260E+04 0.  0.
        5    1    3    3  502    0 -0.25781648421E+03 -0.88584590552E+03 -0.21630941494E+04  0.23516357492E+04  0.46999998093E+01 0. -1.
       -5    1    3    3    0  502  0.25781648421E+03  0.88584590552E+03  0.10933204518E+04  0.14305817028E+04  0.46999998093E+01 0.  1.
</event>
<event>
 5   0  0.2913025E-07  0.3720976E+04  0.7818609E-02  0.8063329E-01
        2   -1    0    0  501    0  0.00000000000E+00  0.00000000000E+00  0.26234016241E+04  0.26234016241E+04  0.25500000920E-02 0. -1.
       -2   -1    0    0    0  501  0.00000000000E+00  0.00000000000E+00 -0.13194382148E+04  0.13194382148E+04  0.25500000920E-02 0.  1.
    10030    2    1    2    0    0  0.00000000000E+00  0.00000000000E+00  0.13039634093E+04  0.39428398389E+04  0.37209764071E+04 0.  0.
        5    1    3    3  502    0 -0.53617564706E+03  0.11388639969E+04  0.21036675451E+04  0.24515168280E+04  0.46999998093E+01 0. -1.
       -5    1    3    3    0  502  0.53617564706E+03 -0.11388639969E+04 -0.79970413581E+03  0.14913230109E+04  0.46999998093E+01 0.  1.
</event>
<event>
 5   0  0.3032442E-07  0.3662576E+04  0.7818609E-02  0.8076306E-01
       -2   -1    0    0    0  501  0.00000000000E+00  0.00000000000E+00  0.16778374249E+04  0.16778374249E+04  0.25500000920E-02 0. -1.
        2   -1    0    0  501    0  0.00000000000E+00  0.00000000000E+00 -0.19987726645E+04  0.19987726645E+04  0.25500000920E-02 0.  1.
    10030    2    1    2    0    0  0.00000000000E+00  0.00000000000E+00 -0.32093523960E+03  0.36766100894E+04  0.36625759134E+04 0.  0.
        3    1    3    3  502    0  0.10690130381E+04  0.28497798387E+03 -0.16253791964E+04  0.19661787480E+04  0.10100000352E+00 0.  1.
       -3    1    3    3    0  502 -0.10690130381E+04 -0.28497798387E+03  0.13044439568E+04  0.17104313414E+04  0.10100000352E+00 0. -1.
</event>
<event>
 5   0  0.2913025E-07  0.3714074E+04  0.7818609E-02  0.8064850E-01
       -2   -1    0    0    0  501  0.00000000000E+00  0.00000000000E+00  0.18157604326E+04  0.18157604326E+04  0.25500000920E-02 0. -1.
        2   -1    0    0  501    0  0.00000000000E+00  0.00000000000E+00 -0.18992518102E+04  0.18992518102E+04  0.25500000920E-02 0.  1.
    10030    2    1    2    0    0  0.00000000000E+00  0.00000000000E+00 -0.83491377578E+02  0.37150122427E+04  0.37140739295E+04 0.  0.
        5    1    3    3  502    0 -0.80870706569E+03  0.14709318066E+04 -0.83624900966E+03  0.18753618302E+04  0.46999998093E+01 0.  1.
       -5    1    3    3    0  502  0.80870706569E+03 -0.14709318066E+04  0.75275763208E+03  0.18396504126E+04  0.46999998093E+01 0. -1.
</event>
<event>
 5   0  0.9646615E-08  0.3693893E+04  0.7818609E-02  0.8069317E-01
       -1   -1    0    0    0  501  0.00000000000E+00  0.00000000000E+00  0.30233194900E+04  0.30233194900E+04  0.50400001928E-02 0. -1.
        1   -1    0    0  501    0  0.00000000000E+00  0.00000000000E+00 -0.11282998373E+04  0.11282998373E+04  0.50400001928E-02 0.  1.
    10030    2    1    2    0    0  0.00000000000E+00  0.00000000000E+00  0.18950196527E+04  0.41516193274E+04  0.36938927374E+04 0.  0.
        2    1    3    3  502    0  0.25550302016E+03 -0.70686488482E+02  0.30018251063E+04  0.30135083112E+04  0.25500000920E-02 0. -1.
       -2    1    3    3    0  502 -0.25550302016E+03  0.70686488482E+02 -0.11068054536E+04  0.11381110162E+04  0.25500000920E-02 0.  1.
</event>
<event>
 5   0  0.3032442E-07  0.3669055E+04  0.7818609E-02  0.8074854E-01
        2   -1    0    0  501    0  0.00000000000E+00  0.00000000000E+00  0.17343791822E+04  0.17343791822E+04  0.25500000920E-02 0.  1.
       -2   -1    0    0    0  501  0.00000000000E+00  0.00000000000E+00 -0.19404586390E+04  0.19404586390E+04  0.25500000920E-02 0. -1.
    10030    2    1    2    0    0  0.00000000000E+00  0.00000000000E+00 -0.20607945680E+03  0.36748378212E+04  0.36690549559E+04 0.  0.
        3    1    3    3  502    0 -0.25692763035E+03 -0.62182960031E+03 -0.18124244985E+04  0.19332786742E+04  0.10100000352E+00 0. -1.
       -3    1    3    3    0  502  0.25692763035E+03  0.62182960031E+03  0.16063450417E+04  0.17415591470E+04  0.10100000352E+00 0.  1.
</event>
<event>
 5   0  0.2897133E-07  0.3693709E+04  0.7818609E-02  0.8069357E-01
        2   -1    0    0  501    0  0.00000000000E+00  0.00000000000E+00  0.21029422833E+04  0.21029422833E+04  0.25500000920E-02 0. -1.
       -2   -1    0    0    0  501  0.00000000000E+00  0.00000000000E+00 -0.16219519771E+04  0.16219519771E+04  0.25500000920E-02 0.  1.
    10030    2    1    2    0    0  0.00000000000E+00  0.00000000000E+00  0.48099030619E+03  0.37248942605E+04  0.36937089188E+04 0.  0.
        4    1    3    3  502    0 -0.32942163807E+03  0.88673768546E+03 -0.13591022624E+04  0.16558933875E+04  0.12699999809E+01 0.  1.
       -4    1    3    3    0  502  0.32942163807E+03 -0.88673768546E+03  0.18400925685E+04  0.20690008729E+04  0.12699999809E+01 0. -1.
</event>
<event>
 5   0  0.3032442E-07  0.3698672E+04  0.7818609E-02  0.8068256E-01
       -2   -1    0    0    0  501  0.00000000000E+00  0.00000000000E+00  0.11805957970E+04  0.11805957970E+04  0.25500000920E-02 0.  1.
        2   -1    0    0  501    0  0.00000000000E+00  0.00000000000E+00 -0.28968786796E+04  0.28968786796E+04  0.25500000920E-02 0. -1.
    10030    2    1    2    0    0  0.00000000000E+00  0.00000000000E+00 -0.17162828826E+04  0.40774744765E+04  0.36986715418E+04 0.  0.
        3    1    3    3  502    0  0.88610293919E+03 -0.67473246422E+03 -0.24856899125E+04  0.27238018776E+04  0.10100000352E+00 0. -1.
       -3    1    3    3    0  502 -0.88610293919E+03  0.67473246422E+03  0.76940702994E+03  0.13536725989E+04  0.10100000352E+00 0.  1.
</event>
<event>
 5   0  0.9646615E-08  0.3700483E+04  0.7818609E-02  0.8067855E-01
       -1   -1    0    0    0  501  0.00000000000E+00  0.00000000000E+00  0.21208174290E+04  0.21208174290E+04  0.50400001928E-02 0.  1.
        1   -1    0    0  501    0  0.00000000000E+00  0.00000000000E+00 -0.16141855750E+04  0.16141855750E+04  0.50400001928E-02 0. -1.
    10030    2    1    2    0    0  0.00000000000E+00  0.00000000000E+00  0.50663185400E+03  0.37350030041E+04  0.37004826178E+04 0.  0.
        2    1    3    3  502    0  0.86256788777E+03 -0.82419958988E+03  0.16807451904E+04  0.20611241399E+04  0.25500000920E-02 0.  1.
       -2    1    3    3    0  502 -0.86256788777E+03  0.82419958988E+03 -0.11741133364E+04  0.16738788641E+04  0.25500000920E-02 0. -1.
</event>
<event>
 5   0  0.3008879E-07  0.3620319E+04  0.7818609E-02  0.8085853E-01
        2   -1    0    0  501    0  0.00000000000E+00  0.00000000000E+00  0.18692198870E+04  0.18692198870E+04  0.25500000920E-02 0.  1.
       -2   -1    0    0    0  501  0.00000000000E+00  0.00000000000E+00 -0.17529654981E+04  0.17529654981E+04  0.25500000920E-02 0. -1.
    10030    2    1    2    0    0  0.00000000000E+00  0.00000000000E+00  0.11625438895E+03  0.36221853851E+04  0.36203193065E+04 0.  0.
        2    1    3    3  502    0 -0.83644648634E+03 -0.10752388303E+04 -0.11345009419E+04  0.17728151776E+04  0.25500000920E-02 0. -1.
       -2    1    3    3    0  502  0.83644648634E+03  0.10752388303E+04  0.12507553309E+04  0.18493702075E+04  0.25500000920E-02 0.  1.
</event>
<event>
 5   0  0.9341000E-08  0.3661123E+04  0.7818609E-02  0.8076633E-01
        1   -1    0    0  501    0  0.00000000000E+00  0.00000000000E+00  0.21881481170E+04  0.21881481170E+04  0.50400001928E-02 0. -1.
       -1   -1    0    0    0  501  0.00000000000E+00  0.00000000000E+00 -0.15314112516E+04  0.15314112516E+04  0.50400001928E-02 0.  1.
    10030    2    1    2    0    0  0.00000000000E+00  0.00000000000E+00  0.65673686540E+03  0.37195593685E+04  0.36611225855E+04 0.  0.
        4    1    3    3  502    0  0.11819295260E+04  0.13280943648E+04 -0.11466646405E+03  0.17815560775E+04  0.12699999809E+01 0.  1.
       -4    1    3    3    0  502 -0.11819295260E+04 -0.13280943648E+04  0.77140332944E+03  0.19380032910E+04  0.12699999809E+01 0. -1.
</event>
<event>
 5   0  0.9341000E-08  0.3706302E+04  0.7818609E-02  0.8066567E-01
        1   -1    0    0  501    0  0.00000000000E+00  0.00000000000E+00  0.16897474419E+04  0.16897474419E+04  0.50400001928E-02 0. -1.
       -1   -1    0    0    0  501  0.00000000000E+00  0.00000000000E+00 -0.20323560900E+04  0.20323560900E+04  0.50400001928E-02 0.  1.
    10030    2    1    2    0    0  0.00000000000E+00  0.00000000000E+00 -0.34260864809E+03  0.37221035320E+04  0.37063019328E+04 0.  0.
        4    1    3    3  502    0  0.13196561873E+03  0.18468960322E+04 -0.24730399969E+03  0.18680473119E+04  0.12699999809E+01 0. -1.
       -4    1    3    3    0  502 -0.13196561873E+03 -0.18468960322E+04 -0.95304648395E+02  0.18540562201E+04  0.12699999809E+01 0.  1.
</event>
<event>
 5   0  0.2897133E-07  0.3703498E+04  0.7818609E-02  0.8067187E-01
        2   -1    0    0  501    0  0.00000000000E+00  0.00000000000E+00  0.29510977849E+04  0.29510977849E+04  0.25500000920E-02 0.  1.
       -2   -1    0    0    0  501  0.00000000000E+00  0.00000000000E+00 -0.11619320273E+04  0.11619320273E+04  0.25500000920E-02 0. -1.
    10030    2    1    2    0    0  0.00000000000E+00  0.00000000000E+00  0.17891657576E+04  0.41130298122E+04  0.37034983634E+04 0.  0.
        4    1    3    3  502    0 -0.96792345425E+03  0.32719720733E+03 -0.82054891184E+03  0.13104334990E+04  0.12699999809E+01 0. -1.
       -4    1    3    3    0  502  0.96792345425E+03 -0.32719720733E+03  0.26097146694E+04  0.28025963131E+04  0.12699999809E+01 0.  1.
</event>
<event>
 5   0  0.9418945E-08  0.3636955E+04  0.7818609E-02  0.8082079E-01
        1   -1    0    0  501    0  0.00000000000E+00  0.00000000000E+00  0.11507680368E+04  0.11507680368E+04  0.50400001928E-02 0. -1.
       -1   -1    0    0    0  501  0.00000000000E+00  0.00000000000E+00 -0.28736118019E+04  0.28736118020E+04  0.50400001928E-02 0.  1.
    10030    2    1    2    0    0  0.00000000000E+00  0.00000000000E+00 -0.17228437652E+04  0.40243798387E+04  0.36369551065E+04 0.  0.
        5    1    3    3  502    0 -0.12306049174E+04 -0.13028366539E+04 -0.12025953602E+04  0.21582468579E+04  0.46999998093E+01 0.  1.
       -5    1    3    3    0  502  0.12306049174E+04  0.13028366539E+04 -0.52024840503E+03  0.18661329808E+04  0.46999998093E+01 0. -1.
</event>
<event>
 5   0  0.9646615E-08  0.3776190E+04  0.7818609E-02  0.8051284E-01
        1   -1    0    0  501    0  0.00000000000E+00  0.00000000000E+00  0.14523120592E+04  0.14523120592E+04  0.50400001928E-02 0.  1.
       -1   -1    0    0    0  501  0.00000000000E+00  0.00000000000E+00 -0.24546394380E+04  0.24546394380E+04  0.50400001928E-02 0. -1.
    10030    2    1    2    0    0  0.00000000000E+00  0.00000000000E+00 -0.10023273788E+04  0.39069514973E+04  0.37761898559E+04 0.  0.
        2    1    3    3  502    0 -0.31042762481E+03  0.15042879589E+04  0.63488175180E+03  0.16620235896E+04  0.25500000920E-02 0.  1.
       -2    1    3    3    0  502  0.31042762481E+03 -0.15042879589E+04 -0.16372091306E+04  0.22449279077E+04  0.25500000920E-02 0. -1.
</event>
<event>
 5   0  0.3032442E-07  0.3675419E+04  0.7818609E-02  0.8073431E-01
        2   -1    0    0  501    0  0.00000000000E+00  0.00000000000E+00  0.23529756578E+04  0.23529756578E+04  0.25500000920E-02 0. -1.
       -2   -1    0    0    0  501  0.00000000000E+00  0.00000000000E+00 -0.14352784998E+04  0.14352784998E+04  0.25500000920E-02 0.  1.
    10030    2    1    2    0    0  0.00000000000E+00  0.00000000000E+00  0.91769715807E+03  0.37882541576E+04  0.36754185460E+04 0.  0.
        3    1    3    3  502    0  0.34712810204E+03  0.92484958020E+03  0.20560448678E+04  0.22810447549E+04  0.10100000352E+00 0. -1.
       -3    1    3    3    0  502 -0.34712810204E+03 -0.92484958020E+03 -0.11383477097E+04  0.15072094027E+04  0.10100000352E+00 0.  1.
</event>
<event>
 5   0  0.3032442E-07  0.3702041E+04  0.7818609E-02  0.8067510E-01
       -2   -1    0    0    0  501  0.00000000000E+00  0.00000000000E+00  0.21396837588E+04  0.21396837588E+04  0.25500000920E-02 0.  1.
        2   -1    0    0  501    0  0.00000000000E+00  0.00000000000E+00 -0.16013008376E+04  0.16013008376E+04  0.25500000920E-02 0. -1.
    10030    2    1    2    0    0  0.00000000000E+00  0.00000000000E+00  0.53838292128E+03  0.37409845964E+04  0.37020412721E+04 0.  0.
        3    1    3    3  502    0  0.17957697177E+04  0.34569560672E+03 -0.20147361200E+02  0.18288521695E+04  0.10100000352E+00 0. -1.
       -3    1    3    3    0  502 -0.17957697177E+04 -0.34569560672E+03  0.55853028248E+03  0.19121324269E+04  0.10100000352E+00 0.  1.
</event>
<event>
 5   0  0.2897133E-07  0.3712044E+04  0.7818609E-02  0.8065298E-01
        2   -1    0    0  501    0  0.00000000000E+00  0.00000000000E+00  0.27775506063E+04  0.27775506063E+04  0.25500000920E-02 0.  1.
       -2   -1    0    0    0  501  0.00000000000E+00  0.00000000000E+00 -0.12402357490E+04  0.12402357490E+04  0.25500000920E-02 0. -1.
    10030    2    1    2    0    0  0.00000000000E+00  0.00000000000E+00  0.15373148573E+04  0.40177863553E+04  0.37120439418E+04 0.  0.
        4    1    3    3  502    0 -0.17365999036E+04  0.57882704164E+03  0.43681771662E+03  0.18819222353E+04  0.12699999809E+01 0.  1.
       -4    1    3    3    0  502  0.17365999036E+04 -0.57882704164E+03  0.11004971407E+04  0.21358641200E+04  0.12699999809E+01 0. -1.
</event>
<event>
 5   0  0.9341000E-08  0.3693048E+04  0.7818609E-02  0.8069504E-01
       -1   -1    0    0    0  501  0.00000000000E+00  0.00000000000E+00  0.13033544667E+04  0.13033544667E+04  0.50400001928E-02 0.  1.
        1   -1    0    0  501    0  0.00000000000E+00  0.00000000000E+00 -0.26160579762E+04  0.26160579762E+04  0.50400001928E-02 0. -1.
    10030    2    1    2    0    0  0.00000000000E+00  0.00000000000E+00 -0.13127035095E+04  0.39194124429E+04  0.36930479815E+04 0.  0.
        1    1    3    3  502    0  0.21713235154E+03  0.45475018470E+03  0.12289650126E+04  0.13282692463E+04  0.50400001928E-02 0.  1.
       -1    1    3    3    0  502 -0.21713235154E+03 -0.45475018470E+03 -0.25416685221E+04  0.25911431965E+04  0.50400001928E-02 0. -1.
</event>
<event>
 5   0  0.2897133E-07  0.3699753E+04  0.7818609E-02  0.8068017E-01
        2   -1    0    0  501    0  0.00000000000E+00  0.00000000000E+00  0.29029107932E+04  0.29029107932E+04  0.25500000920E-02 0.  1.
       -2   -1    0    0    0  501  0.00000000000E+00  0.00000000000E+00 -0.11788316784E+04  0.11788316784E+04  0.25500000920E-02 0. -1.
    10030    2    1    2    0    0  0.00000000000E+00  0.00000000000E+00  0.17240791147E+04  0.40817424716E+04  0.36997530743E+04 0.  0.
        4    1    3    3  502    0  0.44200643703E+03 -0.16333178551E+04  0.37223180057E+02  0.16924786805E+04  0.12699999809E+01 0. -1.
       -4    1    3    3    0  502 -0.44200643703E+03  0.16333178551E+04  0.16868559347E+04  0.23892637911E+04  0.12699999809E+01 0.  1.
</event>
<event>
 5   0  0.9341000E-08  0.3625520E+04  0.7818609E-02  0.8084671E-01
       -1   -1    0    0    0  501  0.00000000000E+00  0.00000000000E+00  0.14569247450E+04  0.14569247450E+04  0.50400001928E-02 0. -1.
        1   -1    0    0  501    0  0.00000000000E+00  0.00000000000E+00 -0.22555035979E+04  0.22555035979E+04  0.50400001928E-02 0.  1.
    10030    2    1    2    0    0  0.00000000000E+00  0.00000000000E+00 -0.79857885288E+03  0.37124283429E+04  0.36255201030E+04 0.  0.
        3    1    3    3  502    0  0.22855163376E+03  0.43276842006E+03 -0.21865738621E+04  0.22406761523E+04  0.10100000352E+00 0.  1.
       -3    1    3    3    0  502 -0.22855163376E+03 -0.43276842006E+03  0.13879950092E+04  0.14717521906E+04  0.10100000352E+00 0. -1.
</event>
<event>
 5   0  0.3032442E-07  0.3760182E+04  0.7818609E-02  0.8054754E-01
        2   -1    0    0  501    0  0.00000000000E+00  0.00000000000E+00  0.16672860324E+04  0.16672860324E+04  0.25500000920E-02 0. -1.
       -2   -1    0    0    0  501  0.00000000000E+00  0.00000000000E+00 -0.21200578901E+04  0.21200578901E+04  0.25500000920E-02 0.  1.
    10030    2    1    2    0    0  0.00000000000E+00  0.00000000000E+00 -0.45277185776E+03  0.37873439225E+04  0.37601823934E+04 0.  0.
        3    1    3    3  502    0  0.18641851454E+04 -0.10043551574E+03 -0.23622482126E+01  0.18668902324E+04  0.10100000352E+00 0. -1.
       -3    1    3    3    0  502 -0.18641851454E+04  0.10043551574E+03 -0.45040960955E+03  0.19204536901E+04  0.10100000352E+00 0.  1.
</event>
<event>
 5   0  0.3032442E-07  0.3705095E+04  0.7818609E-02  0.8066834E-01
       -2   -1    0    0    0  501  0.00000000000E+00  0.00000000000E+00  0.26062069485E+04  0.26062069485E+04  0.25500000920E-02 0. -1.
        2   -1    0    0  501    0  0.00000000000E+00  0.00000000000E+00 -0.13168302503E+04  0.13168302503E+04  0.25500000920E-02 0.  1.
    10030    2    1    2    0    0  0.00000000000E+00  0.00000000000E+00  0.12893766982E+04  0.39230371988E+04  0.37050949506E+04 0.  0.
        3    1    3    3  502    0  0.48048960109E+02  0.39644181234E+03 -0.12707142832E+04  0.13319870919E+04  0.10100000352E+00 0.  1.
       -3    1    3    3    0  502 -0.48048960109E+02 -0.39644181234E+03  0.25600909814E+04  0.25910501069E+04  0.10100000352E+00 0. -1.
</event>
<event>
 5   0  0.9341000E-08  0.3671861E+04  0.7818609E-02  0.8074227E-01
       -1   -1    0    0    0  501  0.00000000000E+00  0.00000000000E+00  0.12552069879E+04  0.12552069880E+04  0.50400001928E-02 0.  1.
        1   -1    0    0  501    0  0.00000000000E+00  0.00000000000E+00 -0.26853259682E+04  0.26853259682E+04  0.50400001928E-02 0. -1.
    10030    2    1    2    0    0  0.00000000000E+00  0.00000000000E+00 -0.14301189802E+04  0.39405329561E+04  0.36718605203E+04 0.  0.
        1    1    3    3  502    0  0.16711122242E+04 -0.87356714311E+02 -0.15255645903E+04  0.22644192590E+04  0.50400001928E-02 0. -1.
       -1    1    3    3    0  502 -0.16711122242E+04  0.87356714311E+02  0.95445610063E+02  0.16761136971E+04  0.50400001928E-02 0.  1.
</event>
<event>
 5   0  0.9341000E-08  0.3892660E+04  0.7818609E-02  0.8026558E-01
        1   -1    0    0  501    0  0.00000000000E+00  0.00000000000E+00  0.11662299430E+04  0.11662299430E+04  0.50400001928E-02 0. -1.
       -1   -1    0    0    0  501  0.00000000000E+00  0.00000000000E+00 -0.32482444433E+04  0.32482444433E+04  0.50400001928E-02 0.  1.
    10030    2    1    2    0    0  0.00000000000E+00  0.00000000000E+00 -0.20820145003E+04  0.44144743864E+04  0.38926597242E+04 0.  0.
        1    1    3    3  502    0 -0.53534770884E+03 -0.29940561147E+02 -0.31628363405E+04  0.32079631113E+04  0.50400001928E-02 0.  1.
       -1    1    3    3    0  502  0.53534770884E+03  0.29940561147E+02  0.10808218402E+04  0.12065112751E+04  0.50400001928E-02 0. -1.
</event>
<event>
 5   0  0.2996969E-07  0.3722615E+04  0.7818609E-02  0.8062968E-01
       -2   -1    0    0    0  501  0.00000000000E+00  0.00000000000E+00  0.15595605827E+04  0.15595605827E+04  0.25500000920E-02 0.  1.
        2   -1    0    0  501    0  0.00000000000E+00  0.00000000000E+00 -0.22214370863E+04  0.22214370863E+04  0.25500000920E-02 0. -1.
    10030    2    1    2    0    0  0.00000000000E+00  0.00000000000E+00 -0.66187650356E+03  0.37809976690E+04  0.37226150576E+04 0.  0.
        1    1    3    3  502    0 -0.11600539160E+04 -0.13132535129E+04  0.30668583565E+03  0.17788805691E+04  0.50400001928E-02 0.  1.
       -1    1    3    3    0  502  0.11600539160E+04  0.13132535129E+04 -0.96856233920E+03  0.20021171000E+04  0.50400001928E-02 0. -1.
</event>
<event>
 5   0  0.9341000E-08  0.3772391E+04  0.7818609E-02  0.8052106E-01
       -1   -1    0    0    0  501  0.00000000000E+00  0.00000000000E+00  0.25000154164E+04  0.25000154164E+04  0.50400001928E-02 0. -1.
        1   -1    0    0  501    0  0.00000000000E+00  0.00000000000E+00 -0.14230847818E+04  0.14230847818E+04  0.50400001928E-02 0.  1.
    10030    2    1    2    0    0  0.00000000000E+00  0.00000000000E+00  0.10769306346E+04  0.39231001981E+04  0.37723912274E+04 0.  0.
        4    1    3    3  502    0  0.40539218473E+03  0.14560206091E+04 -0.63506409464E+03  0.16394044208E+04  0.12699999809E+01 0.  1.
       -4    1    3    3    0  502 -0.40539218473E+03 -0.14560206091E+04  0.17119947293E+04  0.22836957774E+04  0.12699999809E+01 0. -1.
</event>
<event>
 5   0  0.2913025E-07  0.3703592E+04  0.7818609E-02  0.8067166E-01
       -2   -1    0    0    0  501  0.00000000000E+00  0.00000000000E+00  0.12731624842E+04  0.12731624842E+04  0.25500000920E-02 0. -1.
        2   -1    0    0  501    0  0.00000000000E+00  0.00000000000E+00 -0.26934102784E+04  0.26934102784E+04  0.25500000920E-02 0.  1.
    10030    2    1    2    0    0  0.00000000000E+00  0.00000000000E+00 -0.14202477943E+04  0.39665727626E+04  0.37035922675E+04 0.  0.
        5    1    3    3  502    0  0.19961282937E+03  0.98439598001E+03  0.95605650340E+03  0.13867035930E+04  0.46999998093E+01 0. -1.
       -5    1    3    3    0  502 -0.19961282937E+03 -0.98439598001E+03 -0.23763042977E+04  0.25798691696E+04  0.46999998093E+01 0.  1.
</event>
<event>
 5   0  0.9646615E-08  0.3672198E+04  0.7818609E-02  0.8074151E-01
       -1   -1    0    0    0  501  0.00000000000E+00  0.00000000000E+00  0.27348198455E+04  0.27348198455E+04  0.50400001928E-02 0.  1.
        1   -1    0    0  501    0  0.00000000000E+00  0.00000000000E+00 -0.12327172133E+04  0.12327172134E+04  0.50400001928E-02 0. -1.
    10030    2    1    2    0    0  0.00000000000E+00  0.00000000000E+00  0.15021026321E+04  0.39675370588E+04  0.36721979788E+04 0.  0.
        2    1    3    3  502    0 -0.15144302302E+04  0.17624466497E+03  0.18564162518E+04  0.24022577722E+04  0.25500000920E-02 0.  1.
       -2    1    3    3    0  502  0.15144302302E+04 -0.17624466497E+03 -0.35431361971E+03  0.15652792866E+04  0.25500000920E-02 0. -1.
</event>
<event>
 5   0  0.9418945E-08  0.3707273E+04  0.7818609E-02  0.8066352E-01
        1   -1    0    0  501    0  0.00000000000E+00  0.00000000000E+00  0.28714251798E+04  0.28714251798E+04  0.50400001928E-02 0. -1.
       -1   -1    0    0    0  501  0.00000000000E+00  0.00000000000E+00 -0.11966070735E+04  0.11966070735E+04  0.50400001928E-02 0.  1.
    10030    2    1    2    0    0  0.00000000000E+00  0.00000000000E+00  0.16748181062E+04  0.40680322533E+04  0.37072726801E+04 0.  0.
        5    1    3    3  502    0 -0.14028321800E+04 -0.48218943926E+03  0.20571044200E+04  0.25361674759E+04  0.46999998093E+01 0. -1.
       -5    1    3    3    0  502  0.14028321800E+04  0.48218943926E+03 -0.38228631381E+03  0.15318647774E+04  0.46999998093E+01 0.  1.
</event>
<event>
 5   0  0.9341000E-08  0.3675336E+04  0.7818609E-02  0.8073450E-01
        1   -1    0    0  501    0  0.00000000000E+00  0.00000000000E+00  0.21973515111E+04  0.21973515111E+04  0.50400001928E-02 0.  1.
       -1   -1    0    0    0  501  0.00000000000E+00  0.00000000000E+00 -0.15368605988E+04  0.15368605988E+04  0.50400001928E-02 0. -1.
    10030    2    1    2    0    0  0.00000000000E+00  0.00000000000E+00  0.66049091235E+03  0.37342121099E+04  0.36753356087E+04 0.  0.
        3    1    3    3  502    0 -0.16545096834E+04  0.18027197833E+03  0.11219081972E+04  0.20071318571E+04  0.10100000352E+00 0.  1.
       -3    1    3    3    0  502  0.16545096834E+04 -0.18027197833E+03 -0.46141728488E+03  0.17270802528E+04  0.10100000352E+00 0. -1.
</event>
<event>
 5   0  0.2913025E-07  0.3654660E+04  0.7818609E-02  0.8078085E-01
       -2   -1    0    0    0  501  0.00000000000E+00  0.00000000000E+00  0.19660065512E+04  0.19660065512E+04  0.25500000920E-02 0. -1.
        2   -1    0    0  501    0  0.00000000000E+00  0.00000000000E+00 -0.16984354224E+04  0.16984354224E+04  0.25500000920E-02 0.  1.
    10030    2    1    2    0    0  0.00000000000E+00  0.00000000000E+00  0.26757112880E+03  0.36644419735E+04  0.36546601304E+04 0.  0.
        5    1    3    3  502    0  0.10589355080E+03 -0.10895930081E+04 -0.13332390815E+04  0.17251014190E+04  0.46999998093E+01 0.  1.
       -5    1    3    3    0  502 -0.10589355080E+03  0.10895930081E+04  0.16008102103E+04  0.19393405546E+04  0.46999998093E+01 0. -1.
</event>
<event>
 5   0  0.9646615E-08  0.3691289E+04  0.7818609E-02  0.8069895E-01
       -1   -1    0    0    0  501  0.00000000000E+00  0.00000000000E+00  0.27669157811E+04  0.27669157811E+04  0.50400001928E-02 0.  1.
        1   -1    0    0  501    0  0.00000000000E+00  0.00000000000E+00 -0.12311192763E+04  0.12311192763E+04  0.50400001928E-02 0. -1.
    10030    2    1    2    0    0  0.00000000000E+00  0.00000000000E+00  0.15357965049E+04  0.39980350574E+04  0.36912888557E+04 0.  0.
        2    1    3    3  502    0 -0.14722825428E+04 -0.82855275618E+03 -0.37019101432E+02  0.16898183244E+04  0.25500000920E-02 0. -1.
       -2    1    3    3    0  502  0.14722825428E+04  0.82855275618E+03  0.15728156063E+04  0.23082167331E+04  0.25500000920E-02 0.  1.
</event>
<event>
 5   0  0.9341000E-08  0.3694784E+04  0.7818609E-02  0.8069119E-01
        1   -1    0    0  501    0  0.00000000000E+00  0.00000000000E+00  0.25126853178E+04  0.25126853178E+04  0.50400001928E-02 0.  1.
       -1   -1    0    0    0  501  0.00000000000E+00  0.00000000000E+00 -0.13582506099E+04  0.13582506099E+04  0.50400001928E-02 0. -1.
    10030    2    1    2    0    0  0.00000000000E+00  0.00000000000E+00  0.11544347079E+04  0.38709359277E+04  0.36947835474E+04 0.  0.
        3    1    3    3  502    0 -0.11551386552E+04  0.13951313574E+04  0.95802924882E+03  0.20490380350E+04  0.10100000352E+00 0.  1.
       -3    1    3    3    0  502  0.11551386552E+04 -0.13951313574E+04  0.19640545909E+03  0.18218978927E+04  0.10100000352E+00 0. -1.
</event>
<event>
 5   0  0.3032442E-07  0.3841972E+04  0.7818609E-02  0.8037207E-01
        2   -1    0    0  501    0  0.00000000000E+00  0.00000000000E+00  0.19505317942E+04  0.19505317942E+04  0.25500000920E-02 0. -1.
       -2   -1    0    0    0  501  0.00000000000E+00  0.00000000000E+00 -0.18918876223E+04  0.18918876223E+04  0.25500000920E-02 0.  1.
    10030    2    1    2    0    0  0.00000000000E+00  0.00000000000E+00  0.58644171931E+02  0.38424194165E+04  0.38419718679E+04 0.  0.
        3    1    3    3  502    0  0.11892663787E+04 -0.70697363488E+03 -0.13035074257E+04  0.19008676595E+04  0.10100000352E+00 0.  1.
       -3    1    3    3    0  502 -0.11892663787E+04  0.70697363488E+03  0.13621515977E+04  0.19415517570E+04  0.10100000352E+00 0. -1.
</event>
<event>
 5   0  0.2913025E-07  0.3700417E+04  0.7818609E-02  0.8067869E-01
        2   -1    0    0  501    0  0.00000000000E+00  0.00000000000E+00  0.16084679597E+04  0.16084679597E+04  0.25500000920E-02 0.  1.
       -2   -1    0    0    0  501  0.00000000000E+00  0.00000000000E+00 -0.21282813746E+04  0.21282813747E+04  0.25500000920E-02 0. -1.
    10030    2    1    2    0    0  0.00000000000E+00  0.00000000000E+00 -0.51981341494E+03  0.37367493344E+04  0.37004174902E+04 0.  0.
        5    1    3    3  502    0 -0.11083762684E+04 -0.36049992071E+03  0.11911400687E+04  0.16665217966E+04  0.46999998093E+01 0.  1.
       -5    1    3    3    0  502  0.11083762684E+04  0.36049992071E+03 -0.17109534836E+04  0.20702275378E+04  0.46999998093E+01 0. -1.
</event>
<event>
 5   0  0.2996969E-07  0.3759865E+04  0.7818609E-02  0.8054823E-01
       -2   -1    0    0    0  501  0.00000000000E+00  0.00000000000E+00  0.17737259853E+04  0.17737259853E+04  0.25500000920E-02 0. -1.
        2   -1    0    0  501    0  0.00000000000E+00  0.00000000000E+00 -0.19924981912E+04  0.19924981912E+04  0.25500000920E-02 0.  1.
    10030    2    1    2    0    0  0.00000000000E+00  0.00000000000E+00 -0.21877220584E+03  0.37662241765E+04  0.37598647941E+04 0.  0.
        1    1    3    3  502    0 -0.14455409823E+04  0.90559264984E+02 -0.13098939453E+04  0.19528471164E+04  0.50400001928E-02 0.  1.
       -1    1    3    3    0  502  0.14455409823E+04 -0.90559264984E+02  0.10911217394E+04  0.18133770602E+04  0.50400001928E-02 0. -1.
</event>
<event>
 5   0  0.9341000E-08  0.3711945E+04  0.7818609E-02  0.8065320E-01
        1   -1    0    0  501    0  0.00000000000E+00  0.00000000000E+00  0.22428575442E+04  0.22428575442E+04  0.50400001928E-02 0. -1.
       -1   -1    0    0    0  501  0.00000000000E+00  0.00000000000E+00 -0.15358240878E+04  0.15358240878E+04  0.50400001928E-02 0.  1.
    10030    2    1    2    0    0  0.00000000000E+00  0.00000000000E+00  0.70703345640E+03  0.37786816320E+04  0.37119453886E+04 0.  0.
        4    1    3    3  502    0 -0.10303253375E+04 -0.15299157453E+04  0.56318215488E+03  0.19285715546E+04  0.12699999809E+01 0. -1.
       -4    1    3    3    0  502  0.10303253375E+04  0.15299157453E+04  0.14385130152E+03  0.18501100774E+04  0.12699999809E+01 0.  1.
</event>
<event>
 5   0  0.9418945E-08  0.3684142E+04  0.7818609E-02  0.8071485E-01
       -1   -1    0    0    0  501  0.00000000000E+00  0.00000000000E+00  0.16058089416E+04  0.16058089416E+04  0.50400001928E-02 0. -1.
        1   -1    0    0  501    0  0.00000000000E+00  0.00000000000E+00 -0.21130946853E+04  0.21130946853E+04  0.50400001928E-02 0.  1.
    10030    2    1    2    0    0  0.00000000000E+00  0.00000000000E+00 -0.50728574366E+03  0.37189036269E+04  0.36841424186E+04 0.  0.
        5    1    3    3  502    0 -0.50034769655E+03  0.26780697091E+03 -0.20226436666E+04  0.21007565026E+04  0.46999998093E+01 0.  1.
       -5    1    3    3    0  502  0.50034769655E+03 -0.26780697091E+03  0.15153579230E+04  0.16181471243E+04  0.46999998093E+01 0. -1.
</event>
<event>
 5   0  0.9341000E-08  0.3724391E+04  0.7818609E-02  0.8062578E-01
       -1   -1    0    0    0  501  0.00000000000E+00  0.00000000000E+00  0.18240916305E+04  0.18240916305E+04  0.50400001928E-02 0.  1.
        1   -1    0    0  501    0  0.00000000000E+00  0.00000000000E+00 -0.19010954924E+04  0.19010954924E+04  0.50400001928E-02 0. -1.
    10030    2    1    2    0    0  0.00000000000E+00  0.00000000000E+00 -0.77003861902E+02  0.37251871230E+04  0.37243911592E+04 0.  0.
        3    1    3    3  502    0 -0.50200907557E+03  0.53328941882E+03  0.16739859507E+04  0.18271944860E+04  0.10100000352E+00 0.  1.
       -3    1    3    3    0  502  0.50200907557E+03 -0.53328941882E+03 -0.17509898126E+04  0.18979926370E+04  0.10100000352E+00 0. -1.
</event>
<event>
 5   0  0.3008879E-07  0.3680492E+04  0.7818609E-02  0.8072299E-01
       -2   -1    0    0    0  501  0.00000000000E+00  0.00000000000E+00  0.19164744200E+04  0.19164744200E+04  0.25500000920E-02 0. -1.
        2   -1    0    0  501    0  0.00000000000E+00  0.00000000000E+00 -0.17670491225E+04  0.17670491225E+04  0.25500000920E-02 0.  1.
    10030    2    1    2    0    0  0.00000000000E+00  0.00000000000E+00  0.14942529754E+03  0.36835235424E+04  0.36804915118E+04 0.  0.
        2    1    3    3  502    0  0.92280120830E+02  0.10222910892E+04 -0.14539322049E+04  0.17797509793E+04  0.25500000920E-02 0.  1.
       -2    1    3    3    0  502 -0.92280120830E+02 -0.10222910892E+04  0.16033575025E+04  0.19037725632E+04  0.25500000920E-02 0. -1.
</event>
<event>
 5   0  0.9341000E-08  0.3696267E+04  0.7818609E-02  0.8068790E-01
        1   -1    0    0  501    0  0.00000000000E+00  0.00000000000E+00  0.21425608979E+04  0.21425608979E+04  0.50400001928E-02 0.  1.
       -1   -1    0    0    0  501  0.00000000000E+00  0.00000000000E+00 -0.15941660296E+04  0.15941660296E+04  0.50400001928E-02 0. -1.
    10030    2    1    2    0    0  0.00000000000E+00  0.00000000000E+00  0.54839486830E+03  0.37367269274E+04  0.36962671979E+04 0.  0.
        3    1    3    3  502    0 -0.15072100846E+04  0.66269257013E+03 -0.57448812293E+03  0.17438120011E+04  0.10100000352E+00 0. -1.
       -3    1    3    3    0  502  0.15072100846E+04 -0.66269257013E+03  0.11228829912E+04  0.19929149264E+04  0.10100000352E+00 0.  1.
</event>
<event>
 5   0  0.9646615E-08  0.3696670E+04  0.7818609E-02  0.8068700E-01
       -1   -1    0    0    0  501  0.00000000000E+00  0.00000000000E+00  0.12564966856E+04  0.12564966856E+04  0.50400001928E-02 0. -1.
        1   -1    0    0  501    0  0.00000000000E+00  0.00000000000E+00 -0.27189425848E+04  0.27189425849E+04  0.50400001928E-02 0.  1.
    10030    2    1    2    0    0  0.00000000000E+00  0.00000000000E+00 -0.14624458993E+04  0.39754392704E+04  0.36966700400E+04 0.  0.
        2    1    3    3  502    0 -0.73872103044E+03  0.16237356834E+04 -0.21087961224E+03  0.17963007936E+04  0.25500000920E-02 0.  1.
       -2    1    3    3    0  502  0.73872103044E+03 -0.16237356834E+04 -0.12515662871E+04  0.21791384768E+04  0.25500000920E-02 0. -1.
</event>
<event>
 5   0  0.9341000E-08  0.3681775E+04  0.7818609E-02  0.8072013E-01
        1   -1    0    0  501    0  0.00000000000E+00  0.00000000000E+00  0.25112063653E+04  0.25112063653E+04  0.50400001928E-02 0. -1.
       -1   -1    0    0    0  501  0.00000000000E+00  0.00000000000E+00 -0.13494973327E+04  0.13494973327E+04  0.50400001928E-02 0.  1.
    10030    2    1    2    0    0  0.00000000000E+00  0.00000000000E+00  0.11617090326E+04  0.38607036980E+04  0.36817747307E+04 0.  0.
        4    1    3    3  502    0  0.60940160403E+03  0.16569791089E+04  0.34058276080E+02  0.17658175617E+04  0.12699999809E+01 0.  1.
       -4    1    3    3    0  502 -0.60940160403E+03 -0.16569791089E+04  0.11276507565E+04  0.20948861363E+04  0.12699999809E+01 0. -1.
</event>
<event>
 5   0  0.2996969E-07  0.3667639E+04  0.7818609E-02  0.8075172E-01
       -2   -1    0    0    0  501  0.00000000000E+00  0.00000000000E+00  0.14240247192E+04  0.14240247192E+04  0.25500000920E-02 0.  1.
        2   -1    0    0  501    0  0.00000000000E+00  0.00000000000E+00 -0.23615414548E+04  0.23615414548E+04  0.25500000920E-02 0. -1.
    10030    2    1    2    0    0  0.00000000000E+00  0.00000000000E+00 -0.93751673556E+03  0.37855661740E+04  0.36676386992E+04 0.  0.
        1    1    3    3  502    0  0.11594524446E+04  0.13456509308E+04  0.17349836257E+01  0.17762627646E+04  0.50400001928E-02 0.  1.
       -1    1    3    3    0  502 -0.11594524446E+04 -0.13456509308E+04 -0.93925171918E+03  0.20093034094E+04  0.50400001928E-02 0. -1.
</event>
<event>
 5   0  0.3032442E-07  0.3711492E+04  0.7818609E-02  0.8065420E-01
        2   -1    0    0  501    0  0.00000000000E+00  0.00000000000E+00  0.30345886517E+04  0.30345886517E+04  0.25500000920E-02 0. -1.
       -2   -1    0    0    0  501  0.00000000000E+00  0.00000000000E+00 -0.11348465690E+04  0.11348465690E+04  0.25500000920E-02 0.  1.
    10030    2    1    2    0    0  0.00000000000E+00  0.00000000000E+00  0.18997420827E+04  0.41694352207E+04  0.37114916245E+04 0.  0.
        3    1    3    3  502    0  0.17020267175E+04 -0.70944512251E+03  0.11844009159E+04  0.21915777122E+04  0.10100000352E+00 0.  1.
       -3    1    3    3    0  502 -0.17020267175E+04  0.70944512251E+03  0.71534116682E+03  0.19778575085E+04  0.10100000352E+00 0. -1.
</event>
<event>
 5   0  0.9646615E-08  0.3675307E+04  0.7818609E-02  0.8073456E-01
       -1   -1    0    0    0  501  0.00000000000E+00  0.00000000000E+00  0.11647111937E+04  0.11647111937E+04  0.50400001928E-02 0.  1.
        1   -1    0    0  501    0  0.00000000000E+00  0.00000000000E+00 -0.28994063185E+04  0.28994063185E+04  0.50400001928E-02 0. -1.
    10030    2    1    2    0    0  0.00000000000E+00  0.00000000000E+00 -0.17346951248E+04  0.40641175123E+04  0.36753073310E+04 0.  0.
        2    1    3    3  502    0 -0.15171567875E+04 -0.38653820054E+03  0.19662368861E+03  0.15779218527E+04  0.25500000920E-02 0.  1.
       -2    1    3    3    0  502  0.15171567875E+04  0.38653820054E+03 -0.19313188134E+04  0.24861956595E+04  0.25500000920E-02 0. -1.
</event>
<event>
 5   0  0.9418945E-08  0.3720551E+04  0.7818609E-02  0.8063423E-01
       -1   -1    0    0    0  501  0.00000000000E+00  0.00000000000E+00  0.28991664177E+04  0.28991664177E+04  0.50400001928E-02 0.  1.
        1   -1    0    0  501    0  0.00000000000E+00  0.00000000000E+00 -0.11936620024E+04  0.11936620024E+04  0.50400001928E-02 0. -1.
    10030    2    1    2    0    0  0.00000000000E+00  0.00000000000E+00  0.17055044154E+04  0.40928284201E+04  0.37205509223E+04 0.  0.
        5    1    3    3  502    0  0.13689861078E+04  0.65652424658E+03 -0.32972540208E+03  0.15536691992E+04  0.46999998093E+01 0. -1.
       -5    1    3    3    0  502 -0.13689861078E+04 -0.65652424658E+03  0.20352298174E+04  0.25391592210E+04  0.46999998093E+01 0.  1.
</event>
<event>
 5   0  0.2913025E-07  0.3728412E+04  0.7818609E-02  0.8061694E-01
        2   -1    0    0  501    0  0.00000000000E+00  0.00000000000E+00  0.23994103631E+04  0.23994103631E+04  0.25500000920E-02 0.  1.
       -2   -1    0    0    0  501  0.00000000000E+00  0.00000000000E+00 -0.14483822400E+04  0.14483822400E+04  0.25500000920E-02 0. -1.
    10030    2    1    2    0    0  0.00000000000E+00  0.00000000000E+00  0.95102812305E+03  0.38477926031E+04  0.37284116492E+04 0.  0.
        5    1    3    3  502    0  0.29238489991E+03  0.88564278352E+03 -0.11902907156E+04  0.15121726579E+04  0.46999998093E+01 0. -1.
       -5    1    3    3    0  502 -0.29238489991E+03 -0.88564278352E+03  0.21413188387E+04  0.23356199452E+04  0.46999998093E+01 0.  1.
</event>
<event>
 5   0  0.2996969E-07  0.3687696E+04  0.7818609E-02  0.8070694E-01
        2   -1    0    0  501    0  0.00000000000E+00  0.00000000000E+00  0.20897006008E+04  0.20897006008E+04  0.25500000920E-02 0.  1.
       -2   -1    0    0    0  501  0.00000000000E+00  0.00000000000E+00 -0.16269194904E+04  0.16269194904E+04  0.25500000920E-02 0. -1.
    10030    2    1    2    0    0  0.00000000000E+00  0.00000000000E+00  0.46278111041E+03  0.37166200912E+04  0.36876955604E+04 0.  0.
        1    1    3    3  502    0 -0.45137509987E+03  0.13048052487E+04  0.14630720068E+04  0.20116749029E+04  0.50400001928E-02 0.  1.
       -1    1    3    3    0  502  0.45137509987E+03 -0.13048052487E+04 -0.10002908964E+04  0.17049451883E+04  0.50400001928E-02 0. -1.
</event>
<event>
 5   0  0.9341000E-08  0.3692258E+04  0.7818609E-02  0.8069680E-01
        1   -1    0    0  501    0  0.00000000000E+00  0.00000000000E+00  0.22276063363E+04  0.22276063363E+04  0.50400001928E-02 0. -1.
       -1   -1    0    0    0  501  0.00000000000E+00  0.00000000000E+00 -0.15299796537E+04  0.15299796537E+04  0.50400001928E-02 0.  1.
    10030    2    1    2    0    0  0.00000000000E+00  0.00000000000E+00  0.69762668262E+03  0.37575859900E+04  0.36922580468E+04 0.  0.
        4    1    3    3  502    0  0.81542167608E+02  0.11802617786E+04 -0.10934858827E+04  0.16110183052E+04  0.12699999809E+01 0.  1.
       -4    1    3    3    0  502 -0.81542167608E+02 -0.11802617786E+04  0.17911125653E+04  0.21465676848E+04  0.12699999809E+01 0. -1.
</event>
<event>
 5   0  0.2897133E-07  0.3705589E+04  0.7818609E-02  0.8066724E-01
       -2   -1    0    0    0  501  0.00000000000E+00  0.00000000000E+00  0.14988653654E+04  0.14988653654E+04  0.25500000920E-02 0. -1.
        2   -1    0    0  501    0  0.00000000000E+00  0.00000000000E+00 -0.22902972934E+04  0.22902972934E+04  0.25500000920E-02 0.  1.
    10030    2    1    2    0    0  0.00000000000E+00  0.00000000000E+00 -0.79143192795E+03  0.37891626588E+04  0.37055889084E+04 0.  0.
        4    1    3    3  502    0 -0.10181565881E+04 -0.14436193825E+04  0.17560314886E+03  0.17752514859E+04  0.12699999809E+01 0. -1.
       -4    1    3    3    0  502  0.10181565881E+04  0.14436193825E+04 -0.96703507681E+03  0.20139111729E+04  0.12699999809E+01 0.  1.
</event>
<event>
 5   0  0.3032442E-07  0.3687356E+04  0.7818609E-02  0.8070770E-01
        2   -1    0    0  501    0  0.00000000000E+00  0.00000000000E+00  0.24261721698E+04  0.24261721698E+04  0.25500000920E-02 0.  1.
       -2   -1    0    0    0  501  0.00000000000E+00  0.00000000000E+00 -0.14010335252E+04  0.14010335252E+04  0.25500000920E-02 0. -1.
    10030    2    1    2    0    0  0.00000000000E+00  0.00000000000E+00  0.10251386446E+04  0.38272056950E+04  0.36873559892E+04 0.  0.
        3    1    3    3  502    0 -0.14198150017E+04 -0.10136907368E+04  0.11315993476E+04  0.20794135333E+04  0.10100000352E+00 0.  1.
       -3    1    3    3    0  502  0.14198150017E+04  0.10136907368E+04 -0.10646070302E+03  0.17477921616E+04  0.10100000352E+00 0. -1.
</event>
<event>
 5   0  0.2913025E-07  0.3698798E+04  0.7818609E-02  0.8068228E-01
        2   -1    0    0  501    0  0.00000000000E+00  0.00000000000E+00  0.14464192787E+04  0.14464192787E+04  0.25500000920E-02 0. -1.
       -2   -1    0    0    0  501  0.00000000000E+00  0.00000000000E+00 -0.23646506509E+04  0.23646506509E+04  0.25500000920E-02 0.  1.
    10030    2    1    2    0    0  0.00000000000E+00  0.00000000000E+00 -0.91823137216E+03  0.38110699297E+04  0.36987977987E+04 0.  0.
        5    1    3    3  502    0  0.13877807300E+04 -0.12120144309E+04 -0.29509883693E+03  0.18660170816E+04  0.46999998093E+01 0. -1.
       -5    1    3    3    0  502 -0.13877807300E+04  0.12120144309E+04 -0.62313253523E+03  0.19450528481E+04  0.46999998093E+01 0.  1.
</event>
<event>
 5   0  0.2913025E-07  0.3705703E+04  0.7818609E-02  0.8066699E-01
       -2   -1    0    0    0  501  0.00000000000E+00  0.00000000000E+00  0.18085164226E+04  0.18085164226E+04  0.25500000920E-02 0.  1.
        2   -1    0    0  501    0  0.00000000000E+00  0.00000000000E+00 -0.18982738917E+04  0.18982738917E+04  0.25500000920E-02 0. -1.
    10030    2    1    2    0    0  0.00000000000E+00  0.00000000000E+00 -0.89757469101E+02  0.37067903143E+04  0.37057034462E+04 0.  0.
        5    1    3    3  502    0 -0.34246851615E+03 -0.15014067322E+04 -0.10754869698E+04  0.18783506521E+04  0.46999998093E+01 0. -1.
       -5    1    3    3    0  502  0.34246851615E+03  0.15014067322E+04  0.98572950066E+03  0.18284396622E+04  0.46999998093E+01 0.  1.
</event>
<event>
 5   0  0.2913025E-07  0.3698272E+04  0.7818609E-02  0.8068345E-01
       -2   -1    0    0    0  501  0.00000000000E+00  0.00000000000E+00  0.18631798989E+04  0.18631798989E+04  0.25500000920E-02 0.  1.
        2   -1    0    0  501    0  0.00000000000E+00  0.00000000000E+00 -0.18351980602E+04  0.18351980602E+04  0.25500000920E-02 0. -1.
    10030    2    1    2    0    0  0.00000000000E+00  0.00000000000E+00  0.27981838685E+02  0.36983779591E+04  0.36982721026E+04 0.  0.
        5    1    3    3  502    0 -0.10837676309E+04  0.28192185637E+03 -0.14575299911E+04  0.18380554877E+04  0.46999998093E+01 0. -1.
       -5    1    3    3    0  502  0.10837676309E+04 -0.28192185637E+03  0.14855118298E+04  0.18603224713E+04  0.46999998093E+01 0.  1.
</event>
<event>
 5   0  0.9418945E-08  0.3718476E+04  0.7818609E-02  0.8063880E-01
        1   -1    0    0  501    0  0.00000000000E+00  0.00000000000E+00  0.30002924920E+04  0.30002924920E+04  0.50400001928E-02 0.  1.
       -1   -1    0    0    0  501  0.00000000000E+00  0.00000000000E+00 -0.11521432168E+04  0.11521432169E+04  0.50400001928E-02 0. -1.
    10030    2    1    2    0    0  0.00000000000E+00  0.00000000000E+00  0.18481492751E+04  0.41524357088E+04  0.37184763779E+04 0.  0.
        5    1    3    3  502    0  0.45663263152E+03 -0.48069294348E+03  0.28637875453E+04  0.29395374229E+04  0.46999998093E+01 0.  1.
       -5    1    3    3    0  502 -0.45663263152E+03  0.48069294348E+03 -0.10156382702E+04  0.12128982859E+04  0.46999998093E+01 0. -1.
</event>
<event>
 5   0  0.2996969E-07  0.3683773E+04  0.7818609E-02  0.8071568E-01
        2   -1    0    0  501    0  0.00000000000E+00  0.00000000000E+00  0.18097615938E+04  0.18097615938E+04  0.25500000920E-02 0.  1.
       -2   -1    0    0    0  501  0.00000000000E+00  0.00000000000E+00 -0.18745812234E+04  0.18745812234E+04  0.25500000920E-02 0. -1.
    10030    2    1    2    0    0  0.00000000000E+00  0.00000000000E+00 -0.64819629656E+02  0.36843428172E+04  0.36837725785E+04 0.  0.
        1    1    3    3  502    0 -0.98326298331E+03  0.72944456513E+03 -0.14087222591E+04  0.18663852419E+04  0.50400001928E-02 0. -1.
       -1    1    3    3    0  502  0.98326298331E+03 -0.72944456513E+03  0.13439026295E+04  0.18179575753E+04  0.50400001928E-02 0.  1.
</event>
<event>
 5   0  0.9646615E-08  0.3720991E+04  0.7818609E-02  0.8063326E-01
        1   -1    0    0  501    0  0.00000000000E+00  0.00000000000E+00  0.13544520464E+04  0.13544520464E+04  0.50400001928E-02 0. -1.
       -1   -1    0    0    0  501  0.00000000000E+00  0.00000000000E+00 -0.25556045224E+04  0.25556045224E+04  0.50400001928E-02 0.  1.
    10030    2    1    2    0    0  0.00000000000E+00  0.00000000000E+00 -0.12011524760E+04  0.39100565688E+04  0.37209911449E+04 0.  0.
        2    1    3    3  502    0 -0.15571601137E+04  0.62375065379E+03 -0.14462216783E+04  0.22148069082E+04  0.25500000920E-02 0. -1.
       -2    1    3    3    0  502  0.15571601137E+04 -0.62375065379E+03  0.24506920233E+03  0.16952496606E+04  0.25500000920E-02 0.  1.
</event>
<event>
 5   0  0.9341000E-08  0.3683517E+04  0.7818609E-02  0.8071624E-01
        1   -1    0    0  501    0  0.00000000000E+00  0.00000000000E+00  0.27125515660E+04  0.27125515661E+04  0.50400001928E-02 0.  1.
       -1   -1    0    0    0  501  0.00000000000E+00  0.00000000000E+00 -0.12505108662E+04  0.12505108662E+04  0.50400001928E-02 0. -1.
    10030    2    1    2    0    0  0.00000000000E+00  0.00000000000E+00  0.14620406999E+04  0.39630624322E+04  0.36835174540E+04 0.  0.
        4    1    3    3  502    0 -0.13716441796E+04 -0.86650359171E+02 -0.58805751935E+03  0.14949011001E+04  0.12699999809E+01 0. -1.
       -4    1    3    3    0  502  0.13716441796E+04  0.86650359171E+02  0.20500982192E+04  0.24681613321E+04  0.12699999809E+01 0.  1.
</event>
<event>
 5   0  0.9341000E-08  0.3697597E+04  0.7818609E-02  0.8068495E-01
        1   -1    0    0  501    0  0.00000000000E+00  0.00000000000E+00  0.16968700625E+04  0.16968700625E+04  0.50400001928E-02 0. -1.
       -1   -1    0    0    0  501  0.00000000000E+00  0.00000000000E+00 -0.20143295185E+04  0.20143295185E+04  0.50400001928E-02 0.  1.
    10030    2    1    2    0    0  0.00000000000E+00  0.00000000000E+00 -0.31745945600E+03  0.37111995809E+04  0.36975967632E+04 0.  0.
        3    1    3    3  502    0  0.81103761065E+03 -0.33531846999E+03  0.14744734592E+04  0.17158940743E+04  0.10100000352E+00 0. -1.
       -3    1    3    3    0  502 -0.81103761065E+03  0.33531846999E+03 -0.17919329152E+04  0.19953055066E+04  0.10100000352E+00 0.  1.
</event>
<event>
 5   0  0.2996969E-07  0.3694910E+04  0.7818609E-02  0.8069091E-01
       -2   -1    0    0    0  501  0.00000000000E+00  0.00000000000E+00  0.19587146602E+04  0.19587146602E+04  0.25500000920E-02 0.  1.
        2   -1    0    0  501    0  0.00000000000E+00  0.00000000000E+00 -0.17425147251E+04  0.17425147251E+04  0.25500000920E-02 0. -1.
    10030    2    1    2    0    0  0.00000000000E+00  0.00000000000E+00  0.21619993511E+03  0.37012293852E+04  0.36949095456E+04 0.  0.
        1    1    3    3  502    0  0.69297068549E+03 -0.12494334803E+04 -0.10651406086E+04  0.17820821835E+04  0.50400001928E-02 0. -1.
       -1    1    3    3    0  502 -0.69297068549E+03  0.12494334803E+04  0.12813405438E+04  0.19191472017E+04  0.50400001928E-02 0.  1.
</event>
<event>
 5   0  0.9341000E-08  0.3871836E+04  0.7818609E-02  0.8030912E-01
       -1   -1    0    0    0  501  0.00000000000E+00  0.00000000000E+00  0.33942508019E+04  0.33942508019E+04  0.50400001928E-02 0.  1.
        1   -1    0    0  501    0  0.00000000000E+00  0.00000000000E+00 -0.11041547166E+04  0.11041547166E+04  0.50400001928E-02 0. -1.
    10030    2    1    2    0    0  0.00000000000E+00  0.00000000000E+00  0.22900960854E+04  0.44984055185E+04  0.38718357569E+04 0.  0.
        4    1    3    3  502    0 -0.10053757162E+03 -0.18878600692E+04  0.66089485990E+03  0.20027249119E+04  0.12699999809E+01 0. -1.
       -4    1    3    3    0  502  0.10053757162E+03  0.18878600692E+04  0.16292012255E+04  0.24956806066E+04  0.12699999809E+01 0.  1.
</event>
<event>
 5   0  0.9341000E-08  0.3689483E+04  0.7818609E-02  0.8070297E-01
       -1   -1    0    0    0  501  0.00000000000E+00  0.00000000000E+00  0.20718928799E+04  0.20718928799E+04  0.50400001928E-02 0.  1.
        1   -1    0    0  501    0  0.00000000000E+00  0.00000000000E+00 -0.16424936796E+04  0.16424936796E+04  0.50400001928E-02 0. -1.
    10030    2    1    2    0    0  0.00000000000E+00  0.00000000000E+00  0.42939920028E+03  0.37143865595E+04  0.36894828689E+04 0.  0.
        4    1    3    3  502    0  0.52577170269E+03 -0.33500809698E+03  0.19626224528E+04  0.20592607445E+04  0.12699999809E+01 0.  1.
       -4    1    3    3    0  502 -0.52577170269E+03  0.33500809698E+03 -0.15332232526E+04  0.16551258150E+04  0.12699999809E+01 0. -1.
</event>
<event>
 5   0  0.9418945E-08  0.3690199E+04  0.7818609E-02  0.8070137E-01
       -1   -1    0    0    0  501  0.00000000000E+00  0.00000000000E+00  0.15804237754E+04  0.15804237754E+04  0.50400001928E-02 0.  1.
        1   -1    0    0  501    0  0.00000000000E+00  0.00000000000E+00 -0.21541005519E+04  0.21541005519E+04  0.50400001928E-02 0. -1.
    10030    2    1    2    0    0  0.00000000000E+00  0.00000000000E+00 -0.57367677655E+03  0.37345243273E+04  0.36901987625E+04 0.  0.
        5    1    3    3  502    0  0.31403542734E+03  0.34408049161E+03 -0.20936009929E+04  0.21448069474E+04  0.46999998093E+01 0. -1.
       -5    1    3    3    0  502 -0.31403542734E+03 -0.34408049161E+03  0.15199242163E+04  0.15897173798E+04  0.46999998093E+01 0.  1.
</event>
<event>
 5   0  0.3008879E-07  0.3701377E+04  0.7818609E-02  0.8067657E-01
       -2   -1    0    0    0  501  0.00000000000E+00  0.00000000000E+00  0.16397656339E+04  0.16397656339E+04  0.25500000920E-02 0. -1.
        2   -1    0    0  501    0  0.00000000000E+00  0.00000000000E+00 -0.20887424420E+04  0.20887424420E+04  0.25500000920E-02 0.  1.
    10030    2    1    2    0    0  0.00000000000E+00  0.00000000000E+00 -0.44897680805E+03  0.37285080759E+04  0.37013770813E+04 0.  0.
        2    1    3    3  502    0 -0.53916750017E+03  0.17704085531E+04 -0.22468023556E+03  0.18642771378E+04  0.25500000920E-02 0. -1.
       -2    1    3    3    0  502  0.53916750017E+03 -0.17704085531E+04 -0.22429657249E+03  0.18642309381E+04  0.25500000920E-02 0.  1.
</event>
<event>
 5   0  0.2897133E-07  0.3745336E+04  0.7818609E-02  0.8057988E-01
       -2   -1    0    0    0  501  0.00000000000E+00  0.00000000000E+00  0.20741460510E+04  0.20741460510E+04  0.25500000920E-02 0. -1.
        2   -1    0    0  501    0  0.00000000000E+00  0.00000000000E+00 -0.16907608867E+04  0.16907608867E+04  0.25500000920E-02 0.  1.
    10030    2    1    2    0    0  0.00000000000E+00  0.00000000000E+00  0.38338516423E+03  0.37649069377E+04  0.37453357747E+04 0.  0.
        4    1    3    3  502    0  0.60465796602E+03 -0.16791012385E+04 -0.37862665945E+03  0.18243771499E+04  0.12699999809E+01 0.  1.
       -4    1    3    3    0  502 -0.60465796602E+03  0.16791012385E+04  0.76201182368E+03  0.19405297878E+04  0.12699999809E+01 0. -1.
</event>
<event>
 5   0  0.2913025E-07  0.3693033E+04  0.7818609E-02  0.8069508E-01
       -2   -1    0    0    0  501  0.00000000000E+00  0.00000000000E+00  0.16109675997E+04  0.16109675997E+04  0.25500000920E-02 0.  1.
        2   -1    0    0  501    0  0.00000000000E+00  0.00000000000E+00 -0.21165059663E+04  0.21165059663E+04  0.25500000920E-02 0. -1.
    10030    2    1    2    0    0  0.00000000000E+00  0.00000000000E+00 -0.50553836655E+03  0.37274735660E+04  0.36930326488E+04 0.  0.
        5    1    3    3  502    0 -0.74995886807E+03 -0.15869497299E+04  0.32594761334E+03  0.17852483541E+04  0.46999998093E+01 0.  1.
       -5    1    3    3    0  502  0.74995886807E+03  0.15869497299E+04 -0.83148597989E+03  0.19422252119E+04  0.46999998093E+01 0. -1.
</event>
<event>
 5   0  0.3032442E-07  0.3691596E+04  0.7818609E-02  0.8069827E-01
        2   -1    0    0  501    0  0.00000000000E+00  0.00000000000E+00  0.17239850955E+04  0.17239850955E+04  0.25500000920E-02 0.  1.
       -2   -1    0    0    0  501  0.00000000000E+00  0.00000000000E+00 -0.19762183500E+04  0.19762183500E+04  0.25500000920E-02 0. -1.
    10030    2    1    2    0    0  0.00000000000E+00  0.00000000000E+00 -0.25223325454E+03  0.37002034456E+04  0.36915963923E+04 0.  0.
        3    1    3    3  502    0 -0.82251146559E+03 -0.15450452947E+04  0.46115119903E+03  0.18100692010E+04  0.10100000352E+00 0.  1.
       -3    1    3    3    0  502  0.82251146559E+03  0.15450452947E+04 -0.71338445357E+03  0.18901342446E+04  0.10100000352E+00 0. -1.
</event>
<event>
 5   0  0.2913025E-07  0.3709355E+04  0.7818609E-02  0.8065892E-01
       -2   -1    0    0    0  501  0.00000000000E+00  0.00000000000E+00  0.12714983845E+04  0.12714983845E+04  0.25500000920E-02 0. -1.
        2   -1    0    0  501    0  0.00000000000E+00  0.00000000000E+00 -0.27053345082E+04  0.27053345082E+04  0.25500000920E-02 0.  1.
    10030    2    1    2    0    0  0.00000000000E+00  0.00000000000E+00 -0.14338361237E+04  0.39768328927E+04  0.37093549071E+04 0.  0.
        5    1    3    3  502    0  0.12821661641E+04 -0.12609125532E+04 -0.23036972011E+03  0.18129927846E+04  0.46999998093E+01 0. -1.
       -5    1    3    3    0  502 -0.12821661641E+04  0.12609125532E+04 -0.12034664035E+04  0.21638401081E+04  0.46999998093E+01 0.  1.
</event>
<event>
 5   0  0.3008879E-07  0.3744047E+04  0.7818609E-02  0.8058270E-01
       -2   -1    0    0    0  501  0.00000000000E+00  0.00000000000E+00  0.13013585183E+04  0.13013585183E+04  0.25500000920E-02 0. -1.
        2   -1    0    0  501    0  0.00000000000E+00  0.00000000000E+00 -0.26929341366E+04  0.26929341366E+04  0.25500000920E-02 0.  1.
    10030    2    1    2    0    0  0.00000000000E+00  0.00000000000E+00 -0.13915756183E+04  0.39942926549E+04  0.37440474238E+04 0.  0.
        2    1    3    3  502    0 -0.17499258204E+04 -0.22406760238E+03 -0.13637563938E+04  0.22298605716E+04  0.25500000920E-02 0. -1.
       -2    1    3    3    0  502  0.17499258204E+04  0.22406760238E+03 -0.27819224505E+02  0.17644320833E+04  0.25500000920E-02 0.  1.
</event>
<event>
 5   0  0.9341000E-08  0.3682028E+04  0.7818609E-02  0.8071956E-01
        1   -1    0    0  501    0  0.00000000000E+00  0.00000000000E+00  0.24462151504E+04  0.24462151504E+04  0.50400001928E-02 0.  1.
       -1   -1    0    0    0  501  0.00000000000E+00  0.00000000000E+00 -0.13855411740E+04  0.13855411740E+04  0.50400001928E-02 0. -1.
    10030    2    1    2    0    0  0.00000000000E+00  0.00000000000E+00  0.10606739764E+04  0.38317563244E+04  0.36820275998E+04 0.  0.
        1    1    3    3  502    0  0.53320941038E+03 -0.57862674636E+03  0.22624141629E+04  0.23953369348E+04  0.50400001928E-02 0.  1.
       -1    1    3    3    0  502 -0.53320941038E+03  0.57862674636E+03 -0.12017401865E+04  0.14364193896E+04  0.50400001928E-02 0. -1.
</event>
<event>
 5   0  0.9341000E-08  0.3694507E+04  0.7818609E-02  0.8069180E-01
       -1   -1    0    0    0  501  0.00000000000E+00  0.00000000000E+00  0.13812820056E+04  0.13812820057E+04  0.50400001928E-02 0. -1.
        1   -1    0    0  501    0  0.00000000000E+00  0.00000000000E+00 -0.24704186522E+04  0.24704186522E+04  0.50400001928E-02 0.  1.
    10030    2    1    2    0    0  0.00000000000E+00  0.00000000000E+00 -0.10891366466E+04  0.38517006579E+04  0.36945066413E+04 0.  0.
        4    1    3    3  502    0 -0.10881285403E+04 -0.11621560646E+04  0.43215663847E+03  0.16496640300E+04  0.12699999809E+01 0. -1.
       -4    1    3    3    0  502  0.10881285403E+04  0.11621560646E+04 -0.15212932850E+04  0.22020366279E+04  0.12699999809E+01 0.  1.
</event>
<event>
 5   0  0.2897133E-07  0.3735426E+04  0.7818609E-02  0.8060156E-01
       -2   -1    0    0    0  501  0.00000000000E+00  0.00000000000E+00  0.11916629301E+04  0.11916629301E+04  0.25500000920E-02 0. -1.
        2   -1    0    0  501    0  0.00000000000E+00  0.00000000000E+00 -0.29272977394E+04  0.29272977394E+04  0.25500000920E-02 0.  1.
    10030    2    1    2    0    0  0.00000000000E+00  0.00000000000E+00 -0.17356348093E+04  0.41189606695E+04  0.37354261880E+04 0.  0.
        4    1    3    3  502    0 -0.40104931448E+03 -0.17565234049E+04 -0.32522116885E+03  0.18308428240E+04  0.12699999809E+01 0. -1.
       -4    1    3    3    0  502  0.40104931448E+03  0.17565234049E+04 -0.14104136404E+04  0.22881178455E+04  0.12699999809E+01 0.  1.
</event>
<event>
 5   0  0.2897133E-07  0.3703811E+04  0.7818609E-02  0.8067118E-01
       -2   -1    0    0    0  501  0.00000000000E+00  0.00000000000E+00  0.16394488032E+04  0.16394488032E+04  0.25500000920E-02 0.  1.
        2   -1    0    0  501    0  0.00000000000E+00  0.00000000000E+00 -0.20918942486E+04  0.20918942486E+04  0.25500000920E-02 0. -1.
    10030    2    1    2    0    0  0.00000000000E+00  0.00000000000E+00 -0.45244544538E+03  0.37313430518E+04  0.37038107523E+04 0.  0.
        4    1    3    3  502    0 -0.75797402256E+03  0.12406905440E+04 -0.13817951812E+04  0.20057909114E+04  0.12699999809E+01 0. -1.
       -4    1    3    3    0  502  0.75797402256E+03 -0.12406905440E+04  0.92934973578E+03  0.17255521403E+04  0.12699999809E+01 0.  1.
</event>
<event>
 5   0  0.9646615E-08  0.3696306E+04  0.7818609E-02  0.8068781E-01
        1   -1    0    0  501    0  0.00000000000E+00  0.00000000000E+00  0.18585074728E+04  0.18585074728E+04  0.50400001928E-02 0. -1.
       -1   -1    0    0    0  501  0.00000000000E+00  0.00000000000E+00 -0.18378565545E+04  0.18378565545E+04  0.50400001928E-02 0.  1.
    10030    2    1    2    0    0  0.00000000000E+00  0.00000000000E+00  0.20650918274E+02  0.36963640273E+04  0.36963063404E+04 0.  0.
        2    1    3    3  502    0 -0.56800333696E+03 -0.17394492532E+04  0.26986495089E+03  0.18496320139E+04  0.25500000920E-02 0.  1.
       -2    1    3    3    0  502  0.56800333696E+03  0.17394492532E+04 -0.24921403262E+03  0.18467320134E+04  0.25500000920E-02 0. -1.
</event>
<event>
 5   0  0.9646615E-08  0.3700045E+04  0.7818609E-02  0.8067952E-01
       -1   -1    0    0    0  501  0.00000000000E+00  0.00000000000E+00  0.20460798022E+04  0.20460798022E+04  0.50400001928E-02 0.  1.
        1   -1    0    0  501    0  0.00000000000E+00  0.00000000000E+00 -0.16727513046E+04  0.16727513046E+04  0.50400001928E-02 0. -1.
    10030    2    1    2    0    0  0.00000000000E+00  0.00000000000E+00  0.37332849756E+03  0.37188311068E+04  0.37000446800E+04 0.  0.
        2    1    3    3  502    0 -0.11178743997E+04 -0.10737046371E+04  0.12017912974E+04  0.19613228046E+04  0.25500000920E-02 0.  1.
       -2    1    3    3    0  502  0.11178743997E+04  0.10737046371E+04 -0.82846279987E+03  0.17575083022E+04  0.25500000920E-02 0. -1.
</event>
<event>
 5   0  0.3008879E-07  0.3679062E+04  0.7818609E-02  0.8072618E-01
        2   -1    0    0  501    0  0.00000000000E+00  0.00000000000E+00  0.21200769683E+04  0.21200769683E+04  0.25500000920E-02 0.  1.
       -2   -1    0    0    0  501  0.00000000000E+00  0.00000000000E+00 -0.15961092449E+04  0.15961092449E+04  0.25500000920E-02 0. -1.
    10030    2    1    2    0    0  0.00000000000E+00  0.00000000000E+00  0.52396772338E+03  0.37161862132E+04  0.36790620811E+04 0.  0.
        2    1    3    3  502    0 -0.17382645164E+04 -0.54823560166E+03  0.10983661265E+02  0.18227030599E+04  0.25500000920E-02 0.  1.
       -2    1    3    3    0  502  0.17382645164E+04  0.54823560166E+03  0.51298406211E+03  0.18934831533E+04  0.25500000920E-02 0. -1.
</event>
<event>
 5   0  0.3032442E-07  0.3640361E+04  0.7818609E-02  0.8081309E-01
        2   -1    0    0  501    0  0.00000000000E+00  0.00000000000E+00  0.26550054043E+04  0.26550054043E+04  0.25500000920E-02 0.  1.
       -2   -1    0    0    0  501  0.00000000000E+00  0.00000000000E+00 -0.12478530681E+04  0.12478530681E+04  0.25500000920E-02 0. -1.
    10030    2    1    2    0    0  0.00000000000E+00  0.00000000000E+00  0.14071523361E+04  0.39028584724E+04  0.36403607731E+04 0.  0.
        3    1    3    3  502    0 -0.40209891198E+03 -0.85346974312E+03 -0.96525238814E+03  0.13497430572E+04  0.10100000352E+00 0. -1.
       -3    1    3    3    0  502  0.40209891198E+03  0.85346974312E+03  0.23724047243E+04  0.25531154152E+04  0.10100000352E+00 0.  1.
</event>
<event>
 5   0  0.3008879E-07  0.3725551E+04  0.7818609E-02  0.8062323E-01
       -2   -1    0    0    0  501  0.00000000000E+00  0.00000000000E+00  0.19468584044E+04  0.19468584044E+04  0.25500000920E-02 0.  1.
        2   -1    0    0  501    0  0.00000000000E+00  0.00000000000E+00 -0.17823240772E+04  0.17823240772E+04  0.25500000920E-02 0. -1.
    10030    2    1    2    0    0  0.00000000000E+00  0.00000000000E+00  0.16453432717E+03  0.37291824817E+04  0.37255510246E+04 0.  0.
        2    1    3    3  502    0 -0.30365118337E+03 -0.14629541439E+04 -0.10312441272E+04  0.18154622878E+04  0.25500000920E-02 0. -1.
       -2    1    3    3    0  502  0.30365118337E+03  0.14629541439E+04  0.11957784544E+04  0.19137201939E+04  0.25500000920E-02 0.  1.
</event>
<event>
 5   0  0.2996969E-07  0.3725804E+04  0.7818609E-02  0.8062267E-01
       -2   -1    0    0    0  501  0.00000000000E+00  0.00000000000E+00  0.16093615057E+04  0.16093615057E+04  0.25500000920E-02 0. -1.
        2   -1    0    0  501    0  0.00000000000E+00  0.00000000000E+00 -0.21563860772E+04  0.21563860772E+04  0.25500000920E-02 0.  1.
    10030    2    1    2    0    0  0.00000000000E+00  0.00000000000E+00 -0.54702457149E+03  0.37657475830E+04  0.37258044738E+04 0.  0.
        1    1    3    3  502    0  0.14757743242E+04 -0.95086054483E+03 -0.90337789449E+03  0.19743700899E+04  0.50400001928E-02 0.  1.
       -1    1    3    3    0  502 -0.14757743242E+04  0.95086054483E+03  0.35635332300E+03  0.17913774930E+04  0.50400001928E-02 0. -1.
</event>
<event>
 5   0  0.9418945E-08  0.3682931E+04  0.7818609E-02  0.8071755E-01
        1   -1    0    0  501    0  0.00000000000E+00  0.00000000000E+00  0.21598905332E+04  0.21598905332E+04  0.50400001928E-02 0. -1.
       -1   -1    0    0    0  501  0.00000000000E+00  0.00000000000E+00 -0.15699843837E+04  0.15699843837E+04  0.50400001928E-02 0.  1.
    10030    2    1    2    0    0  0.00000000000E+00  0.00000000000E+00  0.58990614947E+03  0.37298749169E+04  0.36829305764E+04 0.  0.
        5    1    3    3  502    0  0.14578198775E+03  0.17457026424E+04  0.86985260212E+03  0.19558618927E+04  0.46999998093E+01 0. -1.
       -5    1    3    3    0  502 -0.14578198775E+03 -0.17457026424E+04 -0.27994645265E+03  0.17740130242E+04  0.46999998093E+01 0.  1.
</event>
<event>
 5   0  0.2913025E-07  0.3621407E+04  0.7818609E-02  0.8085606E-01
        2   -1    0    0  501    0  0.00000000000E+00  0.00000000000E+00  0.25999536767E+04  0.25999536767E+04  0.25500000920E-02 0. -1.
       -2   -1    0    0    0  501  0.00000000000E+00  0.00000000000E+00 -0.12610403500E+04  0.12610403500E+04  0.25500000920E-02 0.  1.
    10030    2    1    2    0    0  0.00000000000E+00  0.00000000000E+00  0.13389133267E+04  0.38609940267E+04  0.36214066297E+04 0.  0.
        5    1    3    3  502    0 -0.17533433479E+04  0.45041122325E+03  0.62760075415E+03  0.19159822448E+04  0.46999998093E+01 0.  1.
       -5    1    3    3    0  502  0.17533433479E+04 -0.45041122325E+03  0.71131257260E+03  0.19450117819E+04  0.46999998093E+01 0. -1.
</event>
<event>
 5   0  0.2897133E-07  0.3786671E+04  0.7818609E-02  0.8049021E-01
       -2   -1    0    0    0  501  0.00000000000E+00  0.00000000000E+00  0.19003952723E+04  0.19003952723E+04  0.25500000920E-02 0.  1.
        2   -1    0    0  501    0  0.00000000000E+00  0.00000000000E+00 -0.18863019650E+04  0.18863019650E+04  0.25500000920E-02 0. -1.
    10030    2    1    2    0    0  0.00000000000E+00  0.00000000000E+00  0.14093307261E+02  0.37866972373E+04  0.37866710110E+04 0.  0.
        4    1    3    3  502    0  0.33509422474E+03  0.30227851032E+01  0.18705027295E+04  0.19002840184E+04  0.12699999809E+01 0.  1.
       -4    1    3    3    0  502 -0.33509422474E+03 -0.30227851032E+01 -0.18564094222E+04  0.18864132189E+04  0.12699999809E+01 0. -1.
</event>
<event>
 5   0  0.3008879E-07  0.3701361E+04  0.7818609E-02  0.8067660E-01
        2   -1    0    0  501    0  0.00000000000E+00  0.00000000000E+00  0.19776867048E+04  0.19776867048E+04  0.25500000920E-02 0.  1.
       -2   -1    0    0    0  501  0.00000000000E+00  0.00000000000E+00 -0.17318309038E+04  0.17318309038E+04  0.25500000920E-02 0. -1.
    10030    2    1    2    0    0  0.00000000000E+00  0.00000000000E+00  0.24585580098E+03  0.37095176086E+04  0.37013613460E+04 0.  0.
        2    1    3    3  502    0  0.12543894483E+04 -0.21181873332E+03 -0.12241540991E+04  0.17654782134E+04  0.25500000920E-02 0. -1.
       -2    1    3    3    0  502 -0.12543894483E+04  0.21181873332E+03  0.14700099000E+04  0.19440393952E+04  0.25500000920E-02 0.  1.
</event>
<event>
 5   0  0.9418945E-08  0.3705789E+04  0.7818609E-02  0.8066680E-01
       -1   -1    0    0    0  501  0.00000000000E+00  0.00000000000E+00  0.13802494981E+04  0.13802494981E+04  0.50400001928E-02 0.  1.
        1   -1    0    0  501    0  0.00000000000E+00  0.00000000000E+00 -0.24873894668E+04  0.24873894668E+04  0.50400001928E-02 0. -1.
    10030    2    1    2    0    0  0.00000000000E+00  0.00000000000E+00 -0.11071399687E+04  0.38676389649E+04  0.37057890189E+04 0.  0.
        5    1    3    3  502    0  0.11042628836E+04 -0.94814429537E+03  0.64316694695E+03  0.15912447745E+04  0.46999998093E+01 0.  1.
       -5    1    3    3    0  502 -0.11042628836E+04  0.94814429537E+03 -0.17503069156E+04  0.22763941903E+04  0.46999998093E+01 0. -1.
</event>
<event>
 5   0  0.9418945E-08  0.3731816E+04  0.7818609E-02  0.8060947E-01
        1   -1    0    0  501    0  0.00000000000E+00  0.00000000000E+00  0.14418093188E+04  0.14418093188E+04  0.50400001928E-02 0.  1.
       -1   -1    0    0    0  501  0.00000000000E+00  0.00000000000E+00 -0.24147527650E+04  0.24147527650E+04  0.50400001928E-02 0. -1.
    10030    2    1    2    0    0  0.00000000000E+00  0.00000000000E+00 -0.97294344624E+03  0.38565620838E+04  0.37318162008E+04 0.  0.
        5    1    3    3  502    0  0.72735046185E+03 -0.15050400297E+04  0.37034312098E+03  0.17121215794E+04  0.46999998093E+01 0.  1.
       -5    1    3    3    0  502 -0.72735046185E+03  0.15050400297E+04 -0.13432865672E+04  0.21444405044E+04  0.46999998093E+01 0. -1.
</event>
<event>
 5   0  0.2996969E-07  0.3699775E+04  0.7818609E-02  0.8068012E-01
       -2   -1    0    0    0  501  0.00000000000E+00  0.00000000000E+00  0.13816452032E+04  0.13816452032E+04  0.25500000920E-02 0.  1.
        2   -1    0    0  501    0  0.00000000000E+00  0.00000000000E+00 -0.24768178399E+04  0.24768178399E+04  0.25500000920E-02 0. -1.
    10030    2    1    2    0    0  0.00000000000E+00  0.00000000000E+00 -0.10951726367E+04  0.38584630430E+04  0.36997748513E+04 0.  0.
        1    1    3    3  502    0  0.40826244709E+03 -0.97865923169E+03  0.10332220450E+04  0.14805404121E+04  0.50400001928E-02 0.  1.
       -1    1    3    3    0  502 -0.40826244709E+03  0.97865923169E+03 -0.21283946817E+04  0.23779226309E+04  0.50400001928E-02 0. -1.
</event>
<event>
 5   0  0.2913025E-07  0.3699800E+04  0.7818609E-02  0.8068006E-01
       -2   -1    0    0    0  501  0.00000000000E+00  0.00000000000E+00  0.30219972760E+04  0.30219972761E+04  0.25500000920E-02 0.  1.
        2   -1    0    0  501    0  0.00000000000E+00  0.00000000000E+00 -0.11324068799E+04  0.11324068799E+04  0.25500000920E-02 0. -1.
    10030    2    1    2    0    0  0.00000000000E+00  0.00000000000E+00  0.18895903962E+04  0.41544041559E+04  0.36998002683E+04 0.  0.
        5    1    3    3  502    0 -0.97617148386E+03  0.92956990573E+03  0.23673898302E+04  0.27242554347E+04  0.46999998093E+01 0.  1.
       -5    1    3    3    0  502  0.97617148386E+03 -0.92956990573E+03 -0.47779943401E+03  0.14301487212E+04  0.46999998093E+01 0. -1.
</event>
<event>
 5   0  0.2913025E-07  0.3710401E+04  0.7818609E-02  0.8065661E-01
        2   -1    0    0  501    0  0.00000000000E+00  0.00000000000E+00  0.29577311016E+04  0.29577311016E+04  0.25500000920E-02 0. -1.
       -2   -1    0    0    0  501  0.00000000000E+00  0.00000000000E+00 -0.11636514843E+04  0.11636514843E+04  0.25500000920E-02 0.  1.
    10030    2    1    2    0    0  0.00000000000E+00  0.00000000000E+00  0.17940796173E+04  0.41213825858E+04  0.37104006179E+04 0.  0.
        5    1    3    3  502    0 -0.86709409996E+03 -0.13492562901E+04 -0.13865617286E+03  0.16098423335E+04  0.46999998093E+01 0.  1.
       -5    1    3    3    0  502  0.86709409996E+03  0.13492562901E+04  0.19327357901E+04  0.25115402523E+04  0.46999998093E+01 0. -1.
</event>
<event>
 5   0  0.9341000E-08  0.3708332E+04  0.7818609E-02  0.8066118E-01
       -1   -1    0    0    0  501  0.00000000000E+00  0.00000000000E+00  0.14829370915E+04  0.14829370915E+04  0.50400001928E-02 0. -1.
        1   -1    0    0  501    0  0.00000000000E+00  0.00000000000E+00 -0.23183262590E+04  0.23183262590E+04  0.50400001928E-02 0.  1.
    10030    2    1    2    0    0  0.00000000000E+00  0.00000000000E+00 -0.83538916751E+03  0.38012633505E+04  0.37083322395E+04 0.  0.
        4    1    3    3  502    0  0.13787633390E+04  0.10550876987E+04 -0.10849543635E+04  0.20472728155E+04  0.12699999809E+01 0.  1.
       -4    1    3    3    0  502 -0.13787633390E+04 -0.10550876987E+04  0.24956519603E+03  0.17539905350E+04  0.12699999809E+01 0. -1.
</event>
<event>
 5   0  0.9341000E-08  0.3629331E+04  0.7818609E-02  0.8083806E-01
       -1   -1    0    0    0  501  0.00000000000E+00  0.00000000000E+00  0.15174187150E+04  0.15174187151E+04  0.50400001928E-02 0. -1.
        1   -1    0    0  501    0  0.00000000000E+00  0.00000000000E+00 -0.21701394114E+04  0.21701394114E+04  0.50400001928E-02 0.  1.
    10030    2    1    2    0    0  0.00000000000E+00  0.00000000000E+00 -0.65272069637E+03  0.36875581265E+04  0.36293306034E+04 0.  0.
        4    1    3    3  502    0 -0.15038263613E+04  0.63057176569E+01  0.70554938588E+03  0.16611246298E+04  0.12699999809E+01 0. -1.
       -4    1    3    3    0  502  0.15038263613E+04 -0.63057176569E+01 -0.13582700822E+04  0.20264334966E+04  0.12699999809E+01 0.  1.
</event>
<event>
 5   0  0.9646615E-08  0.3681258E+04  0.7818609E-02  0.8072128E-01
       -1   -1    0    0    0  501  0.00000000000E+00  0.00000000000E+00  0.20600090790E+04  0.20600090790E+04  0.50400001928E-02 0.  1.
        1   -1    0    0  501    0  0.00000000000E+00  0.00000000000E+00 -0.16446119211E+04  0.16446119211E+04  0.50400001928E-02 0. -1.
    10030    2    1    2    0    0  0.00000000000E+00  0.00000000000E+00  0.41539715793E+03  0.37046210001E+04  0.36812582027E+04 0.  0.
        2    1    3    3  502    0  0.11150025694E+04 -0.14496111321E+04  0.41713550365E+03  0.18757945496E+04  0.25500000920E-02 0.  1.
       -2    1    3    3    0  502 -0.11150025694E+04  0.14496111321E+04 -0.17383457229E+01  0.18288264504E+04  0.25500000920E-02 0. -1.
</event>
<event>
 5   0  0.2996969E-07  0.3692126E+04  0.7818609E-02  0.8069709E-01
        2   -1    0    0  501    0  0.00000000000E+00  0.00000000000E+00  0.18233747997E+04  0.18233747997E+04  0.25500000920E-02 0.  1.
       -2   -1    0    0    0  501  0.00000000000E+00  0.00000000000E+00 -0.18690331755E+04  0.18690331755E+04  0.25500000920E-02 0. -1.
    10030    2    1    2    0    0  0.00000000000E+00  0.00000000000E+00 -0.45658375814E+02  0.36924079752E+04  0.36921256707E+04 0.  0.
        1    1    3    3  502    0 -0.13099024650E+04 -0.13004564448E+04 -0.53106236467E+02  0.18465783777E+04  0.50400001928E-02 0. -1.
       -1    1    3    3    0  502  0.13099024650E+04  0.13004564448E+04  0.74478606521E+01  0.18458295975E+04  0.50400001928E-02 0.  1.
</event>
<event>
 5   0  0.2913025E-07  0.3706163E+04  0.7818609E-02  0.8066597E-01
        2   -1    0    0  501    0  0.00000000000E+00  0.00000000000E+00  0.24902016961E+04  0.24902016961E+04  0.25500000920E-02 0. -1.
       -2   -1    0    0    0  501  0.00000000000E+00  0.00000000000E+00 -0.13789690564E+04  0.13789690564E+04  0.25500000920E-02 0.  1.
    10030    2    1    2    0    0  0.00000000000E+00  0.00000000000E+00  0.11112326396E+04  0.38691707525E+04  0.37061630202E+04 0.  0.
        5    1    3    3  502    0 -0.59656526690E+03 -0.13655303660E+04  0.17055745751E+04  0.22648554080E+04  0.46999998093E+01 0. -1.
       -5    1    3    3    0  502  0.59656526690E+03  0.13655303660E+04 -0.59434193544E+03  0.16043153444E+04  0.46999998093E+01 0.  1.
</event>
<event>
 5   0  0.3032442E-07  0.3689412E+04  0.7818609E-02  0.8070312E-01
        2   -1    0    0  501    0  0.00000000000E+00  0.00000000000E+00  0.17423727489E+04  0.17423727489E+04  0.25500000920E-02 0.  1.
       -2   -1    0    0    0  501  0.00000000000E+00  0.00000000000E+00 -0.19530494640E+04  0.19530494640E+04  0.25500000920E-02 0. -1.
    10030    2    1    2    0    0  0.00000000000E+00  0.00000000000E+00 -0.21067671510E+03  0.36954222129E+04  0.36894119658E+04 0.  0.
        3    1    3    3  502    0 -0.17331610300E+04  0.22178810925E+03  0.48715128906E+03  0.18139331603E+04  0.10100000352E+00 0.  1.
       -3    1    3    3    0  502  0.17331610300E+04 -0.22178810925E+03 -0.69782800416E+03  0.18814890526E+04  0.10100000352E+00 0. -1.
</event>
<event>
 5   0  0.9341000E-08  0.3682836E+04  0.7818609E-02  0.8071776E-01
        1   -1    0    0  501    0  0.00000000000E+00  0.00000000000E+00  0.12917515671E+04  0.12917515671E+04  0.50400001928E-02 0. -1.
       -1   -1    0    0    0  501  0.00000000000E+00  0.00000000000E+00 -0.26249781820E+04  0.26249781820E+04  0.50400001928E-02 0.  1.
    10030    2    1    2    0    0  0.00000000000E+00  0.00000000000E+00 -0.13332266149E+04  0.39167297491E+04  0.36828356902E+04 0.  0.
        1    1    3    3  502    0  0.14464974665E+04  0.57879230990E+03 -0.17105136961E+04  0.23137010531E+04  0.50400001928E-02 0.  1.
       -1    1    3    3    0  502 -0.14464974665E+04 -0.57879230990E+03  0.37728708123E+03  0.16030286960E+04  0.50400001928E-02 0. -1.
</event>
<event>
 5   0  0.2996969E-07  0.3681804E+04  0.7818609E-02  0.8072006E-01
        2   -1    0    0  501    0  0.00000000000E+00  0.00000000000E+00  0.22430496050E+04  0.22430496050E+04  0.25500000920E-02 0.  1.
       -2   -1    0    0    0  501  0.00000000000E+00  0.00000000000E+00 -0.15108542743E+04  0.15108542743E+04  0.25500000920E-02 0. -1.
    10030    2    1    2    0    0  0.00000000000E+00  0.00000000000E+00  0.73219533067E+03  0.37539038794E+04  0.36818044942E+04 0.  0.
        1    1    3    3  502    0 -0.60309978854E+03 -0.14505752389E+04  0.13445906372E+04  0.20678060500E+04  0.50400001928E-02 0.  1.
       -1    1    3    3    0  502  0.60309978854E+03  0.14505752389E+04 -0.61239530658E+03  0.16860978294E+04  0.50400001928E-02 0. -1.
</event>
<event>
 5   0  0.9341000E-08  0.3623340E+04  0.7818609E-02  0.8085166E-01
       -1   -1    0    0    0  501  0.00000000000E+00  0.00000000000E+00  0.27779749322E+04  0.27779749322E+04  0.50400001928E-02 0.  1.
        1   -1    0    0  501    0  0.00000000000E+00  0.00000000000E+00 -0.11814893427E+04  0.11814893427E+04  0.50400001928E-02 0. -1.
    10030    2    1    2    0    0  0.00000000000E+00  0.00000000000E+00  0.15964855895E+04  0.39594642749E+04  0.36233397725E+04 0.  0.
        4    1    3    3  502    0  0.11872101848E+04 -0.11207367570E+04 -0.59858838427E+02  0.16337391453E+04  0.12699999809E+01 0. -1.
       -4    1    3    3    0  502 -0.11872101848E+04  0.11207367570E+04  0.16563444279E+04  0.23257251296E+04  0.12699999809E+01 0.  1.
</event>
<event>
 5   0  0.3032442E-07  0.3628206E+04  0.7818609E-02  0.8084061E-01
       -2   -1    0    0    0  501  0.00000000000E+00  0.00000000000E+00  0.13245731963E+04  0.13245731963E+04  0.25500000920E-02 0.  1.
        2   -1    0    0  501    0  0.00000000000E+00  0.00000000000E+00 -0.24845506036E+04  0.24845506036E+04  0.25500000920E-02 0. -1.
    10030    2    1    2    0    0  0.00000000000E+00  0.00000000000E+00 -0.11599774073E+04  0.38091238000E+04  0.36282056912E+04 0.  0.
        3    1    3    3  502    0  0.15917670193E+03 -0.60941298051E+03 -0.23660692392E+04  0.24484699423E+04  0.10100000352E+00 0. -1.
       -3    1    3    3    0  502 -0.15917670193E+03  0.60941298051E+03  0.12060918319E+04  0.13606538577E+04  0.10100000352E+00 0.  1.
</event>
<event>
 5   0  0.2897133E-07  0.3694082E+04  0.7818609E-02  0.8069274E-01
        2   -1    0    0  501    0  0.00000000000E+00  0.00000000000E+00  0.18906716229E+04  0.18906716229E+04  0.25500000920E-02 0. -1.
       -2   -1    0    0    0  501  0.00000000000E+00  0.00000000000E+00 -0.18044176374E+04  0.18044176374E+04  0.25500000920E-02 0.  1.
    10030    2    1    2    0    0  0.00000000000E+00  0.00000000000E+00  0.86253985438E+02  0.36950892603E+04  0.36940824154E+04 0.  0.
        4    1    3    3  502    0 -0.25109322596E+03  0.69861949452E+02 -0.17859312384E+04  0.18048491630E+04  0.12699999809E+01 0.  1.
       -4    1    3    3    0  502  0.25109322596E+03 -0.69861949452E+02  0.18721852238E+04  0.18902400973E+04  0.12699999809E+01 0. -1.
</event>
<event>
 5   0  0.9341000E-08  0.3706389E+04  0.7818609E-02  0.8066548E-01
        1   -1    0    0  501    0  0.00000000000E+00  0.00000000000E+00  0.15985120516E+04  0.15985120517E+04  0.50400001928E-02 0. -1.
       -1   -1    0    0    0  501  0.00000000000E+00  0.00000000000E+00 -0.21484537072E+04  0.21484537072E+04  0.50400001928E-02 0.  1.
    10030    2    1    2    0    0  0.00000000000E+00  0.00000000000E+00 -0.54994165555E+03  0.37469657589E+04  0.37063886161E+04 0.  0.
        3    1    3    3  502    0  0.68047995619E+03  0.13123723600E+04 -0.14047723566E+04  0.20393036964E+04  0.10100000352E+00 0.  1.
       -3    1    3    3    0  502 -0.68047995619E+03 -0.13123723600E+04  0.85483070104E+03  0.17076620625E+04  0.10100000352E+00 0. -1.
</event>
<event>
 5   0  0.2996969E-07  0.3713249E+04  0.7818609E-02  0.8065032E-01
        2   -1    0    0  501    0  0.00000000000E+00  0.00000000000E+00  0.19380559148E+04  0.19380559149E+04  0.25500000920E-02 0. -1.
       -2   -1    0    0    0  501  0.00000000000E+00  0.00000000000E+00 -0.17786148667E+04  0.17786148667E+04  0.25500000920E-02 0.  1.
    10030    2    1    2    0    0  0.00000000000E+00  0.00000000000E+00  0.15944104816E+03  0.37166707815E+04  0.37132492847E+04 0.  0.
        1    1    3    3  502    0 -0.11139463126E+03  0.14046841631E+04 -0.11303221593E+04  0.18064259037E+04  0.50400001928E-02 0.  1.
       -1    1    3    3    0  502  0.11139463126E+03 -0.14046841631E+04  0.12897632075E+04  0.19102448778E+04  0.50400001928E-02 0. -1.
</event>
<event>
 5   0  0.9418945E-08  0.3691936E+04  0.7818609E-02  0.8069751E-01
       -1   -1    0    0    0  501  0.00000000000E+00  0.00000000000E+00  0.19505538748E+04  0.19505538748E+04  0.50400001928E-02 0.  1.
        1   -1    0    0  501    0  0.00000000000E+00  0.00000000000E+00 -0.17469899909E+04  0.17469899909E+04  0.50400001928E-02 0. -1.
    10030    2    1    2    0    0  0.00000000000E+00  0.00000000000E+00  0.20356388386E+03  0.36975438657E+04  0.36919361295E+04 0.  0.
        5    1    3    3  502    0  0.12524424875E+04 -0.41984272906E+03  0.13931961772E+04  0.19198692090E+04  0.46999998093E+01 0.  1.
       -5    1    3    3    0  502 -0.12524424875E+04  0.41984272906E+03 -0.11896322934E+04  0.17776746567E+04  0.46999998093E+01 0. -1.
</event>
<event>
 5   0  0.9418945E-08  0.3697841E+04  0.7818609E-02  0.8068441E-01
       -1   -1    0    0    0  501  0.00000000000E+00  0.00000000000E+00  0.27346386269E+04  0.27346386269E+04  0.50400001928E-02 0.  1.
        1   -1    0    0  501    0  0.00000000000E+00  0.00000000000E+00 -0.12500760374E+04  0.12500760374E+04  0.50400001928E-02 0. -1.
    10030    2    1    2    0    0  0.00000000000E+00  0.00000000000E+00  0.14845625895E+04  0.39847146643E+04  0.36978405689E+04 0.  0.
        5    1    3    3  502    0  0.50020487781E+03  0.17546830275E+04  0.10644155141E+04  0.21123730550E+04  0.46999998093E+01 0.  1.
       -5    1    3    3    0  502 -0.50020487781E+03 -0.17546830275E+04  0.42014707543E+03  0.18723416093E+04  0.46999998093E+01 0. -1.
</event>
<event>
 5   0  0.9341000E-08  0.3701398E+04  0.7818609E-02  0.8067652E-01
        1   -1    0    0  501    0  0.00000000000E+00  0.00000000000E+00  0.15453048568E+04  0.15453048568E+04  0.50400001928E-02 0. -1.
       -1   -1    0    0    0  501  0.00000000000E+00  0.00000000000E+00 -0.22164467298E+04  0.22164467298E+04  0.50400001928E-02 0.  1.
    10030    2    1    2    0    0  0.00000000000E+00  0.00000000000E+00 -0.67114187299E+03  0.37617515866E+04  0.37013975179E+04 0.  0.
        1    1    3    3  502    0  0.96656273780E+03 -0.11877520040E+04 -0.13917896624E+04  0.20693179585E+04  0.50400001928E-02 0.  1.
       -1    1    3    3    0  502 -0.96656273780E+03  0.11877520040E+04  0.72064778938E+03  0.16924336281E+04  0.50400001928E-02 0. -1.
</event>
<event>
 5   0  0.9341000E-08  0.3688782E+04  0.7818609E-02  0.8070452E-01
       -1   -1    0    0    0  501  0.00000000000E+00  0.00000000000E+00  0.17878682862E+04  0.17878682862E+04  0.50400001928E-02 0. -1.
        1   -1    0    0  501    0  0.00000000000E+00  0.00000000000E+00 -0.19027007128E+04  0.19027007128E+04  0.50400001928E-02 0.  1.
    10030    2    1    2    0    0  0.00000000000E+00  0.00000000000E+00 -0.11483242654E+03  0.36905689990E+04  0.36887820551E+04 0.  0.
        3    1    3    3  502    0 -0.35728417071E+03  0.14214852682E+04 -0.11775593574E+04  0.18801378664E+04  0.10100000352E+00 0.  1.
       -3    1    3    3    0  502  0.35728417071E+03 -0.14214852682E+04  0.10627269308E+04  0.18104311326E+04  0.10100000352E+00 0. -1.
</event>
<event>
 5   0  0.9341000E-08  0.3717144E+04  0.7818609E-02  0.8064173E-01
       -1   -1    0    0    0  501  0.00000000000E+00  0.00000000000E+00  0.26407937388E+04  0.26407937388E+04  0.50400001928E-02 0.  1.
        1   -1    0    0  501    0  0.00000000000E+00  0.00000000000E+00 -0.13080495702E+04  0.13080495702E+04  0.50400001928E-02 0. -1.
    10030    2    1    2    0    0  0.00000000000E+00  0.00000000000E+00  0.13327441686E+04  0.39488433091E+04  0.37171435889E+04 0.  0.
        3    1    3    3  502    0  0.81473747279E+03  0.45465087722E+03  0.23739821680E+04  0.25507441883E+04  0.10100000352E+00 0.  1.
       -3    1    3    3    0  502 -0.81473747279E+03 -0.45465087722E+03 -0.10412379995E+04  0.13980991208E+04  0.10100000352E+00 0. -1.
</event>
<event>
 5   0  0.9341000E-08  0.3696761E+04  0.7818609E-02  0.8068680E-01
        1   -1    0    0  501    0  0.00000000000E+00  0.00000000000E+00  0.19940227523E+04  0.19940227523E+04  0.50400001928E-02 0. -1.
       -1   -1    0    0    0  501  0.00000000000E+00  0.00000000000E+00 -0.17133754768E+04  0.17133754768E+04  0.50400001928E-02 0.  1.
    10030    2    1    2    0    0  0.00000000000E+00  0.00000000000E+00  0.28064727557E+03  0.37073982291E+04  0.36967605732E+04 0.  0.
        4    1    3    3  502    0  0.69430766749E+03 -0.90417424498E+03  0.15994721899E+04  0.19641555696E+04  0.12699999809E+01 0. -1.
       -4    1    3    3    0  502 -0.69430766749E+03  0.90417424498E+03 -0.13188249143E+04  0.17432426595E+04  0.12699999809E+01 0.  1.
</event>
<event>
 5   0  0.9341000E-08  0.3677719E+04  0.7818609E-02  0.8072918E-01
       -1   -1    0    0    0  501  0.00000000000E+00  0.00000000000E+00  0.27164850233E+04  0.27164850233E+04  0.50400001928E-02 0.  1.
        1   -1    0    0  501    0  0.00000000000E+00  0.00000000000E+00 -0.12447719671E+04  0.12447719671E+04  0.50400001928E-02 0. -1.
    10030    2    1    2    0    0  0.00000000000E+00  0.00000000000E+00  0.14717130562E+04  0.39612569904E+04  0.36777190790E+04 0.  0.
        3    1    3    3  502    0  0.11659189729E+04 -0.13246836453E+04  0.12926752097E+04  0.21875015473E+04  0.10100000352E+00 0. -1.
       -3    1    3    3    0  502 -0.11659189729E+04  0.13246836453E+04  0.17903784650E+03  0.17737554431E+04  0.10100000352E+00 0.  1.
</event>
<event>
 5   0  0.9341000E-08  0.3704849E+04  0.7818609E-02  0.8066888E-01
        1   -1    0    0  501    0  0.00000000000E+00  0.00000000000E+00  0.15708817024E+04  0.15708817024E+04  0.50400001928E-02 0. -1.
       -1   -1    0    0    0  501  0.00000000000E+00  0.00000000000E+00 -0.21844267970E+04  0.21844267970E+04  0.50400001928E-02 0.  1.
    10030    2    1    2    0    0  0.00000000000E+00  0.00000000000E+00 -0.61354509466E+03  0.37553084994E+04  0.37048487611E+04 0.  0.
        1    1    3    3  502    0 -0.16546147317E+04  0.68399678236E+03  0.17496313104E+03  0.17989479164E+04  0.50400001928E-02 0. -1.
       -1    1    3    3    0  502  0.16546147317E+04 -0.68399678236E+03 -0.78850822570E+03  0.19563605830E+04  0.50400001928E-02 0.  1.
</event>
<event>
 5   0  0.9418945E-08  0.3704401E+04  0.7818609E-02  0.8066987E-01
        1   -1    0    0  501    0  0.00000000000E+00  0.00000000000E+00  0.27474775886E+04  0.27474775886E+04  0.50400001928E-02 0. -1.
       -1   -1    0    0    0  501  0.00000000000E+00  0.00000000000E+00 -0.12486530375E+04  0.12486530375E+04  0.50400001928E-02 0.  1.
    10030    2    1    2    0    0  0.00000000000E+00  0.00000000000E+00  0.14988245511E+04  0.39961306261E+04  0.37044007539E+04 0.  0.
        5    1    3    3  502    0  0.15518395548E+04 -0.31762928771E+02 -0.34082645781E+03  0.15891506070E+04  0.46999998093E+01 0.  1.
       -5    1    3    3    0  502 -0.15518395548E+04  0.31762928771E+02  0.18396510089E+04  0.24069800190E+04  0.46999998093E+01 0. -1.
</event>
<event>
 5   0  0.3032442E-07  0.3675862E+04  0.7818609E-02  0.8073332E-01
        2   -1    0    0  501    0  0.00000000000E+00  0.00000000000E+00  0.14847265401E+04  0.14847265401E+04  0.25500000920E-02 0. -1.
       -2   -1    0    0    0  501  0.00000000000E+00  0.00000000000E+00 -0.22751593774E+04  0.22751593774E+04  0.25500000920E-02 0.  1.
    10030    2    1    2    0    0  0.00000000000E+00  0.00000000000E+00 -0.79043283727E+03  0.37598859175E+04  0.36758615374E+04 0.  0.
        3    1    3    3  502    0 -0.17903866093E+04 -0.41247426040E+03 -0.44501475178E+03  0.18904119566E+04  0.10100000352E+00 0. -1.
       -3    1    3    3    0  502  0.17903866093E+04  0.41247426040E+03 -0.34541808549E+03  0.18694739609E+04  0.10100000352E+00 0.  1.
</event>
<event>
 5   0  0.3008879E-07  0.3695883E+04  0.7818609E-02  0.8068875E-01
       -2   -1    0    0    0  501  0.00000000000E+00  0.00000000000E+00  0.19673945247E+04  0.19673945247E+04  0.25500000920E-02 0.  1.
        2   -1    0    0  501    0  0.00000000000E+00  0.00000000000E+00 -0.17357415653E+04  0.17357415653E+04  0.25500000920E-02 0. -1.
    10030    2    1    2    0    0  0.00000000000E+00  0.00000000000E+00  0.23165295937E+03  0.37031360901E+04  0.36958833596E+04 0.  0.
        2    1    3    3  502    0  0.25895342015E+03 -0.16628096664E+03  0.19415389235E+04  0.19657771047E+04  0.25500000920E-02 0.  1.
       -2    1    3    3    0  502 -0.25895342015E+03  0.16628096664E+03 -0.17098859642E+04  0.17373589854E+04  0.25500000920E-02 0. -1.
</event>
<event>
 5   0  0.9418945E-08  0.3713201E+04  0.7818609E-02  0.8065043E-01
        1   -1    0    0  501    0  0.00000000000E+00  0.00000000000E+00  0.25837087506E+04  0.25837087506E+04  0.50400001928E-02 0.  1.
       -1   -1    0    0    0  501  0.00000000000E+00  0.00000000000E+00 -0.13341154273E+04  0.13341154273E+04  0.50400001928E-02 0. -1.
    10030    2    1    2    0    0  0.00000000000E+00  0.00000000000E+00  0.12495933233E+04  0.39178241780E+04  0.37132011548E+04 0.  0.
        5    1    3    3  502    0  0.66294211224E+03 -0.17276462869E+04  0.78372839582E+03  0.20096034995E+04  0.46999998093E+01 0. -1.
       -5    1    3    3    0  502 -0.66294211224E+03  0.17276462869E+04  0.46586492748E+03  0.19082206784E+04  0.46999998093E+01 0.  1.
</event>
<event>
 5   0  0.3032442E-07  0.3693764E+04  0.7818609E-02  0.8069345E-01
       -2   -1    0    0    0  501  0.00000000000E+00  0.00000000000E+00  0.20712536405E+04  0.20712536405E+04  0.25500000920E-02 0.  1.
        2   -1    0    0  501    0  0.00000000000E+00  0.00000000000E+00 -0.16468154169E+04  0.16468154169E+04  0.25500000920E-02 0. -1.
    10030    2    1    2    0    0  0.00000000000E+00  0.00000000000E+00  0.42443822365E+03  0.37180690574E+04  0.36937636240E+04 0.  0.
        3    1    3    3  502    0  0.34290552820E+03 -0.31606556270E+03 -0.15865738716E+04  0.16536923237E+04  0.10100000352E+00 0. -1.
       -3    1    3    3    0  502 -0.34290552820E+03  0.31606556270E+03  0.20110120953E+04  0.20643767337E+04  0.10100000352E+00 0.  1.
</event>
<event>
 5   0  0.2996969E-07  0.3726235E+04  0.7818609E-02  0.8062173E-01
        2   -1    0    0  501    0  0.00000000000E+00  0.00000000000E+00  0.23561259082E+04  0.23561259082E+04  0.25500000920E-02 0. -1.
       -2   -1    0    0    0  501  0.00000000000E+00  0.00000000000E+00 -0.14732688237E+04  0.14732688237E+04  0.25500000920E-02 0.  1.
    10030    2    1    2    0    0  0.00000000000E+00  0.00000000000E+00  0.88285708455E+03  0.38293947319E+04  0.37262350142E+04 0.  0.
        1    1    3    3  502    0 -0.60756124120E+03 -0.16502349307E+04  0.10739355907E+04  0.20605202356E+04  0.50400001928E-02 0. -1.
       -1    1    3    3    0  502  0.60756124120E+03  0.16502349307E+04 -0.19107850615E+03  0.17688744963E+04  0.50400001928E-02 0.  1.
</event>
<event>
 5   0  0.2897133E-07  0.3713070E+04  0.7818609E-02  0.8065071E-01
        2   -1    0    0  501    0  0.00000000000E+00  0.00000000000E+00  0.16268443279E+04  0.16268443280E+04  0.25500000920E-02 0. -1.
       -2   -1    0    0    0  501  0.00000000000E+00  0.00000000000E+00 -0.21186555703E+04  0.21186555703E+04  0.25500000920E-02 0.  1.
    10030    2    1    2    0    0  0.00000000000E+00  0.00000000000E+00 -0.49181124235E+03  0.37454998983E+04  0.37130703184E+04 0.  0.
        4    1    3    3  502    0 -0.16033896468E+04  0.80301791927E+03  0.23894298175E+03  0.18090858188E+04  0.12699999809E+01 0. -1.
       -4    1    3    3    0  502  0.16033896468E+04 -0.80301791927E+03 -0.73075422410E+03  0.19364140795E+04  0.12699999809E+01 0.  1.
</event>
<event>
 5   0  0.3008879E-07  0.3704352E+04  0.7818609E-02  0.8066998E-01
        2   -1    0    0  501    0  0.00000000000E+00  0.00000000000E+00  0.12023605817E+04  0.12023605817E+04  0.25500000920E-02 0.  1.
       -2   -1    0    0    0  501  0.00000000000E+00  0.00000000000E+00 -0.28531840290E+04  0.28531840290E+04  0.25500000920E-02 0. -1.
    10030    2    1    2    0    0  0.00000000000E+00  0.00000000000E+00 -0.16508234473E+04  0.40555446107E+04  0.37043520399E+04 0.  0.
        2    1    3    3  502    0  0.17873393927E+03  0.13749571104E+04  0.51906240982E+03  0.14804994636E+04  0.25500000920E-02 0.  1.
       -2    1    3    3    0  502 -0.17873393927E+03 -0.13749571104E+04 -0.21698858571E+04  0.25750451471E+04  0.25500000920E-02 0. -1.
</event>
<event>
 5   0  0.9418945E-08  0.3718845E+04  0.7818609E-02  0.8063798E-01
       -1   -1    0    0    0  501  0.00000000000E+00  0.00000000000E+00  0.15012906415E+04  0.15012906415E+04  0.50400001928E-02 0.  1.
        1   -1    0    0  501    0  0.00000000000E+00  0.00000000000E+00 -0.23029859455E+04  0.23029859455E+04  0.50400001928E-02 0. -1.
    10030    2    1    2    0    0  0.00000000000E+00  0.00000000000E+00 -0.80169530406E+03  0.38042765870E+04  0.37188445773E+04 0.  0.
        5    1    3    3  502    0 -0.10296431351E+03 -0.97915115600E+03 -0.20144523316E+04  0.22421817327E+04  0.46999998093E+01 0. -1.
       -5    1    3    3    0  502  0.10296431351E+03  0.97915115600E+03  0.12127570275E+04  0.15620948543E+04  0.46999998093E+01 0.  1.
</event>
<event>
 5   0  0.3008879E-07  0.3706029E+04  0.7818609E-02  0.8066627E-01
        2   -1    0    0  501    0  0.00000000000E+00  0.00000000000E+00  0.14783562132E+04  0.14783562132E+04  0.25500000920E-02 0. -1.
       -2   -1    0    0    0  501  0.00000000000E+00  0.00000000000E+00 -0.23226225671E+04  0.23226225671E+04  0.25500000920E-02 0.  1.
    10030    2    1    2    0    0  0.00000000000E+00  0.00000000000E+00 -0.84426635396E+03  0.38009787803E+04  0.37060294132E+04 0.  0.
        2    1    3    3  502    0  0.13900461928E+04 -0.10554542071E+04  0.21627032007E+03  0.17586883899E+04  0.25500000920E-02 0.  1.
       -2    1    3    3    0  502 -0.13900461928E+04  0.10554542071E+04 -0.10605366740E+04  0.20422903904E+04  0.25500000920E-02 0. -1.
</event>
<event>
 5   0  0.9418945E-08  0.3669447E+04  0.7818609E-02  0.8074767E-01
       -1   -1    0    0    0  501  0.00000000000E+00  0.00000000000E+00  0.14199590448E+04  0.14199590448E+04  0.50400001928E-02 0.  1.
        1   -1    0    0  501    0  0.00000000000E+00  0.00000000000E+00 -0.23706384855E+04  0.23706384855E+04  0.50400001928E-02 0. -1.
    10030    2    1    2    0    0  0.00000000000E+00  0.00000000000E+00 -0.95067944075E+03  0.37905975303E+04  0.36694465846E+04 0.  0.
        5    1    3    3  502    0 -0.16649842544E+03 -0.17957093756E+04 -0.82396327879E+03  0.19827333310E+04  0.46999998093E+01 0. -1.
       -5    1    3    3    0  502  0.16649842544E+03  0.17957093756E+04 -0.12671616196E+03  0.18078641992E+04  0.46999998093E+01 0.  1.
</event>
<event>
 5   0  0.9341000E-08  0.3687366E+04  0.7818609E-02  0.8070767E-01
        1   -1    0    0  501    0  0.00000000000E+00  0.00000000000E+00  0.12659271073E+04  0.12659271073E+04  0.50400001928E-02 0.  1.
       -1   -1    0    0    0  501  0.00000000000E+00  0.00000000000E+00 -0.26851203888E+04  0.26851203888E+04  0.50400001928E-02 0. -1.
    10030    2    1    2    0    0  0.00000000000E+00  0.00000000000E+00 -0.14191932816E+04  0.39510474961E+04  0.36873658275E+04 0.  0.
        4    1    3    3  502    0  0.82320832344E+02  0.15266351624E+03 -0.26763587274E+04  0.26819732510E+04  0.12699999809E+01 0. -1.
       -4    1    3    3    0  502 -0.82320832344E+02 -0.15266351624E+03  0.12571654458E+04  0.12690742451E+04  0.12699999809E+01 0.  1.
</event>
<event>
 5   0  0.9646615E-08  0.3691995E+04  0.7818609E-02  0.8069738E-01
       -1   -1    0    0    0  501  0.00000000000E+00  0.00000000000E+00  0.16937520678E+04  0.16937520678E+04  0.50400001928E-02 0.  1.
        1   -1    0    0  501    0  0.00000000000E+00  0.00000000000E+00 -0.20119275792E+04  0.20119275792E+04  0.50400001928E-02 0. -1.
    10030    2    1    2    0    0  0.00000000000E+00  0.00000000000E+00 -0.31817551143E+03  0.37056796470E+04  0.36919948524E+04 0.  0.
        2    1    3    3  502    0  0.11140128813E+04  0.14617850184E+04  0.14371675532E+02  0.18379463226E+04  0.25500000920E-02 0.  1.
       -2    1    3    3    0  502 -0.11140128813E+04 -0.14617850184E+04 -0.33254718696E+03  0.18677333244E+04  0.25500000920E-02 0. -1.
</event>
<event>
 5   0  0.9341000E-08  0.3760254E+04  0.7818609E-02  0.8054738E-01
       -1   -1    0    0    0  501  0.00000000000E+00  0.00000000000E+00  0.12654484593E+04  0.12654484593E+04  0.50400001928E-02 0.  1.
        1   -1    0    0  501    0  0.00000000000E+00  0.00000000000E+00 -0.27933790461E+04  0.27933790461E+04  0.50400001928E-02 0. -1.
    10030    2    1    2    0    0  0.00000000000E+00  0.00000000000E+00 -0.15279305868E+04  0.40588275054E+04  0.37602538266E+04 0.  0.
        4    1    3    3  502    0 -0.12629171424E+04  0.43290888097E+03 -0.21929025627E+04  0.25673318971E+04  0.12699999809E+01 0. -1.
       -4    1    3    3    0  502  0.12629171424E+04 -0.43290888097E+03  0.66497197592E+03  0.14914956083E+04  0.12699999809E+01 0.  1.
</event>
<event>
 5   0  0.2996969E-07  0.3673667E+04  0.7818609E-02  0.8073823E-01
        2   -1    0    0  501    0  0.00000000000E+00  0.00000000000E+00  0.11097935231E+04  0.11097935231E+04  0.25500000920E-02 0. -1.
       -2   -1    0    0    0  501  0.00000000000E+00  0.00000000000E+00 -0.30401668226E+04  0.30401668226E+04  0.25500000920E-02 0.  1.
    10030    2    1    2    0    0  0.00000000000E+00  0.00000000000E+00 -0.19303732995E+04  0.41499603456E+04  0.36736670773E+04 0.  0.
        1    1    3    3  502    0 -0.73533096543E+03  0.16139774509E+04 -0.15049689116E+04  0.23260623951E+04  0.50400001928E-02 0.  1.
       -1    1    3    3    0  502  0.73533096543E+03 -0.16139774509E+04 -0.42540438785E+03  0.18238979506E+04  0.50400001928E-02 0. -1.
</event>
<event>
 5   0  0.2897133E-07  0.3675056E+04  0.7818609E-02  0.8073512E-01
       -2   -1    0    0    0  501  0.00000000000E+00  0.00000000000E+00  0.14835389345E+04  0.14835389345E+04  0.25500000920E-02 0.  1.
        2   -1    0    0  501    0  0.00000000000E+00  0.00000000000E+00 -0.22759830967E+04  0.22759830967E+04  0.25500000920E-02 0. -1.
    10030    2    1    2    0    0  0.00000000000E+00  0.00000000000E+00 -0.79244416215E+03  0.37595220312E+04  0.36750562109E+04 0.  0.
        4    1    3    3  502    0  0.37601905081E+03  0.16399658798E+04 -0.11518666656E+04  0.20390382149E+04  0.12699999809E+01 0. -1.
       -4    1    3    3    0  502 -0.37601905081E+03 -0.16399658798E+04  0.35942250348E+03  0.17204838163E+04  0.12699999809E+01 0.  1.
</event>
<event>
 5   0  0.9341000E-08  0.3685660E+04  0.7818609E-02  0.8071147E-01
        1   -1    0    0  501    0  0.00000000000E+00  0.00000000000E+00  0.22275429080E+04  0.22275429080E+04  0.50400001928E-02 0. -1.
       -1   -1    0    0    0  501  0.00000000000E+00  0.00000000000E+00 -0.15245596322E+04  0.15245596322E+04  0.50400001928E-02 0.  1.
    10030    2    1    2    0    0  0.00000000000E+00  0.00000000000E+00  0.70298327574E+03  0.37521025402E+04  0.36856597762E+04 0.  0.
        3    1    3    3  502    0  0.60999262696E+03 -0.73899305479E+03  0.19539780446E+04  0.21762885721E+04  0.10100000352E+00 0. -1.
       -3    1    3    3    0  502 -0.60999262696E+03  0.73899305479E+03 -0.12509947689E+04  0.15758139681E+04  0.10100000352E+00 0.  1.
</event>
<event>
 5   0  0.3032442E-07  0.3711672E+04  0.7818609E-02  0.8065380E-01
       -2   -1    0    0    0  501  0.00000000000E+00  0.00000000000E+00  0.15071260512E+04  0.15071260512E+04  0.25500000920E-02 0.  1.
        2   -1    0    0  501    0  0.00000000000E+00  0.00000000000E+00 -0.22852289958E+04  0.22852289958E+04  0.25500000920E-02 0. -1.
    10030    2    1    2    0    0  0.00000000000E+00  0.00000000000E+00 -0.77810294466E+03  0.37923550470E+04  0.37116724815E+04 0.  0.
        3    1    3    3  502    0 -0.11128684821E+04  0.65691274548E+02  0.11268904535E+04  0.15851415414E+04  0.10100000352E+00 0.  1.
       -3    1    3    3    0  502  0.11128684821E+04 -0.65691274548E+02 -0.19049933982E+04  0.22072135056E+04  0.10100000352E+00 0. -1.
</event>
<event>
 5   0  0.9341000E-08  0.3674102E+04  0.7818609E-02  0.8073725E-01
        1   -1    0    0  501    0  0.00000000000E+00  0.00000000000E+00  0.18274541300E+04  0.18274541300E+04  0.50400001928E-02 0. -1.
       -1   -1    0    0    0  501  0.00000000000E+00  0.00000000000E+00 -0.18466982626E+04  0.18466982626E+04  0.50400001928E-02 0.  1.
    10030    2    1    2    0    0  0.00000000000E+00  0.00000000000E+00 -0.19244132592E+02  0.36741523927E+04  0.36741019948E+04 0.  0.
        3    1    3    3  502    0  0.17133977719E+04  0.80405574067E+02  0.64807941827E+03  0.18336313489E+04  0.10100000352E+00 0. -1.
       -3    1    3    3    0  502 -0.17133977719E+04 -0.80405574067E+02 -0.66732355086E+03  0.18405210438E+04  0.10100000352E+00 0.  1.
</event>
<event>
 5   0  0.9646615E-08  0.3692904E+04  0.7818609E-02  0.8069536E-01
        1   -1    0    0  501    0  0.00000000000E+00  0.00000000000E+00  0.27227630469E+04  0.27227630469E+04  0.50400001928E-02 0.  1.
       -1   -1    0    0    0  501  0.00000000000E+00  0.00000000000E+00 -0.12521780683E+04  0.12521780683E+04  0.50400001928E-02 0. -1.
    10030    2    1    2    0    0  0.00000000000E+00  0.00000000000E+00  0.14705849786E+04  0.39749411151E+04  0.36929035581E+04 0.  0.
        2    1    3    3  502    0  0.77634357458E+03 -0.82435855372E+03 -0.83455507544E+03  0.14066835269E+04  0.25500000920E-02 0. -1.
       -2    1    3    3    0  502 -0.77634357458E+03  0.82435855372E+03  0.23051400540E+04  0.25682575882E+04  0.25500000920E-02 0.  1.
</event>
<event>
 5   0  0.3008879E-07  0.3652916E+04  0.7818609E-02  0.8078477E-01
        2   -1    0    0  501    0  0.00000000000E+00  0.00000000000E+00  0.17123375916E+04  0.17123375916E+04  0.25500000920E-02 0.  1.
       -2   -1    0    0    0  501  0.00000000000E+00  0.00000000000E+00 -0.19481837679E+04  0.19481837679E+04  0.25500000920E-02 0. -1.
    10030    2    1    2    0    0  0.00000000000E+00  0.00000000000E+00 -0.23584617627E+03  0.36605213595E+04  0.36529157127E+04 0.  0.
        2    1    3    3  502    0  0.39716705969E+03 -0.17751899537E+04 -0.28229893415E+03  0.18408513609E+04  0.25500000920E-02 0.  1.
       -2    1    3    3    0  502 -0.39716705969E+03  0.17751899537E+04  0.46452757878E+02  0.18196699985E+04  0.25500000920E-02 0. -1.
</event>
<event>
 5   0  0.9341000E-08  0.3707234E+04  0.7818609E-02  0.8066361E-01
        3   -1    0    0  501    0  0.00000000000E+00  0.00000000000E+00  0.25177881957E+04  0.25177881977E+04  0.10100000352E+00 0. -1.
       -3   -1    0    0    0  501  0.00000000000E+00  0.00000000000E+00 -0.13646486703E+04  0.13646486740E+04  0.10100000352E+00 0.  1.
    10030    2    1    2    0    0  0.00000000000E+00  0.00000000000E+00  0.11531395254E+04  0.38824368717E+04  0.37072341844E+04 0.  0.
        5    1    3    3  502    0 -0.11824558266E+04  0.98822404003E+03  0.16553416306E+04  0.22616291781E+04  0.46999998093E+01 0. -1.
       -5    1    3    3    0  502  0.11824558266E+04 -0.98822404003E+03 -0.50220210518E+03  0.16208076936E+04  0.46999998093E+01 0.  1.
</event>
<event>
 5   0  0.9341000E-08  0.3695611E+04  0.7818609E-02  0.8068935E-01
       -1   -1    0    0    0  501  0.00000000000E+00  0.00000000000E+00  0.15724148147E+04  0.15724148147E+04  0.50400001928E-02 0. -1.
        1   -1    0    0  501    0  0.00000000000E+00  0.00000000000E+00 -0.21714271662E+04  0.21714271662E+04  0.50400001928E-02 0.  1.
    10030    2    1    2    0    0  0.00000000000E+00  0.00000000000E+00 -0.59901235149E+03  0.37438419809E+04  0.36956105017E+04 0.  0.
        1    1    3    3  502    0 -0.15300622728E+04 -0.67902961320E+03 -0.10921578901E+04  0.19987447639E+04  0.50400001928E-02 0.  1.
       -1    1    3    3    0  502  0.15300622728E+04  0.67902961320E+03  0.49314553860E+03  0.17450972170E+04  0.50400001928E-02 0. -1.
</event>
<event>
 5   0  0.2897133E-07  0.3687446E+04  0.7818609E-02  0.8070750E-01
        2   -1    0    0  501    0  0.00000000000E+00  0.00000000000E+00  0.27170668812E+04  0.27170668812E+04  0.25500000920E-02 0. -1.
       -2   -1    0    0    0  501  0.00000000000E+00  0.00000000000E+00 -0.12510972823E+04  0.12510972823E+04  0.25500000920E-02 0.  1.
    10030    2    1    2    0    0  0.00000000000E+00  0.00000000000E+00  0.14659695989E+04  0.39681641635E+04  0.36874462658E+04 0.  0.
        4    1    3    3  502    0  0.88234238597E+03  0.13635384113E+04  0.16720865599E+04  0.23310169802E+04  0.12699999809E+01 0. -1.
       -4    1    3    3    0  502 -0.88234238597E+03 -0.13635384113E+04 -0.20611696100E+03  0.16371471833E+04  0.12699999809E+01 0.  1.
</event>
<event>
 5   0  0.9341000E-08  0.3707117E+04  0.7818609E-02  0.8066386E-01
       -1   -1    0    0    0  501  0.00000000000E+00  0.00000000000E+00  0.14866392559E+04  0.14866392559E+04  0.50400001928E-02 0. -1.
        1   -1    0    0  501    0  0.00000000000E+00  0.00000000000E+00 -0.23110378170E+04  0.23110378170E+04  0.50400001928E-02 0.  1.
    10030    2    1    2    0    0  0.00000000000E+00  0.00000000000E+00 -0.82439856110E+03  0.37976770728E+04  0.37071172307E+04 0.  0.
        1    1    3    3  502    0 -0.16733977818E+04 -0.20496724499E+03 -0.12013470804E+04  0.20701464960E+04  0.50400001928E-02 0.  1.
       -1    1    3    3    0  502  0.16733977818E+04  0.20496724499E+03  0.37694851925E+03  0.17275305768E+04  0.50400001928E-02 0. -1.
</event>
<event>
 5   0  0.2897133E-07  0.3697469E+04  0.7818609E-02  0.8068523E-01
        2   -1    0    0  501    0  0.00000000000E+00  0.00000000000E+00  0.20877280948E+04  0.20877280948E+04  0.25500000920E-02 0. -1.
       -2   -1    0    0    0  501  0.00000000000E+00  0.00000000000E+00 -0.16371000969E+04  0.16371000969E+04  0.25500000920E-02 0.  1.
    10030    2    1    2    0    0  0.00000000000E+00  0.00000000000E+00  0.45062799787E+03  0.37248281916E+04  0.36974693325E+04 0.  0.
        4    1    3    3  502    0 -0.11696095596E+03  0.18446920544E+04  0.26092542321E+03  0.18667223495E+04  0.12699999809E+01 0.  1.
       -4    1    3    3    0  502  0.11696095596E+03 -0.18446920544E+04  0.18970257465E+03  0.18581058421E+04  0.12699999809E+01 0. -1.
</event>
<event>
 5   0  0.2913025E-07  0.3680542E+04  0.7818609E-02  0.8072288E-01
       -2   -1    0    0    0  501  0.00000000000E+00  0.00000000000E+00  0.26588287033E+04  0.26588287033E+04  0.25500000920E-02 0. -1.
        2   -1    0    0  501    0  0.00000000000E+00  0.00000000000E+00 -0.12737180522E+04  0.12737180522E+04  0.25500000920E-02 0.  1.
    10030    2    1    2    0    0  0.00000000000E+00  0.00000000000E+00  0.13851106511E+04  0.39325467555E+04  0.36805424150E+04 0.  0.
        5    1    3    3  502    0 -0.27860217187E+03 -0.17765778734E+04  0.27499302509E+03  0.18192007488E+04  0.46999998093E+01 0. -1.
       -5    1    3    3    0  502  0.27860217187E+03  0.17765778734E+04  0.11101176260E+04  0.21133460067E+04  0.46999998093E+01 0.  1.
</event>
<event>
 5   0  0.9341000E-08  0.3702008E+04  0.7818609E-02  0.8067517E-01
        1   -1    0    0  501    0  0.00000000000E+00  0.00000000000E+00  0.22007089110E+04  0.22007089110E+04  0.50400001928E-02 0. -1.
       -1   -1    0    0    0  501  0.00000000000E+00  0.00000000000E+00 -0.15568695020E+04  0.15568695020E+04  0.50400001928E-02 0.  1.
    10030    2    1    2    0    0  0.00000000000E+00  0.00000000000E+00  0.64383940907E+03  0.37575784130E+04  0.37020084205E+04 0.  0.
        4    1    3    3  502    0 -0.42849244260E+03  0.70567546568E+03  0.20034808302E+04  0.21669150158E+04  0.12699999809E+01 0. -1.
       -4    1    3    3    0  502  0.42849244260E+03 -0.70567546568E+03 -0.13596414211E+04  0.15906633972E+04  0.12699999809E+01 0.  1.
</event>
<event>
 5   0  0.2913025E-07  0.3716322E+04  0.7818609E-02  0.8064354E-01
       -2   -1    0    0    0  501  0.00000000000E+00  0.00000000000E+00  0.27632301637E+04  0.27632301637E+04  0.25500000920E-02 0. -1.
        2   -1    0    0  501    0  0.00000000000E+00  0.00000000000E+00 -0.12495384725E+04  0.12495384725E+04  0.25500000920E-02 0.  1.
    10030    2    1    2    0    0  0.00000000000E+00  0.00000000000E+00  0.15136916912E+04  0.40127686362E+04  0.37163220516E+04 0.  0.
        5    1    3    3  502    0  0.97205729367E+03  0.15730685397E+04  0.55980565491E+03  0.19320570577E+04  0.46999998093E+01 0.  1.
       -5    1    3    3    0  502 -0.97205729367E+03 -0.15730685397E+04  0.95388603628E+03  0.20807115785E+04  0.46999998093E+01 0. -1.
</event>
<event>
 5   0  0.9646615E-08  0.3712312E+04  0.7818609E-02  0.8065239E-01
       -1   -1    0    0    0  501  0.00000000000E+00  0.00000000000E+00  0.22443340481E+04  0.22443340481E+04  0.50400001928E-02 0. -1.
        1   -1    0    0  501    0  0.00000000000E+00  0.00000000000E+00 -0.15351169640E+04  0.15351169640E+04  0.50400001928E-02 0.  1.
    10030    2    1    2    0    0  0.00000000000E+00  0.00000000000E+00  0.70921708406E+03  0.37794510121E+04  0.37123120937E+04 0.  0.
        2    1    3    3  502    0  0.10429988938E+04 -0.44606418530E+03 -0.11411441601E+04  0.16090462840E+04  0.25500000920E-02 0.  1.
       -2    1    3    3    0  502 -0.10429988938E+04  0.44606418530E+03  0.18503612442E+04  0.21704047281E+04  0.25500000920E-02 0. -1.
</event>
<event>
 5   0  0.3008879E-07  0.3688189E+04  0.7818609E-02  0.8070584E-01
        2   -1    0    0  501    0  0.00000000000E+00  0.00000000000E+00  0.22146824520E+04  0.22146824520E+04  0.25500000920E-02 0.  1.
       -2   -1    0    0    0  501  0.00000000000E+00  0.00000000000E+00 -0.15355182500E+04  0.15355182500E+04  0.25500000920E-02 0. -1.
    10030    2    1    2    0    0  0.00000000000E+00  0.00000000000E+00  0.67916420205E+03  0.37502007020E+04  0.36881894328E+04 0.  0.
        2    1    3    3  502    0 -0.70344408331E+03 -0.68146627561E+03  0.19283691626E+04  0.21628308974E+04  0.25500000920E-02 0.  1.
       -2    1    3    3    0  502  0.70344408331E+03  0.68146627561E+03 -0.12492049606E+04  0.15873698047E+04  0.25500000920E-02 0. -1.
</event>
<event>
 5   0  0.9418945E-08  0.3704428E+04  0.7818609E-02  0.8066981E-01
        1   -1    0    0  501    0  0.00000000000E+00  0.00000000000E+00  0.14086836161E+04  0.14086836161E+04  0.50400001928E-02 0. -1.
       -1   -1    0    0    0  501  0.00000000000E+00  0.00000000000E+00 -0.24353917249E+04  0.24353917249E+04  0.50400001928E-02 0.  1.
    10030    2    1    2    0    0  0.00000000000E+00  0.00000000000E+00 -0.10267081088E+04  0.38440753410E+04  0.37044278488E+04 0.  0.
        5    1    3    3  502    0  0.56542875341E+02  0.90325738569E+03 -0.21903204400E+04  0.23699360163E+04  0.46999998093E+01 0.  1.
       -5    1    3    3    0  502 -0.56542875341E+02 -0.90325738569E+03  0.11636123311E+04  0.14741393247E+04  0.46999998093E+01 0. -1.
</event>
</LesHouchesEvents>
