<LesHouchesEvents version="3.0">
<header>
<!--
#*********************************************************************
#                                                                    *
#                        MadGraph5_aMC@NLO                           *
#                                                                    *
#                           Going Beyond                             *
#                                                                    *
#                   http://madgraph.hep.uiuc.edu                     *
#                   http://madgraph.phys.ucl.ac.be                   *
#                   http://amcatnlo.cern.ch                          *
#                                                                    *
#                     The MadGraph5_aMC@NLO team                     *
#                                                                    *
#....................................................................*
#                                                                    *
# This file contains all the information necessary to reproduce      *
# the events generated:                                              *
#                                                                    *
# 1. software version                                                *
# 2. proc_card          : code generation info including model       *
# 3. param_card         : model primary parameters in the LH format  *
# 4. run_card           : running parameters (collider and cuts)     *
# 5. pythia_card        : present only if pythia has been run        *
# 6. pgs_card           : present only if pgs has been run           *
# 7. delphes_cards      : present only if delphes has been run       *
#                                                                    *
#                                                                    *
#*********************************************************************
-->
<MGVersion>
#5.2.2.3
</MGVersion>
<MG5ProcCard>
#************************************************************
#*                     MadGraph5_aMC@NLO                    *
#*                                                          *
#*                *                       *                 *
#*                  *        * *        *                   *
#*                    * * * * 5 * * * *                     *
#*                  *        * *        *                   *
#*                *                       *                 *
#*                                                          *
#*                                                          *
#*         VERSION 2.2.3                 2015-02-10         *
#*                                                          *
#*    The MadGraph5_aMC@NLO Development Team - Find us at   *
#*    https://server06.fynu.ucl.ac.be/projects/madgraph     *
#*                                                          *
#************************************************************
#*                                                          *
#*               Command File for MadGraph5_aMC@NLO         *
#*                                                          *
#*     run as ./bin/mg5_aMC  filename                       *
#*                                                          *
#************************************************************
set group_subprocesses Auto
set ignore_six_quark_processes False
set loop_optimized_output True
set gauge unitary
set complex_mass_scheme False
import model sm
define p = g u c d s u~ c~ d~ s~
define j = g u c d s u~ c~ d~ s~
define l+ = e+ mu+
define l- = e- mu-
define vl = ve vm vt
define vl~ = ve~ vm~ vt~
import model Zprime_UFO
generate p p > zph, zph > j j
add process p p > zph, zph > b b~
output Dijet_signal
</MG5ProcCard>
<MGProcCard>
#*********************************************************************
#                        MadGraph/MadEvent                           *
#                   http://madgraph.hep.uiuc.edu                     *
#                                                                    *
#                          proc_card.dat                             *
#*********************************************************************
#                                                                    *
#            This Files is generated by MADGRAPH 5                   *
#                                                                    *
# WARNING: This Files is generated for MADEVENT (compatibility issue)*
#          This files is NOT a valid MG4 proc_card.dat               *
#          Running this in MG4 will NEVER reproduce the result of MG5*
#                                                                    *
#*********************************************************************
#*********************************************************************
# Process(es) requested : mg2 input                                  *
#*********************************************************************
# Begin PROCESS # This is TAG. Do not modify this line
p p > zph , zph > j j           #Process
# Be carefull the coupling are here in MG5 convention
          
end_coup           # End the couplings input

done               # this tells MG there are no more procs
# End PROCESS  # This is TAG. Do not modify this line
#*********************************************************************
# Model information                                                  *
#*********************************************************************
# Begin MODEL  # This is TAG. Do not modify this line
Zprime_UFO
# End   MODEL  # This is TAG. Do not modify this line
#*********************************************************************
# Start multiparticle definitions                                    *
#*********************************************************************
# Begin MULTIPARTICLES # This is TAG. Do not modify this line

# End  MULTIPARTICLES # This is TAG. Do not modify this line
</MGProcCard>
<MGRunCard>
#*********************************************************************
#                       MadGraph5_aMC@NLO                            *
#                                                                    *
#                     run_card.dat MadEvent                          *
#                                                                    *
#  This file is used to set the parameters of the run.               *
#                                                                    *
#  Some notation/conventions:                                        *
#                                                                    *
#   Lines starting with a '# ' are info or comments                  *
#                                                                    *
#   mind the format:   value    = variable     ! comment             *
#*********************************************************************
#
#*******************                                                 
# Running parameters
#*******************                                                 
#                                                                    
#*********************************************************************
# Tag name for the run (one word)                                    *
#*********************************************************************
  tag_1     = run_tag ! name of the run 
#*********************************************************************
# Run to generate the grid pack                                      *
#*********************************************************************
  .false.     = gridpack  !True = setting up the grid pack
#*********************************************************************
# Number of events and rnd seed                                      *
# Warning: Do not generate more than 1M events in a single run       *
# If you want to run Pythia, avoid more than 50k events in a run.    *
#*********************************************************************
  2000 = nevents ! Number of unweighted events requested 
 2964 = iseed   ! rnd seed (0=assigned automatically=default))
#*********************************************************************
# Collider type and energy                                           *
# lpp: 0=No PDF, 1=proton, -1=antiproton, 2=photon from proton,      *
#                                         3=photon from electron     *
#*********************************************************************
        1     = lpp1    ! beam 1 type 
        1     = lpp2    ! beam 2 type
     4000     = ebeam1  ! beam 1 total energy in GeV
     4000     = ebeam2  ! beam 2 total energy in GeV
#*********************************************************************
# Beam polarization from -100 (left-handed) to 100 (right-handed)    *
#*********************************************************************
        0     = polbeam1 ! beam polarization for beam 1
        0     = polbeam2 ! beam polarization for beam 2
#*********************************************************************
# PDF CHOICE: this automatically fixes also alpha_s and its evol.    *
#*********************************************************************
 'nn23lo1'    = pdlabel     ! PDF set                                     
 230000    = lhaid     ! if pdlabel=lhapdf, this is the lhapdf number
#*********************************************************************
# Renormalization and factorization scales                           *
#*********************************************************************
 F        = fixed_ren_scale  ! if .true. use fixed ren scale
 F        = fixed_fac_scale  ! if .true. use fixed fac scale
 91.1880  = scale            ! fixed ren scale
 91.1880  = dsqrt_q2fact1    ! fixed fact scale for pdf1
 91.1880  = dsqrt_q2fact2    ! fixed fact scale for pdf2
 1        = scalefact        ! scale factor for event-by-event scales
#*********************************************************************
# Matching - Warning! ickkw > 1 is still beta
#*********************************************************************
 0        = ickkw            ! 0 no matching, 1 MLM, 2 CKKW matching
 1        = highestmult      ! for ickkw=2, highest mult group
 1        = ktscheme         ! for ickkw=1, 1 Durham kT, 2 Pythia pTE
 1        = alpsfact         ! scale factor for QCD emission vx
 F        = chcluster        ! cluster only according to channel diag
 T        = pdfwgt           ! for ickkw=1, perform pdf reweighting
 5        = asrwgtflavor     ! highest quark flavor for a_s reweight
 T        = clusinfo         ! include clustering tag in output
 3.0      = lhe_version       ! Change the way clustering information pass to shower.        
#*********************************************************************
#**********************************************************
#
#**********************************************************
# Automatic ptj and mjj cuts if xqcut > 0
# (turn off for VBF and single top processes)
#**********************************************************
   T  = auto_ptj_mjj  ! Automatic setting of ptj and mjj
#**********************************************************
#                                                                    
#**********************************
# BW cutoff (M+/-bwcutoff*Gamma)
#**********************************
  15  = bwcutoff      ! (M+/-bwcutoff*Gamma)
#**********************************************************
# Apply pt/E/eta/dr/mij cuts on decay products or not
# (note that etmiss/ptll/ptheavy/ht/sorted cuts always apply)
#**********************************************************
   T  = cut_decays    ! Cut decay products 
#*************************************************************
# Number of helicities to sum per event (0 = all helicities)
# 0 gives more stable result, but longer run time (needed for
# long decay chains e.g.).
# Use >=2 if most helicities contribute, e.g. pure QCD.
#*************************************************************
   0  = nhel          ! Number of helicities used per event
#*******************                                                 
# Standard Cuts
#*******************                                                 
#                                                                    
#*********************************************************************
# Minimum and maximum pt's (for max, -1 means no cut)                *
#*********************************************************************
 20  = ptj       ! minimum pt for the jets 
  0  = ptb       ! minimum pt for the b 
 10  = pta       ! minimum pt for the photons 
 10  = ptl       ! minimum pt for the charged leptons 
  0  = misset    ! minimum missing Et (sum of neutrino's momenta)
  0  = ptheavy   ! minimum pt for one heavy final state
 1.0 = ptonium   ! minimum pt for the quarkonium states
 -1  = ptjmax    ! maximum pt for the jets
 -1  = ptbmax    ! maximum pt for the b
 -1  = ptamax    ! maximum pt for the photons
 -1  = ptlmax    ! maximum pt for the charged leptons
 -1  = missetmax ! maximum missing Et (sum of neutrino's momenta)
#*********************************************************************
# Minimum and maximum E's (in the center of mass frame)              *
#*********************************************************************
  0  = ej     ! minimum E for the jets 
  0  = eb     ! minimum E for the b 
  0  = ea     ! minimum E for the photons 
  0  = el     ! minimum E for the charged leptons 
 -1   = ejmax ! maximum E for the jets
 -1   = ebmax ! maximum E for the b
 -1   = eamax ! maximum E for the photons
 -1   = elmax ! maximum E for the charged leptons
#*********************************************************************
# Maximum and minimum absolute rapidity (for max, -1 means no cut)   *
#*********************************************************************
   5  = etaj    ! max rap for the jets 
  -1  = etab    ! max rap for the b
 2.5  = etaa    ! max rap for the photons 
 2.5  = etal    ! max rap for the charged leptons 
 0.6  = etaonium ! max rap for the quarkonium states
   0  = etajmin ! min rap for the jets
   0  = etabmin ! min rap for the b
   0  = etaamin ! min rap for the photons
   0  = etalmin ! main rap for the charged leptons
#*********************************************************************
# Minimum and maximum DeltaR distance                                *
#*********************************************************************
 0.4 = drjj    ! min distance between jets 
 0   = drbb    ! min distance between b's 
 0.4 = drll    ! min distance between leptons 
 0.4 = draa    ! min distance between gammas 
 0   = drbj    ! min distance between b and jet 
 0.4 = draj    ! min distance between gamma and jet 
 0.4 = drjl    ! min distance between jet and lepton 
 0   = drab    ! min distance between gamma and b 
 0   = drbl    ! min distance between b and lepton 
 0.4 = dral    ! min distance between gamma and lepton 
 -1  = drjjmax ! max distance between jets
 -1  = drbbmax ! max distance between b's
 -1  = drllmax ! max distance between leptons
 -1  = draamax ! max distance between gammas
 -1  = drbjmax ! max distance between b and jet
 -1  = drajmax ! max distance between gamma and jet
 -1  = drjlmax ! max distance between jet and lepton
 -1  = drabmax ! max distance between gamma and b
 -1  = drblmax ! max distance between b and lepton
 -1  = dralmax ! maxdistance between gamma and lepton
#*********************************************************************
# Minimum and maximum invariant mass for pairs                       *
# WARNING: for four lepton final state mmll cut require to have      *
#          different lepton masses for each flavor!                  *           
#*********************************************************************
 0   = mmjj    ! min invariant mass of a jet pair 
 0   = mmbb    ! min invariant mass of a b pair 
 0   = mmaa    ! min invariant mass of gamma gamma pair
 0   = mmll    ! min invariant mass of l+l- (same flavour) lepton pair
 -1  = mmjjmax ! max invariant mass of a jet pair
 -1  = mmbbmax ! max invariant mass of a b pair
 -1  = mmaamax ! max invariant mass of gamma gamma pair
 -1  = mmllmax ! max invariant mass of l+l- (same flavour) lepton pair
#*********************************************************************
# Minimum and maximum invariant mass for all letpons                 *
#*********************************************************************
 0   = mmnl    ! min invariant mass for all letpons (l+- and vl) 
 -1  = mmnlmax ! max invariant mass for all letpons (l+- and vl) 
#*********************************************************************
# Minimum and maximum pt for 4-momenta sum of leptons                *
#*********************************************************************
 0   = ptllmin  ! Minimum pt for 4-momenta sum of leptons(l and vl)
 -1  = ptllmax  ! Maximum pt for 4-momenta sum of leptons(l and vl)
#*********************************************************************
# Inclusive cuts                                                     *
#*********************************************************************
 0  = xptj ! minimum pt for at least one jet  
 0  = xptb ! minimum pt for at least one b 
 0  = xpta ! minimum pt for at least one photon 
 0  = xptl ! minimum pt for at least one charged lepton 
#*********************************************************************
# Control the pt's of the jets sorted by pt                          *
#*********************************************************************
 0   = ptj1min ! minimum pt for the leading jet in pt
 0   = ptj2min ! minimum pt for the second jet in pt
 0   = ptj3min ! minimum pt for the third jet in pt
 0   = ptj4min ! minimum pt for the fourth jet in pt
 -1  = ptj1max ! maximum pt for the leading jet in pt 
 -1  = ptj2max ! maximum pt for the second jet in pt
 -1  = ptj3max ! maximum pt for the third jet in pt
 -1  = ptj4max ! maximum pt for the fourth jet in pt
 0   = cutuse  ! reject event if fails any (0) / all (1) jet pt cuts
#*********************************************************************
# Control the pt's of leptons sorted by pt                           *
#*********************************************************************
 0   = ptl1min ! minimum pt for the leading lepton in pt
 0   = ptl2min ! minimum pt for the second lepton in pt
 0   = ptl3min ! minimum pt for the third lepton in pt
 0   = ptl4min ! minimum pt for the fourth lepton in pt
 -1  = ptl1max ! maximum pt for the leading lepton in pt 
 -1  = ptl2max ! maximum pt for the second lepton in pt
 -1  = ptl3max ! maximum pt for the third lepton in pt
 -1  = ptl4max ! maximum pt for the fourth lepton in pt
#*********************************************************************
# Control the Ht(k)=Sum of k leading jets                            *
#*********************************************************************
 0   = htjmin ! minimum jet HT=Sum(jet pt)
 -1  = htjmax ! maximum jet HT=Sum(jet pt)
 0   = ihtmin  !inclusive Ht for all partons (including b)
 -1  = ihtmax  !inclusive Ht for all partons (including b)
 0   = ht2min ! minimum Ht for the two leading jets
 0   = ht3min ! minimum Ht for the three leading jets
 0   = ht4min ! minimum Ht for the four leading jets
 -1  = ht2max ! maximum Ht for the two leading jets
 -1  = ht3max ! maximum Ht for the three leading jets
 -1  = ht4max ! maximum Ht for the four leading jets
#***********************************************************************
# Photon-isolation cuts, according to hep-ph/9801442                   *
# When ptgmin=0, all the other parameters are ignored                  *
# When ptgmin>0, pta and draj are not going to be used                 *
#***********************************************************************
   0 = ptgmin ! Min photon transverse momentum
 0.4 = R0gamma ! Radius of isolation code
 1.0 = xn ! n parameter of eq.(3.4) in hep-ph/9801442
 1.0 = epsgamma ! epsilon_gamma parameter of eq.(3.4) in hep-ph/9801442
 .true. = isoEM ! isolate photons from EM energy (photons and leptons)
#*********************************************************************
# WBF cuts                                                           *
#*********************************************************************
 0   = xetamin ! minimum rapidity for two jets in the WBF case  
 0   = deltaeta ! minimum rapidity for two jets in the WBF case 
#*********************************************************************
# KT DURHAM CUT                                                      *
#*********************************************************************
 -1    =  ktdurham        
 0.4  =  dparameter 
#*********************************************************************
# maximal pdg code for quark to be considered as a light jet         *
# (otherwise b cuts are applied)                                     *
#*********************************************************************
 4 = maxjetflavor    ! Maximum jet pdg code
#*********************************************************************
# Jet measure cuts                                                   *
#*********************************************************************
 0   = xqcut   ! minimum kt jet measure between partons
#*********************************************************************
#
#*********************************************************************
# Store info for systematics studies                                 *
# WARNING: If use_syst is T, matched Pythia output is                *
#          meaningful ONLY if plotted taking matchscale              *
#          reweighting into account!                                 *
#*********************************************************************
   F  = use_syst      ! Enable systematics studies
#
#**************************************
# Parameter of the systematics study
#  will be used by SysCalc (if installed)
#**************************************                                  
#
0.5 1 2 = sys_scalefact  # factorization/renormalization scale factor
0.5 1 2 = sys_alpsfact  # \alpha_s emission scale factors
30 50 = sys_matchscale # variation of merging scale
# PDF sets and number of members (0 or none for all members).
CT10nlo.LHgrid = sys_pdf # matching scales
# MSTW2008nlo68cl.LHgrid 1  = sys_pdf
</MGRunCard>
<slha>
######################################################################
## PARAM_CARD AUTOMATICALY GENERATED BY MG5 FOLLOWING UFO MODEL   ####
######################################################################
##                                                                  ##
##  Width set on Auto will be computed following the information    ##
##        present in the decay.py files of the model.               ##
##        See  arXiv:1402.1178 for more details.                    ##
##                                                                  ##
######################################################################

###################################
## INFORMATION FOR CKMBLOCK
###################################
Block ckmblock 
    1 2.277360e-01 # cabi 

###################################
## INFORMATION FOR FRBLOCK
###################################
Block frblock 
    1 1.600000e+00 # gz 

###################################
## INFORMATION FOR MASS
###################################
Block mass 
    1 5.040000e-03 # MD 
    2 2.550000e-03 # MU 
    3 1.010000e-01 # MS 
    4 1.270000e+00 # MC 
    5 4.700000e+00 # MB 
    6 1.720000e+02 # MT 
   11 5.110000e-04 # Me 
   13 1.056600e-01 # MM 
   15 1.777000e+00 # MTA 
   23 9.118760e+01 # MZ 
   25 1.200000e+02 # MH 
  10030 2.700000e+03 # MZph 
  10031 3.000000e+02 # MZpl 
## Dependent parameters, given by model restrictions.
## Those values should be edited following the 
## analytical expression. MG5 ignores those values 
## but they are important for interfacing the output of MG5
## to external program such as Pythia.
  12 0.000000 # ve : 0.0 
  14 0.000000 # vm : 0.0 
  16 0.000000 # vt : 0.0 
  21 0.000000 # g : 0.0 
  22 0.000000 # a : 0.0 
  24 79.824360 # w+ : cmath.sqrt(MZ__exp__2/2. + cmath.sqrt(MZ__exp__4/4. - (aEW*cmath.pi*MZ__exp__2)/(Gf*sqrt__2))) 

###################################
## INFORMATION FOR SMINPUTS
###################################
Block sminputs 
    1 1.279000e+02 # aEWM1 
    2 1.166370e-05 # Gf 
    3 1.184000e-01 # aS 

###################################
## INFORMATION FOR YUKAWA
###################################
Block yukawa 
    1 5.040000e-03 # ymdo 
    2 2.550000e-03 # ymup 
    3 1.010000e-01 # yms 
    4 1.270000e+00 # ymc 
    5 4.700000e+00 # ymb 
    6 1.720000e+02 # ymt 
   11 5.110000e-04 # yme 
   13 1.056600e-01 # ymm 
   15 1.777000e+00 # ymtau 

###################################
## INFORMATION FOR DECAY
###################################
DECAY   6 1.508336e+00 # WT 
DECAY  23 2.495200e+00 # WZ 
DECAY  24 2.085000e+00 # WW 
DECAY  25 5.753088e-03 # WH 
## Dependent parameters, given by model restrictions.
## Those values should be edited following the 
## analytical expression. MG5 ignores those values 
## but they are important for interfacing the output of MG5
## to external program such as Pythia.
DECAY  1 0.000000 # d : 0.0 
DECAY  2 0.000000 # u : 0.0 
DECAY  3 0.000000 # s : 0.0 
DECAY  4 0.000000 # c : 0.0 
DECAY  5 0.000000 # b : 0.0 
DECAY  11 0.000000 # e- : 0.0 
DECAY  12 0.000000 # ve : 0.0 
DECAY  13 0.000000 # mu- : 0.0 
DECAY  14 0.000000 # vm : 0.0 
DECAY  15 0.000000 # ta- : 0.0 
DECAY  16 0.000000 # vt : 0.0 
DECAY  21 0.000000 # g : 0.0 
DECAY  22 0.000000 # a : 0.0 
DECAY  10030 0.308725 # zph : (gz__exp__2*MZph*(5 + cmath.sqrt(1 - (4*MT__exp__2)/MZph__exp__2)))/(144.*cmath.pi) 
DECAY  10031 0.132629 # zpl : (5*gz__exp__2*MZpl)/(144.*cmath.pi) 
#===========================================================
# QUANTUM NUMBERS OF NEW STATE(S) (NON SM PDG CODE)
#===========================================================

Block QNUMBERS 10030  # zph 
        1 0  # 3 times electric charge
        2 3  # number of spin states (2S+1)
        3 1  # colour rep (1: singlet, 3: triplet, 8: octet)
        4 0  # Particle/Antiparticle distinction (0=own anti)
Block QNUMBERS 10031  # zpl 
        1 0  # 3 times electric charge
        2 3  # number of spin states (2S+1)
        3 1  # colour rep (1: singlet, 3: triplet, 8: octet)
        4 0  # Particle/Antiparticle distinction (0=own anti)
</slha>
## END BANNER##
<MGGenerationInfo>
#  Number of Events        :         3953
#  Integrated weight (pb)  :  0.98244E-02
#  Max wgt                 :  0.36767E-05
#  Average wgt             :  0.24853E-05
</MGGenerationInfo>
</header>
<init>
     2212     2212  0.40000000000E+04  0.40000000000E+04 0 0  247000  247000 2   1
  0.98351165170E-02  0.36820119854E-04  0.36767240000E-05   0
</init>
<event>
 5   0  0.3652331E-05  0.2695905E+04  0.7818609E-02  0.8336335E-01
        2   -1    0    0  501    0  0.00000000000E+00  0.00000000000E+00  0.11682741752E+04  0.11682741752E+04  0.25500000920E-02 0. -1.
       -2   -1    0    0    0  501  0.00000000000E+00  0.00000000000E+00 -0.15552651477E+04  0.15552651477E+04  0.25500000920E-02 0.  1.
    10030    2    1    2    0    0  0.00000000000E+00  0.00000000000E+00 -0.38699097253E+03  0.27235393229E+04  0.26959051227E+04 0.  0.
        1    1    3    3  502    0 -0.90941036511E+03  0.96990346787E+03 -0.41766220079E+03  0.13936217791E+04  0.50400001928E-02 0.  1.
       -1    1    3    3    0  502  0.90941036511E+03 -0.96990346787E+03  0.30671228259E+02  0.13299175438E+04  0.50400001928E-02 0. -1.
</event>
<event>
 5   0  0.3652331E-05  0.2765741E+04  0.7818609E-02  0.8313984E-01
       -2   -1    0    0    0  501  0.00000000000E+00  0.00000000000E+00  0.13972967711E+04  0.13972967711E+04  0.25500000920E-02 0. -1.
        2   -1    0    0  501    0  0.00000000000E+00  0.00000000000E+00 -0.13685936145E+04  0.13685936145E+04  0.25500000920E-02 0.  1.
    10030    2    1    2    0    0  0.00000000000E+00  0.00000000000E+00  0.28703156579E+02  0.27658903857E+04  0.27657414475E+04 0.  0.
        1    1    3    3  502    0 -0.79115358956E+03  0.10683112456E+04  0.39531633890E+03  0.13868986724E+04  0.50400001928E-02 0. -1.
       -1    1    3    3    0  502  0.79115358956E+03 -0.10683112456E+04 -0.36661318232E+03  0.13789917133E+04  0.50400001928E-02 0.  1.
</event>
<event>
 5   0  0.3568647E-05  0.2953350E+04  0.7818609E-02  0.8257179E-01
       -2   -1    0    0    0  501  0.00000000000E+00  0.00000000000E+00  0.92519021178E+03  0.92519021178E+03  0.25500000920E-02 0.  1.
        2   -1    0    0  501    0  0.00000000000E+00  0.00000000000E+00 -0.23568878189E+04  0.23568878189E+04  0.25500000920E-02 0. -1.
    10030    2    1    2    0    0  0.00000000000E+00  0.00000000000E+00 -0.14316976071E+04  0.32820780307E+04  0.29533503282E+04 0.  0.
        3    1    3    3  502    0  0.14386726738E+04 -0.23351687856E+03 -0.45225506240E+03  0.15260549946E+04  0.10100000352E+00 0.  1.
       -3    1    3    3    0  502 -0.14386726738E+04  0.23351687856E+03 -0.97944254472E+03  0.17560230361E+04  0.10100000352E+00 0. -1.
</event>
<event>
 5   0  0.3652331E-05  0.2709194E+04  0.7818609E-02  0.8332028E-01
       -2   -1    0    0    0  501  0.00000000000E+00  0.00000000000E+00  0.12622363987E+04  0.12622363987E+04  0.25500000920E-02 0. -1.
        2   -1    0    0  501    0  0.00000000000E+00  0.00000000000E+00 -0.14537158445E+04  0.14537158445E+04  0.25500000920E-02 0.  1.
    10030    2    1    2    0    0  0.00000000000E+00  0.00000000000E+00 -0.19147944571E+03  0.27159522432E+04  0.27091940147E+04 0.  0.
        1    1    3    3  502    0  0.41963609676E+03  0.37138134086E+03  0.11405903167E+04  0.12708126631E+04  0.50400001928E-02 0. -1.
       -1    1    3    3    0  502 -0.41963609676E+03 -0.37138134086E+03 -0.13320697624E+04  0.14451395801E+04  0.50400001928E-02 0.  1.
</event>
<event>
 5   0  0.3568647E-05  0.2685320E+04  0.7818609E-02  0.8339784E-01
        2   -1    0    0  501    0  0.00000000000E+00  0.00000000000E+00  0.11001328779E+04  0.11001328779E+04  0.25500000920E-02 0.  1.
       -2   -1    0    0    0  501  0.00000000000E+00  0.00000000000E+00 -0.16386523434E+04  0.16386523434E+04  0.25500000920E-02 0. -1.
    10030    2    1    2    0    0  0.00000000000E+00  0.00000000000E+00 -0.53851946549E+03  0.27387852213E+04  0.26853195850E+04 0.  0.
        3    1    3    3  502    0 -0.12361782597E+04  0.33607463315E+03  0.14080569396E+03  0.12887626245E+04  0.10100000352E+00 0.  1.
       -3    1    3    3    0  502  0.12361782597E+04 -0.33607463315E+03 -0.67932515945E+03  0.14500225968E+04  0.10100000352E+00 0. -1.
</event>
<event>
 5   0  0.1484379E-05  0.2760216E+04  0.7818609E-02  0.8315727E-01
       -1   -1    0    0    0  501  0.00000000000E+00  0.00000000000E+00  0.11531508261E+04  0.11531508261E+04  0.50400001928E-02 0.  1.
        1   -1    0    0  501    0  0.00000000000E+00  0.00000000000E+00 -0.16517340944E+04  0.16517340944E+04  0.50400001928E-02 0. -1.
    10030    2    1    2    0    0  0.00000000000E+00  0.00000000000E+00 -0.49858326834E+03  0.28048849205E+04  0.27602163216E+04 0.  0.
        1    1    3    3  502    0  0.43152373089E+03 -0.27490118949E+03 -0.15517969189E+04  0.16339697280E+04  0.50400001928E-02 0. -1.
       -1    1    3    3    0  502 -0.43152373089E+03  0.27490118949E+03  0.10532136506E+04  0.11709151926E+04  0.50400001928E-02 0.  1.
</event>
<event>
 5   0  0.1449521E-05  0.2701175E+04  0.7818609E-02  0.8334624E-01
        1   -1    0    0  501    0  0.00000000000E+00  0.00000000000E+00  0.19621566746E+04  0.19621566747E+04  0.50400001928E-02 0. -1.
       -1   -1    0    0    0  501  0.00000000000E+00  0.00000000000E+00 -0.92963378438E+03  0.92963378439E+03  0.50400001928E-02 0.  1.
    10030    2    1    2    0    0  0.00000000000E+00  0.00000000000E+00  0.10325228903E+04  0.28917904590E+04  0.27011753997E+04 0.  0.
        3    1    3    3  502    0  0.13482807426E+04 -0.41156742673E+02  0.58833446481E+03  0.14716291282E+04  0.10100000352E+00 0. -1.
       -3    1    3    3    0  502 -0.13482807426E+04  0.41156742673E+02  0.44418842546E+03  0.14201613309E+04  0.10100000352E+00 0.  1.
</event>
<event>
 5   0  0.3652331E-05  0.2419603E+04  0.7818609E-02  0.8432201E-01
       -2   -1    0    0    0  501  0.00000000000E+00  0.00000000000E+00  0.88042649631E+03  0.88042649632E+03  0.25500000920E-02 0. -1.
        2   -1    0    0  501    0  0.00000000000E+00  0.00000000000E+00 -0.16623982143E+04  0.16623982143E+04  0.25500000920E-02 0.  1.
    10030    2    1    2    0    0  0.00000000000E+00  0.00000000000E+00 -0.78197171798E+03  0.25428247106E+04  0.24196028065E+04 0.  0.
        1    1    3    3  502    0 -0.57056133314E+02 -0.57966134897E+03 -0.15053430245E+04  0.16141004626E+04  0.50400001928E-02 0.  1.
       -1    1    3    3    0  502  0.57056133314E+02  0.57966134897E+03  0.72337130650E+03  0.92872424806E+03  0.50400001928E-02 0. -1.
</event>
<event>
 5   0  0.1474012E-05  0.2558624E+04  0.7818609E-02  0.8382393E-01
        1   -1    0    0  501    0  0.00000000000E+00  0.00000000000E+00  0.15913971665E+04  0.15913971665E+04  0.50400001928E-02 0. -1.
       -1   -1    0    0    0  501  0.00000000000E+00  0.00000000000E+00 -0.10284289717E+04  0.10284289717E+04  0.50400001928E-02 0.  1.
    10030    2    1    2    0    0  0.00000000000E+00  0.00000000000E+00  0.56296819483E+03  0.26198261381E+04  0.25586238109E+04 0.  0.
        2    1    3    3  502    0  0.53832988821E+03  0.41928178782E+03  0.13895163264E+04  0.15480154739E+04  0.25500000920E-02 0. -1.
       -2    1    3    3    0  502 -0.53832988821E+03 -0.41928178782E+03 -0.82654813158E+03  0.10718106642E+04  0.25500000920E-02 0.  1.
</event>
<event>
 5   0  0.3652331E-05  0.2700666E+04  0.7818609E-02  0.8334789E-01
       -2   -1    0    0    0  501  0.00000000000E+00  0.00000000000E+00  0.16520965748E+04  0.16520965748E+04  0.25500000920E-02 0. -1.
        2   -1    0    0  501    0  0.00000000000E+00  0.00000000000E+00 -0.11036881344E+04  0.11036881344E+04  0.25500000920E-02 0.  1.
    10030    2    1    2    0    0  0.00000000000E+00  0.00000000000E+00  0.54840844035E+03  0.27557847092E+04  0.27006661301E+04 0.  0.
        1    1    3    3  502    0  0.14519413339E+03 -0.36371435053E+03 -0.10444669591E+04  0.11154733048E+04  0.50400001928E-02 0.  1.
       -1    1    3    3    0  502 -0.14519413339E+03  0.36371435053E+03  0.15928753994E+04  0.16403114044E+04  0.50400001928E-02 0. -1.
</event>
<event>
 5   0  0.1228050E-05  0.1634847E+04  0.7818609E-02  0.8799422E-01
       -4   -1    0    0    0  501  0.00000000000E+00  0.00000000000E+00  0.48357341798E+03  0.48357508566E+03  0.12699999809E+01 0.  1.
        4   -1    0    0  501    0  0.00000000000E+00  0.00000000000E+00 -0.13817527708E+04  0.13817533544E+04  0.12699999809E+01 0. -1.
    10030    2    1    2    0    0  0.00000000000E+00  0.00000000000E+00 -0.89817935280E+03  0.18653284401E+04  0.16348467939E+04 0.  0.
        4    1    3    3  502    0 -0.55273604466E+03  0.15265986041E+03 -0.11137607892E+04  0.12527118090E+04  0.12699999809E+01 0. -1.
       -4    1    3    3    0  502  0.55273604466E+03 -0.15265986041E+03  0.21558143637E+03  0.61261663107E+03  0.12699999809E+01 0.  1.
</event>
<event>
 5   0  0.3497949E-05  0.2122502E+04  0.7818609E-02  0.8551395E-01
       -2   -1    0    0    0  501  0.00000000000E+00  0.00000000000E+00  0.10356207520E+04  0.10356207520E+04  0.25500000920E-02 0.  1.
        2   -1    0    0  501    0  0.00000000000E+00  0.00000000000E+00 -0.10875159764E+04  0.10875159764E+04  0.25500000920E-02 0. -1.
    10030    2    1    2    0    0  0.00000000000E+00  0.00000000000E+00 -0.51895224472E+02  0.21231367284E+04  0.21225024035E+04 0.  0.
        5    1    3    3  502    0  0.69290120989E+03 -0.66633505500E+03  0.42376158007E+03  0.10505762509E+04  0.46999998093E+01 0. -1.
       -5    1    3    3    0  502 -0.69290120989E+03  0.66633505500E+03 -0.47565680454E+03  0.10725604775E+04  0.46999998093E+01 0.  1.
</event>
<event>
 5   0  0.1495517E-05  0.1762688E+04  0.7818609E-02  0.8726397E-01
        1   -1    0    0  501    0  0.00000000000E+00  0.00000000000E+00  0.15714449540E+04  0.15714449540E+04  0.50400001928E-02 0.  1.
       -1   -1    0    0    0  501  0.00000000000E+00  0.00000000000E+00 -0.49430101483E+03  0.49430101486E+03  0.50400001928E-02 0. -1.
    10030    2    1    2    0    0  0.00000000000E+00  0.00000000000E+00  0.10771439392E+04  0.20657459689E+04  0.17626875339E+04 0.  0.
        5    1    3    3  502    0  0.80314676942E+03 -0.26652832222E+03  0.24992810773E+03  0.88236513349E+03  0.46999998093E+01 0.  1.
       -5    1    3    3    0  502 -0.80314676942E+03  0.26652832222E+03  0.82721583146E+03  0.11833808354E+04  0.46999998093E+01 0. -1.
</event>
<event>
 5   0  0.1484379E-05  0.2491412E+04  0.7818609E-02  0.8406051E-01
       -1   -1    0    0    0  501  0.00000000000E+00  0.00000000000E+00  0.86693111478E+03  0.86693111480E+03  0.50400001928E-02 0. -1.
        1   -1    0    0  501    0  0.00000000000E+00  0.00000000000E+00 -0.17899735671E+04  0.17899735671E+04  0.50400001928E-02 0.  1.
    10030    2    1    2    0    0  0.00000000000E+00  0.00000000000E+00 -0.92304245232E+03  0.26569046819E+04  0.24914122742E+04 0.  0.
        1    1    3    3  502    0 -0.10869622734E+04  0.35699573813E+03  0.64011999524E+02  0.11458754195E+04  0.50400001928E-02 0.  1.
       -1    1    3    3    0  502  0.10869622734E+04 -0.35699573813E+03 -0.98705445184E+03  0.15110292624E+04  0.50400001928E-02 0. -1.
</event>
<event>
 5   0  0.1449521E-05  0.1339410E+04  0.7818609E-02  0.8998883E-01
        1   -1    0    0  501    0  0.00000000000E+00  0.00000000000E+00  0.21289045923E+04  0.21289045923E+04  0.50400001928E-02 0.  1.
       -1   -1    0    0    0  501  0.00000000000E+00  0.00000000000E+00 -0.21067399180E+03  0.21067399186E+03  0.50400001928E-02 0. -1.
    10030    2    1    2    0    0  0.00000000000E+00  0.00000000000E+00  0.19182306005E+04  0.23395785842E+04  0.13394100622E+04 0.  0.
        3    1    3    3  502    0 -0.57447058256E+03  0.20855997151E+02  0.35896044782E+03  0.67771973274E+03  0.10100000352E+00 0. -1.
       -3    1    3    3    0  502  0.57447058256E+03 -0.20855997151E+02  0.15592701527E+04  0.16618588514E+04  0.10100000352E+00 0.  1.
</event>
<event>
 5   0  0.1449521E-05  0.2692310E+04  0.7818609E-02  0.8337504E-01
        1   -1    0    0  501    0  0.00000000000E+00  0.00000000000E+00  0.10072814710E+04  0.10072814710E+04  0.50400001928E-02 0.  1.
       -1   -1    0    0    0  501  0.00000000000E+00  0.00000000000E+00 -0.17990339388E+04  0.17990339388E+04  0.50400001928E-02 0. -1.
    10030    2    1    2    0    0  0.00000000000E+00  0.00000000000E+00 -0.79175246775E+03  0.28063154098E+04  0.26923101993E+04 0.  0.
        3    1    3    3  502    0 -0.82217110517E+03  0.80837115187E+03  0.32831283797E+03  0.11988405128E+04  0.10100000352E+00 0.  1.
       -3    1    3    3    0  502  0.82217110517E+03 -0.80837115187E+03 -0.11200653057E+04  0.16074748970E+04  0.10100000352E+00 0. -1.
</event>
<event>
 5   0  0.3652331E-05  0.2477710E+04  0.7818609E-02  0.8410970E-01
       -2   -1    0    0    0  501  0.00000000000E+00  0.00000000000E+00  0.16206328291E+04  0.16206328291E+04  0.25500000920E-02 0. -1.
        2   -1    0    0  501    0  0.00000000000E+00  0.00000000000E+00 -0.94701394066E+03  0.94701394066E+03  0.25500000920E-02 0.  1.
    10030    2    1    2    0    0  0.00000000000E+00  0.00000000000E+00  0.67361888846E+03  0.25676467698E+04  0.24777101379E+04 0.  0.
        1    1    3    3  502    0  0.77503767663E+03  0.91309286950E+03  0.66507218967E+03  0.13699427017E+04  0.50400001928E-02 0.  1.
       -1    1    3    3    0  502 -0.77503767663E+03 -0.91309286950E+03  0.85466987875E+01  0.11977040680E+04  0.50400001928E-02 0. -1.
</event>
<event>
 5   0  0.1438701E-05  0.2685550E+04  0.7818609E-02  0.8339709E-01
       -1   -1    0    0    0  501  0.00000000000E+00  0.00000000000E+00  0.11438965346E+04  0.11438965346E+04  0.50400001928E-02 0.  1.
        1   -1    0    0  501    0  0.00000000000E+00  0.00000000000E+00 -0.15762309780E+04  0.15762309781E+04  0.50400001928E-02 0. -1.
    10030    2    1    2    0    0  0.00000000000E+00  0.00000000000E+00 -0.43233444342E+03  0.27201275127E+04  0.26855503373E+04 0.  0.
        4    1    3    3  502    0 -0.83160853607E+03 -0.64363751219E+03 -0.10619038378E+04  0.14944843184E+04  0.12699999809E+01 0. -1.
       -4    1    3    3    0  502  0.83160853607E+03  0.64363751219E+03  0.62956939440E+03  0.12256431943E+04  0.12699999809E+01 0.  1.
</event>
<event>
 5   0  0.1484379E-05  0.1740169E+04  0.7818609E-02  0.8738781E-01
        1   -1    0    0  501    0  0.00000000000E+00  0.00000000000E+00  0.13468654925E+04  0.13468654925E+04  0.50400001928E-02 0. -1.
       -1   -1    0    0    0  501  0.00000000000E+00  0.00000000000E+00 -0.56208034236E+03  0.56208034239E+03  0.50400001928E-02 0.  1.
    10030    2    1    2    0    0  0.00000000000E+00  0.00000000000E+00  0.78478515010E+03  0.19089458349E+04  0.17401685173E+04 0.  0.
        1    1    3    3  502    0 -0.20493917464E+03  0.53038302407E+03 -0.33007312976E+03  0.65746063650E+03  0.50400001928E-02 0.  1.
       -1    1    3    3    0  502  0.20493917464E+03 -0.53038302407E+03  0.11148582799E+04  0.12514851984E+04  0.50400001928E-02 0. -1.
</event>
<event>
 5   0  0.3514294E-05  0.2699654E+04  0.7818609E-02  0.8335117E-01
        2   -1    0    0  501    0  0.00000000000E+00  0.00000000000E+00  0.27987333390E+04  0.27987333390E+04  0.25500000920E-02 0.  1.
       -2   -1    0    0    0  501  0.00000000000E+00  0.00000000000E+00 -0.65102059908E+03  0.65102059908E+03  0.25500000920E-02 0. -1.
    10030    2    1    2    0    0  0.00000000000E+00  0.00000000000E+00  0.21477127399E+04  0.34497539381E+04  0.26996540927E+04 0.  0.
        2    1    3    3  502    0 -0.30708768826E+03  0.51537744151E+03 -0.47129473546E+03  0.76291250034E+03  0.25500000920E-02 0. -1.
       -2    1    3    3    0  502  0.30708768826E+03 -0.51537744151E+03  0.26190074754E+04  0.26868414378E+04  0.25500000920E-02 0.  1.
</event>
<event>
 5   0  0.1449521E-05  0.2886025E+04  0.7818609E-02  0.8277048E-01
       -1   -1    0    0    0  501  0.00000000000E+00  0.00000000000E+00  0.12651473931E+04  0.12651473931E+04  0.50400001928E-02 0. -1.
        1   -1    0    0  501    0  0.00000000000E+00  0.00000000000E+00 -0.16458835745E+04  0.16458835745E+04  0.50400001928E-02 0.  1.
    10030    2    1    2    0    0  0.00000000000E+00  0.00000000000E+00 -0.38073618136E+03  0.29110309676E+04  0.28860251652E+04 0.  0.
        3    1    3    3  502    0 -0.55186493283E+03  0.11848561879E+04  0.42635925401E+03  0.13748531972E+04  0.10100000352E+00 0. -1.
       -3    1    3    3    0  502  0.55186493283E+03 -0.11848561879E+04 -0.80709543537E+03  0.15361777704E+04  0.10100000352E+00 0.  1.
</event>
<event>
 5   0  0.3568647E-05  0.2719106E+04  0.7818609E-02  0.8328832E-01
        2   -1    0    0  501    0  0.00000000000E+00  0.00000000000E+00  0.13538465666E+04  0.13538465666E+04  0.25500000920E-02 0.  1.
       -2   -1    0    0    0  501  0.00000000000E+00  0.00000000000E+00 -0.13652835600E+04  0.13652835600E+04  0.25500000920E-02 0. -1.
    10030    2    1    2    0    0  0.00000000000E+00  0.00000000000E+00 -0.11436993331E+02  0.27191301266E+04  0.27191060738E+04 0.  0.
        3    1    3    3  502    0 -0.56066515830E+03 -0.26361145700E+02  0.12325751873E+04  0.13543566489E+04  0.10100000352E+00 0.  1.
       -3    1    3    3    0  502  0.56066515830E+03  0.26361145700E+02 -0.12440121807E+04  0.13647734777E+04  0.10100000352E+00 0. -1.
</event>
<event>
 5   0  0.1484379E-05  0.2688918E+04  0.7818609E-02  0.8338610E-01
        1   -1    0    0  501    0  0.00000000000E+00  0.00000000000E+00  0.19608489136E+04  0.19608489136E+04  0.50400001928E-02 0. -1.
       -1   -1    0    0    0  501  0.00000000000E+00  0.00000000000E+00 -0.92183003064E+03  0.92183003065E+03  0.50400001928E-02 0.  1.
    10030    2    1    2    0    0  0.00000000000E+00  0.00000000000E+00  0.10390188829E+04  0.28826789442E+04  0.26889175622E+04 0.  0.
        1    1    3    3  502    0 -0.11028392419E+04 -0.69317270833E+03  0.16261414309E+03  0.13127018536E+04  0.50400001928E-02 0.  1.
       -1    1    3    3    0  502  0.11028392419E+04  0.69317270833E+03  0.87640473985E+03  0.15699770906E+04  0.50400001928E-02 0. -1.
</event>
<event>
 5   0  0.3514294E-05  0.2666745E+04  0.7818609E-02  0.8345876E-01
        2   -1    0    0  501    0  0.00000000000E+00  0.00000000000E+00  0.19206101517E+04  0.19206101517E+04  0.25500000920E-02 0.  1.
       -2   -1    0    0    0  501  0.00000000000E+00  0.00000000000E+00 -0.92568646044E+03  0.92568646044E+03  0.25500000920E-02 0. -1.
    10030    2    1    2    0    0  0.00000000000E+00  0.00000000000E+00  0.99492369130E+03  0.28462966122E+04  0.26667454421E+04 0.  0.
        2    1    3    3  502    0  0.14284561521E+03  0.31153484988E+03  0.18727955717E+04  0.19038965533E+04  0.25500000920E-02 0.  1.
       -2    1    3    3    0  502 -0.14284561521E+03 -0.31153484988E+03 -0.87787188040E+03  0.94240005883E+03  0.25500000920E-02 0. -1.
</event>
<event>
 5   0  0.1474012E-05  0.2727038E+04  0.7818609E-02  0.8326285E-01
       -1   -1    0    0    0  501  0.00000000000E+00  0.00000000000E+00  0.14809793794E+04  0.14809793794E+04  0.50400001928E-02 0.  1.
        1   -1    0    0  501    0  0.00000000000E+00  0.00000000000E+00 -0.12553749754E+04  0.12553749754E+04  0.50400001928E-02 0. -1.
    10030    2    1    2    0    0  0.00000000000E+00  0.00000000000E+00  0.22560440404E+03  0.27363543548E+04  0.27270382850E+04 0.  0.
        2    1    3    3  502    0 -0.19089875102E+03 -0.26036869377E+03  0.14420731359E+04  0.14777716736E+04  0.25500000920E-02 0.  1.
       -2    1    3    3    0  502  0.19089875102E+03  0.26036869377E+03 -0.12164687319E+04  0.12585826812E+04  0.25500000920E-02 0. -1.
</event>
<event>
 5   0  0.3568647E-05  0.2659308E+04  0.7818609E-02  0.8348330E-01
        2   -1    0    0  501    0  0.00000000000E+00  0.00000000000E+00  0.19243114579E+04  0.19243114579E+04  0.25500000920E-02 0.  1.
       -2   -1    0    0    0  501  0.00000000000E+00  0.00000000000E+00 -0.91875932786E+03  0.91875932786E+03  0.25500000920E-02 0. -1.
    10030    2    1    2    0    0  0.00000000000E+00  0.00000000000E+00  0.10055521300E+04  0.28430707857E+04  0.26593075051E+04 0.  0.
        3    1    3    3  502    0  0.95293801993E+03  0.92213776231E+03  0.60725401443E+03  0.14584876999E+04  0.10100000352E+00 0. -1.
       -3    1    3    3    0  502 -0.95293801993E+03 -0.92213776231E+03  0.39829811557E+03  0.13845830858E+04  0.10100000352E+00 0.  1.
</event>
<event>
 5   0  0.3497949E-05  0.2604019E+04  0.7818609E-02  0.8366837E-01
       -2   -1    0    0    0  501  0.00000000000E+00  0.00000000000E+00  0.11650864475E+04  0.11650864475E+04  0.25500000920E-02 0.  1.
        2   -1    0    0  501    0  0.00000000000E+00  0.00000000000E+00 -0.14550235839E+04  0.14550235839E+04  0.25500000920E-02 0. -1.
    10030    2    1    2    0    0  0.00000000000E+00  0.00000000000E+00 -0.28993713642E+03  0.26201100315E+04  0.26040186316E+04 0.  0.
        5    1    3    3  502    0  0.11681308122E+04  0.12399666911E+03 -0.70995548649E+03  0.13725755539E+04  0.46999998093E+01 0. -1.
       -5    1    3    3    0  502 -0.11681308122E+04 -0.12399666911E+03  0.42001835007E+03  0.12475344776E+04  0.46999998093E+01 0.  1.
</event>
<event>
 5   0  0.1474012E-05  0.2699764E+04  0.7818609E-02  0.8335082E-01
       -1   -1    0    0    0  501  0.00000000000E+00  0.00000000000E+00  0.67246347709E+03  0.67246347711E+03  0.50400001928E-02 0. -1.
        1   -1    0    0  501    0  0.00000000000E+00  0.00000000000E+00 -0.27097101932E+04  0.27097101932E+04  0.50400001928E-02 0.  1.
    10030    2    1    2    0    0  0.00000000000E+00  0.00000000000E+00 -0.20372467161E+04  0.33821736703E+04  0.26997637960E+04 0.  0.
        2    1    3    3  502    0 -0.10088215620E+04 -0.88245448096E+03 -0.12195910182E+04  0.18121393729E+04  0.25500000920E-02 0.  1.
       -2    1    3    3    0  502  0.10088215620E+04  0.88245448096E+03 -0.81765569788E+03  0.15700342975E+04  0.25500000920E-02 0. -1.
</event>
<event>
 5   0  0.3568647E-05  0.2747945E+04  0.7818609E-02  0.8319614E-01
       -2   -1    0    0    0  501  0.00000000000E+00  0.00000000000E+00  0.95594664839E+03  0.95594664840E+03  0.25500000920E-02 0. -1.
        2   -1    0    0  501    0  0.00000000000E+00  0.00000000000E+00 -0.19747968979E+04  0.19747968979E+04  0.25500000920E-02 0.  1.
    10030    2    1    2    0    0  0.00000000000E+00  0.00000000000E+00 -0.10188502495E+04  0.29307435463E+04  0.27479450328E+04 0.  0.
        3    1    3    3  502    0 -0.19642100618E+02 -0.55519457634E+03 -0.18496717381E+04  0.19312981072E+04  0.10100000352E+00 0.  1.
       -3    1    3    3    0  502  0.19642100618E+02  0.55519457634E+03  0.83082148860E+03  0.99944543915E+03  0.10100000352E+00 0. -1.
</event>
<event>
 5   0  0.3652331E-05  0.2711936E+04  0.7818609E-02  0.8331143E-01
       -2   -1    0    0    0  501  0.00000000000E+00  0.00000000000E+00  0.85394588753E+03  0.85394588754E+03  0.25500000920E-02 0. -1.
        2   -1    0    0  501    0  0.00000000000E+00  0.00000000000E+00 -0.21531210325E+04  0.21531210325E+04  0.25500000920E-02 0.  1.
    10030    2    1    2    0    0  0.00000000000E+00  0.00000000000E+00 -0.12991751450E+04  0.30070669200E+04  0.27119357301E+04 0.  0.
        1    1    3    3  502    0  0.60932345455E+03  0.10019146862E+04  0.10534411561E+03  0.11773722832E+04  0.50400001928E-02 0. -1.
       -1    1    3    3    0  502 -0.60932345455E+03 -0.10019146862E+04 -0.14045192606E+04  0.18296946368E+04  0.50400001928E-02 0.  1.
</event>
<event>
 5   0  0.1495517E-05  0.2673918E+04  0.7818609E-02  0.8343518E-01
        1   -1    0    0  501    0  0.00000000000E+00  0.00000000000E+00  0.10503612955E+04  0.10503612955E+04  0.50400001928E-02 0.  1.
       -1   -1    0    0    0  501  0.00000000000E+00  0.00000000000E+00 -0.17017561938E+04  0.17017561939E+04  0.50400001928E-02 0. -1.
    10030    2    1    2    0    0  0.00000000000E+00  0.00000000000E+00 -0.65139489834E+03  0.27521174894E+04  0.26739176056E+04 0.  0.
        5    1    3    3  502    0 -0.10462555677E+04  0.12405854564E+03  0.52141313465E+03  0.11755573072E+04  0.46999998093E+01 0.  1.
       -5    1    3    3    0  502  0.10462555677E+04 -0.12405854564E+03 -0.11728080330E+04  0.15765601821E+04  0.46999998093E+01 0. -1.
</event>
<event>
 5   0  0.3568647E-05  0.2729387E+04  0.7818609E-02  0.8325533E-01
        2   -1    0    0  501    0  0.00000000000E+00  0.00000000000E+00  0.22280097002E+04  0.22280097002E+04  0.25500000920E-02 0. -1.
       -2   -1    0    0    0  501  0.00000000000E+00  0.00000000000E+00 -0.83589765694E+03  0.83589765695E+03  0.25500000920E-02 0.  1.
    10030    2    1    2    0    0  0.00000000000E+00  0.00000000000E+00  0.13921120433E+04  0.30639073572E+04  0.27293868088E+04 0.  0.
        3    1    3    3  502    0  0.64744574549E+03 -0.11913396442E+04  0.86964330929E+03  0.16108245208E+04  0.10100000352E+00 0. -1.
       -3    1    3    3    0  502 -0.64744574549E+03  0.11913396442E+04  0.52246873400E+03  0.14530828364E+04  0.10100000352E+00 0.  1.
</event>
<event>
 5   0  0.1438701E-05  0.2717997E+04  0.7818609E-02  0.8329189E-01
        1   -1    0    0  501    0  0.00000000000E+00  0.00000000000E+00  0.13834670225E+04  0.13834670225E+04  0.50400001928E-02 0.  1.
       -1   -1    0    0    0  501  0.00000000000E+00  0.00000000000E+00 -0.13349623909E+04  0.13349623909E+04  0.50400001928E-02 0. -1.
    10030    2    1    2    0    0  0.00000000000E+00  0.00000000000E+00  0.48504631652E+02  0.27184294134E+04  0.27179966476E+04 0.  0.
        4    1    3    3  502    0 -0.34856738999E+03  0.31196540161E+03  0.13004073535E+04  0.13819849982E+04  0.12699999809E+01 0.  1.
       -4    1    3    3    0  502  0.34856738999E+03 -0.31196540161E+03 -0.12519027219E+04  0.13364444152E+04  0.12699999809E+01 0. -1.
</event>
<event>
 5   0  0.1484379E-05  0.1963488E+04  0.7818609E-02  0.8623884E-01
       -1   -1    0    0    0  501  0.00000000000E+00  0.00000000000E+00  0.18685521188E+04  0.18685521188E+04  0.50400001928E-02 0. -1.
        1   -1    0    0  501    0  0.00000000000E+00  0.00000000000E+00 -0.51581190891E+03  0.51581190894E+03  0.50400001928E-02 0.  1.
    10030    2    1    2    0    0  0.00000000000E+00  0.00000000000E+00  0.13527402099E+04  0.23843640277E+04  0.19634881567E+04 0.  0.
        1    1    3    3  502    0 -0.38353718283E+03  0.87813422927E+03  0.93568721504E+03  0.13393024526E+04  0.50400001928E-02 0. -1.
       -1    1    3    3    0  502  0.38353718283E+03 -0.87813422927E+03  0.41705299485E+03  0.10450615751E+04  0.50400001928E-02 0.  1.
</event>
<event>
 5   0  0.1449521E-05  0.1820233E+04  0.7818609E-02  0.8695613E-01
        1   -1    0    0  501    0  0.00000000000E+00  0.00000000000E+00  0.12195851824E+04  0.12195851824E+04  0.50400001928E-02 0. -1.
       -1   -1    0    0    0  501  0.00000000000E+00  0.00000000000E+00 -0.67917536180E+03  0.67917536182E+03  0.50400001928E-02 0.  1.
    10030    2    1    2    0    0  0.00000000000E+00  0.00000000000E+00  0.54040982060E+03  0.18987605442E+04  0.18202331802E+04 0.  0.
        3    1    3    3  502    0  0.30545462571E+03  0.85707101388E+03  0.24835001240E+03  0.94316010839E+03  0.10100000352E+00 0.  1.
       -3    1    3    3    0  502 -0.30545462571E+03 -0.85707101388E+03  0.29205980821E+03  0.95560043584E+03  0.10100000352E+00 0. -1.
</event>
<event>
 5   0  0.3676724E-05  0.2710524E+04  0.7818609E-02  0.8331598E-01
       -2   -1    0    0    0  501  0.00000000000E+00  0.00000000000E+00  0.80128926930E+03  0.80128926930E+03  0.25500000920E-02 0. -1.
        2   -1    0    0  501    0  0.00000000000E+00  0.00000000000E+00 -0.22922244598E+04  0.22922244598E+04  0.25500000920E-02 0.  1.
    10030    2    1    2    0    0  0.00000000000E+00  0.00000000000E+00 -0.14909351905E+04  0.30935137291E+04  0.27105238331E+04 0.  0.
        4    1    3    3  502    0 -0.11799607187E+04  0.52653434642E+03 -0.12121277958E+04  0.17716661994E+04  0.12699999809E+01 0.  1.
       -4    1    3    3    0  502  0.11799607187E+04 -0.52653434642E+03 -0.27880739468E+03  0.13218475297E+04  0.12699999809E+01 0. -1.
</event>
<event>
 5   0  0.3676724E-05  0.2768932E+04  0.7818609E-02  0.8312979E-01
        2   -1    0    0  501    0  0.00000000000E+00  0.00000000000E+00  0.58069216219E+03  0.58069216219E+03  0.25500000920E-02 0.  1.
       -2   -1    0    0    0  501  0.00000000000E+00  0.00000000000E+00 -0.33007966356E+04  0.33007966356E+04  0.25500000920E-02 0. -1.
    10030    2    1    2    0    0  0.00000000000E+00  0.00000000000E+00 -0.27201044734E+04  0.38814887978E+04  0.27689324552E+04 0.  0.
        4    1    3    3  502    0 -0.10236007800E+04 -0.31139007473E+03 -0.25917411574E+04  0.28038983889E+04  0.12699999809E+01 0. -1.
       -4    1    3    3    0  502  0.10236007800E+04  0.31139007473E+03 -0.12836331602E+03  0.10775904089E+04  0.12699999809E+01 0.  1.
</event>
<event>
 5   0  0.1474012E-05  0.2491478E+04  0.7818609E-02  0.8406028E-01
        1   -1    0    0  501    0  0.00000000000E+00  0.00000000000E+00  0.25526309833E+04  0.25526309833E+04  0.50400001928E-02 0.  1.
       -1   -1    0    0    0  501  0.00000000000E+00  0.00000000000E+00 -0.60794756646E+03  0.60794756648E+03  0.50400001928E-02 0. -1.
    10030    2    1    2    0    0  0.00000000000E+00  0.00000000000E+00  0.19446834168E+04  0.31605785498E+04  0.24914781110E+04 0.  0.
        2    1    3    3  502    0  0.12037699722E+04 -0.28494152241E+03  0.11588322297E+04  0.16950356792E+04  0.25500000920E-02 0. -1.
       -2    1    3    3    0  502 -0.12037699722E+04  0.28494152241E+03  0.78585118713E+03  0.14655428706E+04  0.25500000920E-02 0.  1.
</event>
<event>
 5   0  0.1449521E-05  0.2699552E+04  0.7818609E-02  0.8335150E-01
        1   -1    0    0  501    0  0.00000000000E+00  0.00000000000E+00  0.15108812521E+04  0.15108812521E+04  0.50400001928E-02 0.  1.
       -1   -1    0    0    0  501  0.00000000000E+00  0.00000000000E+00 -0.12058493934E+04  0.12058493934E+04  0.50400001928E-02 0. -1.
    10030    2    1    2    0    0  0.00000000000E+00  0.00000000000E+00  0.30503185869E+03  0.27167306456E+04  0.26995519935E+04 0.  0.
        3    1    3    3  502    0  0.76206170734E+02  0.11638490095E+04 -0.53117706013E+03  0.12816009429E+04  0.10100000352E+00 0. -1.
       -3    1    3    3    0  502 -0.76206170734E+02 -0.11638490095E+04  0.83620891883E+03  0.14351297027E+04  0.10100000352E+00 0.  1.
</event>
<event>
 5   0  0.1495517E-05  0.2800882E+04  0.7818609E-02  0.8302995E-01
        1   -1    0    0  501    0  0.00000000000E+00  0.00000000000E+00  0.16811967629E+04  0.16811967629E+04  0.50400001928E-02 0. -1.
       -1   -1    0    0    0  501  0.00000000000E+00  0.00000000000E+00 -0.11665705128E+04  0.11665705128E+04  0.50400001928E-02 0.  1.
    10030    2    1    2    0    0  0.00000000000E+00  0.00000000000E+00  0.51462625009E+03  0.28477672757E+04  0.28008816968E+04 0.  0.
        5    1    3    3  502    0 -0.79414989949E+03  0.10964936010E+04 -0.10678783394E+03  0.13580861576E+04  0.46999998093E+01 0.  1.
       -5    1    3    3    0  502  0.79414989949E+03 -0.10964936010E+04  0.62141408404E+03  0.14896811181E+04  0.46999998093E+01 0. -1.
</event>
<event>
 5   0  0.3514294E-05  0.2201454E+04  0.7818609E-02  0.8517823E-01
       -2   -1    0    0    0  501  0.00000000000E+00  0.00000000000E+00  0.81490624117E+03  0.81490624118E+03  0.25500000920E-02 0.  1.
        2   -1    0    0  501    0  0.00000000000E+00  0.00000000000E+00 -0.14867965999E+04  0.14867965999E+04  0.25500000920E-02 0. -1.
    10030    2    1    2    0    0  0.00000000000E+00  0.00000000000E+00 -0.67189035870E+03  0.23017028411E+04  0.22014539092E+04 0.  0.
        2    1    3    3  502    0 -0.85114409713E+03 -0.58821789458E+03  0.56867156196E+02  0.10361855235E+04  0.25500000920E-02 0.  1.
       -2    1    3    3    0  502  0.85114409713E+03  0.58821789458E+03 -0.72875751490E+03  0.12655173176E+04  0.25500000920E-02 0. -1.
</event>
<event>
 5   0  0.3568647E-05  0.2634439E+04  0.7818609E-02  0.8356596E-01
        2   -1    0    0  501    0  0.00000000000E+00  0.00000000000E+00  0.26992335555E+04  0.26992335555E+04  0.25500000920E-02 0. -1.
       -2   -1    0    0    0  501  0.00000000000E+00  0.00000000000E+00 -0.64280011889E+03  0.64280011890E+03  0.25500000920E-02 0.  1.
    10030    2    1    2    0    0  0.00000000000E+00  0.00000000000E+00  0.20564334366E+04  0.33420336744E+04  0.26344393335E+04 0.  0.
        3    1    3    3  502    0  0.54793135902E+03 -0.83327099606E+03  0.21198698282E+04  0.23427371654E+04  0.10100000352E+00 0. -1.
       -3    1    3    3    0  502 -0.54793135902E+03  0.83327099606E+03 -0.63436391595E+02  0.99929650907E+03  0.10100000352E+00 0.  1.
</event>
<event>
 5   0  0.3652331E-05  0.2601873E+04  0.7818609E-02  0.8367565E-01
       -2   -1    0    0    0  501  0.00000000000E+00  0.00000000000E+00  0.12567312250E+04  0.12567312250E+04  0.25500000920E-02 0.  1.
        2   -1    0    0  501    0  0.00000000000E+00  0.00000000000E+00 -0.13466967624E+04  0.13466967624E+04  0.25500000920E-02 0. -1.
    10030    2    1    2    0    0  0.00000000000E+00  0.00000000000E+00 -0.89965537481E+02  0.26034279874E+04  0.26018730729E+04 0.  0.
        1    1    3    3  502    0  0.65529338571E+03 -0.12464113903E+03  0.10725960954E+04  0.12630943032E+04  0.50400001928E-02 0.  1.
       -1    1    3    3    0  502 -0.65529338571E+03  0.12464113903E+03 -0.11625616328E+04  0.13403336842E+04  0.50400001928E-02 0. -1.
</event>
<event>
 5   0  0.3514294E-05  0.2700349E+04  0.7818609E-02  0.8334892E-01
       -2   -1    0    0    0  501  0.00000000000E+00  0.00000000000E+00  0.73949549673E+03  0.73949549673E+03  0.25500000920E-02 0. -1.
        2   -1    0    0  501    0  0.00000000000E+00  0.00000000000E+00 -0.24651557587E+04  0.24651557587E+04  0.25500000920E-02 0.  1.
    10030    2    1    2    0    0  0.00000000000E+00  0.00000000000E+00 -0.17256602620E+04  0.32046512554E+04  0.27003492976E+04 0.  0.
        2    1    3    3  502    0 -0.85883935261E+02  0.81309246920E+03  0.41229649901E+03  0.91568761972E+03  0.25500000920E-02 0. -1.
       -2    1    3    3    0  502  0.85883935261E+02 -0.81309246920E+03 -0.21379567610E+04  0.22889636357E+04  0.25500000920E-02 0.  1.
</event>
<event>
 5   0  0.3568647E-05  0.2809269E+04  0.7818609E-02  0.8300397E-01
        2   -1    0    0  501    0  0.00000000000E+00  0.00000000000E+00  0.72091798850E+03  0.72091798850E+03  0.25500000920E-02 0.  1.
       -2   -1    0    0    0  501  0.00000000000E+00  0.00000000000E+00 -0.27367852910E+04  0.27367852910E+04  0.25500000920E-02 0. -1.
    10030    2    1    2    0    0  0.00000000000E+00  0.00000000000E+00 -0.20158673025E+04  0.34577032796E+04  0.28092687639E+04 0.  0.
        3    1    3    3  502    0  0.12145106197E+04  0.70558213024E+03 -0.99470311780E+03  0.17211381382E+04  0.10100000352E+00 0. -1.
       -3    1    3    3    0  502 -0.12145106197E+04 -0.70558213024E+03 -0.10211641847E+04  0.17365651414E+04  0.10100000352E+00 0.  1.
</event>
<event>
 5   0  0.1449521E-05  0.2250482E+04  0.7818609E-02  0.8497706E-01
        1   -1    0    0  501    0  0.00000000000E+00  0.00000000000E+00  0.83825265291E+03  0.83825265293E+03  0.50400001928E-02 0.  1.
       -1   -1    0    0    0  501  0.00000000000E+00  0.00000000000E+00 -0.15104834627E+04  0.15104834627E+04  0.50400001928E-02 0. -1.
    10030    2    1    2    0    0  0.00000000000E+00  0.00000000000E+00 -0.67223080976E+03  0.23487361156E+04  0.22504815216E+04 0.  0.
        3    1    3    3  502    0 -0.15540971547E+02  0.39321788169E+03 -0.14363249184E+04  0.14892585759E+04  0.10100000352E+00 0. -1.
       -3    1    3    3    0  502  0.15540971547E+02 -0.39321788169E+03  0.76409410865E+03  0.85947753976E+03  0.10100000352E+00 0.  1.
</event>
<event>
 5   0  0.3497949E-05  0.2644439E+04  0.7818609E-02  0.8353261E-01
        2   -1    0    0  501    0  0.00000000000E+00  0.00000000000E+00  0.64593051211E+03  0.64593051211E+03  0.25500000920E-02 0.  1.
       -2   -1    0    0    0  501  0.00000000000E+00  0.00000000000E+00 -0.27065835315E+04  0.27065835315E+04  0.25500000920E-02 0. -1.
    10030    2    1    2    0    0  0.00000000000E+00  0.00000000000E+00 -0.20606530194E+04  0.33525140436E+04  0.26444393633E+04 0.  0.
        5    1    3    3  502    0 -0.58540867103E+02  0.20694139132E+03 -0.26842507993E+04  0.26928565160E+04  0.46999998093E+01 0. -1.
       -5    1    3    3    0  502  0.58540867103E+02 -0.20694139132E+03  0.62359777990E+03  0.65965752756E+03  0.46999998093E+01 0.  1.
</event>
<event>
 5   0  0.1495517E-05  0.2759610E+04  0.7818609E-02  0.8315919E-01
        1   -1    0    0  501    0  0.00000000000E+00  0.00000000000E+00  0.10299362807E+04  0.10299362807E+04  0.50400001928E-02 0.  1.
       -1   -1    0    0    0  501  0.00000000000E+00  0.00000000000E+00 -0.18485243452E+04  0.18485243452E+04  0.50400001928E-02 0. -1.
    10030    2    1    2    0    0  0.00000000000E+00  0.00000000000E+00 -0.81858806451E+03  0.28784606259E+04  0.27596103268E+04 0.  0.
        5    1    3    3  502    0 -0.13628512726E+03 -0.12216466397E+04  0.24447407023E+03  0.12533091435E+04  0.46999998093E+01 0.  1.
       -5    1    3    3    0  502  0.13628512726E+03  0.12216466397E+04 -0.10630621347E+04  0.16251514824E+04  0.46999998093E+01 0. -1.
</event>
<event>
 5   0  0.1449521E-05  0.2722424E+04  0.7818609E-02  0.8327766E-01
       -1   -1    0    0    0  501  0.00000000000E+00  0.00000000000E+00  0.59748186226E+03  0.59748186228E+03  0.50400001928E-02 0. -1.
        1   -1    0    0  501    0  0.00000000000E+00  0.00000000000E+00 -0.31011781587E+04  0.31011781588E+04  0.50400001928E-02 0.  1.
    10030    2    1    2    0    0  0.00000000000E+00  0.00000000000E+00 -0.25036962965E+04  0.36986600210E+04  0.27224237007E+04 0.  0.
        3    1    3    3  502    0  0.58422568706E+03 -0.22287023689E+03  0.39081514797E+03  0.73737865848E+03  0.10100000352E+00 0. -1.
       -3    1    3    3    0  502 -0.58422568706E+03  0.22287023689E+03 -0.28945114445E+04  0.29612813625E+04  0.10100000352E+00 0.  1.
</event>
<event>
 5   0  0.3568647E-05  0.2665612E+04  0.7818609E-02  0.8346250E-01
       -2   -1    0    0    0  501  0.00000000000E+00  0.00000000000E+00  0.10369032337E+04  0.10369032337E+04  0.25500000920E-02 0. -1.
        2   -1    0    0  501    0  0.00000000000E+00  0.00000000000E+00 -0.17131507462E+04  0.17131507462E+04  0.25500000920E-02 0.  1.
    10030    2    1    2    0    0  0.00000000000E+00  0.00000000000E+00 -0.67624751252E+03  0.27500539799E+04  0.26656117861E+04 0.  0.
        3    1    3    3  502    0  0.95665276202E+03 -0.65604153490E+03  0.33901928488E+03  0.12085152412E+04  0.10100000352E+00 0.  1.
       -3    1    3    3    0  502 -0.95665276202E+03  0.65604153490E+03 -0.10152667974E+04  0.15415387386E+04  0.10100000352E+00 0. -1.
</event>
<event>
 5   0  0.1484379E-05  0.2740048E+04  0.7818609E-02  0.8322126E-01
        1   -1    0    0  501    0  0.00000000000E+00  0.00000000000E+00  0.13941390370E+04  0.13941390370E+04  0.50400001928E-02 0.  1.
       -1   -1    0    0    0  501  0.00000000000E+00  0.00000000000E+00 -0.13463262688E+04  0.13463262688E+04  0.50400001928E-02 0. -1.
    10030    2    1    2    0    0  0.00000000000E+00  0.00000000000E+00  0.47812768162E+02  0.27404653058E+04  0.27400481805E+04 0.  0.
        1    1    3    3  502    0 -0.37454955638E+03  0.48405962595E+03  0.12498029415E+04  0.13916208120E+04  0.50400001928E-02 0.  1.
       -1    1    3    3    0  502  0.37454955638E+03 -0.48405962595E+03 -0.12019901733E+04  0.13488444938E+04  0.50400001928E-02 0. -1.
</event>
<event>
 5   0  0.1449521E-05  0.2811257E+04  0.7818609E-02  0.8299782E-01
       -1   -1    0    0    0  501  0.00000000000E+00  0.00000000000E+00  0.71164354157E+03  0.71164354159E+03  0.50400001928E-02 0. -1.
        1   -1    0    0  501    0  0.00000000000E+00  0.00000000000E+00 -0.27763778903E+04  0.27763778903E+04  0.50400001928E-02 0.  1.
    10030    2    1    2    0    0  0.00000000000E+00  0.00000000000E+00 -0.20647343487E+04  0.34880214319E+04  0.28112569392E+04 0.  0.
        3    1    3    3  502    0  0.55122457096E+03  0.61966690694E+03 -0.24404528509E+04  0.25775270572E+04  0.10100000352E+00 0.  1.
       -3    1    3    3    0  502 -0.55122457096E+03 -0.61966690694E+03  0.37571850216E+03  0.91049437464E+03  0.10100000352E+00 0. -1.
</event>
<event>
 5   0  0.1474012E-05  0.2711816E+04  0.7818609E-02  0.8331181E-01
       -1   -1    0    0    0  501  0.00000000000E+00  0.00000000000E+00  0.18241145597E+04  0.18241145597E+04  0.50400001928E-02 0. -1.
        1   -1    0    0  501    0  0.00000000000E+00  0.00000000000E+00 -0.10078790502E+04  0.10078790502E+04  0.50400001928E-02 0.  1.
    10030    2    1    2    0    0  0.00000000000E+00  0.00000000000E+00  0.81623550950E+03  0.28319936099E+04  0.27118162548E+04 0.  0.
        2    1    3    3  502    0  0.58118383985E+03 -0.11418790628E+04 -0.55192035859E+02  0.12824619334E+04  0.25500000920E-02 0.  1.
       -2    1    3    3    0  502 -0.58118383985E+03  0.11418790628E+04  0.87142754536E+03  0.15495316765E+04  0.25500000920E-02 0. -1.
</event>
<event>
 5   0  0.1495517E-05  0.2427525E+04  0.7818609E-02  0.8429270E-01
        1   -1    0    0  501    0  0.00000000000E+00  0.00000000000E+00  0.12076998184E+04  0.12076998184E+04  0.50400001928E-02 0.  1.
       -1   -1    0    0    0  501  0.00000000000E+00  0.00000000000E+00 -0.12198552808E+04  0.12198552808E+04  0.50400001928E-02 0. -1.
    10030    2    1    2    0    0  0.00000000000E+00  0.00000000000E+00 -0.12155462362E+02  0.24275550992E+04  0.24275246661E+04 0.  0.
        5    1    3    3  502    0  0.11373522247E+04  0.26308215790E+03 -0.33836883071E+03  0.12154414261E+04  0.46999998093E+01 0. -1.
       -5    1    3    3    0  502 -0.11373522247E+04 -0.26308215790E+03  0.32621336835E+03  0.12121136731E+04  0.46999998093E+01 0.  1.
</event>
<event>
 5   0  0.3676724E-05  0.2628613E+04  0.7818609E-02  0.8358546E-01
        2   -1    0    0  501    0  0.00000000000E+00  0.00000000000E+00  0.25053789532E+04  0.25053789532E+04  0.25500000920E-02 0. -1.
       -2   -1    0    0    0  501  0.00000000000E+00  0.00000000000E+00 -0.68947739703E+03  0.68947739703E+03  0.25500000920E-02 0.  1.
    10030    2    1    2    0    0  0.00000000000E+00  0.00000000000E+00  0.18159015562E+04  0.31948563503E+04  0.26286134438E+04 0.  0.
        4    1    3    3  502    0 -0.44874262255E+03  0.12337312073E+04  0.83168008726E+03  0.15540772225E+04  0.12699999809E+01 0. -1.
       -4    1    3    3    0  502  0.44874262255E+03 -0.12337312073E+04  0.98422146896E+03  0.16407791277E+04  0.12699999809E+01 0.  1.
</event>
<event>
 5   0  0.3652331E-05  0.2652676E+04  0.7818609E-02  0.8350525E-01
        2   -1    0    0  501    0  0.00000000000E+00  0.00000000000E+00  0.10008752871E+04  0.10008752871E+04  0.25500000920E-02 0.  1.
       -2   -1    0    0    0  501  0.00000000000E+00  0.00000000000E+00 -0.17576337658E+04  0.17576337658E+04  0.25500000920E-02 0. -1.
    10030    2    1    2    0    0  0.00000000000E+00  0.00000000000E+00 -0.75675847861E+03  0.27585090529E+04  0.26526757812E+04 0.  0.
        1    1    3    3  502    0  0.11368248350E+04 -0.67107379222E+03 -0.51180030788E+03  0.14158567354E+04  0.50400001928E-02 0. -1.
       -1    1    3    3    0  502 -0.11368248350E+04  0.67107379222E+03 -0.24495817073E+03  0.13426523175E+04  0.50400001928E-02 0.  1.
</event>
<event>
 5   0  0.1438701E-05  0.2734172E+04  0.7818609E-02  0.8324002E-01
       -1   -1    0    0    0  501  0.00000000000E+00  0.00000000000E+00  0.10444323559E+04  0.10444323559E+04  0.50400001928E-02 0.  1.
        1   -1    0    0  501    0  0.00000000000E+00  0.00000000000E+00 -0.17894159049E+04  0.17894159049E+04  0.50400001928E-02 0. -1.
    10030    2    1    2    0    0  0.00000000000E+00  0.00000000000E+00 -0.74498354901E+03  0.28338482607E+04  0.27341718082E+04 0.  0.
        4    1    3    3  502    0  0.12494241417E+03  0.67577354875E+02 -0.17817458242E+04  0.17873995358E+04  0.12699999809E+01 0. -1.
       -4    1    3    3    0  502 -0.12494241417E+03 -0.67577354875E+02  0.10367622752E+04  0.10464487249E+04  0.12699999809E+01 0.  1.
</event>
<event>
 5   0  0.3514294E-05  0.2706590E+04  0.7818609E-02  0.8332870E-01
       -2   -1    0    0    0  501  0.00000000000E+00  0.00000000000E+00  0.99347521397E+03  0.99347521397E+03  0.25500000920E-02 0.  1.
        2   -1    0    0  501    0  0.00000000000E+00  0.00000000000E+00 -0.18434357362E+04  0.18434357362E+04  0.25500000920E-02 0. -1.
    10030    2    1    2    0    0  0.00000000000E+00  0.00000000000E+00 -0.84996052219E+03  0.28369109501E+04  0.27065902626E+04 0.  0.
        2    1    3    3  502    0  0.43358545979E+03  0.35449042826E+02 -0.17681479192E+04  0.18208789223E+04  0.25500000920E-02 0. -1.
       -2    1    3    3    0  502 -0.43358545979E+03 -0.35449042826E+02  0.91818739699E+03  0.10160320278E+04  0.25500000920E-02 0.  1.
</event>
<event>
 5   0  0.1495517E-05  0.1562581E+04  0.7818609E-02  0.8843872E-01
        1   -1    0    0  501    0  0.00000000000E+00  0.00000000000E+00  0.79472358901E+03  0.79472358903E+03  0.50400001928E-02 0.  1.
       -1   -1    0    0    0  501  0.00000000000E+00  0.00000000000E+00 -0.76808410245E+03  0.76808410247E+03  0.50400001928E-02 0. -1.
    10030    2    1    2    0    0  0.00000000000E+00  0.00000000000E+00  0.26639486560E+02  0.15628076915E+04  0.15625806278E+04 0.  0.
        5    1    3    3  502    0 -0.25533564087E+03  0.17697659318E+03 -0.70363549748E+03  0.76918268789E+03  0.46999998093E+01 0. -1.
       -5    1    3    3    0  502  0.25533564087E+03 -0.17697659318E+03  0.73027498404E+03  0.79362500361E+03  0.46999998093E+01 0.  1.
</event>
<event>
 5   0  0.3514294E-05  0.2899279E+04  0.7818609E-02  0.8273092E-01
       -2   -1    0    0    0  501  0.00000000000E+00  0.00000000000E+00  0.13175356774E+04  0.13175356774E+04  0.25500000920E-02 0.  1.
        2   -1    0    0  501    0  0.00000000000E+00  0.00000000000E+00 -0.15949885076E+04  0.15949885076E+04  0.25500000920E-02 0. -1.
    10030    2    1    2    0    0  0.00000000000E+00  0.00000000000E+00 -0.27745283029E+03  0.29125241850E+04  0.28992787129E+04 0.  0.
        2    1    3    3  502    0 -0.12227678847E+03  0.10891649940E+04 -0.10918614840E+04  0.15470596295E+04  0.25500000920E-02 0. -1.
       -2    1    3    3    0  502  0.12227678847E+03 -0.10891649940E+04  0.81440865371E+03  0.13654645555E+04  0.25500000920E-02 0.  1.
</event>
<event>
 5   0  0.1438701E-05  0.2390089E+04  0.7818609E-02  0.8443223E-01
       -1   -1    0    0    0  501  0.00000000000E+00  0.00000000000E+00  0.86124689514E+03  0.86124689515E+03  0.50400001928E-02 0.  1.
        1   -1    0    0  501    0  0.00000000000E+00  0.00000000000E+00 -0.16582138911E+04  0.16582138911E+04  0.50400001928E-02 0. -1.
    10030    2    1    2    0    0  0.00000000000E+00  0.00000000000E+00 -0.79696699594E+03  0.25194607862E+04  0.23900891742E+04 0.  0.
        4    1    3    3  502    0  0.97967612080E+03  0.15646608758E+03  0.30382473832E+03  0.10375731409E+04  0.12699999809E+01 0.  1.
       -4    1    3    3    0  502 -0.97967612080E+03 -0.15646608758E+03 -0.11007917343E+04  0.14818876453E+04  0.12699999809E+01 0. -1.
</event>
<event>
 5   0  0.1438701E-05  0.2458072E+04  0.7818609E-02  0.8418077E-01
       -1   -1    0    0    0  501  0.00000000000E+00  0.00000000000E+00  0.13822784134E+04  0.13822784135E+04  0.50400001928E-02 0. -1.
        1   -1    0    0  501    0  0.00000000000E+00  0.00000000000E+00 -0.10927823032E+04  0.10927823032E+04  0.50400001928E-02 0.  1.
    10030    2    1    2    0    0  0.00000000000E+00  0.00000000000E+00  0.28949611029E+03  0.24750607166E+04  0.24580719178E+04 0.  0.
        4    1    3    3  502    0 -0.37372052144E+03  0.16169255377E+03  0.13123817013E+04  0.13741029266E+04  0.12699999809E+01 0. -1.
       -4    1    3    3    0  502  0.37372052144E+03 -0.16169255377E+03 -0.10228855910E+04  0.11009577900E+04  0.12699999809E+01 0.  1.
</event>
<event>
 5   0  0.1474012E-05  0.2716639E+04  0.7818609E-02  0.8329626E-01
       -1   -1    0    0    0  501  0.00000000000E+00  0.00000000000E+00  0.93937484419E+03  0.93937484420E+03  0.50400001928E-02 0. -1.
        1   -1    0    0  501    0  0.00000000000E+00  0.00000000000E+00 -0.19641062155E+04  0.19641062155E+04  0.50400001928E-02 0.  1.
    10030    2    1    2    0    0  0.00000000000E+00  0.00000000000E+00 -0.10247313713E+04  0.29034810597E+04  0.27166390781E+04 0.  0.
        2    1    3    3  502    0 -0.18897126428E+03  0.55510337220E+03  0.79712899660E+03  0.98957795538E+03  0.25500000920E-02 0. -1.
       -2    1    3    3    0  502  0.18897126428E+03 -0.55510337220E+03 -0.18218603679E+04  0.19139031043E+04  0.25500000920E-02 0.  1.
</event>
<event>
 5   0  0.3514294E-05  0.2696791E+04  0.7818609E-02  0.8336047E-01
        2   -1    0    0  501    0  0.00000000000E+00  0.00000000000E+00  0.25963386167E+04  0.25963386167E+04  0.25500000920E-02 0. -1.
       -2   -1    0    0    0  501  0.00000000000E+00  0.00000000000E+00 -0.70028255931E+03  0.70028255932E+03  0.25500000920E-02 0.  1.
    10030    2    1    2    0    0  0.00000000000E+00  0.00000000000E+00  0.18960560574E+04  0.32966211760E+04  0.26967911683E+04 0.  0.
        2    1    3    3  502    0  0.40376948590E+03 -0.10449572442E+04  0.30635795282E+02  0.11206712239E+04  0.25500000920E-02 0.  1.
       -2    1    3    3    0  502 -0.40376948590E+03  0.10449572442E+04  0.18654202621E+04  0.21759499521E+04  0.25500000920E-02 0. -1.
</event>
<event>
 5   0  0.1495517E-05  0.2694060E+04  0.7818609E-02  0.8336935E-01
        1   -1    0    0  501    0  0.00000000000E+00  0.00000000000E+00  0.30066761056E+04  0.30066761056E+04  0.50400001928E-02 0.  1.
       -1   -1    0    0    0  501  0.00000000000E+00  0.00000000000E+00 -0.60348683300E+03  0.60348683302E+03  0.50400001928E-02 0. -1.
    10030    2    1    2    0    0  0.00000000000E+00  0.00000000000E+00  0.24031892726E+04  0.36101629386E+04  0.26940597179E+04 0.  0.
        5    1    3    3  502    0 -0.62371813654E+03 -0.11350360750E+04  0.16978389625E+04  0.21354180944E+04  0.46999998093E+01 0.  1.
       -5    1    3    3    0  502  0.62371813654E+03  0.11350360750E+04  0.70535031005E+03  0.14747448441E+04  0.46999998093E+01 0. -1.
</event>
<event>
 5   0  0.3497949E-05  0.2689738E+04  0.7818609E-02  0.8338342E-01
       -2   -1    0    0    0  501  0.00000000000E+00  0.00000000000E+00  0.11054520681E+04  0.11054520681E+04  0.25500000920E-02 0.  1.
        2   -1    0    0  501    0  0.00000000000E+00  0.00000000000E+00 -0.16361379587E+04  0.16361379587E+04  0.25500000920E-02 0. -1.
    10030    2    1    2    0    0  0.00000000000E+00  0.00000000000E+00 -0.53068589059E+03  0.27415900267E+04  0.26897376006E+04 0.  0.
        5    1    3    3  502    0 -0.11412243439E+04  0.60400823148E+03 -0.64866603944E+03  0.14449943486E+04  0.46999998093E+01 0. -1.
       -5    1    3    3    0  502  0.11412243439E+04 -0.60400823148E+03  0.11798014884E+03  0.12965956781E+04  0.46999998093E+01 0.  1.
</event>
<event>
 5   0  0.3497949E-05  0.2801025E+04  0.7818609E-02  0.8302950E-01
        2   -1    0    0  501    0  0.00000000000E+00  0.00000000000E+00  0.13221194455E+04  0.13221194455E+04  0.25500000920E-02 0. -1.
       -2   -1    0    0    0  501  0.00000000000E+00  0.00000000000E+00 -0.14835541963E+04  0.14835541963E+04  0.25500000920E-02 0.  1.
    10030    2    1    2    0    0  0.00000000000E+00  0.00000000000E+00 -0.16143475078E+03  0.28056736418E+04  0.28010254204E+04 0.  0.
        5    1    3    3  502    0  0.12283399332E+04  0.63899103143E+03 -0.29150716098E+03  0.14149653864E+04  0.46999998093E+01 0.  1.
       -5    1    3    3    0  502 -0.12283399332E+04 -0.63899103143E+03  0.13007241020E+03  0.13907082554E+04  0.46999998093E+01 0. -1.
</event>
<event>
 5   0  0.3676724E-05  0.1409074E+04  0.7818609E-02  0.8947277E-01
        2   -1    0    0  501    0  0.00000000000E+00  0.00000000000E+00  0.24614243461E+04  0.24614243461E+04  0.25500000920E-02 0.  1.
       -2   -1    0    0    0  501  0.00000000000E+00  0.00000000000E+00 -0.20166054698E+03  0.20166054700E+03  0.25500000920E-02 0. -1.
    10030    2    1    2    0    0  0.00000000000E+00  0.00000000000E+00  0.22597637992E+04  0.26630848931E+04  0.14090737100E+04 0.  0.
        4    1    3    3  502    0  0.92464015429E+02  0.69668778841E+03  0.12233744529E+04  0.14108756620E+04  0.12699999809E+01 0. -1.
       -4    1    3    3    0  502 -0.92464015429E+02 -0.69668778841E+03  0.10363893462E+04  0.12522092311E+04  0.12699999809E+01 0.  1.
</event>
<event>
 5   0  0.1438701E-05  0.2660984E+04  0.7818609E-02  0.8347777E-01
        1   -1    0    0  501    0  0.00000000000E+00  0.00000000000E+00  0.17277193481E+04  0.17277193481E+04  0.50400001928E-02 0. -1.
       -1   -1    0    0    0  501  0.00000000000E+00  0.00000000000E+00 -0.10245926839E+04  0.10245926839E+04  0.50400001928E-02 0.  1.
    10030    2    1    2    0    0  0.00000000000E+00  0.00000000000E+00  0.70312666422E+03  0.27523120320E+04  0.26609837308E+04 0.  0.
        4    1    3    3  502    0  0.36764414770E+03  0.83893985645E+03  0.13496831765E+04  0.16311433388E+04  0.12699999809E+01 0. -1.
       -4    1    3    3    0  502 -0.36764414770E+03 -0.83893985645E+03 -0.64655651223E+03  0.11211686931E+04  0.12699999809E+01 0.  1.
</event>
<event>
 5   0  0.1474012E-05  0.2727114E+04  0.7818609E-02  0.8326261E-01
       -1   -1    0    0    0  501  0.00000000000E+00  0.00000000000E+00  0.10676460232E+04  0.10676460232E+04  0.50400001928E-02 0.  1.
        1   -1    0    0  501    0  0.00000000000E+00  0.00000000000E+00 -0.17414829838E+04  0.17414829839E+04  0.50400001928E-02 0. -1.
    10030    2    1    2    0    0  0.00000000000E+00  0.00000000000E+00 -0.67383696063E+03  0.28091290071E+04  0.27271137726E+04 0.  0.
        2    1    3    3  502    0  0.97320763480E+03 -0.67765354481E+03  0.35632970899E+03  0.12382722999E+04  0.25500000920E-02 0.  1.
       -2    1    3    3    0  502 -0.97320763480E+03  0.67765354481E+03 -0.10301666696E+04  0.15708567072E+04  0.25500000920E-02 0. -1.
</event>
<event>
 5   0  0.3514294E-05  0.2773469E+04  0.7818609E-02  0.8311553E-01
       -2   -1    0    0    0  501  0.00000000000E+00  0.00000000000E+00  0.89648818981E+03  0.89648818982E+03  0.25500000920E-02 0.  1.
        2   -1    0    0  501    0  0.00000000000E+00  0.00000000000E+00 -0.21450724403E+04  0.21450724403E+04  0.25500000920E-02 0. -1.
    10030    2    1    2    0    0  0.00000000000E+00  0.00000000000E+00 -0.12485842505E+04  0.30415606302E+04  0.27734686651E+04 0.  0.
        2    1    3    3  502    0 -0.79530001612E+03  0.69595679313E+03  0.36037093316E+03  0.11165684856E+04  0.25500000920E-02 0.  1.
       -2    1    3    3    0  502  0.79530001612E+03 -0.69595679313E+03 -0.16089551837E+04  0.19249921446E+04  0.25500000920E-02 0. -1.
</event>
<event>
 5   0  0.1474012E-05  0.2699357E+04  0.7818609E-02  0.8335214E-01
        1   -1    0    0  501    0  0.00000000000E+00  0.00000000000E+00  0.27919331044E+04  0.27919331044E+04  0.50400001928E-02 0. -1.
       -1   -1    0    0    0  501  0.00000000000E+00  0.00000000000E+00 -0.65246271115E+03  0.65246271117E+03  0.50400001928E-02 0.  1.
    10030    2    1    2    0    0  0.00000000000E+00  0.00000000000E+00  0.21394703932E+04  0.34443958155E+04  0.26993571403E+04 0.  0.
        2    1    3    3  502    0 -0.73288476522E+03  0.73256174386E+03  0.21732151337E+04  0.24076193231E+04  0.25500000920E-02 0. -1.
       -2    1    3    3    0  502  0.73288476522E+03 -0.73256174386E+03 -0.33744740532E+02  0.10367764924E+04  0.25500000920E-02 0.  1.
</event>
<event>
 5   0  0.3568647E-05  0.2690142E+04  0.7818609E-02  0.8338211E-01
        2   -1    0    0  501    0  0.00000000000E+00  0.00000000000E+00  0.15833335663E+04  0.15833335663E+04  0.25500000920E-02 0.  1.
       -2   -1    0    0    0  501  0.00000000000E+00  0.00000000000E+00 -0.11426626852E+04  0.11426626852E+04  0.25500000920E-02 0. -1.
    10030    2    1    2    0    0  0.00000000000E+00  0.00000000000E+00  0.44067088104E+03  0.27259962515E+04  0.26901421408E+04 0.  0.
        3    1    3    3  502    0  0.90207237643E+03 -0.18536553170E+03  0.12137696472E+04  0.15235917168E+04  0.10100000352E+00 0.  1.
       -3    1    3    3    0  502 -0.90207237643E+03  0.18536553170E+03 -0.77309876617E+03  0.12024045347E+04  0.10100000352E+00 0. -1.
</event>
<event>
 5   0  0.3497949E-05  0.1868238E+04  0.7818609E-02  0.8670830E-01
        2   -1    0    0  501    0  0.00000000000E+00  0.00000000000E+00  0.20350017537E+04  0.20350017537E+04  0.25500000920E-02 0. -1.
       -2   -1    0    0    0  501  0.00000000000E+00  0.00000000000E+00 -0.42878526411E+03  0.42878526412E+03  0.25500000920E-02 0.  1.
    10030    2    1    2    0    0  0.00000000000E+00  0.00000000000E+00  0.16062164896E+04  0.24637870178E+04  0.18682384906E+04 0.  0.
        5    1    3    3  502    0 -0.90348500818E+03  0.91114837559E+02  0.51427053072E+03  0.10435915592E+04  0.46999998093E+01 0.  1.
       -5    1    3    3    0  502  0.90348500818E+03 -0.91114837559E+02  0.10919459589E+04  0.14201954586E+04  0.46999998093E+01 0. -1.
</event>
<event>
 5   0  0.1495517E-05  0.2708924E+04  0.7818609E-02  0.8332115E-01
        1   -1    0    0  501    0  0.00000000000E+00  0.00000000000E+00  0.12110711280E+04  0.12110711280E+04  0.50400001928E-02 0.  1.
       -1   -1    0    0    0  501  0.00000000000E+00  0.00000000000E+00 -0.15148299666E+04  0.15148299666E+04  0.50400001928E-02 0. -1.
    10030    2    1    2    0    0  0.00000000000E+00  0.00000000000E+00 -0.30375883859E+03  0.27259010947E+04  0.27089236508E+04 0.  0.
        5    1    3    3  502    0 -0.16843271321E+03 -0.12732189118E+04  0.28103630868E+03  0.13147088929E+04  0.46999998093E+01 0.  1.
       -5    1    3    3    0  502  0.16843271321E+03  0.12732189118E+04 -0.58479514727E+03  0.14111922018E+04  0.46999998093E+01 0. -1.
</event>
<event>
 5   0  0.1449521E-05  0.2723285E+04  0.7818609E-02  0.8327489E-01
        1   -1    0    0  501    0  0.00000000000E+00  0.00000000000E+00  0.20510142116E+04  0.20510142116E+04  0.50400001928E-02 0. -1.
       -1   -1    0    0    0  501  0.00000000000E+00  0.00000000000E+00 -0.90397714669E+03  0.90397714671E+03  0.50400001928E-02 0.  1.
    10030    2    1    2    0    0  0.00000000000E+00  0.00000000000E+00  0.11470370649E+04  0.29549913583E+04  0.27232847628E+04 0.  0.
        3    1    3    3  502    0 -0.18702794632E+03 -0.71358534528E+03 -0.66836247887E+03  0.99543553838E+03  0.10100000352E+00 0.  1.
       -3    1    3    3    0  502  0.18702794632E+03  0.71358534528E+03  0.18153995438E+04  0.19595558199E+04  0.10100000352E+00 0. -1.
</event>
<event>
 5   0  0.3568647E-05  0.1404659E+04  0.7818609E-02  0.8950453E-01
        2   -1    0    0  501    0  0.00000000000E+00  0.00000000000E+00  0.47406258833E+03  0.47406258834E+03  0.25500000920E-02 0.  1.
       -2   -1    0    0    0  501  0.00000000000E+00  0.00000000000E+00 -0.10405099265E+04  0.10405099265E+04  0.25500000920E-02 0. -1.
    10030    2    1    2    0    0  0.00000000000E+00  0.00000000000E+00 -0.56644733816E+03  0.15145725148E+04  0.14046591458E+04 0.  0.
        3    1    3    3  502    0 -0.32854343562E+02 -0.23645940985E+03  0.42897140305E+03  0.49092660880E+03  0.10100000352E+00 0.  1.
       -3    1    3    3    0  502  0.32854343562E+02  0.23645940985E+03 -0.99541874121E+03  0.10236459060E+04  0.10100000352E+00 0. -1.
</event>
<event>
 5   0  0.3652331E-05  0.2738306E+04  0.7818609E-02  0.8322682E-01
       -2   -1    0    0    0  501  0.00000000000E+00  0.00000000000E+00  0.12373823590E+04  0.12373823590E+04  0.25500000920E-02 0.  1.
        2   -1    0    0  501    0  0.00000000000E+00  0.00000000000E+00 -0.15149557133E+04  0.15149557133E+04  0.25500000920E-02 0. -1.
    10030    2    1    2    0    0  0.00000000000E+00  0.00000000000E+00 -0.27757335425E+03  0.27523380723E+04  0.27383056617E+04 0.  0.
        1    1    3    3  502    0  0.73786799619E+03 -0.10488443541E+04 -0.62088593310E+03  0.14247887565E+04  0.50400001928E-02 0. -1.
       -1    1    3    3    0  502 -0.73786799619E+03  0.10488443541E+04  0.34331257886E+03  0.13275493157E+04  0.50400001928E-02 0.  1.
</event>
<event>
 5   0  0.3652331E-05  0.2748954E+04  0.7818609E-02  0.8319294E-01
        2   -1    0    0  501    0  0.00000000000E+00  0.00000000000E+00  0.21076709719E+04  0.21076709719E+04  0.25500000920E-02 0. -1.
       -2   -1    0    0    0  501  0.00000000000E+00  0.00000000000E+00 -0.89633891327E+03  0.89633891328E+03  0.25500000920E-02 0.  1.
    10030    2    1    2    0    0  0.00000000000E+00  0.00000000000E+00  0.12113320587E+04  0.30040098852E+04  0.27489543529E+04 0.  0.
        1    1    3    3  502    0 -0.45922724691E+03  0.57899573742E+02 -0.80860995648E+03  0.93171459508E+03  0.50400001928E-02 0.  1.
       -1    1    3    3    0  502  0.45922724691E+03 -0.57899573742E+02  0.20199420151E+04  0.20722952901E+04  0.50400001928E-02 0. -1.
</event>
<event>
 5   0  0.3514294E-05  0.1962675E+04  0.7818609E-02  0.8624273E-01
       -2   -1    0    0    0  501  0.00000000000E+00  0.00000000000E+00  0.11068365335E+04  0.11068365335E+04  0.25500000920E-02 0. -1.
        2   -1    0    0  501    0  0.00000000000E+00  0.00000000000E+00 -0.87006823647E+03  0.87006823647E+03  0.25500000920E-02 0.  1.
    10030    2    1    2    0    0  0.00000000000E+00  0.00000000000E+00  0.23676829707E+03  0.19769047700E+04  0.19626750223E+04 0.  0.
        2    1    3    3  502    0  0.92531819283E+02 -0.35690576244E+03 -0.79764853411E+03  0.87874173955E+03  0.25500000920E-02 0.  1.
       -2    1    3    3    0  502 -0.92531819283E+02  0.35690576244E+03  0.10344168312E+04  0.10981630305E+04  0.25500000920E-02 0. -1.
</event>
<event>
 5   0  0.1484379E-05  0.2594408E+04  0.7818609E-02  0.8370103E-01
        1   -1    0    0  501    0  0.00000000000E+00  0.00000000000E+00  0.70852817868E+03  0.70852817870E+03  0.50400001928E-02 0. -1.
       -1   -1    0    0    0  501  0.00000000000E+00  0.00000000000E+00 -0.23749771992E+04  0.23749771992E+04  0.50400001928E-02 0.  1.
    10030    2    1    2    0    0  0.00000000000E+00  0.00000000000E+00 -0.16664490205E+04  0.30835053779E+04  0.25944080399E+04 0.  0.
        1    1    3    3  502    0 -0.87993561150E+03  0.91006746886E+03 -0.49657998750E+03  0.13598165914E+04  0.50400001928E-02 0. -1.
       -1    1    3    3    0  502  0.87993561150E+03 -0.91006746886E+03 -0.11698690330E+04  0.17236887865E+04  0.50400001928E-02 0.  1.
</event>
<event>
 5   0  0.3652331E-05  0.2747347E+04  0.7818609E-02  0.8319804E-01
       -2   -1    0    0    0  501  0.00000000000E+00  0.00000000000E+00  0.13807215538E+04  0.13807215538E+04  0.25500000920E-02 0. -1.
        2   -1    0    0  501    0  0.00000000000E+00  0.00000000000E+00 -0.13666618565E+04  0.13666618565E+04  0.25500000920E-02 0.  1.
    10030    2    1    2    0    0  0.00000000000E+00  0.00000000000E+00  0.14059697226E+02  0.27473834103E+04  0.27473474349E+04 0.  0.
        1    1    3    3  502    0 -0.92205327240E+03 -0.45361536583E+03  0.91865044342E+03  0.13783569111E+04  0.50400001928E-02 0. -1.
       -1    1    3    3    0  502  0.92205327240E+03  0.45361536583E+03 -0.90459074620E+03  0.13690264992E+04  0.50400001928E-02 0.  1.
</event>
<event>
 5   0  0.3676724E-05  0.2459850E+04  0.7818609E-02  0.8417430E-01
        2   -1    0    0  501    0  0.00000000000E+00  0.00000000000E+00  0.13952230024E+04  0.13952230024E+04  0.25500000920E-02 0.  1.
       -2   -1    0    0    0  501  0.00000000000E+00  0.00000000000E+00 -0.10842109709E+04  0.10842109709E+04  0.25500000920E-02 0. -1.
    10030    2    1    2    0    0  0.00000000000E+00  0.00000000000E+00  0.31101203148E+03  0.24794339732E+04  0.24598504719E+04 0.  0.
        4    1    3    3  502    0 -0.68716839692E+03 -0.80786201273E+03 -0.47224674885E+03  0.11609737474E+04  0.12699999809E+01 0. -1.
       -4    1    3    3    0  502  0.68716839692E+03  0.80786201273E+03  0.78325878034E+03  0.13184602259E+04  0.12699999809E+01 0.  1.
</event>
<event>
 5   0  0.3568647E-05  0.2679850E+04  0.7818609E-02  0.8341573E-01
        2   -1    0    0  501    0  0.00000000000E+00  0.00000000000E+00  0.24355601414E+04  0.24355601414E+04  0.25500000920E-02 0. -1.
       -2   -1    0    0    0  501  0.00000000000E+00  0.00000000000E+00 -0.73716059360E+03  0.73716059360E+03  0.25500000920E-02 0.  1.
    10030    2    1    2    0    0  0.00000000000E+00  0.00000000000E+00  0.16983995478E+04  0.31727207350E+04  0.26798499657E+04 0.  0.
        3    1    3    3  502    0 -0.62612436819E+02 -0.39597318488E+02 -0.73473410066E+03  0.73845952750E+03  0.10100000352E+00 0.  1.
       -3    1    3    3    0  502  0.62612436819E+02  0.39597318488E+02  0.24331336485E+04  0.24342612075E+04  0.10100000352E+00 0. -1.
</event>
<event>
 5   0  0.1495517E-05  0.2671102E+04  0.7818609E-02  0.8344443E-01
        1   -1    0    0  501    0  0.00000000000E+00  0.00000000000E+00  0.11856996142E+04  0.11856996142E+04  0.50400001928E-02 0. -1.
       -1   -1    0    0    0  501  0.00000000000E+00  0.00000000000E+00 -0.15043403811E+04  0.15043403811E+04  0.50400001928E-02 0.  1.
    10030    2    1    2    0    0  0.00000000000E+00  0.00000000000E+00 -0.31864076690E+03  0.26900399954E+04  0.26711015028E+04 0.  0.
        5    1    3    3  502    0  0.42169263329E+03 -0.12108586823E+04  0.21705427065E+03  0.13004376463E+04  0.46999998093E+01 0. -1.
       -5    1    3    3    0  502 -0.42169263329E+03  0.12108586823E+04 -0.53569503756E+03  0.13896023491E+04  0.46999998093E+01 0.  1.
</event>
<event>
 5   0  0.1474012E-05  0.2575502E+04  0.7818609E-02  0.8376571E-01
        1   -1    0    0  501    0  0.00000000000E+00  0.00000000000E+00  0.19548821012E+04  0.19548821012E+04  0.50400001928E-02 0. -1.
       -1   -1    0    0    0  501  0.00000000000E+00  0.00000000000E+00 -0.84828747227E+03  0.84828747228E+03  0.50400001928E-02 0.  1.
    10030    2    1    2    0    0  0.00000000000E+00  0.00000000000E+00  0.11065946289E+04  0.28031695734E+04  0.25755015016E+04 0.  0.
        2    1    3    3  502    0 -0.78714099624E+03  0.90955364885E+03  0.52843628442E+02  0.12040229388E+04  0.25500000920E-02 0.  1.
       -2    1    3    3    0  502  0.78714099624E+03 -0.90955364885E+03  0.10537510005E+04  0.15991466346E+04  0.25500000920E-02 0. -1.
</event>
<event>
 5   0  0.3652331E-05  0.2681219E+04  0.7818609E-02  0.8341124E-01
       -2   -1    0    0    0  501  0.00000000000E+00  0.00000000000E+00  0.14421840411E+04  0.14421840411E+04  0.25500000920E-02 0.  1.
        2   -1    0    0  501    0  0.00000000000E+00  0.00000000000E+00 -0.12461891596E+04  0.12461891597E+04  0.25500000920E-02 0. -1.
    10030    2    1    2    0    0  0.00000000000E+00  0.00000000000E+00  0.19599488149E+03  0.26883732008E+04  0.26812192139E+04 0.  0.
        1    1    3    3  502    0  0.21836684900E+03 -0.27130610876E+03  0.13960338092E+04  0.14388194751E+04  0.50400001928E-02 0.  1.
       -1    1    3    3    0  502 -0.21836684900E+03  0.27130610876E+03 -0.12000389277E+04  0.12495537257E+04  0.50400001928E-02 0. -1.
</event>
<event>
 5   0  0.3676724E-05  0.1889540E+04  0.7818609E-02  0.8660080E-01
        2   -1    0    0  501    0  0.00000000000E+00  0.00000000000E+00  0.82693456696E+03  0.82693456696E+03  0.25500000920E-02 0.  1.
       -2   -1    0    0    0  501  0.00000000000E+00  0.00000000000E+00 -0.10793968452E+04  0.10793968452E+04  0.25500000920E-02 0. -1.
    10030    2    1    2    0    0  0.00000000000E+00  0.00000000000E+00 -0.25246227820E+03  0.19063314121E+04  0.18895402221E+04 0.  0.
        4    1    3    3  502    0 -0.69998509012E+02  0.42541716393E+03 -0.97436166691E+03  0.10654866613E+04  0.12699999809E+01 0. -1.
       -4    1    3    3    0  502  0.69998509012E+02 -0.42541716393E+03  0.72189938871E+03  0.84084475080E+03  0.12699999809E+01 0.  1.
</event>
<event>
 5   0  0.3568647E-05  0.2609197E+04  0.7818609E-02  0.8365084E-01
       -2   -1    0    0    0  501  0.00000000000E+00  0.00000000000E+00  0.71930873207E+03  0.71930873207E+03  0.25500000920E-02 0.  1.
        2   -1    0    0  501    0  0.00000000000E+00  0.00000000000E+00 -0.23661286354E+04  0.23661286354E+04  0.25500000920E-02 0. -1.
    10030    2    1    2    0    0  0.00000000000E+00  0.00000000000E+00 -0.16468199034E+04  0.30854373675E+04  0.26091968026E+04 0.  0.
        3    1    3    3  502    0  0.92495979337E+03 -0.75470193504E+02 -0.19076821618E+04  0.21214376281E+04  0.10100000352E+00 0. -1.
       -3    1    3    3    0  502 -0.92495979337E+03  0.75470193504E+02  0.26086225841E+03  0.96399973938E+03  0.10100000352E+00 0.  1.
</event>
<event>
 5   0  0.1484379E-05  0.2685569E+04  0.7818609E-02  0.8339703E-01
       -1   -1    0    0    0  501  0.00000000000E+00  0.00000000000E+00  0.15004956936E+04  0.15004956936E+04  0.50400001928E-02 0.  1.
        1   -1    0    0  501    0  0.00000000000E+00  0.00000000000E+00 -0.12016493820E+04  0.12016493820E+04  0.50400001928E-02 0. -1.
    10030    2    1    2    0    0  0.00000000000E+00  0.00000000000E+00  0.29884631162E+03  0.27021450756E+04  0.26855686347E+04 0.  0.
        1    1    3    3  502    0  0.77937574391E+03  0.10930572522E+04  0.17908419342E+03  0.13543529285E+04  0.50400001928E-02 0. -1.
       -1    1    3    3    0  502 -0.77937574391E+03 -0.10930572522E+04  0.11976211819E+03  0.13477921471E+04  0.50400001928E-02 0.  1.
</event>
<event>
 5   0  0.3514294E-05  0.2599245E+04  0.7818609E-02  0.8368458E-01
        2   -1    0    0  501    0  0.00000000000E+00  0.00000000000E+00  0.11969429068E+04  0.11969429068E+04  0.25500000920E-02 0.  1.
       -2   -1    0    0    0  501  0.00000000000E+00  0.00000000000E+00 -0.14111103586E+04  0.14111103586E+04  0.25500000920E-02 0. -1.
    10030    2    1    2    0    0  0.00000000000E+00  0.00000000000E+00 -0.21416745179E+03  0.26080532654E+04  0.25992449169E+04 0.  0.
        2    1    3    3  502    0  0.31980202217E+03  0.93441802727E+03  0.74053229103E+03  0.12344223172E+04  0.25500000920E-02 0.  1.
       -2    1    3    3    0  502 -0.31980202217E+03 -0.93441802727E+03 -0.95469974282E+03  0.13736309483E+04  0.25500000920E-02 0. -1.
</event>
<event>
 5   0  0.1484379E-05  0.2486921E+04  0.7818609E-02  0.8407660E-01
        1   -1    0    0  501    0  0.00000000000E+00  0.00000000000E+00  0.14421126423E+04  0.14421126423E+04  0.50400001928E-02 0. -1.
       -1   -1    0    0    0  501  0.00000000000E+00  0.00000000000E+00 -0.10721731561E+04  0.10721731561E+04  0.50400001928E-02 0.  1.
    10030    2    1    2    0    0  0.00000000000E+00  0.00000000000E+00  0.36993948621E+03  0.25142857984E+04  0.24869213603E+04 0.  0.
        1    1    3    3  502    0  0.42298389098E+03 -0.10733152369E+04  0.65405077192E+03  0.13261611448E+04  0.50400001928E-02 0. -1.
       -1    1    3    3    0  502 -0.42298389098E+03  0.10733152369E+04 -0.28411128571E+03  0.11881246536E+04  0.50400001928E-02 0.  1.
</event>
<event>
 5   0  0.1474012E-05  0.2463739E+04  0.7818609E-02  0.8416019E-01
       -1   -1    0    0    0  501  0.00000000000E+00  0.00000000000E+00  0.10113681381E+04  0.10113681382E+04  0.50400001928E-02 0. -1.
        1   -1    0    0  501    0  0.00000000000E+00  0.00000000000E+00 -0.15004449389E+04  0.15004449389E+04  0.50400001928E-02 0.  1.
    10030    2    1    2    0    0  0.00000000000E+00  0.00000000000E+00 -0.48907680072E+03  0.25118130770E+04  0.24637387883E+04 0.  0.
        2    1    3    3  502    0 -0.44793235708E+03  0.11247222124E+04 -0.12369689750E+02  0.12107008139E+04  0.25500000920E-02 0. -1.
       -2    1    3    3    0  502  0.44793235708E+03 -0.11247222124E+04 -0.47670711097E+03  0.13011122631E+04  0.25500000920E-02 0.  1.
</event>
<event>
 5   0  0.3497949E-05  0.2765263E+04  0.7818609E-02  0.8314135E-01
        2   -1    0    0  501    0  0.00000000000E+00  0.00000000000E+00  0.22464892457E+04  0.22464892457E+04  0.25500000920E-02 0.  1.
       -2   -1    0    0    0  501  0.00000000000E+00  0.00000000000E+00 -0.85095869731E+03  0.85095869731E+03  0.25500000920E-02 0. -1.
    10030    2    1    2    0    0  0.00000000000E+00  0.00000000000E+00  0.13955305484E+04  0.30974479430E+04  0.27652627810E+04 0.  0.
        5    1    3    3  502    0 -0.13148803524E+04  0.30635068601E+03  0.36381236033E+03  0.13982641408E+04  0.46999998093E+01 0.  1.
       -5    1    3    3    0  502  0.13148803524E+04 -0.30635068601E+03  0.10317181881E+04  0.16991838022E+04  0.46999998093E+01 0. -1.
</event>
<event>
 5   0  0.1484379E-05  0.2623379E+04  0.7818609E-02  0.8360303E-01
        1   -1    0    0  501    0  0.00000000000E+00  0.00000000000E+00  0.10250562976E+04  0.10250562976E+04  0.50400001928E-02 0.  1.
       -1   -1    0    0    0  501  0.00000000000E+00  0.00000000000E+00 -0.16784732284E+04  0.16784732284E+04  0.50400001928E-02 0. -1.
    10030    2    1    2    0    0  0.00000000000E+00  0.00000000000E+00 -0.65341693079E+03  0.27035295259E+04  0.26233791591E+04 0.  0.
        1    1    3    3  502    0 -0.46308547555E+03 -0.76032117958E+03  0.66604731920E+03  0.11118252944E+04  0.50400001928E-02 0.  1.
       -1    1    3    3    0  502  0.46308547555E+03  0.76032117958E+03 -0.13194642500E+04  0.15917042316E+04  0.50400001928E-02 0. -1.
</event>
<event>
 5   0  0.3676724E-05  0.1440811E+04  0.7818609E-02  0.8924796E-01
        2   -1    0    0  501    0  0.00000000000E+00  0.00000000000E+00  0.17086956810E+04  0.17086956810E+04  0.25500000920E-02 0.  1.
       -2   -1    0    0    0  501  0.00000000000E+00  0.00000000000E+00 -0.30373111597E+03  0.30373111598E+03  0.25500000920E-02 0. -1.
    10030    2    1    2    0    0  0.00000000000E+00  0.00000000000E+00  0.14049645650E+04  0.20124267970E+04  0.14408109467E+04 0.  0.
        4    1    3    3  502    0 -0.61976857643E+03 -0.63840630830E+02  0.19734835848E+03  0.65355696153E+03  0.12699999809E+01 0. -1.
       -4    1    3    3    0  502  0.61976857643E+03  0.63840630830E+02  0.12076162065E+04  0.13588698354E+04  0.12699999809E+01 0.  1.
</event>
<event>
 5   0  0.1228050E-05  0.2638303E+04  0.7818609E-02  0.8355306E-01
       -3   -1    0    0    0  501  0.00000000000E+00  0.00000000000E+00  0.11404977904E+04  0.11404977949E+04  0.10100000352E+00 0. -1.
        3   -1    0    0  501    0  0.00000000000E+00  0.00000000000E+00 -0.15257907165E+04  0.15257907199E+04  0.10100000352E+00 0.  1.
    10030    2    1    2    0    0  0.00000000000E+00  0.00000000000E+00 -0.38529292613E+03  0.26662885148E+04  0.26383032057E+04 0.  0.
        2    1    3    3  502    0 -0.10164111982E+04 -0.83181616399E+03 -0.68251019439E+02  0.13151684516E+04  0.25500000920E-02 0.  1.
       -2    1    3    3    0  502  0.10164111982E+04  0.83181616399E+03 -0.31704190669E+03  0.13511200632E+04  0.25500000920E-02 0. -1.
</event>
<event>
 5   0  0.3568647E-05  0.2693103E+04  0.7818609E-02  0.8337246E-01
        2   -1    0    0  501    0  0.00000000000E+00  0.00000000000E+00  0.21561696462E+04  0.21561696462E+04  0.25500000920E-02 0.  1.
       -2   -1    0    0    0  501  0.00000000000E+00  0.00000000000E+00 -0.84093626846E+03  0.84093626847E+03  0.25500000920E-02 0. -1.
    10030    2    1    2    0    0  0.00000000000E+00  0.00000000000E+00  0.13152333778E+04  0.29971059147E+04  0.26931032334E+04 0.  0.
        3    1    3    3  502    0  0.15893289012E+03  0.33657658995E+03 -0.78254789063E+03  0.86655910116E+03  0.10100000352E+00 0. -1.
       -3    1    3    3    0  502 -0.15893289012E+03 -0.33657658995E+03  0.20977812684E+04  0.21305468135E+04  0.10100000352E+00 0.  1.
</event>
<event>
 5   0  0.3568647E-05  0.2713422E+04  0.7818609E-02  0.8330663E-01
       -2   -1    0    0    0  501  0.00000000000E+00  0.00000000000E+00  0.13219004534E+04  0.13219004534E+04  0.25500000920E-02 0.  1.
        2   -1    0    0  501    0  0.00000000000E+00  0.00000000000E+00 -0.13924381118E+04  0.13924381118E+04  0.25500000920E-02 0. -1.
    10030    2    1    2    0    0  0.00000000000E+00  0.00000000000E+00 -0.70537658465E+02  0.27143385652E+04  0.27134218775E+04 0.  0.
        3    1    3    3  502    0  0.61773682100E+03 -0.18401905147E+03 -0.12294907089E+04  0.13882035891E+04  0.10100000352E+00 0. -1.
       -3    1    3    3    0  502 -0.61773682100E+03  0.18401905147E+03  0.11589530505E+04  0.13261349761E+04  0.10100000352E+00 0.  1.
</event>
<event>
 5   0  0.1449521E-05  0.2709445E+04  0.7818609E-02  0.8331947E-01
       -1   -1    0    0    0  501  0.00000000000E+00  0.00000000000E+00  0.19649401874E+04  0.19649401875E+04  0.50400001928E-02 0. -1.
        1   -1    0    0  501    0  0.00000000000E+00  0.00000000000E+00 -0.93400971660E+03  0.93400971661E+03  0.50400001928E-02 0.  1.
    10030    2    1    2    0    0  0.00000000000E+00  0.00000000000E+00  0.10309304709E+04  0.28989499041E+04  0.27094451296E+04 0.  0.
        3    1    3    3  502    0  0.65708940149E+03 -0.11815412921E+04  0.42301014377E+03  0.14165958840E+04  0.10100000352E+00 0. -1.
       -3    1    3    3    0  502 -0.65708940149E+03  0.11815412921E+04  0.60792032709E+03  0.14823540201E+04  0.10100000352E+00 0.  1.
</event>
<event>
 5   0  0.3514294E-05  0.2596699E+04  0.7818609E-02  0.8369323E-01
       -2   -1    0    0    0  501  0.00000000000E+00  0.00000000000E+00  0.12832141252E+04  0.12832141252E+04  0.25500000920E-02 0. -1.
        2   -1    0    0  501    0  0.00000000000E+00  0.00000000000E+00 -0.13136633624E+04  0.13136633624E+04  0.25500000920E-02 0.  1.
    10030    2    1    2    0    0  0.00000000000E+00  0.00000000000E+00 -0.30449237221E+02  0.25968774877E+04  0.25966989679E+04 0.  0.
        2    1    3    3  502    0 -0.50820456426E+03  0.93663895014E+03 -0.75699454712E+03  0.13071362387E+04  0.25500000920E-02 0.  1.
       -2    1    3    3    0  502  0.50820456426E+03 -0.93663895014E+03  0.72654530990E+03  0.12897412490E+04  0.25500000920E-02 0. -1.
</event>
<event>
 5   0  0.3676724E-05  0.2687737E+04  0.7818609E-02  0.8338995E-01
       -2   -1    0    0    0  501  0.00000000000E+00  0.00000000000E+00  0.84901125165E+03  0.84901125166E+03  0.25500000920E-02 0.  1.
        2   -1    0    0  501    0  0.00000000000E+00  0.00000000000E+00 -0.21271593217E+04  0.21271593217E+04  0.25500000920E-02 0. -1.
    10030    2    1    2    0    0  0.00000000000E+00  0.00000000000E+00 -0.12781480700E+04  0.29761705733E+04  0.26877367417E+04 0.  0.
        4    1    3    3  502    0 -0.11277422290E+04 -0.45321070154E+03 -0.41488743376E+01  0.12154099313E+04  0.12699999809E+01 0.  1.
       -4    1    3    3    0  502  0.11277422290E+04  0.45321070154E+03 -0.12739991957E+04  0.17607606420E+04  0.12699999809E+01 0. -1.
</event>
<event>
 5   0  0.3676724E-05  0.3098890E+04  0.7818609E-02  0.8216043E-01
        2   -1    0    0  501    0  0.00000000000E+00  0.00000000000E+00  0.15002046839E+04  0.15002046839E+04  0.25500000920E-02 0. -1.
       -2   -1    0    0    0  501  0.00000000000E+00  0.00000000000E+00 -0.16003011739E+04  0.16003011739E+04  0.25500000920E-02 0.  1.
    10030    2    1    2    0    0  0.00000000000E+00  0.00000000000E+00 -0.10009649007E+03  0.31005058578E+04  0.30988896829E+04 0.  0.
        4    1    3    3  502    0 -0.13992831377E+04  0.34239479417E+03 -0.62091589046E+03  0.15686827756E+04  0.12699999809E+01 0.  1.
       -4    1    3    3    0  502  0.13992831377E+04 -0.34239479417E+03  0.52081940040E+03  0.15318230822E+04  0.12699999809E+01 0. -1.
</event>
<event>
 5   0  0.1438701E-05  0.2523915E+04  0.7818609E-02  0.8394515E-01
        1   -1    0    0  501    0  0.00000000000E+00  0.00000000000E+00  0.10686065434E+04  0.10686065434E+04  0.50400001928E-02 0. -1.
       -1   -1    0    0    0  501  0.00000000000E+00  0.00000000000E+00 -0.14902925547E+04  0.14902925547E+04  0.50400001928E-02 0.  1.
    10030    2    1    2    0    0  0.00000000000E+00  0.00000000000E+00 -0.42168601133E+03  0.25588990981E+04  0.25239147177E+04 0.  0.
        4    1    3    3  502    0  0.85333772742E+03 -0.92805975648E+03 -0.26687728793E+03  0.12886835486E+04  0.12699999809E+01 0. -1.
       -4    1    3    3    0  502 -0.85333772742E+03  0.92805975648E+03 -0.15480872340E+03  0.12702155496E+04  0.12699999809E+01 0.  1.
</event>
<event>
 5   0  0.1449521E-05  0.2720460E+04  0.7818609E-02  0.8328397E-01
       -1   -1    0    0    0  501  0.00000000000E+00  0.00000000000E+00  0.12445897352E+04  0.12445897352E+04  0.50400001928E-02 0. -1.
        1   -1    0    0  501    0  0.00000000000E+00  0.00000000000E+00 -0.14866144609E+04  0.14866144609E+04  0.50400001928E-02 0.  1.
    10030    2    1    2    0    0  0.00000000000E+00  0.00000000000E+00 -0.24202472570E+03  0.27312041961E+04  0.27204595923E+04 0.  0.
        3    1    3    3  502    0 -0.45233400857E+02  0.27424226516E+03  0.12157758588E+04  0.12471430670E+04  0.10100000352E+00 0. -1.
       -3    1    3    3    0  502  0.45233400857E+02 -0.27424226516E+03 -0.14578005845E+04  0.14840611291E+04  0.10100000352E+00 0.  1.
</event>
<event>
 5   0  0.1484379E-05  0.2789486E+04  0.7818609E-02  0.8306540E-01
        1   -1    0    0  501    0  0.00000000000E+00  0.00000000000E+00  0.16671172914E+04  0.16671172914E+04  0.50400001928E-02 0. -1.
       -1   -1    0    0    0  501  0.00000000000E+00  0.00000000000E+00 -0.11668696296E+04  0.11668696296E+04  0.50400001928E-02 0.  1.
    10030    2    1    2    0    0  0.00000000000E+00  0.00000000000E+00  0.50024766177E+03  0.28339869211E+04  0.27894863587E+04 0.  0.
        1    1    3    3  502    0  0.70981547983E+03  0.76472605561E+03  0.11904510450E+04  0.15829774623E+04  0.50400001928E-02 0. -1.
       -1    1    3    3    0  502 -0.70981547983E+03 -0.76472605561E+03 -0.69020338327E+03  0.12510094587E+04  0.50400001928E-02 0.  1.
</event>
<event>
 5   0  0.1438701E-05  0.1676061E+04  0.7818609E-02  0.8775137E-01
       -1   -1    0    0    0  501  0.00000000000E+00  0.00000000000E+00  0.44007506903E+03  0.44007506906E+03  0.50400001928E-02 0. -1.
        1   -1    0    0  501    0  0.00000000000E+00  0.00000000000E+00 -0.15958526995E+04  0.15958526995E+04  0.50400001928E-02 0.  1.
    10030    2    1    2    0    0  0.00000000000E+00  0.00000000000E+00 -0.11557776305E+04  0.20359277686E+04  0.16760608425E+04 0.  0.
        4    1    3    3  502    0  0.42067261375E+03  0.18868116243E+03 -0.14279491725E+04  0.15005353982E+04  0.12699999809E+01 0.  1.
       -4    1    3    3    0  502 -0.42067261375E+03 -0.18868116243E+03  0.27217154208E+03  0.53539237036E+03  0.12699999809E+01 0. -1.
</event>
<event>
 5   0  0.1484379E-05  0.1824683E+04  0.7818609E-02  0.8693282E-01
       -1   -1    0    0    0  501  0.00000000000E+00  0.00000000000E+00  0.61705216461E+03  0.61705216463E+03  0.50400001928E-02 0. -1.
        1   -1    0    0  501    0  0.00000000000E+00  0.00000000000E+00 -0.13489415376E+04  0.13489415376E+04  0.50400001928E-02 0.  1.
    10030    2    1    2    0    0  0.00000000000E+00  0.00000000000E+00 -0.73188937294E+03  0.19659937022E+04  0.18246833103E+04 0.  0.
        1    1    3    3  502    0  0.40940040491E+03  0.42662532428E+03  0.38266511753E+03  0.70430849140E+03  0.50400001928E-02 0. -1.
       -1    1    3    3    0  502 -0.40940040491E+03 -0.42662532428E+03 -0.11145544905E+04  0.12616852108E+04  0.50400001928E-02 0.  1.
</event>
<event>
 5   0  0.3514294E-05  0.2732249E+04  0.7818609E-02  0.8324617E-01
       -2   -1    0    0    0  501  0.00000000000E+00  0.00000000000E+00  0.22804739449E+04  0.22804739449E+04  0.25500000920E-02 0.  1.
        2   -1    0    0  501    0  0.00000000000E+00  0.00000000000E+00 -0.81838081784E+03  0.81838081784E+03  0.25500000920E-02 0. -1.
    10030    2    1    2    0    0  0.00000000000E+00  0.00000000000E+00  0.14620931270E+04  0.30988547627E+04  0.27322489872E+04 0.  0.
        2    1    3    3  502    0 -0.10281724429E+04  0.22964427846E+03 -0.25537545063E+03  0.10840164610E+04  0.25500000920E-02 0. -1.
       -2    1    3    3    0  502  0.10281724429E+04 -0.22964427846E+03  0.17174685777E+04  0.20148383017E+04  0.25500000920E-02 0.  1.
</event>
<event>
 5   0  0.1438701E-05  0.2687009E+04  0.7818609E-02  0.8339233E-01
        1   -1    0    0  501    0  0.00000000000E+00  0.00000000000E+00  0.17696427939E+04  0.17696427940E+04  0.50400001928E-02 0. -1.
       -1   -1    0    0    0  501  0.00000000000E+00  0.00000000000E+00 -0.10199819999E+04  0.10199819999E+04  0.50400001928E-02 0.  1.
    10030    2    1    2    0    0  0.00000000000E+00  0.00000000000E+00  0.74966079401E+03  0.27896247939E+04  0.26870085941E+04 0.  0.
        4    1    3    3  502    0 -0.89768927185E+03  0.16874190233E+03  0.13976882874E+04  0.16696868030E+04  0.12699999809E+01 0. -1.
       -4    1    3    3    0  502  0.89768927185E+03 -0.16874190233E+03 -0.64802749340E+03  0.11199379909E+04  0.12699999809E+01 0.  1.
</event>
<event>
 5   0  0.3514294E-05  0.2592036E+04  0.7818609E-02  0.8370911E-01
        2   -1    0    0  501    0  0.00000000000E+00  0.00000000000E+00  0.14735656329E+04  0.14735656329E+04  0.25500000920E-02 0. -1.
       -2   -1    0    0    0  501  0.00000000000E+00  0.00000000000E+00 -0.11398631214E+04  0.11398631214E+04  0.25500000920E-02 0.  1.
    10030    2    1    2    0    0  0.00000000000E+00  0.00000000000E+00  0.33370251153E+03  0.26134287543E+04  0.25920363593E+04 0.  0.
        2    1    3    3  502    0  0.34741522373E+03 -0.74913527622E+02  0.14234735507E+04  0.14671694939E+04  0.25500000920E-02 0. -1.
       -2    1    3    3    0  502 -0.34741522373E+03  0.74913527622E+02 -0.10897710392E+04  0.11462592604E+04  0.25500000920E-02 0.  1.
</event>
<event>
 5   0  0.1484379E-05  0.3051371E+04  0.7818609E-02  0.8229212E-01
        1   -1    0    0  501    0  0.00000000000E+00  0.00000000000E+00  0.15880085592E+04  0.15880085592E+04  0.50400001928E-02 0.  1.
       -1   -1    0    0    0  501  0.00000000000E+00  0.00000000000E+00 -0.14658083238E+04  0.14658083239E+04  0.50400001928E-02 0. -1.
    10030    2    1    2    0    0  0.00000000000E+00  0.00000000000E+00  0.12220023530E+03  0.30538168830E+04  0.30513709472E+04 0.  0.
        1    1    3    3  502    0 -0.12081291273E+04  0.61797798141E+03 -0.63677038231E+03  0.14989827529E+04  0.50400001928E-02 0. -1.
       -1    1    3    3    0  502  0.12081291273E+04 -0.61797798141E+03  0.75897061761E+03  0.15548341301E+04  0.50400001928E-02 0.  1.
</event>
<event>
 5   0  0.1449521E-05  0.1608797E+04  0.7818609E-02  0.8815162E-01
       -1   -1    0    0    0  501  0.00000000000E+00  0.00000000000E+00  0.12754322975E+04  0.12754322975E+04  0.50400001928E-02 0.  1.
        1   -1    0    0  501    0  0.00000000000E+00  0.00000000000E+00 -0.50732335756E+03  0.50732335759E+03  0.50400001928E-02 0. -1.
    10030    2    1    2    0    0  0.00000000000E+00  0.00000000000E+00  0.76810893995E+03  0.17827556551E+04  0.16087965633E+04 0.  0.
        3    1    3    3  502    0  0.55957637205E+03 -0.14059134569E+03  0.10051659457E+04  0.11589867261E+04  0.10100000352E+00 0.  1.
       -3    1    3    3    0  502 -0.55957637205E+03  0.14059134569E+03 -0.23705700576E+03  0.62376892902E+03  0.10100000352E+00 0. -1.
</event>
<event>
 5   0  0.3514294E-05  0.2719086E+04  0.7818609E-02  0.8328839E-01
        2   -1    0    0  501    0  0.00000000000E+00  0.00000000000E+00  0.13405524035E+04  0.13405524035E+04  0.25500000920E-02 0.  1.
       -2   -1    0    0    0  501  0.00000000000E+00  0.00000000000E+00 -0.13788021826E+04  0.13788021826E+04  0.25500000920E-02 0. -1.
    10030    2    1    2    0    0  0.00000000000E+00  0.00000000000E+00 -0.38249779100E+02  0.27193545861E+04  0.27190855667E+04 0.  0.
        2    1    3    3  502    0  0.55240519438E+03 -0.90583173585E+03 -0.86931131231E+03  0.13716358081E+04  0.25500000920E-02 0. -1.
       -2    1    3    3    0  502 -0.55240519438E+03  0.90583173585E+03  0.83106153321E+03  0.13477187780E+04  0.25500000920E-02 0.  1.
</event>
<event>
 5   0  0.3568647E-05  0.2675762E+04  0.7818609E-02  0.8342913E-01
       -2   -1    0    0    0  501  0.00000000000E+00  0.00000000000E+00  0.70867425126E+03  0.70867425126E+03  0.25500000920E-02 0.  1.
        2   -1    0    0  501    0  0.00000000000E+00  0.00000000000E+00 -0.25257374849E+04  0.25257374849E+04  0.25500000920E-02 0. -1.
    10030    2    1    2    0    0  0.00000000000E+00  0.00000000000E+00 -0.18170632337E+04  0.32344117362E+04  0.26757616643E+04 0.  0.
        3    1    3    3  502    0 -0.63697667714E+02 -0.56072080823E+03  0.55776587439E+03  0.79345321128E+03  0.10100000352E+00 0.  1.
       -3    1    3    3    0  502  0.63697667714E+02  0.56072080823E+03 -0.23748291081E+04  0.24409585249E+04  0.10100000352E+00 0. -1.
</event>
<event>
 5   0  0.3497949E-05  0.2693906E+04  0.7818609E-02  0.8336985E-01
        2   -1    0    0  501    0  0.00000000000E+00  0.00000000000E+00  0.14294866791E+04  0.14294866791E+04  0.25500000920E-02 0. -1.
       -2   -1    0    0    0  501  0.00000000000E+00  0.00000000000E+00 -0.12691848443E+04  0.12691848443E+04  0.25500000920E-02 0.  1.
    10030    2    1    2    0    0  0.00000000000E+00  0.00000000000E+00  0.16030183475E+03  0.26986715234E+04  0.26939063296E+04 0.  0.
        5    1    3    3  502    0  0.10742760540E+04 -0.42813461455E+03 -0.61164462463E+03  0.13082429152E+04  0.46999998093E+01 0.  1.
       -5    1    3    3    0  502 -0.10742760540E+04  0.42813461455E+03  0.77194645938E+03  0.13904286082E+04  0.46999998093E+01 0. -1.
</event>
<event>
 5   0  0.1438701E-05  0.2669376E+04  0.7818609E-02  0.8345010E-01
        1   -1    0    0  501    0  0.00000000000E+00  0.00000000000E+00  0.23054756727E+04  0.23054756727E+04  0.50400001928E-02 0. -1.
       -1   -1    0    0    0  501  0.00000000000E+00  0.00000000000E+00 -0.77267888124E+03  0.77267888126E+03  0.50400001928E-02 0.  1.
    10030    2    1    2    0    0  0.00000000000E+00  0.00000000000E+00  0.15327967914E+04  0.30781545539E+04  0.26693762294E+04 0.  0.
        4    1    3    3  502    0 -0.10421421119E+04  0.58407955458E+03  0.14526662514E+04  0.18808109842E+04  0.12699999809E+01 0. -1.
       -4    1    3    3    0  502  0.10421421119E+04 -0.58407955458E+03  0.80130540029E+02  0.11973435697E+04  0.12699999809E+01 0.  1.
</event>
<event>
 5   0  0.1484379E-05  0.1682380E+04  0.7818609E-02  0.8771478E-01
        1   -1    0    0  501    0  0.00000000000E+00  0.00000000000E+00  0.73452557554E+03  0.73452557555E+03  0.50400001928E-02 0. -1.
       -1   -1    0    0    0  501  0.00000000000E+00  0.00000000000E+00 -0.96334384444E+03  0.96334384445E+03  0.50400001928E-02 0.  1.
    10030    2    1    2    0    0  0.00000000000E+00  0.00000000000E+00 -0.22881826890E+03  0.16978694200E+04  0.16823800900E+04 0.  0.
        1    1    3    3  502    0 -0.65403882454E+03 -0.29899111606E+03  0.32600091815E+03  0.78958157916E+03  0.50400001928E-02 0. -1.
       -1    1    3    3    0  502  0.65403882454E+03  0.29899111606E+03 -0.55481918705E+03  0.90828784085E+03  0.50400001928E-02 0.  1.
</event>
<event>
 5   0  0.1449521E-05  0.2605922E+04  0.7818609E-02  0.8366192E-01
        1   -1    0    0  501    0  0.00000000000E+00  0.00000000000E+00  0.15085161474E+04  0.15085161474E+04  0.50400001928E-02 0. -1.
       -1   -1    0    0    0  501  0.00000000000E+00  0.00000000000E+00 -0.11254152832E+04  0.11254152832E+04  0.50400001928E-02 0.  1.
    10030    2    1    2    0    0  0.00000000000E+00  0.00000000000E+00  0.38310086426E+03  0.26339314306E+04  0.26059218156E+04 0.  0.
        3    1    3    3  502    0 -0.98382511492E+03 -0.40092700754E+03  0.95401446787E+03  0.14278648176E+04  0.10100000352E+00 0. -1.
       -3    1    3    3    0  502  0.98382511492E+03  0.40092700754E+03 -0.57091360361E+03  0.12060666130E+04  0.10100000352E+00 0.  1.
</event>
<event>
 5   0  0.3568647E-05  0.2308449E+04  0.7818609E-02  0.8474597E-01
        2   -1    0    0  501    0  0.00000000000E+00  0.00000000000E+00  0.12551723500E+04  0.12551723500E+04  0.25500000920E-02 0.  1.
       -2   -1    0    0    0  501  0.00000000000E+00  0.00000000000E+00 -0.10613955549E+04  0.10613955549E+04  0.25500000920E-02 0. -1.
    10030    2    1    2    0    0  0.00000000000E+00  0.00000000000E+00  0.19377679514E+03  0.23165679049E+04  0.23084491356E+04 0.  0.
        3    1    3    3  502    0 -0.72573401677E+02  0.97401222321E+03 -0.52030932710E+03  0.11066564578E+04  0.10100000352E+00 0. -1.
       -3    1    3    3    0  502  0.72573401677E+02 -0.97401222321E+03  0.71408612224E+03  0.12099114471E+04  0.10100000352E+00 0.  1.
</event>
<event>
 5   0  0.3514294E-05  0.2777468E+04  0.7818609E-02  0.8310298E-01
       -2   -1    0    0    0  501  0.00000000000E+00  0.00000000000E+00  0.24415586557E+04  0.24415586557E+04  0.25500000920E-02 0. -1.
        2   -1    0    0  501    0  0.00000000000E+00  0.00000000000E+00 -0.78989797312E+03  0.78989797312E+03  0.25500000920E-02 0.  1.
    10030    2    1    2    0    0  0.00000000000E+00  0.00000000000E+00  0.16516606826E+04  0.32314566288E+04  0.27774680797E+04 0.  0.
        2    1    3    3  502    0 -0.66367134858E+03  0.12195861125E+04  0.79434630258E+03  0.15996362065E+04  0.25500000920E-02 0. -1.
       -2    1    3    3    0  502  0.66367134858E+03 -0.12195861125E+04  0.85731437998E+03  0.16318204223E+04  0.25500000920E-02 0.  1.
</event>
<event>
 5   0  0.1474012E-05  0.1419141E+04  0.7818609E-02  0.8940079E-01
       -1   -1    0    0    0  501  0.00000000000E+00  0.00000000000E+00  0.35812317087E+03  0.35812317091E+03  0.50400001928E-02 0. -1.
        1   -1    0    0  501    0  0.00000000000E+00  0.00000000000E+00 -0.14059130274E+04  0.14059130274E+04  0.50400001928E-02 0.  1.
    10030    2    1    2    0    0  0.00000000000E+00  0.00000000000E+00 -0.10477898565E+04  0.17640361983E+04  0.14191406292E+04 0.  0.
        2    1    3    3  502    0  0.70167284766E+02  0.23088656330E+03  0.30555068368E+03  0.38934980836E+03  0.25500000920E-02 0. -1.
       -2    1    3    3    0  502 -0.70167284766E+02 -0.23088656330E+03 -0.13533405402E+04  0.13746863899E+04  0.25500000920E-02 0.  1.
</event>
<event>
 5   0  0.1474012E-05  0.2683798E+04  0.7818609E-02  0.8340281E-01
        1   -1    0    0  501    0  0.00000000000E+00  0.00000000000E+00  0.19174261589E+04  0.19174261589E+04  0.50400001928E-02 0. -1.
       -1   -1    0    0    0  501  0.00000000000E+00  0.00000000000E+00 -0.93912009550E+03  0.93912009552E+03  0.50400001928E-02 0.  1.
    10030    2    1    2    0    0  0.00000000000E+00  0.00000000000E+00  0.97830606337E+03  0.28565462544E+04  0.26837983810E+04 0.  0.
        2    1    3    3  502    0  0.12389707353E+04  0.10734139624E+03 -0.47400641341E+02  0.12445149574E+04  0.25500000920E-02 0.  1.
       -2    1    3    3    0  502 -0.12389707353E+04 -0.10734139624E+03  0.10257067047E+04  0.16120312970E+04  0.25500000920E-02 0. -1.
</event>
<event>
 5   0  0.3676724E-05  0.2044192E+04  0.7818609E-02  0.8586234E-01
       -2   -1    0    0    0  501  0.00000000000E+00  0.00000000000E+00  0.62249630669E+03  0.62249630670E+03  0.25500000920E-02 0.  1.
        2   -1    0    0  501    0  0.00000000000E+00  0.00000000000E+00 -0.16782104836E+04  0.16782104836E+04  0.25500000920E-02 0. -1.
    10030    2    1    2    0    0  0.00000000000E+00  0.00000000000E+00 -0.10557141770E+04  0.23007067903E+04  0.20441916035E+04 0.  0.
        4    1    3    3  502    0 -0.59161885814E+03  0.83344096748E+03 -0.52060705684E+03  0.11470266083E+04  0.12699999809E+01 0. -1.
       -4    1    3    3    0  502  0.59161885814E+03 -0.83344096748E+03 -0.53510712011E+03  0.11536801821E+04  0.12699999809E+01 0.  1.
</event>
<event>
 5   0  0.1449521E-05  0.2594283E+04  0.7818609E-02  0.8370146E-01
       -1   -1    0    0    0  501  0.00000000000E+00  0.00000000000E+00  0.13309686145E+04  0.13309686145E+04  0.50400001928E-02 0.  1.
        1   -1    0    0  501    0  0.00000000000E+00  0.00000000000E+00 -0.12641740069E+04  0.12641740069E+04  0.50400001928E-02 0. -1.
    10030    2    1    2    0    0  0.00000000000E+00  0.00000000000E+00  0.66794607614E+02  0.25951426214E+04  0.25942828886E+04 0.  0.
        3    1    3    3  502    0 -0.40707800512E+03 -0.51919775459E+01 -0.11986099886E+04  0.12658615145E+04  0.10100000352E+00 0. -1.
       -3    1    3    3    0  502  0.40707800512E+03  0.51919775459E+01  0.12654045962E+04  0.13292811069E+04  0.10100000352E+00 0.  1.
</event>
<event>
 5   0  0.3652331E-05  0.3218139E+04  0.7818609E-02  0.8184043E-01
       -2   -1    0    0    0  501  0.00000000000E+00  0.00000000000E+00  0.10756194202E+04  0.10756194202E+04  0.25500000920E-02 0. -1.
        2   -1    0    0  501    0  0.00000000000E+00  0.00000000000E+00 -0.24070817495E+04  0.24070817495E+04  0.25500000920E-02 0.  1.
    10030    2    1    2    0    0  0.00000000000E+00  0.00000000000E+00 -0.13314623293E+04  0.34827011698E+04  0.32181385153E+04 0.  0.
        1    1    3    3  502    0 -0.11400928504E+04  0.11237563323E+04 -0.84178204008E+03  0.18086561323E+04  0.50400001928E-02 0. -1.
       -1    1    3    3    0  502  0.11400928504E+04 -0.11237563323E+04 -0.48968028922E+03  0.16740450375E+04  0.50400001928E-02 0.  1.
</event>
<event>
 5   0  0.1474012E-05  0.1952851E+04  0.7818609E-02  0.8628987E-01
       -1   -1    0    0    0  501  0.00000000000E+00  0.00000000000E+00  0.11825532346E+04  0.11825532346E+04  0.50400001928E-02 0.  1.
        1   -1    0    0  501    0  0.00000000000E+00  0.00000000000E+00 -0.80622705098E+03  0.80622705099E+03  0.50400001928E-02 0. -1.
    10030    2    1    2    0    0  0.00000000000E+00  0.00000000000E+00  0.37632618366E+03  0.19887802856E+04  0.19528506415E+04 0.  0.
        2    1    3    3  502    0 -0.67276793464E+03  0.70765152882E+03  0.18372085473E+03  0.99354956222E+03  0.25500000920E-02 0.  1.
       -2    1    3    3    0  502  0.67276793464E+03 -0.70765152882E+03  0.19260532893E+03  0.99523072342E+03  0.25500000920E-02 0. -1.
</event>
<event>
 5   0  0.1438701E-05  0.2663302E+04  0.7818609E-02  0.8347011E-01
        1   -1    0    0  501    0  0.00000000000E+00  0.00000000000E+00  0.11980019059E+04  0.11980019059E+04  0.50400001928E-02 0. -1.
       -1   -1    0    0    0  501  0.00000000000E+00  0.00000000000E+00 -0.14802097981E+04  0.14802097981E+04  0.50400001928E-02 0.  1.
    10030    2    1    2    0    0  0.00000000000E+00  0.00000000000E+00 -0.28220789224E+03  0.26782117040E+04  0.26633018299E+04 0.  0.
        4    1    3    3  502    0  0.31549166289E+03  0.12076230273E+04 -0.60781875398E+03  0.13882844147E+04  0.12699999809E+01 0.  1.
       -4    1    3    3    0  502 -0.31549166289E+03 -0.12076230273E+04  0.32561086175E+03  0.12899272893E+04  0.12699999809E+01 0. -1.
</event>
<event>
 5   0  0.3676724E-05  0.2691055E+04  0.7818609E-02  0.8337913E-01
        2   -1    0    0  501    0  0.00000000000E+00  0.00000000000E+00  0.17602992728E+04  0.17602992728E+04  0.25500000920E-02 0.  1.
       -2   -1    0    0    0  501  0.00000000000E+00  0.00000000000E+00 -0.10284864785E+04  0.10284864785E+04  0.25500000920E-02 0. -1.
    10030    2    1    2    0    0  0.00000000000E+00  0.00000000000E+00  0.73181279427E+03  0.27887857513E+04  0.26910548119E+04 0.  0.
        4    1    3    3  502    0  0.11143390958E+04 -0.35376791731E+03 -0.32426749564E+03  0.12132824821E+04  0.12699999809E+01 0. -1.
       -4    1    3    3    0  502 -0.11143390958E+04  0.35376791731E+03  0.10560802899E+04  0.15755032692E+04  0.12699999809E+01 0.  1.
</event>
<event>
 5   0  0.3514294E-05  0.2684903E+04  0.7818609E-02  0.8339920E-01
        2   -1    0    0  501    0  0.00000000000E+00  0.00000000000E+00  0.15664540109E+04  0.15664540109E+04  0.25500000920E-02 0.  1.
       -2   -1    0    0    0  501  0.00000000000E+00  0.00000000000E+00 -0.11504813071E+04  0.11504813071E+04  0.25500000920E-02 0. -1.
    10030    2    1    2    0    0  0.00000000000E+00  0.00000000000E+00  0.41597270385E+03  0.27169353180E+04  0.26849030209E+04 0.  0.
        2    1    3    3  502    0 -0.68711329316E+03 -0.11531058886E+04  0.22817912055E+03  0.13615592455E+04  0.25500000920E-02 0. -1.
       -2    1    3    3    0  502  0.68711329316E+03  0.11531058886E+04  0.18779358330E+03  0.13553760725E+04  0.25500000920E-02 0.  1.
</event>
<event>
 5   0  0.1495517E-05  0.2697778E+04  0.7818609E-02  0.8335726E-01
        1   -1    0    0  501    0  0.00000000000E+00  0.00000000000E+00  0.23387650637E+04  0.23387650637E+04  0.50400001928E-02 0. -1.
       -1   -1    0    0    0  501  0.00000000000E+00  0.00000000000E+00 -0.77797512701E+03  0.77797512702E+03  0.50400001928E-02 0.  1.
    10030    2    1    2    0    0  0.00000000000E+00  0.00000000000E+00  0.15607899367E+04  0.31167401908E+04  0.26977776391E+04 0.  0.
        5    1    3    3  502    0 -0.25856511767E+03 -0.38582140628E+03 -0.68267400352E+03  0.82569968069E+03  0.46999998093E+01 0.  1.
       -5    1    3    3    0  502  0.25856511767E+03  0.38582140628E+03  0.22434639402E+04  0.22910405101E+04  0.46999998093E+01 0. -1.
</event>
<event>
 5   0  0.3497949E-05  0.2734761E+04  0.7818609E-02  0.8323814E-01
       -2   -1    0    0    0  501  0.00000000000E+00  0.00000000000E+00  0.98163254224E+03  0.98163254224E+03  0.25500000920E-02 0.  1.
        2   -1    0    0  501    0  0.00000000000E+00  0.00000000000E+00 -0.19047140685E+04  0.19047140685E+04  0.25500000920E-02 0. -1.
    10030    2    1    2    0    0  0.00000000000E+00  0.00000000000E+00 -0.92308152622E+03  0.28863466107E+04  0.27347609133E+04 0.  0.
        5    1    3    3  502    0 -0.25334731700E+03 -0.87140735123E+03  0.61797895481E+03  0.10979324721E+04  0.46999998093E+01 0.  1.
       -5    1    3    3    0  502  0.25334731700E+03  0.87140735123E+03 -0.15410604810E+04  0.17884141386E+04  0.46999998093E+01 0. -1.
</event>
<event>
 5   0  0.3514294E-05  0.2698711E+04  0.7818609E-02  0.8335423E-01
       -2   -1    0    0    0  501  0.00000000000E+00  0.00000000000E+00  0.99011010660E+03  0.99011010660E+03  0.25500000920E-02 0.  1.
        2   -1    0    0  501    0  0.00000000000E+00  0.00000000000E+00 -0.18389479322E+04  0.18389479322E+04  0.25500000920E-02 0. -1.
    10030    2    1    2    0    0  0.00000000000E+00  0.00000000000E+00 -0.84883782558E+03  0.28290580388E+04  0.26987114949E+04 0.  0.
        2    1    3    3  502    0  0.86939086214E+03 -0.34289088602E+03 -0.14447468556E+04  0.17206708307E+04  0.25500000920E-02 0. -1.
       -2    1    3    3    0  502 -0.86939086214E+03  0.34289088602E+03  0.59590903003E+03  0.11083872081E+04  0.25500000920E-02 0.  1.
</event>
<event>
 5   0  0.3497949E-05  0.2514846E+04  0.7818609E-02  0.8397715E-01
        2   -1    0    0  501    0  0.00000000000E+00  0.00000000000E+00  0.13163079639E+04  0.13163079639E+04  0.25500000920E-02 0. -1.
       -2   -1    0    0    0  501  0.00000000000E+00  0.00000000000E+00 -0.12011726299E+04  0.12011726299E+04  0.25500000920E-02 0.  1.
    10030    2    1    2    0    0  0.00000000000E+00  0.00000000000E+00  0.11513533401E+03  0.25174805937E+04  0.25148463958E+04 0.  0.
        5    1    3    3  502    0  0.10432746825E+04 -0.20805049469E+03 -0.61349555839E+03  0.12280496577E+04  0.46999998093E+01 0.  1.
       -5    1    3    3    0  502 -0.10432746825E+04  0.20805049469E+03  0.72863089240E+03  0.12894309361E+04  0.46999998093E+01 0. -1.
</event>
<event>
 5   0  0.1449521E-05  0.2692548E+04  0.7818609E-02  0.8337427E-01
       -1   -1    0    0    0  501  0.00000000000E+00  0.00000000000E+00  0.10146574032E+04  0.10146574032E+04  0.50400001928E-02 0. -1.
        1   -1    0    0  501    0  0.00000000000E+00  0.00000000000E+00 -0.17862717727E+04  0.17862717727E+04  0.50400001928E-02 0.  1.
    10030    2    1    2    0    0  0.00000000000E+00  0.00000000000E+00 -0.77161436948E+03  0.28009291759E+04  0.26925481451E+04 0.  0.
        3    1    3    3  502    0  0.76178898021E+03  0.88945824591E+03 -0.10766125508E+04  0.15907712018E+04  0.10100000352E+00 0.  1.
       -3    1    3    3    0  502 -0.76178898021E+03 -0.88945824591E+03  0.30499818137E+03  0.12101579742E+04  0.10100000352E+00 0. -1.
</event>
<event>
 5   0  0.3652331E-05  0.1795771E+04  0.7818609E-02  0.8708552E-01
       -2   -1    0    0    0  501  0.00000000000E+00  0.00000000000E+00  0.67766044646E+03  0.67766044646E+03  0.25500000920E-02 0. -1.
        2   -1    0    0  501    0  0.00000000000E+00  0.00000000000E+00 -0.11896785262E+04  0.11896785262E+04  0.25500000920E-02 0.  1.
    10030    2    1    2    0    0  0.00000000000E+00  0.00000000000E+00 -0.51201807970E+03  0.18673389726E+04  0.17957706771E+04 0.  0.
        1    1    3    3  502    0  0.43023808158E+02  0.84711626206E+03 -0.56226509015E+03  0.10176438675E+04  0.50400001928E-02 0.  1.
       -1    1    3    3    0  502 -0.43023808158E+02 -0.84711626206E+03  0.50247010454E+02  0.84969510508E+03  0.50400001928E-02 0. -1.
</event>
<event>
 5   0  0.1449521E-05  0.2708798E+04  0.7818609E-02  0.8332156E-01
        1   -1    0    0  501    0  0.00000000000E+00  0.00000000000E+00  0.11811958018E+04  0.11811958018E+04  0.50400001928E-02 0. -1.
       -1   -1    0    0    0  501  0.00000000000E+00  0.00000000000E+00 -0.15529991572E+04  0.15529991572E+04  0.50400001928E-02 0.  1.
    10030    2    1    2    0    0  0.00000000000E+00  0.00000000000E+00 -0.37180335540E+03  0.27341949591E+04  0.27087975818E+04 0.  0.
        3    1    3    3  502    0 -0.11729139056E+03 -0.37203185309E+01 -0.15478579743E+04  0.15523000450E+04  0.10100000352E+00 0.  1.
       -3    1    3    3    0  502  0.11729139056E+03  0.37203185309E+01  0.11760546189E+04  0.11818949140E+04  0.10100000352E+00 0. -1.
</event>
<event>
 5   0  0.3514294E-05  0.2392325E+04  0.7818609E-02  0.8442383E-01
       -2   -1    0    0    0  501  0.00000000000E+00  0.00000000000E+00  0.21866379499E+04  0.21866379499E+04  0.25500000920E-02 0.  1.
        2   -1    0    0  501    0  0.00000000000E+00  0.00000000000E+00 -0.65434004535E+03  0.65434004535E+03  0.25500000920E-02 0. -1.
    10030    2    1    2    0    0  0.00000000000E+00  0.00000000000E+00  0.15322979045E+04  0.28409779953E+04  0.23923250409E+04 0.  0.
        2    1    3    3  502    0  0.42859326951E+03 -0.36463271457E+03 -0.48734026174E+03  0.74441234402E+03  0.25500000920E-02 0. -1.
       -2    1    3    3    0  502 -0.42859326951E+03  0.36463271457E+03  0.20196381663E+04  0.20965656512E+04  0.25500000920E-02 0.  1.
</event>
<event>
 5   0  0.3568647E-05  0.2141602E+04  0.7818609E-02  0.8543136E-01
       -2   -1    0    0    0  501  0.00000000000E+00  0.00000000000E+00  0.16209977087E+04  0.16209977087E+04  0.25500000920E-02 0.  1.
        2   -1    0    0  501    0  0.00000000000E+00  0.00000000000E+00 -0.70735106646E+03  0.70735106647E+03  0.25500000920E-02 0. -1.
    10030    2    1    2    0    0  0.00000000000E+00  0.00000000000E+00  0.91364664219E+03  0.23283487751E+04  0.21416016978E+04 0.  0.
        3    1    3    3  502    0 -0.65182499705E+03  0.68450445654E+03 -0.90236166980E+02  0.94950763759E+03  0.10100000352E+00 0. -1.
       -3    1    3    3    0  502  0.65182499705E+03 -0.68450445654E+03  0.10038828092E+04  0.13788411375E+04  0.10100000352E+00 0.  1.
</event>
<event>
 5   0  0.3652331E-05  0.2707338E+04  0.7818609E-02  0.8332628E-01
        2   -1    0    0  501    0  0.00000000000E+00  0.00000000000E+00  0.17636019063E+04  0.17636019063E+04  0.25500000920E-02 0.  1.
       -2   -1    0    0    0  501  0.00000000000E+00  0.00000000000E+00 -0.10390214187E+04  0.10390214187E+04  0.25500000920E-02 0. -1.
    10030    2    1    2    0    0  0.00000000000E+00  0.00000000000E+00  0.72458048761E+03  0.28026233250E+04  0.27073382904E+04 0.  0.
        1    1    3    3  502    0  0.28139400006E+03 -0.68264533513E+03  0.15367841698E+04  0.17049612375E+04  0.50400001928E-02 0.  1.
       -1    1    3    3    0  502 -0.28139400006E+03  0.68264533513E+03 -0.81220368219E+03  0.10976620875E+04  0.50400001928E-02 0. -1.
</event>
<event>
 5   0  0.3497949E-05  0.2661155E+04  0.7818609E-02  0.8347720E-01
        2   -1    0    0  501    0  0.00000000000E+00  0.00000000000E+00  0.16730560534E+04  0.16730560534E+04  0.25500000920E-02 0. -1.
       -2   -1    0    0    0  501  0.00000000000E+00  0.00000000000E+00 -0.10582048849E+04  0.10582048849E+04  0.25500000920E-02 0.  1.
    10030    2    1    2    0    0  0.00000000000E+00  0.00000000000E+00  0.61485116847E+03  0.27312609383E+04  0.26611547031E+04 0.  0.
        5    1    3    3  502    0  0.28045390838E+03  0.12986266036E+04  0.38234554129E+03  0.13824961675E+04  0.46999998093E+01 0.  1.
       -5    1    3    3    0  502 -0.28045390838E+03 -0.12986266036E+04  0.23250562718E+03  0.13487647708E+04  0.46999998093E+01 0. -1.
</event>
<event>
 5   0  0.1438701E-05  0.2707114E+04  0.7818609E-02  0.8332700E-01
        1   -1    0    0  501    0  0.00000000000E+00  0.00000000000E+00  0.83023497472E+03  0.83023497474E+03  0.50400001928E-02 0.  1.
       -1   -1    0    0    0  501  0.00000000000E+00  0.00000000000E+00 -0.22067449656E+04  0.22067449656E+04  0.50400001928E-02 0. -1.
    10030    2    1    2    0    0  0.00000000000E+00  0.00000000000E+00 -0.13765099908E+04  0.30369799403E+04  0.27071142205E+04 0.  0.
        4    1    3    3  502    0  0.10814884263E+03 -0.11948936240E+04  0.14715665797E+02  0.11998687881E+04  0.12699999809E+01 0.  1.
       -4    1    3    3    0  502 -0.10814884263E+03  0.11948936240E+04 -0.13912256566E+04  0.18371111522E+04  0.12699999809E+01 0. -1.
</event>
<event>
 5   0  0.1495517E-05  0.2646016E+04  0.7818609E-02  0.8352736E-01
        1   -1    0    0  501    0  0.00000000000E+00  0.00000000000E+00  0.10264061410E+04  0.10264061410E+04  0.50400001928E-02 0. -1.
       -1   -1    0    0    0  501  0.00000000000E+00  0.00000000000E+00 -0.17053195764E+04  0.17053195764E+04  0.50400001928E-02 0.  1.
    10030    2    1    2    0    0  0.00000000000E+00  0.00000000000E+00 -0.67891343544E+03  0.27317257174E+04  0.26460162400E+04 0.  0.
        5    1    3    3  502    0 -0.44657787454E+03 -0.98922920487E+03 -0.11204816064E+04  0.15599703004E+04  0.46999998093E+01 0.  1.
       -5    1    3    3    0  502  0.44657787454E+03  0.98922920487E+03  0.44156817095E+03  0.11717554170E+04  0.46999998093E+01 0. -1.
</event>
<event>
 5   0  0.3676724E-05  0.2722093E+04  0.7818609E-02  0.8327872E-01
        2   -1    0    0  501    0  0.00000000000E+00  0.00000000000E+00  0.24730092365E+04  0.24730092365E+04  0.25500000920E-02 0. -1.
       -2   -1    0    0    0  501  0.00000000000E+00  0.00000000000E+00 -0.74906641994E+03  0.74906641995E+03  0.25500000920E-02 0.  1.
    10030    2    1    2    0    0  0.00000000000E+00  0.00000000000E+00  0.17239428166E+04  0.32220756564E+04  0.27220934409E+04 0.  0.
        4    1    3    3  502    0 -0.64033152906E+02 -0.26805848204E+03  0.24396342852E+04  0.24551522667E+04  0.12699999809E+01 0. -1.
       -4    1    3    3    0  502  0.64033152906E+02  0.26805848204E+03 -0.71569146865E+03  0.76692338970E+03  0.12699999809E+01 0.  1.
</event>
<event>
 5   0  0.1438701E-05  0.2861421E+04  0.7818609E-02  0.8284449E-01
       -1   -1    0    0    0  501  0.00000000000E+00  0.00000000000E+00  0.22759373794E+04  0.22759373794E+04  0.50400001928E-02 0. -1.
        1   -1    0    0  501    0  0.00000000000E+00  0.00000000000E+00 -0.89937994292E+03  0.89937994294E+03  0.50400001928E-02 0.  1.
    10030    2    1    2    0    0  0.00000000000E+00  0.00000000000E+00  0.13765574365E+04  0.31753173224E+04  0.28614209271E+04 0.  0.
        4    1    3    3  502    0  0.63480226129E+03 -0.36350300348E+03 -0.67616548928E+03  0.99614744203E+03  0.12699999809E+01 0.  1.
       -4    1    3    3    0  502 -0.63480226129E+03  0.36350300348E+03  0.20527229258E+04  0.21791698804E+04  0.12699999809E+01 0. -1.
</event>
<event>
 5   0  0.1484379E-05  0.2690761E+04  0.7818609E-02  0.8338009E-01
        1   -1    0    0  501    0  0.00000000000E+00  0.00000000000E+00  0.24735786639E+04  0.24735786639E+04  0.50400001928E-02 0. -1.
       -1   -1    0    0    0  501  0.00000000000E+00  0.00000000000E+00 -0.73175329018E+03  0.73175329020E+03  0.50400001928E-02 0.  1.
    10030    2    1    2    0    0  0.00000000000E+00  0.00000000000E+00  0.17418253737E+04  0.32053319541E+04  0.26907614728E+04 0.  0.
        1    1    3    3  502    0  0.25094025709E+03  0.25876653105E+03  0.24149853354E+04  0.24417381719E+04  0.50400001928E-02 0. -1.
       -1    1    3    3    0  502 -0.25094025709E+03 -0.25876653105E+03 -0.67315996163E+03  0.76359378218E+03  0.50400001928E-02 0.  1.
</event>
<event>
 5   0  0.3652331E-05  0.2696348E+04  0.7818609E-02  0.8336191E-01
       -2   -1    0    0    0  501  0.00000000000E+00  0.00000000000E+00  0.10948068928E+04  0.10948068928E+04  0.25500000920E-02 0. -1.
        2   -1    0    0  501    0  0.00000000000E+00  0.00000000000E+00 -0.16601771224E+04  0.16601771224E+04  0.25500000920E-02 0.  1.
    10030    2    1    2    0    0  0.00000000000E+00  0.00000000000E+00 -0.56537022968E+03  0.27549840152E+04  0.26963481651E+04 0.  0.
        1    1    3    3  502    0  0.46660284271E+03  0.38175060618E+03  0.94940785442E+03  0.11246452828E+04  0.50400001928E-02 0. -1.
       -1    1    3    3    0  502 -0.46660284271E+03 -0.38175060618E+03 -0.15147780841E+04  0.16303387324E+04  0.50400001928E-02 0.  1.
</event>
<event>
 5   0  0.1495517E-05  0.2653702E+04  0.7818609E-02  0.8350185E-01
        1   -1    0    0  501    0  0.00000000000E+00  0.00000000000E+00  0.18838246662E+04  0.18838246663E+04  0.50400001928E-02 0. -1.
       -1   -1    0    0    0  501  0.00000000000E+00  0.00000000000E+00 -0.93455279357E+03  0.93455279358E+03  0.50400001928E-02 0.  1.
    10030    2    1    2    0    0  0.00000000000E+00  0.00000000000E+00  0.94927187268E+03  0.28183774598E+04  0.26537020213E+04 0.  0.
        5    1    3    3  502    0  0.50660748987E+03 -0.30655331891E+02  0.17766480433E+04  0.18477259694E+04  0.46999998093E+01 0. -1.
       -5    1    3    3    0  502 -0.50660748987E+03  0.30655331891E+02 -0.82737617063E+03  0.97065149044E+03  0.46999998093E+01 0.  1.
</event>
<event>
 5   0  0.3676724E-05  0.1514681E+04  0.7818609E-02  0.8874749E-01
        2   -1    0    0  501    0  0.00000000000E+00  0.00000000000E+00  0.15217166735E+04  0.15217166735E+04  0.25500000920E-02 0.  1.
       -2   -1    0    0    0  501  0.00000000000E+00  0.00000000000E+00 -0.37691933705E+03  0.37691933706E+03  0.25500000920E-02 0. -1.
    10030    2    1    2    0    0  0.00000000000E+00  0.00000000000E+00  0.11447973365E+04  0.18986360106E+04  0.15146807449E+04 0.  0.
        4    1    3    3  502    0 -0.74429981333E+03 -0.87340148449E+02  0.43535890740E+03  0.86668881659E+03  0.12699999809E+01 0.  1.
       -4    1    3    3    0  502  0.74429981333E+03  0.87340148449E+02  0.70943842907E+03  0.10319471940E+04  0.12699999809E+01 0. -1.
</event>
<event>
 5   0  0.3652331E-05  0.2001814E+04  0.7818609E-02  0.8605773E-01
       -2   -1    0    0    0  501  0.00000000000E+00  0.00000000000E+00  0.63500159440E+03  0.63500159441E+03  0.25500000920E-02 0. -1.
        2   -1    0    0  501    0  0.00000000000E+00  0.00000000000E+00 -0.15776569421E+04  0.15776569421E+04  0.25500000920E-02 0.  1.
    10030    2    1    2    0    0  0.00000000000E+00  0.00000000000E+00 -0.94265534768E+03  0.22126585365E+04  0.20018138511E+04 0.  0.
        1    1    3    3  502    0  0.22943629176E+03 -0.91768416522E+03 -0.10971609917E+03  0.95227247230E+03  0.50400001928E-02 0. -1.
       -1    1    3    3    0  502 -0.22943629176E+03  0.91768416522E+03 -0.83293924850E+03  0.12603860642E+04  0.50400001928E-02 0.  1.
</event>
<event>
 5   0  0.3568647E-05  0.2685634E+04  0.7818609E-02  0.8339681E-01
       -2   -1    0    0    0  501  0.00000000000E+00  0.00000000000E+00  0.14631646098E+04  0.14631646098E+04  0.25500000920E-02 0. -1.
        2   -1    0    0  501    0  0.00000000000E+00  0.00000000000E+00 -0.12323684308E+04  0.12323684308E+04  0.25500000920E-02 0.  1.
    10030    2    1    2    0    0  0.00000000000E+00  0.00000000000E+00  0.23079617899E+03  0.26955330405E+04  0.26856342819E+04 0.  0.
        3    1    3    3  502    0 -0.60207927627E+03 -0.50079168293E+03 -0.97943227324E+03  0.12540252600E+04  0.10100000352E+00 0.  1.
       -3    1    3    3    0  502  0.60207927627E+03  0.50079168293E+03  0.12102284522E+04  0.14415077805E+04  0.10100000352E+00 0. -1.
</event>
<event>
 5   0  0.3514294E-05  0.2791254E+04  0.7818609E-02  0.8305989E-01
        2   -1    0    0  501    0  0.00000000000E+00  0.00000000000E+00  0.22619604519E+04  0.22619604519E+04  0.25500000920E-02 0. -1.
       -2   -1    0    0    0  501  0.00000000000E+00  0.00000000000E+00 -0.86110008896E+03  0.86110008897E+03  0.25500000920E-02 0.  1.
    10030    2    1    2    0    0  0.00000000000E+00  0.00000000000E+00  0.14008603630E+04  0.31230605409E+04  0.27912537301E+04 0.  0.
        2    1    3    3  502    0  0.49585056531E+03  0.12724671109E+04  0.37860269243E+03  0.14171733593E+04  0.25500000920E-02 0. -1.
       -2    1    3    3    0  502 -0.49585056531E+03 -0.12724671109E+04  0.10222576705E+04  0.17058871816E+04  0.25500000920E-02 0.  1.
</event>
<event>
 5   0  0.3652331E-05  0.2654758E+04  0.7818609E-02  0.8349836E-01
        2   -1    0    0  501    0  0.00000000000E+00  0.00000000000E+00  0.69206200183E+03  0.69206200184E+03  0.25500000920E-02 0. -1.
       -2   -1    0    0    0  501  0.00000000000E+00  0.00000000000E+00 -0.25459203676E+04  0.25459203676E+04  0.25500000920E-02 0.  1.
    10030    2    1    2    0    0  0.00000000000E+00  0.00000000000E+00 -0.18538583657E+04  0.32379823694E+04  0.26547578015E+04 0.  0.
        1    1    3    3  502    0 -0.47353768632E+03  0.76477993038E+03 -0.21174921709E+04  0.23006302128E+04  0.50400001928E-02 0.  1.
       -1    1    3    3    0  502  0.47353768632E+03 -0.76477993038E+03  0.26363380513E+03  0.93735215662E+03  0.50400001928E-02 0. -1.
</event>
<event>
 5   0  0.3497949E-05  0.2662308E+04  0.7818609E-02  0.8347339E-01
        2   -1    0    0  501    0  0.00000000000E+00  0.00000000000E+00  0.82382500576E+03  0.82382500577E+03  0.25500000920E-02 0. -1.
       -2   -1    0    0    0  501  0.00000000000E+00  0.00000000000E+00 -0.21509070831E+04  0.21509070831E+04  0.25500000920E-02 0.  1.
    10030    2    1    2    0    0  0.00000000000E+00  0.00000000000E+00 -0.13270820773E+04  0.29747320888E+04  0.26623080514E+04 0.  0.
        5    1    3    3  502    0 -0.11885969772E+04  0.57492885266E+03 -0.85264417468E+03  0.15717283920E+04  0.46999998093E+01 0.  1.
       -5    1    3    3    0  502  0.11885969772E+04 -0.57492885266E+03 -0.47443790262E+03  0.14030036968E+04  0.46999998093E+01 0. -1.
</event>
<event>
 5   0  0.3514294E-05  0.2611884E+04  0.7818609E-02  0.8364176E-01
       -2   -1    0    0    0  501  0.00000000000E+00  0.00000000000E+00  0.94395027782E+03  0.94395027783E+03  0.25500000920E-02 0. -1.
        2   -1    0    0  501    0  0.00000000000E+00  0.00000000000E+00 -0.18067525817E+04  0.18067525817E+04  0.25500000920E-02 0.  1.
    10030    2    1    2    0    0  0.00000000000E+00  0.00000000000E+00 -0.86280230390E+03  0.27507028595E+04  0.26118840721E+04 0.  0.
        2    1    3    3  502    0  0.45254220279E+03 -0.57161762235E+03 -0.15724739976E+04  0.17332673263E+04  0.25500000920E-02 0.  1.
       -2    1    3    3    0  502 -0.45254220279E+03  0.57161762235E+03  0.70967169366E+03  0.10174355332E+04  0.25500000920E-02 0. -1.
</event>
<event>
 5   0  0.1449521E-05  0.2770579E+04  0.7818609E-02  0.8312461E-01
       -1   -1    0    0    0  501  0.00000000000E+00  0.00000000000E+00  0.77968555447E+03  0.77968555449E+03  0.50400001928E-02 0.  1.
        1   -1    0    0  501    0  0.00000000000E+00  0.00000000000E+00 -0.24612838866E+04  0.24612838866E+04  0.50400001928E-02 0. -1.
    10030    2    1    2    0    0  0.00000000000E+00  0.00000000000E+00 -0.16815983322E+04  0.32409694411E+04  0.27705793559E+04 0.  0.
        3    1    3    3  502    0 -0.14026017435E+03 -0.15113721881E+03 -0.24432327100E+04  0.24519179148E+04  0.10100000352E+00 0. -1.
       -3    1    3    3    0  502  0.14026017435E+03  0.15113721881E+03  0.76163437787E+03  0.78905152631E+03  0.10100000352E+00 0.  1.
</event>
<event>
 5   0  0.1484379E-05  0.2611880E+04  0.7818609E-02  0.8364177E-01
       -1   -1    0    0    0  501  0.00000000000E+00  0.00000000000E+00  0.14225996438E+04  0.14225996438E+04  0.50400001928E-02 0. -1.
        1   -1    0    0  501    0  0.00000000000E+00  0.00000000000E+00 -0.11988468072E+04  0.11988468072E+04  0.50400001928E-02 0.  1.
    10030    2    1    2    0    0  0.00000000000E+00  0.00000000000E+00  0.22375283663E+03  0.26214464510E+04  0.26118798141E+04 0.  0.
        1    1    3    3  502    0 -0.91083482944E+03 -0.93440272299E+03  0.59239062205E+02  0.13062303785E+04  0.50400001928E-02 0.  1.
       -1    1    3    3    0  502  0.91083482944E+03  0.93440272299E+03  0.16451377442E+03  0.13152160725E+04  0.50400001928E-02 0. -1.
</event>
<event>
 5   0  0.3514294E-05  0.1837129E+04  0.7818609E-02  0.8686800E-01
       -2   -1    0    0    0  501  0.00000000000E+00  0.00000000000E+00  0.11154948236E+04  0.11154948236E+04  0.25500000920E-02 0. -1.
        2   -1    0    0  501    0  0.00000000000E+00  0.00000000000E+00 -0.75640037875E+03  0.75640037875E+03  0.25500000920E-02 0.  1.
    10030    2    1    2    0    0  0.00000000000E+00  0.00000000000E+00  0.35909444488E+03  0.18718952024E+04  0.18371289635E+04 0.  0.
        2    1    3    3  502    0  0.14543477077E+03  0.10552045842E+03  0.10974135205E+04  0.11120262024E+04  0.25500000920E-02 0. -1.
       -2    1    3    3    0  502 -0.14543477077E+03 -0.10552045842E+03 -0.73831907566E+03  0.75986900001E+03  0.25500000920E-02 0.  1.
</event>
<event>
 5   0  0.3497949E-05  0.2755776E+04  0.7818609E-02  0.8317131E-01
        2   -1    0    0  501    0  0.00000000000E+00  0.00000000000E+00  0.20825418669E+04  0.20825418669E+04  0.25500000920E-02 0.  1.
       -2   -1    0    0    0  501  0.00000000000E+00  0.00000000000E+00 -0.91166276115E+03  0.91166276115E+03  0.25500000920E-02 0. -1.
    10030    2    1    2    0    0  0.00000000000E+00  0.00000000000E+00  0.11708791058E+04  0.29942046281E+04  0.27557763832E+04 0.  0.
        5    1    3    3  502    0  0.63225588594E+03  0.11274576247E+03 -0.73908721971E+03  0.97914816070E+03  0.46999998093E+01 0. -1.
       -5    1    3    3    0  502 -0.63225588594E+03 -0.11274576247E+03  0.19099663255E+04  0.20150564674E+04  0.46999998093E+01 0.  1.
</event>
<event>
 5   0  0.3497949E-05  0.2647644E+04  0.7818609E-02  0.8352195E-01
        2   -1    0    0  501    0  0.00000000000E+00  0.00000000000E+00  0.13965222078E+04  0.13965222078E+04  0.25500000920E-02 0. -1.
       -2   -1    0    0    0  501  0.00000000000E+00  0.00000000000E+00 -0.12549061771E+04  0.12549061771E+04  0.25500000920E-02 0.  1.
    10030    2    1    2    0    0  0.00000000000E+00  0.00000000000E+00  0.14161603071E+03  0.26514283849E+04  0.26476437411E+04 0.  0.
        5    1    3    3  502    0 -0.97149183839E+03 -0.25303293606E+03  0.93497849020E+03  0.13718705937E+04  0.46999998093E+01 0. -1.
       -5    1    3    3    0  502  0.97149183839E+03  0.25303293606E+03 -0.79336245949E+03  0.12795577912E+04  0.46999998093E+01 0.  1.
</event>
<event>
 5   0  0.1438701E-05  0.2550397E+04  0.7818609E-02  0.8385248E-01
       -1   -1    0    0    0  501  0.00000000000E+00  0.00000000000E+00  0.12357609881E+04  0.12357609881E+04  0.50400001928E-02 0. -1.
        1   -1    0    0  501    0  0.00000000000E+00  0.00000000000E+00 -0.13158950527E+04  0.13158950527E+04  0.50400001928E-02 0.  1.
    10030    2    1    2    0    0  0.00000000000E+00  0.00000000000E+00 -0.80134064522E+02  0.25516560408E+04  0.25503974362E+04 0.  0.
        4    1    3    3  502    0 -0.59521273927E+03  0.11037594010E+04  0.19149293933E+03  0.12685559424E+04  0.12699999809E+01 0. -1.
       -4    1    3    3    0  502  0.59521273927E+03 -0.11037594010E+04 -0.27162700385E+03  0.12831000984E+04  0.12699999809E+01 0.  1.
</event>
<event>
 5   0  0.1495517E-05  0.1637278E+04  0.7818609E-02  0.8797969E-01
       -1   -1    0    0    0  501  0.00000000000E+00  0.00000000000E+00  0.39896912211E+03  0.39896912215E+03  0.50400001928E-02 0. -1.
        1   -1    0    0  501    0  0.00000000000E+00  0.00000000000E+00 -0.16797526916E+04  0.16797526916E+04  0.50400001928E-02 0.  1.
    10030    2    1    2    0    0  0.00000000000E+00  0.00000000000E+00 -0.12807835695E+04  0.20787218138E+04  0.16372775657E+04 0.  0.
        5    1    3    3  502    0 -0.14276085493E+03  0.22037098926E+03  0.34403801529E+03  0.43281437196E+03  0.46999998093E+01 0. -1.
       -5    1    3    3    0  502  0.14276085493E+03 -0.22037098926E+03 -0.16248215848E+04  0.16459074418E+04  0.46999998093E+01 0.  1.
</event>
<event>
 5   0  0.3652331E-05  0.2769914E+04  0.7818609E-02  0.8312670E-01
       -2   -1    0    0    0  501  0.00000000000E+00  0.00000000000E+00  0.13488984409E+04  0.13488984409E+04  0.25500000920E-02 0.  1.
        2   -1    0    0  501    0  0.00000000000E+00  0.00000000000E+00 -0.14219794584E+04  0.14219794584E+04  0.25500000920E-02 0. -1.
    10030    2    1    2    0    0  0.00000000000E+00  0.00000000000E+00 -0.73081017469E+02  0.27708778992E+04  0.27699139874E+04 0.  0.
        1    1    3    3  502    0 -0.12029623477E+04  0.12039594171E+03 -0.71241775313E+03  0.14032649956E+04  0.50400001928E-02 0.  1.
       -1    1    3    3    0  502  0.12029623477E+04 -0.12039594171E+03  0.63933673566E+03  0.13676129037E+04  0.50400001928E-02 0. -1.
</event>
<event>
 5   0  0.3676724E-05  0.2484702E+04  0.7818609E-02  0.8408456E-01
        2   -1    0    0  501    0  0.00000000000E+00  0.00000000000E+00  0.19958277594E+04  0.19958277594E+04  0.25500000920E-02 0. -1.
       -2   -1    0    0    0  501  0.00000000000E+00  0.00000000000E+00 -0.77333104334E+03  0.77333104334E+03  0.25500000920E-02 0.  1.
    10030    2    1    2    0    0  0.00000000000E+00  0.00000000000E+00  0.12224967161E+04  0.27691588028E+04  0.24847016429E+04 0.  0.
        4    1    3    3  502    0 -0.13231102373E+03  0.50607568033E+03 -0.64461927247E+03  0.83015325125E+03  0.12699999809E+01 0.  1.
       -4    1    3    3    0  502  0.13231102373E+03 -0.50607568033E+03  0.18671159886E+04  0.19390055515E+04  0.12699999809E+01 0. -1.
</event>
<event>
 5   0  0.3514294E-05  0.1727326E+04  0.7818609E-02  0.8745931E-01
        2   -1    0    0  501    0  0.00000000000E+00  0.00000000000E+00  0.44622619795E+03  0.44622619796E+03  0.25500000920E-02 0. -1.
       -2   -1    0    0    0  501  0.00000000000E+00  0.00000000000E+00 -0.16716055544E+04  0.16716055544E+04  0.25500000920E-02 0.  1.
    10030    2    1    2    0    0  0.00000000000E+00  0.00000000000E+00 -0.12253793565E+04  0.21178317524E+04  0.17273264787E+04 0.  0.
        2    1    3    3  502    0 -0.22439487455E+02  0.51446032867E+03 -0.14627949518E+04  0.15507875520E+04  0.25500000920E-02 0.  1.
       -2    1    3    3    0  502  0.22439487455E+02 -0.51446032867E+03  0.23741559528E+03  0.56704420044E+03  0.25500000920E-02 0. -1.
</event>
<event>
 5   0  0.3514294E-05  0.2796449E+04  0.7818609E-02  0.8304372E-01
       -2   -1    0    0    0  501  0.00000000000E+00  0.00000000000E+00  0.11203540085E+04  0.11203540085E+04  0.25500000920E-02 0. -1.
        2   -1    0    0  501    0  0.00000000000E+00  0.00000000000E+00 -0.17450122086E+04  0.17450122086E+04  0.25500000920E-02 0.  1.
    10030    2    1    2    0    0  0.00000000000E+00  0.00000000000E+00 -0.62465820011E+03  0.28653662171E+04  0.27964487642E+04 0.  0.
        2    1    3    3  502    0 -0.81679381863E+03 -0.30612150994E+03 -0.14320406244E+04  0.16767834896E+04  0.25500000920E-02 0.  1.
       -2    1    3    3    0  502  0.81679381863E+03  0.30612150994E+03  0.80738242430E+03  0.11885827275E+04  0.25500000920E-02 0. -1.
</event>
<event>
 5   0  0.1474012E-05  0.2571694E+04  0.7818609E-02  0.8377880E-01
        1   -1    0    0  501    0  0.00000000000E+00  0.00000000000E+00  0.15176719533E+04  0.15176719533E+04  0.50400001928E-02 0.  1.
       -1   -1    0    0    0  501  0.00000000000E+00  0.00000000000E+00 -0.10894335183E+04  0.10894335183E+04  0.50400001928E-02 0. -1.
    10030    2    1    2    0    0  0.00000000000E+00  0.00000000000E+00  0.42823843504E+03  0.26071054716E+04  0.25716941465E+04 0.  0.
        2    1    3    3  502    0  0.12343856639E+04 -0.30195324428E+03  0.41308417792E+03  0.13362343608E+04  0.25500000920E-02 0.  1.
       -2    1    3    3    0  502 -0.12343856639E+04  0.30195324428E+03  0.15154257119E+02  0.12708711108E+04  0.25500000920E-02 0. -1.
</event>
<event>
 5   0  0.1449521E-05  0.2606790E+04  0.7818609E-02  0.8365898E-01
        1   -1    0    0  501    0  0.00000000000E+00  0.00000000000E+00  0.14045409256E+04  0.14045409256E+04  0.50400001928E-02 0. -1.
       -1   -1    0    0    0  501  0.00000000000E+00  0.00000000000E+00 -0.12095330263E+04  0.12095330264E+04  0.50400001928E-02 0.  1.
    10030    2    1    2    0    0  0.00000000000E+00  0.00000000000E+00  0.19500789922E+03  0.26140739519E+04  0.26067900846E+04 0.  0.
        3    1    3    3  502    0 -0.77640722628E+02 -0.12688779070E+03 -0.12009925722E+04  0.12101701376E+04  0.10100000352E+00 0.  1.
       -3    1    3    3    0  502  0.77640722628E+02  0.12688779070E+03  0.13960004715E+04  0.14039038143E+04  0.10100000352E+00 0. -1.
</event>
<event>
 5   0  0.3497949E-05  0.1949521E+04  0.7818609E-02  0.8630592E-01
       -2   -1    0    0    0  501  0.00000000000E+00  0.00000000000E+00  0.78767873492E+03  0.78767873493E+03  0.25500000920E-02 0. -1.
        2   -1    0    0  501    0  0.00000000000E+00  0.00000000000E+00 -0.12062760989E+04  0.12062760989E+04  0.25500000920E-02 0.  1.
    10030    2    1    2    0    0  0.00000000000E+00  0.00000000000E+00 -0.41859736401E+03  0.19939548339E+04  0.19495209992E+04 0.  0.
        5    1    3    3  502    0  0.40765174047E+03 -0.90331807153E+02 -0.11101667914E+04  0.11860995623E+04  0.46999998093E+01 0.  1.
       -5    1    3    3    0  502 -0.40765174047E+03  0.90331807153E+02  0.69156942741E+03  0.80785527158E+03  0.46999998093E+01 0. -1.
</event>
<event>
 5   0  0.3652331E-05  0.1647643E+04  0.7818609E-02  0.8791802E-01
       -2   -1    0    0    0  501  0.00000000000E+00  0.00000000000E+00  0.50539142368E+03  0.50539142368E+03  0.25500000920E-02 0. -1.
        2   -1    0    0  501    0  0.00000000000E+00  0.00000000000E+00 -0.13428829635E+04  0.13428829635E+04  0.25500000920E-02 0.  1.
    10030    2    1    2    0    0  0.00000000000E+00  0.00000000000E+00 -0.83749153981E+03  0.18482743872E+04  0.16476425981E+04 0.  0.
        1    1    3    3  502    0 -0.40529879214E+03 -0.42785093124E+03 -0.10644775564E+04  0.12167316871E+04  0.50400001928E-02 0.  1.
       -1    1    3    3    0  502  0.40529879214E+03  0.42785093124E+03  0.22698601659E+03  0.63154270008E+03  0.50400001928E-02 0. -1.
</event>
<event>
 5   0  0.1438701E-05  0.2648388E+04  0.7818609E-02  0.8351948E-01
       -1   -1    0    0    0  501  0.00000000000E+00  0.00000000000E+00  0.93391752212E+03  0.93391752213E+03  0.50400001928E-02 0.  1.
        1   -1    0    0  501    0  0.00000000000E+00  0.00000000000E+00 -0.18775645195E+04  0.18775645195E+04  0.50400001928E-02 0. -1.
    10030    2    1    2    0    0  0.00000000000E+00  0.00000000000E+00 -0.94364699740E+03  0.28114820417E+04  0.26483884939E+04 0.  0.
        4    1    3    3  502    0  0.99371034102E+03  0.32957115439E+03 -0.13325639982E+04  0.16946403187E+04  0.12699999809E+01 0. -1.
       -4    1    3    3    0  502 -0.99371034102E+03 -0.32957115439E+03  0.38891700080E+03  0.11168417229E+04  0.12699999809E+01 0.  1.
</event>
<event>
 5   0  0.1449521E-05  0.1582814E+04  0.7818609E-02  0.8831176E-01
        1   -1    0    0  501    0  0.00000000000E+00  0.00000000000E+00  0.10551016790E+04  0.10551016790E+04  0.50400001928E-02 0.  1.
       -1   -1    0    0    0  501  0.00000000000E+00  0.00000000000E+00 -0.59361593441E+03  0.59361593444E+03  0.50400001928E-02 0. -1.
    10030    2    1    2    0    0  0.00000000000E+00  0.00000000000E+00  0.46148574456E+03  0.16487176134E+04  0.15828141636E+04 0.  0.
        3    1    3    3  502    0 -0.68562242170E+03  0.29686825197E+03 -0.41114965057E+02  0.74826420115E+03  0.10100000352E+00 0. -1.
       -3    1    3    3    0  502  0.68562242170E+03 -0.29686825197E+03  0.50260070961E+03  0.90045341227E+03  0.10100000352E+00 0.  1.
</event>
<event>
 5   0  0.3497949E-05  0.2812631E+04  0.7818609E-02  0.8299358E-01
       -2   -1    0    0    0  501  0.00000000000E+00  0.00000000000E+00  0.17791435668E+04  0.17791435668E+04  0.25500000920E-02 0. -1.
        2   -1    0    0  501    0  0.00000000000E+00  0.00000000000E+00 -0.11116156726E+04  0.11116156726E+04  0.25500000920E-02 0.  1.
    10030    2    1    2    0    0  0.00000000000E+00  0.00000000000E+00  0.66752789423E+03  0.28907592394E+04  0.28126314175E+04 0.  0.
        5    1    3    3  502    0 -0.11474070309E+04 -0.23940295414E+03  0.11324238425E+04  0.16298044417E+04  0.46999998093E+01 0. -1.
       -5    1    3    3    0  502  0.11474070309E+04  0.23940295414E+03 -0.46489594831E+03  0.12609547977E+04  0.46999998093E+01 0.  1.
</event>
<event>
 5   0  0.3497949E-05  0.2642820E+04  0.7818609E-02  0.8353800E-01
        2   -1    0    0  501    0  0.00000000000E+00  0.00000000000E+00  0.10723547210E+04  0.10723547210E+04  0.25500000920E-02 0. -1.
       -2   -1    0    0    0  501  0.00000000000E+00  0.00000000000E+00 -0.16283086930E+04  0.16283086930E+04  0.25500000920E-02 0.  1.
    10030    2    1    2    0    0  0.00000000000E+00  0.00000000000E+00 -0.55595397193E+03  0.27006634140E+04  0.26428200954E+04 0.  0.
        5    1    3    3  502    0 -0.34715641711E+03  0.12660723051E+04 -0.43175574590E+03  0.13819883407E+04  0.46999998093E+01 0.  1.
       -5    1    3    3    0  502  0.34715641711E+03 -0.12660723051E+04 -0.12419822603E+03  0.13186750733E+04  0.46999998093E+01 0. -1.
</event>
<event>
 5   0  0.3514294E-05  0.1428223E+04  0.7818609E-02  0.8933639E-01
        2   -1    0    0  501    0  0.00000000000E+00  0.00000000000E+00  0.10760089332E+04  0.10760089332E+04  0.25500000920E-02 0.  1.
       -2   -1    0    0    0  501  0.00000000000E+00  0.00000000000E+00 -0.47393211926E+03  0.47393211927E+03  0.25500000920E-02 0. -1.
    10030    2    1    2    0    0  0.00000000000E+00  0.00000000000E+00  0.60207681396E+03  0.15499410525E+04  0.14282229435E+04 0.  0.
        2    1    3    3  502    0  0.23335715191E+03  0.44193389121E+03 -0.25252563622E+03  0.55993778360E+03  0.25500000920E-02 0. -1.
       -2    1    3    3    0  502 -0.23335715191E+03 -0.44193389121E+03  0.85460245018E+03  0.99000326889E+03  0.25500000920E-02 0.  1.
</event>
<event>
 5   0  0.3676724E-05  0.2620794E+04  0.7818609E-02  0.8361172E-01
       -2   -1    0    0    0  501  0.00000000000E+00  0.00000000000E+00  0.12570814326E+04  0.12570814326E+04  0.25500000920E-02 0.  1.
        2   -1    0    0  501    0  0.00000000000E+00  0.00000000000E+00 -0.13659742188E+04  0.13659742188E+04  0.25500000920E-02 0. -1.
    10030    2    1    2    0    0  0.00000000000E+00  0.00000000000E+00 -0.10889278618E+03  0.26230556514E+04  0.26207944046E+04 0.  0.
        4    1    3    3  502    0  0.15363731881E+03 -0.75244159390E+03 -0.11171376378E+04  0.13556440877E+04  0.12699999809E+01 0. -1.
       -4    1    3    3    0  502 -0.15363731881E+03  0.75244159390E+03  0.10082448516E+04  0.12674115636E+04  0.12699999809E+01 0.  1.
</event>
<event>
 5   0  0.1484379E-05  0.2488331E+04  0.7818609E-02  0.8407154E-01
        1   -1    0    0  501    0  0.00000000000E+00  0.00000000000E+00  0.23964948590E+04  0.23964948590E+04  0.50400001928E-02 0.  1.
       -1   -1    0    0    0  501  0.00000000000E+00  0.00000000000E+00 -0.64592163161E+03  0.64592163163E+03  0.50400001928E-02 0. -1.
    10030    2    1    2    0    0  0.00000000000E+00  0.00000000000E+00  0.17505732274E+04  0.30424164906E+04  0.24883310628E+04 0.  0.
        1    1    3    3  502    0 -0.62323933737E+02  0.14578510608E+03 -0.63351940597E+03  0.65305773683E+03  0.50400001928E-02 0. -1.
       -1    1    3    3    0  502  0.62323933737E+02 -0.14578510608E+03  0.23840926334E+04  0.23893587538E+04  0.50400001928E-02 0.  1.
</event>
<event>
 5   0  0.1484379E-05  0.2097015E+04  0.7818609E-02  0.8562559E-01
       -1   -1    0    0    0  501  0.00000000000E+00  0.00000000000E+00  0.17407523369E+04  0.17407523369E+04  0.50400001928E-02 0. -1.
        1   -1    0    0  501    0  0.00000000000E+00  0.00000000000E+00 -0.63154772599E+03  0.63154772601E+03  0.50400001928E-02 0.  1.
    10030    2    1    2    0    0  0.00000000000E+00  0.00000000000E+00  0.11092046109E+04  0.23723000629E+04  0.20970151930E+04 0.  0.
        1    1    3    3  502    0  0.96076757700E+03 -0.14570138187E+03  0.10912573723E+03  0.97786075504E+03  0.50400001928E-02 0.  1.
       -1    1    3    3    0  502 -0.96076757700E+03  0.14570138187E+03  0.10000788737E+04  0.13944393078E+04  0.50400001928E-02 0. -1.
</event>
<event>
 5   0  0.1449521E-05  0.2586010E+04  0.7818609E-02  0.8372969E-01
       -1   -1    0    0    0  501  0.00000000000E+00  0.00000000000E+00  0.81572350640E+03  0.81572350641E+03  0.50400001928E-02 0. -1.
        1   -1    0    0  501    0  0.00000000000E+00  0.00000000000E+00 -0.20495441007E+04  0.20495441007E+04  0.50400001928E-02 0.  1.
    10030    2    1    2    0    0  0.00000000000E+00  0.00000000000E+00 -0.12338205943E+04  0.28652676071E+04  0.25860095130E+04 0.  0.
        3    1    3    3  502    0  0.20947284474E+03 -0.10785126042E+04 -0.13722892011E+04  0.17579095460E+04  0.10100000352E+00 0. -1.
       -3    1    3    3    0  502 -0.20947284474E+03  0.10785126042E+04  0.13846860689E+03  0.11073580611E+04  0.10100000352E+00 0.  1.
</event>
<event>
 5   0  0.3652331E-05  0.2609476E+04  0.7818609E-02  0.8364989E-01
        2   -1    0    0  501    0  0.00000000000E+00  0.00000000000E+00  0.11972251770E+04  0.11972251770E+04  0.25500000920E-02 0.  1.
       -2   -1    0    0    0  501  0.00000000000E+00  0.00000000000E+00 -0.14219061282E+04  0.14219061282E+04  0.25500000920E-02 0. -1.
    10030    2    1    2    0    0  0.00000000000E+00  0.00000000000E+00 -0.22468095126E+03  0.26191313052E+04  0.26094764348E+04 0.  0.
        1    1    3    3  502    0  0.40933714415E+03 -0.11737006983E+02  0.11310517924E+04  0.12029018297E+04  0.50400001928E-02 0.  1.
       -1    1    3    3    0  502 -0.40933714415E+03  0.11737006983E+02 -0.13557327436E+04  0.14162294754E+04  0.50400001928E-02 0. -1.
</event>
<event>
 5   0  0.1228050E-05  0.2676676E+04  0.7818609E-02  0.8342613E-01
        3   -1    0    0  501    0  0.00000000000E+00  0.00000000000E+00  0.14397132202E+04  0.14397132238E+04  0.10100000352E+00 0.  1.
       -3   -1    0    0    0  501  0.00000000000E+00  0.00000000000E+00 -0.12441012155E+04  0.12441012196E+04  0.10100000352E+00 0. -1.
    10030    2    1    2    0    0  0.00000000000E+00  0.00000000000E+00  0.19561200470E+03  0.26838144434E+04  0.26766762805E+04 0.  0.
        5    1    3    3  502    0  0.20411238711E+03 -0.82185365868E+03 -0.94130786372E+03  0.12661705601E+04  0.46999998093E+01 0. -1.
       -5    1    3    3    0  502 -0.20411238711E+03  0.82185365868E+03  0.11369198684E+04  0.14176438834E+04  0.46999998093E+01 0.  1.
</event>
<event>
 5   0  0.3514294E-05  0.2724401E+04  0.7818609E-02  0.8327131E-01
        2   -1    0    0  501    0  0.00000000000E+00  0.00000000000E+00  0.13931226285E+04  0.13931226285E+04  0.25500000920E-02 0.  1.
       -2   -1    0    0    0  501  0.00000000000E+00  0.00000000000E+00 -0.13319644815E+04  0.13319644815E+04  0.25500000920E-02 0. -1.
    10030    2    1    2    0    0  0.00000000000E+00  0.00000000000E+00  0.61158146943E+02  0.27250871100E+04  0.27244007485E+04 0.  0.
        2    1    3    3  502    0 -0.55245156636E+03 -0.72878421332E+03  0.10404178371E+04  0.13852070021E+04  0.25500000920E-02 0.  1.
       -2    1    3    3    0  502  0.55245156636E+03  0.72878421332E+03 -0.97925969020E+03  0.13398801079E+04  0.25500000920E-02 0. -1.
</event>
<event>
 5   0  0.1438701E-05  0.2707834E+04  0.7818609E-02  0.8332468E-01
        1   -1    0    0  501    0  0.00000000000E+00  0.00000000000E+00  0.12911962842E+04  0.12911962842E+04  0.50400001928E-02 0. -1.
       -1   -1    0    0    0  501  0.00000000000E+00  0.00000000000E+00 -0.14196839004E+04  0.14196839004E+04  0.50400001928E-02 0.  1.
    10030    2    1    2    0    0  0.00000000000E+00  0.00000000000E+00 -0.12848761623E+03  0.27108801846E+04  0.27078335081E+04 0.  0.
        4    1    3    3  502    0 -0.59835364990E+03  0.12141047479E+04 -0.96084228222E+02  0.13569492330E+04  0.12699999809E+01 0.  1.
       -4    1    3    3    0  502  0.59835364990E+03 -0.12141047479E+04 -0.32403388004E+02  0.13539309516E+04  0.12699999809E+01 0. -1.
</event>
<event>
 5   0  0.1495517E-05  0.2803577E+04  0.7818609E-02  0.8302159E-01
        1   -1    0    0  501    0  0.00000000000E+00  0.00000000000E+00  0.24134366915E+04  0.24134366915E+04  0.50400001928E-02 0. -1.
       -1   -1    0    0    0  501  0.00000000000E+00  0.00000000000E+00 -0.81419648900E+03  0.81419648901E+03  0.50400001928E-02 0.  1.
    10030    2    1    2    0    0  0.00000000000E+00  0.00000000000E+00  0.15992402025E+04  0.32276331805E+04  0.28035774865E+04 0.  0.
        5    1    3    3  502    0  0.81310368745E+03 -0.10344422870E+04  0.24297762576E+03  0.13380092183E+04  0.46999998093E+01 0.  1.
       -5    1    3    3    0  502 -0.81310368745E+03  0.10344422870E+04  0.13562625767E+04  0.18896239622E+04  0.46999998093E+01 0. -1.
</event>
<event>
 5   0  0.3652331E-05  0.2786812E+04  0.7818609E-02  0.8307374E-01
       -2   -1    0    0    0  501  0.00000000000E+00  0.00000000000E+00  0.12560908106E+04  0.12560908106E+04  0.25500000920E-02 0. -1.
        2   -1    0    0  501    0  0.00000000000E+00  0.00000000000E+00 -0.15457326490E+04  0.15457326490E+04  0.25500000920E-02 0.  1.
    10030    2    1    2    0    0  0.00000000000E+00  0.00000000000E+00 -0.28964183835E+03  0.28018234596E+04  0.27868122119E+04 0.  0.
        1    1    3    3  502    0 -0.10579977567E+04  0.42976025806E+03  0.65793312947E+03  0.13179260736E+04  0.50400001928E-02 0. -1.
       -1    1    3    3    0  502  0.10579977567E+04 -0.42976025806E+03 -0.94757496782E+03  0.14838973860E+04  0.50400001928E-02 0.  1.
</event>
<event>
 5   0  0.1449521E-05  0.2657771E+04  0.7818609E-02  0.8348838E-01
       -1   -1    0    0    0  501  0.00000000000E+00  0.00000000000E+00  0.10278161007E+04  0.10278161007E+04  0.50400001928E-02 0.  1.
        1   -1    0    0  501    0  0.00000000000E+00  0.00000000000E+00 -0.17181440855E+04  0.17181440855E+04  0.50400001928E-02 0. -1.
    10030    2    1    2    0    0  0.00000000000E+00  0.00000000000E+00 -0.69032798476E+03  0.27459601862E+04  0.26577706105E+04 0.  0.
        3    1    3    3  502    0  0.46828031941E+03 -0.10016904277E+04  0.41635895348E+03  0.11815350011E+04  0.10100000352E+00 0.  1.
       -3    1    3    3    0  502 -0.46828031941E+03  0.10016904277E+04 -0.11066869382E+04  0.15644251852E+04  0.10100000352E+00 0. -1.
</event>
<event>
 5   0  0.3514294E-05  0.2619280E+04  0.7818609E-02  0.8361682E-01
       -2   -1    0    0    0  501  0.00000000000E+00  0.00000000000E+00  0.92296914094E+03  0.92296914094E+03  0.25500000920E-02 0. -1.
        2   -1    0    0  501    0  0.00000000000E+00  0.00000000000E+00 -0.18583029969E+04  0.18583029969E+04  0.25500000920E-02 0.  1.
    10030    2    1    2    0    0  0.00000000000E+00  0.00000000000E+00 -0.93533385599E+03  0.27812721379E+04  0.26192795350E+04 0.  0.
        2    1    3    3  502    0 -0.41098997120E+03 -0.12282302483E+04 -0.26151002937E+03  0.13213060942E+04  0.25500000920E-02 0.  1.
       -2    1    3    3    0  502  0.41098997120E+03  0.12282302483E+04 -0.67382382663E+03  0.14599660436E+04  0.25500000920E-02 0. -1.
</event>
<event>
 5   0  0.3514294E-05  0.2766052E+04  0.7818609E-02  0.8313886E-01
        2   -1    0    0  501    0  0.00000000000E+00  0.00000000000E+00  0.15166234930E+04  0.15166234930E+04  0.25500000920E-02 0.  1.
       -2   -1    0    0    0  501  0.00000000000E+00  0.00000000000E+00 -0.12611969853E+04  0.12611969853E+04  0.25500000920E-02 0. -1.
    10030    2    1    2    0    0  0.00000000000E+00  0.00000000000E+00  0.25542650766E+03  0.27778204783E+04  0.27660520438E+04 0.  0.
        2    1    3    3  502    0  0.85885987092E+03  0.94867509248E+03 -0.39905276266E+03  0.13404729823E+04  0.25500000920E-02 0. -1.
       -2    1    3    3    0  502 -0.85885987092E+03 -0.94867509248E+03  0.65447927032E+03  0.14373474960E+04  0.25500000920E-02 0.  1.
</event>
<event>
 5   0  0.3676724E-05  0.2685743E+04  0.7818609E-02  0.8339646E-01
       -2   -1    0    0    0  501  0.00000000000E+00  0.00000000000E+00  0.15507731975E+04  0.15507731975E+04  0.25500000920E-02 0.  1.
        2   -1    0    0  501    0  0.00000000000E+00  0.00000000000E+00 -0.11628418542E+04  0.11628418542E+04  0.25500000920E-02 0. -1.
    10030    2    1    2    0    0  0.00000000000E+00  0.00000000000E+00  0.38793134327E+03  0.27136150516E+04  0.26857430855E+04 0.  0.
        4    1    3    3  502    0  0.52999732510E+03 -0.41004919670E+03 -0.98184007352E+03  0.11887173975E+04  0.12699999809E+01 0. -1.
       -4    1    3    3    0  502 -0.52999732510E+03  0.41004919670E+03  0.13697714168E+04  0.15248976541E+04  0.12699999809E+01 0.  1.
</event>
<event>
 5   0  0.3568647E-05  0.2682340E+04  0.7818609E-02  0.8340758E-01
       -2   -1    0    0    0  501  0.00000000000E+00  0.00000000000E+00  0.12675451881E+04  0.12675451881E+04  0.25500000920E-02 0.  1.
        2   -1    0    0  501    0  0.00000000000E+00  0.00000000000E+00 -0.14190708070E+04  0.14190708070E+04  0.25500000920E-02 0. -1.
    10030    2    1    2    0    0  0.00000000000E+00  0.00000000000E+00 -0.15152561886E+03  0.26866159951E+04  0.26823395557E+04 0.  0.
        3    1    3    3  502    0  0.34490528508E+03 -0.12854073374E+04 -0.24187257768E+03  0.13526766180E+04  0.10100000352E+00 0. -1.
       -3    1    3    3    0  502 -0.34490528508E+03  0.12854073374E+04  0.90346958824E+02  0.13339393771E+04  0.10100000352E+00 0.  1.
</event>
<event>
 5   0  0.3652331E-05  0.2494184E+04  0.7818609E-02  0.8405061E-01
       -2   -1    0    0    0  501  0.00000000000E+00  0.00000000000E+00  0.92802609688E+03  0.92802609688E+03  0.25500000920E-02 0. -1.
        2   -1    0    0  501    0  0.00000000000E+00  0.00000000000E+00 -0.16758559014E+04  0.16758559014E+04  0.25500000920E-02 0.  1.
    10030    2    1    2    0    0  0.00000000000E+00  0.00000000000E+00 -0.74782980448E+03  0.26038819982E+04  0.24941836429E+04 0.  0.
        1    1    3    3  502    0 -0.11838971754E+04 -0.65523692844E+02 -0.77734612739E+03  0.14178056560E+04  0.50400001928E-02 0.  1.
       -1    1    3    3    0  502  0.11838971754E+04  0.65523692844E+02  0.29516322904E+02  0.11860763423E+04  0.50400001928E-02 0. -1.
</event>
<event>
 5   0  0.3497949E-05  0.2732845E+04  0.7818609E-02  0.8324426E-01
        2   -1    0    0  501    0  0.00000000000E+00  0.00000000000E+00  0.16077953438E+04  0.16077953438E+04  0.25500000920E-02 0.  1.
       -2   -1    0    0    0  501  0.00000000000E+00  0.00000000000E+00 -0.11612859707E+04  0.11612859707E+04  0.25500000920E-02 0. -1.
    10030    2    1    2    0    0  0.00000000000E+00  0.00000000000E+00  0.44650937307E+03  0.27690813145E+04  0.27328448010E+04 0.  0.
        5    1    3    3  502    0  0.15912853643E+02 -0.13062526022E+04  0.62924065750E+03  0.14500051636E+04  0.46999998093E+01 0.  1.
       -5    1    3    3    0  502 -0.15912853643E+02  0.13062526022E+04 -0.18273128443E+03  0.13190761509E+04  0.46999998093E+01 0. -1.
</event>
<event>
 5   0  0.1438701E-05  0.2701953E+04  0.7818609E-02  0.8334371E-01
       -1   -1    0    0    0  501  0.00000000000E+00  0.00000000000E+00  0.10644274111E+04  0.10644274112E+04  0.50400001928E-02 0. -1.
        1   -1    0    0  501    0  0.00000000000E+00  0.00000000000E+00 -0.17146663932E+04  0.17146663932E+04  0.50400001928E-02 0.  1.
    10030    2    1    2    0    0  0.00000000000E+00  0.00000000000E+00 -0.65023898204E+03  0.27790938044E+04  0.27019533008E+04 0.  0.
        4    1    3    3  502    0 -0.25837975108E+03  0.13254417422E+04 -0.36600857671E+03  0.13991139335E+04  0.12699999809E+01 0. -1.
       -4    1    3    3    0  502  0.25837975108E+03 -0.13254417422E+04 -0.28423040533E+03  0.13799798709E+04  0.12699999809E+01 0.  1.
</event>
<event>
 5   0  0.1495517E-05  0.2701466E+04  0.7818609E-02  0.8334529E-01
        1   -1    0    0  501    0  0.00000000000E+00  0.00000000000E+00  0.19872178579E+04  0.19872178579E+04  0.50400001928E-02 0.  1.
       -1   -1    0    0    0  501  0.00000000000E+00  0.00000000000E+00 -0.91810763601E+03  0.91810763602E+03  0.50400001928E-02 0. -1.
    10030    2    1    2    0    0  0.00000000000E+00  0.00000000000E+00  0.10691102219E+04  0.29053254939E+04  0.27014661869E+04 0.  0.
        5    1    3    3  502    0  0.71972848385E+03 -0.24069711132E+03 -0.66713337349E+03  0.10104618834E+04  0.46999998093E+01 0. -1.
       -5    1    3    3    0  502 -0.71972848385E+03  0.24069711132E+03  0.17362435954E+04  0.18948636105E+04  0.46999998093E+01 0.  1.
</event>
<event>
 5   0  0.3676724E-05  0.2708057E+04  0.7818609E-02  0.8332395E-01
        2   -1    0    0  501    0  0.00000000000E+00  0.00000000000E+00  0.11588572521E+04  0.11588572521E+04  0.25500000920E-02 0.  1.
       -2   -1    0    0    0  501  0.00000000000E+00  0.00000000000E+00 -0.15820704369E+04  0.15820704370E+04  0.25500000920E-02 0. -1.
    10030    2    1    2    0    0  0.00000000000E+00  0.00000000000E+00 -0.42321318482E+03  0.27409276891E+04  0.27080574582E+04 0.  0.
        4    1    3    3  502    0 -0.19414299847E+03  0.20809586705E+03 -0.15514558138E+04  0.15773433833E+04  0.12699999809E+01 0. -1.
       -4    1    3    3    0  502  0.19414299847E+03 -0.20809586705E+03  0.11282426290E+04  0.11635843057E+04  0.12699999809E+01 0.  1.
</event>
<event>
 5   0  0.3514294E-05  0.2728314E+04  0.7818609E-02  0.8325876E-01
       -2   -1    0    0    0  501  0.00000000000E+00  0.00000000000E+00  0.15014050368E+04  0.15014050368E+04  0.25500000920E-02 0.  1.
        2   -1    0    0  501    0  0.00000000000E+00  0.00000000000E+00 -0.12394552540E+04  0.12394552540E+04  0.25500000920E-02 0. -1.
    10030    2    1    2    0    0  0.00000000000E+00  0.00000000000E+00  0.26194978282E+03  0.27408602908E+04  0.27283140298E+04 0.  0.
        2    1    3    3  502    0 -0.10558342439E+04 -0.68190782730E+03 -0.40168986154E+03  0.13195222546E+04  0.25500000920E-02 0. -1.
       -2    1    3    3    0  502  0.10558342439E+04  0.68190782730E+03  0.66363964435E+03  0.14213380362E+04  0.25500000920E-02 0.  1.
</event>
<event>
 5   0  0.1495517E-05  0.2694693E+04  0.7818609E-02  0.8336729E-01
        1   -1    0    0  501    0  0.00000000000E+00  0.00000000000E+00  0.19465582676E+04  0.19465582676E+04  0.50400001928E-02 0. -1.
       -1   -1    0    0    0  501  0.00000000000E+00  0.00000000000E+00 -0.93259111044E+03  0.93259111046E+03  0.50400001928E-02 0.  1.
    10030    2    1    2    0    0  0.00000000000E+00  0.00000000000E+00  0.10139671572E+04  0.28791493781E+04  0.26946932563E+04 0.  0.
        5    1    3    3  502    0 -0.10883294387E+04 -0.78185009212E+03  0.35751367816E+03  0.13869349854E+04  0.46999998093E+01 0.  1.
       -5    1    3    3    0  502  0.10883294387E+04  0.78185009212E+03  0.65645347899E+03  0.14922143927E+04  0.46999998093E+01 0. -1.
</event>
<event>
 5   0  0.1474012E-05  0.2672383E+04  0.7818609E-02  0.8344022E-01
       -1   -1    0    0    0  501  0.00000000000E+00  0.00000000000E+00  0.96485568377E+03  0.96485568379E+03  0.50400001928E-02 0. -1.
        1   -1    0    0  501    0  0.00000000000E+00  0.00000000000E+00 -0.18504408008E+04  0.18504408008E+04  0.50400001928E-02 0.  1.
    10030    2    1    2    0    0  0.00000000000E+00  0.00000000000E+00 -0.88558511702E+03  0.28152964846E+04  0.26723834487E+04 0.  0.
        2    1    3    3  502    0 -0.12494746840E+04  0.47351709830E+03 -0.44458530411E+03  0.14082121718E+04  0.25500000920E-02 0.  1.
       -2    1    3    3    0  502  0.12494746840E+04 -0.47351709830E+03 -0.44099981292E+03  0.14070843128E+04  0.25500000920E-02 0. -1.
</event>
<event>
 5   0  0.3497949E-05  0.1906291E+04  0.7818609E-02  0.8651731E-01
        2   -1    0    0  501    0  0.00000000000E+00  0.00000000000E+00  0.24145690764E+04  0.24145690764E+04  0.25500000920E-02 0. -1.
       -2   -1    0    0    0  501  0.00000000000E+00  0.00000000000E+00 -0.37625209400E+03  0.37625209401E+03  0.25500000920E-02 0.  1.
    10030    2    1    2    0    0  0.00000000000E+00  0.00000000000E+00  0.20383169824E+04  0.27908211705E+04  0.19062913430E+04 0.  0.
        5    1    3    3  502    0  0.49779300479E+03 -0.33146845156E+02 -0.16981595039E+03  0.52702574507E+03  0.46999998093E+01 0.  1.
       -5    1    3    3    0  502 -0.49779300479E+03  0.33146845156E+02  0.22081329328E+04  0.22637954254E+04  0.46999998093E+01 0. -1.
</event>
<event>
 5   0  0.1474012E-05  0.2818826E+04  0.7818609E-02  0.8297447E-01
        1   -1    0    0  501    0  0.00000000000E+00  0.00000000000E+00  0.19217843177E+04  0.19217843177E+04  0.50400001928E-02 0.  1.
       -1   -1    0    0    0  501  0.00000000000E+00  0.00000000000E+00 -0.10336464437E+04  0.10336464437E+04  0.50400001928E-02 0. -1.
    10030    2    1    2    0    0  0.00000000000E+00  0.00000000000E+00  0.88813787395E+03  0.29554307614E+04  0.28188263696E+04 0.  0.
        2    1    3    3  502    0 -0.59569833247E+03  0.81849746419E+03  0.14722300883E+04  0.17866885669E+04  0.25500000920E-02 0.  1.
       -2    1    3    3    0  502  0.59569833247E+03 -0.81849746419E+03 -0.58409221438E+03  0.11687421945E+04  0.25500000920E-02 0. -1.
</event>
<event>
 5   0  0.1449521E-05  0.2623356E+04  0.7818609E-02  0.8360311E-01
       -1   -1    0    0    0  501  0.00000000000E+00  0.00000000000E+00  0.84303780193E+03  0.84303780194E+03  0.50400001928E-02 0. -1.
        1   -1    0    0  501    0  0.00000000000E+00  0.00000000000E+00 -0.20408322291E+04  0.20408322291E+04  0.50400001928E-02 0.  1.
    10030    2    1    2    0    0  0.00000000000E+00  0.00000000000E+00 -0.11977944271E+04  0.28838700310E+04  0.26233556499E+04 0.  0.
        3    1    3    3  502    0 -0.12818612100E+04  0.14910890819E+03 -0.85693469595E+03  0.15491090057E+04  0.10100000352E+00 0. -1.
       -3    1    3    3    0  502  0.12818612100E+04 -0.14910890819E+03 -0.34085973118E+03  0.13347610253E+04  0.10100000352E+00 0.  1.
</event>
<event>
 5   0  0.1484379E-05  0.2663338E+04  0.7818609E-02  0.8347000E-01
        1   -1    0    0  501    0  0.00000000000E+00  0.00000000000E+00  0.19498593885E+04  0.19498593885E+04  0.50400001928E-02 0. -1.
       -1   -1    0    0    0  501  0.00000000000E+00  0.00000000000E+00 -0.90947176662E+03  0.90947176663E+03  0.50400001928E-02 0.  1.
    10030    2    1    2    0    0  0.00000000000E+00  0.00000000000E+00  0.10403876219E+04  0.28593311551E+04  0.26633378026E+04 0.  0.
        1    1    3    3  502    0 -0.20004532605E+03  0.29244621883E+03 -0.85793667137E+03  0.92822317116E+03  0.50400001928E-02 0.  1.
       -1    1    3    3    0  502  0.20004532605E+03 -0.29244621883E+03  0.18983242932E+04  0.19311079840E+04  0.50400001928E-02 0. -1.
</event>
<event>
 5   0  0.3652331E-05  0.2754735E+04  0.7818609E-02  0.8317461E-01
       -2   -1    0    0    0  501  0.00000000000E+00  0.00000000000E+00  0.64685929710E+03  0.64685929711E+03  0.25500000920E-02 0.  1.
        2   -1    0    0  501    0  0.00000000000E+00  0.00000000000E+00 -0.29328506860E+04  0.29328506860E+04  0.25500000920E-02 0. -1.
    10030    2    1    2    0    0  0.00000000000E+00  0.00000000000E+00 -0.22859913889E+04  0.35797099831E+04  0.27547353653E+04 0.  0.
        1    1    3    3  502    0 -0.10132544509E+04  0.35751304910E+03 -0.22628398463E+04  0.25049838987E+04  0.50400001928E-02 0. -1.
       -1    1    3    3    0  502  0.10132544509E+04 -0.35751304910E+03 -0.23151542608E+02  0.10747260844E+04  0.50400001928E-02 0.  1.
</event>
<event>
 5   0  0.3568647E-05  0.1454300E+04  0.7818609E-02  0.8915425E-01
       -2   -1    0    0    0  501  0.00000000000E+00  0.00000000000E+00  0.51306246830E+03  0.51306246831E+03  0.25500000920E-02 0.  1.
        2   -1    0    0  501    0  0.00000000000E+00  0.00000000000E+00 -0.10305706664E+04  0.10305706664E+04  0.25500000920E-02 0. -1.
    10030    2    1    2    0    0  0.00000000000E+00  0.00000000000E+00 -0.51750819810E+03  0.15436331347E+04  0.14543000101E+04 0.  0.
        3    1    3    3  502    0  0.69266840095E+02 -0.70983918013E+03 -0.40915331856E+03  0.82223841134E+03  0.10100000352E+00 0. -1.
       -3    1    3    3    0  502 -0.69266840095E+02  0.70983918013E+03 -0.10835487954E+03  0.72139472337E+03  0.10100000352E+00 0.  1.
</event>
<event>
 5   0  0.3497949E-05  0.2665124E+04  0.7818609E-02  0.8346410E-01
       -2   -1    0    0    0  501  0.00000000000E+00  0.00000000000E+00  0.12013640316E+04  0.12013640316E+04  0.25500000920E-02 0.  1.
        2   -1    0    0  501    0  0.00000000000E+00  0.00000000000E+00 -0.14780878070E+04  0.14780878070E+04  0.25500000920E-02 0. -1.
    10030    2    1    2    0    0  0.00000000000E+00  0.00000000000E+00 -0.27672377544E+03  0.26794518386E+04  0.26651240323E+04 0.  0.
        5    1    3    3  502    0 -0.15185608164E+03  0.48530346650E+03 -0.13766977649E+04  0.14676166223E+04  0.46999998093E+01 0. -1.
       -5    1    3    3    0  502  0.15185608164E+03 -0.48530346650E+03  0.10999739894E+04  0.12118352163E+04  0.46999998093E+01 0.  1.
</event>
<event>
 5   0  0.3676724E-05  0.2716280E+04  0.7818609E-02  0.8329742E-01
       -2   -1    0    0    0  501  0.00000000000E+00  0.00000000000E+00  0.11989959808E+04  0.11989959808E+04  0.25500000920E-02 0. -1.
        2   -1    0    0  501    0  0.00000000000E+00  0.00000000000E+00 -0.15384072951E+04  0.15384072951E+04  0.25500000920E-02 0.  1.
    10030    2    1    2    0    0  0.00000000000E+00  0.00000000000E+00 -0.33941131435E+03  0.27374032759E+04  0.27162799293E+04 0.  0.
        4    1    3    3  502    0  0.40657947679E+03  0.93617654781E+03 -0.10726696141E+04  0.14806603640E+04  0.12699999809E+01 0.  1.
       -4    1    3    3    0  502 -0.40657947679E+03 -0.93617654781E+03  0.73325829971E+03  0.12567429119E+04  0.12699999809E+01 0. -1.
</event>
<event>
 5   0  0.3652331E-05  0.2712385E+04  0.7818609E-02  0.8330998E-01
       -2   -1    0    0    0  501  0.00000000000E+00  0.00000000000E+00  0.15589847230E+04  0.15589847230E+04  0.25500000920E-02 0.  1.
        2   -1    0    0  501    0  0.00000000000E+00  0.00000000000E+00 -0.11797792544E+04  0.11797792544E+04  0.25500000920E-02 0. -1.
    10030    2    1    2    0    0  0.00000000000E+00  0.00000000000E+00  0.37920546863E+03  0.27387639773E+04  0.27123848061E+04 0.  0.
        1    1    3    3  502    0 -0.94626074790E+03  0.95515182634E+03  0.10299204520E+02  0.13445558702E+04  0.50400001928E-02 0.  1.
       -1    1    3    3    0  502  0.94626074790E+03 -0.95515182634E+03  0.36890626411E+03  0.13942081072E+04  0.50400001928E-02 0. -1.
</event>
<event>
 5   0  0.1474012E-05  0.2641239E+04  0.7818609E-02  0.8354327E-01
        1   -1    0    0  501    0  0.00000000000E+00  0.00000000000E+00  0.14392375149E+04  0.14392375149E+04  0.50400001928E-02 0.  1.
       -1   -1    0    0    0  501  0.00000000000E+00  0.00000000000E+00 -0.12117778418E+04  0.12117778418E+04  0.50400001928E-02 0. -1.
    10030    2    1    2    0    0  0.00000000000E+00  0.00000000000E+00  0.22745967308E+03  0.26510153567E+04  0.26412392013E+04 0.  0.
        2    1    3    3  502    0  0.54286877750E+03 -0.10678167597E+04  0.67175257422E+03  0.13733865672E+04  0.25500000920E-02 0.  1.
       -2    1    3    3    0  502 -0.54286877750E+03  0.10678167597E+04 -0.44429290114E+03  0.12776287896E+04  0.25500000920E-02 0. -1.
</event>
<event>
 5   0  0.1449521E-05  0.1402260E+04  0.7818609E-02  0.8952184E-01
       -1   -1    0    0    0  501  0.00000000000E+00  0.00000000000E+00  0.93652109965E+03  0.93652109966E+03  0.50400001928E-02 0. -1.
        1   -1    0    0  501    0  0.00000000000E+00  0.00000000000E+00 -0.52490375374E+03  0.52490375377E+03  0.50400001928E-02 0.  1.
    10030    2    1    2    0    0  0.00000000000E+00  0.00000000000E+00  0.41161734591E+03  0.14614248534E+04  0.14022602336E+04 0.  0.
        3    1    3    3  502    0 -0.39642950278E+03 -0.57331069760E+03  0.12683604605E+03  0.70846940614E+03  0.10100000352E+00 0.  1.
       -3    1    3    3    0  502  0.39642950278E+03  0.57331069760E+03  0.28478129985E+03  0.75295544729E+03  0.10100000352E+00 0. -1.
</event>
<event>
 5   0  0.3568647E-05  0.2346709E+04  0.7818609E-02  0.8459729E-01
       -2   -1    0    0    0  501  0.00000000000E+00  0.00000000000E+00  0.70644835557E+03  0.70644835558E+03  0.25500000920E-02 0.  1.
        2   -1    0    0  501    0  0.00000000000E+00  0.00000000000E+00 -0.19488487247E+04  0.19488487247E+04  0.25500000920E-02 0. -1.
    10030    2    1    2    0    0  0.00000000000E+00  0.00000000000E+00 -0.12424003691E+04  0.26552970803E+04  0.23467091655E+04 0.  0.
        3    1    3    3  502    0 -0.70375798526E+03 -0.36783460058E+03  0.35620948609E+03  0.87032339011E+03  0.10100000352E+00 0. -1.
       -3    1    3    3    0  502  0.70375798526E+03  0.36783460058E+03 -0.15986098552E+04  0.17849736902E+04  0.10100000352E+00 0.  1.
</event>
<event>
 5   0  0.3568647E-05  0.2095621E+04  0.7818609E-02  0.8563175E-01
        2   -1    0    0  501    0  0.00000000000E+00  0.00000000000E+00  0.12053276313E+04  0.12053276313E+04  0.25500000920E-02 0. -1.
       -2   -1    0    0    0  501  0.00000000000E+00  0.00000000000E+00 -0.91087795044E+03  0.91087795044E+03  0.25500000920E-02 0.  1.
    10030    2    1    2    0    0  0.00000000000E+00  0.00000000000E+00  0.29444968090E+03  0.21162055818E+04  0.20956205405E+04 0.  0.
        3    1    3    3  502    0 -0.69191758985E+03  0.75614224306E+03 -0.72641476540E+02  0.10275105047E+04  0.10100000352E+00 0. -1.
       -3    1    3    3    0  502  0.69191758985E+03 -0.75614224306E+03  0.36709115744E+03  0.10886950771E+04  0.10100000352E+00 0.  1.
</event>
<event>
 5   0  0.1474012E-05  0.2677302E+04  0.7818609E-02  0.8342407E-01
       -1   -1    0    0    0  501  0.00000000000E+00  0.00000000000E+00  0.89237097394E+03  0.89237097395E+03  0.50400001928E-02 0.  1.
        1   -1    0    0  501    0  0.00000000000E+00  0.00000000000E+00 -0.20081181798E+04  0.20081181798E+04  0.50400001928E-02 0. -1.
    10030    2    1    2    0    0  0.00000000000E+00  0.00000000000E+00 -0.11157472058E+04  0.29004891537E+04  0.26773019074E+04 0.  0.
        2    1    3    3  502    0  0.96289485948E+03  0.49168408498E+03 -0.14130213247E+04  0.17791989809E+04  0.25500000920E-02 0. -1.
       -2    1    3    3    0  502 -0.96289485948E+03 -0.49168408498E+03  0.29727411884E+03  0.11212901728E+04  0.25500000920E-02 0.  1.
</event>
<event>
 5   0  0.1484379E-05  0.2649660E+04  0.7818609E-02  0.8351526E-01
       -1   -1    0    0    0  501  0.00000000000E+00  0.00000000000E+00  0.91980238829E+03  0.91980238830E+03  0.50400001928E-02 0. -1.
        1   -1    0    0  501    0  0.00000000000E+00  0.00000000000E+00 -0.19082086029E+04  0.19082086029E+04  0.50400001928E-02 0.  1.
    10030    2    1    2    0    0  0.00000000000E+00  0.00000000000E+00 -0.98840621459E+03  0.28280109912E+04  0.26496602275E+04 0.  0.
        1    1    3    3  502    0  0.16976804879E+03 -0.10208539440E+04 -0.13770510093E+04  0.17225659487E+04  0.50400001928E-02 0.  1.
       -1    1    3    3    0  502 -0.16976804879E+03  0.10208539440E+04  0.38864479476E+03  0.11054450425E+04  0.50400001928E-02 0. -1.
</event>
<event>
 5   0  0.3497949E-05  0.2193857E+04  0.7818609E-02  0.8520989E-01
       -2   -1    0    0    0  501  0.00000000000E+00  0.00000000000E+00  0.72228852462E+03  0.72228852462E+03  0.25500000920E-02 0. -1.
        2   -1    0    0  501    0  0.00000000000E+00  0.00000000000E+00 -0.16658880002E+04  0.16658880002E+04  0.25500000920E-02 0.  1.
    10030    2    1    2    0    0  0.00000000000E+00  0.00000000000E+00 -0.94359947561E+03  0.23881765249E+04  0.21938566825E+04 0.  0.
        5    1    3    3  502    0  0.65248748961E+03 -0.78877015135E+03 -0.90082990272E+03  0.13636036372E+04  0.46999998093E+01 0.  1.
       -5    1    3    3    0  502 -0.65248748961E+03  0.78877015135E+03 -0.42769572890E+02  0.10245728877E+04  0.46999998093E+01 0. -1.
</event>
<event>
 5   0  0.1438701E-05  0.2788951E+04  0.7818609E-02  0.8306707E-01
       -1   -1    0    0    0  501  0.00000000000E+00  0.00000000000E+00  0.72665911873E+03  0.72665911875E+03  0.50400001928E-02 0.  1.
        1   -1    0    0  501    0  0.00000000000E+00  0.00000000000E+00 -0.26760296215E+04  0.26760296215E+04  0.50400001928E-02 0. -1.
    10030    2    1    2    0    0  0.00000000000E+00  0.00000000000E+00 -0.19493705027E+04  0.34026887402E+04  0.27889505743E+04 0.  0.
        4    1    3    3  502    0  0.13536328103E+04 -0.33225109822E+03 -0.92224909496E+03  0.16713041565E+04  0.12699999809E+01 0.  1.
       -4    1    3    3    0  502 -0.13536328103E+04  0.33225109822E+03 -0.10271214078E+04  0.17313845837E+04  0.12699999809E+01 0. -1.
</event>
<event>
 5   0  0.1484379E-05  0.2625013E+04  0.7818609E-02  0.8359754E-01
       -1   -1    0    0    0  501  0.00000000000E+00  0.00000000000E+00  0.24323071713E+04  0.24323071713E+04  0.50400001928E-02 0.  1.
        1   -1    0    0  501    0  0.00000000000E+00  0.00000000000E+00 -0.70824673553E+03  0.70824673555E+03  0.50400001928E-02 0. -1.
    10030    2    1    2    0    0  0.00000000000E+00  0.00000000000E+00  0.17240604358E+04  0.31405539069E+04  0.26250132296E+04 0.  0.
        1    1    3    3  502    0 -0.37275754403E+02  0.12191977315E+04  0.14418082263E+04  0.18885559435E+04  0.50400001928E-02 0. -1.
       -1    1    3    3    0  502  0.37275754403E+02 -0.12191977315E+04  0.28225220951E+03  0.12519979634E+04  0.50400001928E-02 0.  1.
</event>
<event>
 5   0  0.3676724E-05  0.2476583E+04  0.7818609E-02  0.8411376E-01
        2   -1    0    0  501    0  0.00000000000E+00  0.00000000000E+00  0.10385242659E+04  0.10385242659E+04  0.25500000920E-02 0. -1.
       -2   -1    0    0    0  501  0.00000000000E+00  0.00000000000E+00 -0.14764853509E+04  0.14764853509E+04  0.25500000920E-02 0.  1.
    10030    2    1    2    0    0  0.00000000000E+00  0.00000000000E+00 -0.43796108496E+03  0.25150096168E+04  0.24765830211E+04 0.  0.
        4    1    3    3  502    0  0.55145679197E+03 -0.11087188530E+04 -0.21748669024E+03  0.12572446706E+04  0.12699999809E+01 0. -1.
       -4    1    3    3    0  502 -0.55145679197E+03  0.11087188530E+04 -0.22047439472E+03  0.12577649462E+04  0.12699999809E+01 0.  1.
</event>
<event>
 5   0  0.1484379E-05  0.2719491E+04  0.7818609E-02  0.8328708E-01
       -1   -1    0    0    0  501  0.00000000000E+00  0.00000000000E+00  0.90591483359E+03  0.90591483361E+03  0.50400001928E-02 0.  1.
        1   -1    0    0  501    0  0.00000000000E+00  0.00000000000E+00 -0.20409295428E+04  0.20409295428E+04  0.50400001928E-02 0. -1.
    10030    2    1    2    0    0  0.00000000000E+00  0.00000000000E+00 -0.11350147092E+04  0.29468443764E+04  0.27194913842E+04 0.  0.
        1    1    3    3  502    0  0.80965355465E+03 -0.69877195409E+03  0.34238692982E+03  0.11229647956E+04  0.50400001928E-02 0.  1.
       -1    1    3    3    0  502 -0.80965355465E+03  0.69877195409E+03 -0.14774016390E+04  0.18238795809E+04  0.50400001928E-02 0. -1.
</event>
<event>
 5   0  0.1484379E-05  0.2736178E+04  0.7818609E-02  0.8323361E-01
       -1   -1    0    0    0  501  0.00000000000E+00  0.00000000000E+00  0.10093861952E+04  0.10093861952E+04  0.50400001928E-02 0. -1.
        1   -1    0    0  501    0  0.00000000000E+00  0.00000000000E+00 -0.18542630794E+04  0.18542630794E+04  0.50400001928E-02 0.  1.
    10030    2    1    2    0    0  0.00000000000E+00  0.00000000000E+00 -0.84487688419E+03  0.28636492746E+04  0.27361780312E+04 0.  0.
        1    1    3    3  502    0  0.66105850746E+03  0.57981321396E+03  0.67447587959E+03  0.11081964743E+04  0.50400001928E-02 0. -1.
       -1    1    3    3    0  502 -0.66105850746E+03 -0.57981321396E+03 -0.15193527638E+04  0.17554528003E+04  0.50400001928E-02 0.  1.
</event>
<event>
 5   0  0.1484379E-05  0.2717314E+04  0.7818609E-02  0.8329409E-01
        1   -1    0    0  501    0  0.00000000000E+00  0.00000000000E+00  0.12103829931E+04  0.12103829931E+04  0.50400001928E-02 0. -1.
       -1   -1    0    0    0  501  0.00000000000E+00  0.00000000000E+00 -0.15250949316E+04  0.15250949316E+04  0.50400001928E-02 0.  1.
    10030    2    1    2    0    0  0.00000000000E+00  0.00000000000E+00 -0.31471193849E+03  0.27354779247E+04  0.27173140916E+04 0.  0.
        1    1    3    3  502    0  0.92871608984E+03 -0.81055049075E+03 -0.73252732489E+03  0.14339114182E+04  0.50400001928E-02 0.  1.
       -1    1    3    3    0  502 -0.92871608984E+03  0.81055049075E+03  0.41781538640E+03  0.13015665065E+04  0.50400001928E-02 0. -1.
</event>
<event>
 5   0  0.1495517E-05  0.2714596E+04  0.7818609E-02  0.8330285E-01
        1   -1    0    0  501    0  0.00000000000E+00  0.00000000000E+00  0.23357131981E+04  0.23357131981E+04  0.50400001928E-02 0. -1.
       -1   -1    0    0    0  501  0.00000000000E+00  0.00000000000E+00 -0.78873439092E+03  0.78873439094E+03  0.50400001928E-02 0.  1.
    10030    2    1    2    0    0  0.00000000000E+00  0.00000000000E+00  0.15469788072E+04  0.31244475891E+04  0.27145956065E+04 0.  0.
        5    1    3    3  502    0 -0.96034556017E+03 -0.93882055895E+03  0.54739386879E+03  0.14502792057E+04  0.46999998093E+01 0. -1.
       -5    1    3    3    0  502  0.96034556017E+03  0.93882055895E+03  0.99958493842E+03  0.16741683834E+04  0.46999998093E+01 0.  1.
</event>
<event>
 5   0  0.1495517E-05  0.2624376E+04  0.7818609E-02  0.8359968E-01
        1   -1    0    0  501    0  0.00000000000E+00  0.00000000000E+00  0.12883920035E+04  0.12883920035E+04  0.50400001928E-02 0.  1.
       -1   -1    0    0    0  501  0.00000000000E+00  0.00000000000E+00 -0.13364232515E+04  0.13364232515E+04  0.50400001928E-02 0. -1.
    10030    2    1    2    0    0  0.00000000000E+00  0.00000000000E+00 -0.48031248032E+02  0.26248152550E+04  0.26243757585E+04 0.  0.
        5    1    3    3  502    0 -0.10054842100E+04 -0.21842312041E+03 -0.83846629806E+03  0.13273111839E+04  0.46999998093E+01 0. -1.
       -5    1    3    3    0  502  0.10054842100E+04  0.21842312041E+03  0.79043505003E+03  0.12975040710E+04  0.46999998093E+01 0.  1.
</event>
<event>
 5   0  0.1474012E-05  0.2743172E+04  0.7818609E-02  0.8321131E-01
        1   -1    0    0  501    0  0.00000000000E+00  0.00000000000E+00  0.24483726807E+04  0.24483726807E+04  0.50400001928E-02 0. -1.
       -1   -1    0    0    0  501  0.00000000000E+00  0.00000000000E+00 -0.76836699900E+03  0.76836699902E+03  0.50400001928E-02 0.  1.
    10030    2    1    2    0    0  0.00000000000E+00  0.00000000000E+00  0.16800056817E+04  0.32167396798E+04  0.27431724475E+04 0.  0.
        2    1    3    3  502    0  0.42908158982E+03 -0.13027421298E+04  0.84098510219E+03  0.16088828452E+04  0.25500000920E-02 0.  1.
       -2    1    3    3    0  502 -0.42908158982E+03  0.13027421298E+04  0.83902057955E+03  0.16078568345E+04  0.25500000920E-02 0. -1.
</event>
<event>
 5   0  0.1474012E-05  0.2723946E+04  0.7818609E-02  0.8327277E-01
        1   -1    0    0  501    0  0.00000000000E+00  0.00000000000E+00  0.19700771767E+04  0.19700771767E+04  0.50400001928E-02 0. -1.
       -1   -1    0    0    0  501  0.00000000000E+00  0.00000000000E+00 -0.94157252127E+03  0.94157252129E+03  0.50400001928E-02 0.  1.
    10030    2    1    2    0    0  0.00000000000E+00  0.00000000000E+00  0.10285046555E+04  0.29116496980E+04  0.27239460600E+04 0.  0.
        2    1    3    3  502    0  0.52882850796E+03 -0.71813946000E+03  0.16145466227E+04  0.18444903556E+04  0.25500000920E-02 0. -1.
       -2    1    3    3    0  502 -0.52882850796E+03  0.71813946000E+03 -0.58604196725E+03  0.10671593425E+04  0.25500000920E-02 0.  1.
</event>
<event>
 5   0  0.1474012E-05  0.2030392E+04  0.7818609E-02  0.8592542E-01
        1   -1    0    0  501    0  0.00000000000E+00  0.00000000000E+00  0.10870168534E+04  0.10870168534E+04  0.50400001928E-02 0. -1.
       -1   -1    0    0    0  501  0.00000000000E+00  0.00000000000E+00 -0.94812021078E+03  0.94812021079E+03  0.50400001928E-02 0.  1.
    10030    2    1    2    0    0  0.00000000000E+00  0.00000000000E+00  0.13889664258E+03  0.20351370642E+04  0.20303917338E+04 0.  0.
        2    1    3    3  502    0  0.17407722152E+03 -0.16735520178E+03 -0.91891507083E+03  0.95011344061E+03  0.25500000920E-02 0.  1.
       -2    1    3    3    0  502 -0.17407722152E+03  0.16735520178E+03  0.10578117134E+04  0.10850236235E+04  0.25500000920E-02 0. -1.
</event>
<event>
 5   0  0.3497949E-05  0.2134465E+04  0.7818609E-02  0.8546211E-01
        2   -1    0    0  501    0  0.00000000000E+00  0.00000000000E+00  0.10984451992E+04  0.10984451992E+04  0.25500000920E-02 0.  1.
       -2   -1    0    0    0  501  0.00000000000E+00  0.00000000000E+00 -0.10369066218E+04  0.10369066218E+04  0.25500000920E-02 0. -1.
    10030    2    1    2    0    0  0.00000000000E+00  0.00000000000E+00  0.61538577407E+02  0.21353518209E+04  0.21344648984E+04 0.  0.
        5    1    3    3  502    0 -0.70829300791E+03  0.69596614338E+03  0.42197544825E+03  0.10789500576E+04  0.46999998093E+01 0.  1.
       -5    1    3    3    0  502  0.70829300791E+03 -0.69596614338E+03 -0.36043687085E+03  0.10564017634E+04  0.46999998093E+01 0. -1.
</event>
<event>
 5   0  0.1484379E-05  0.2892153E+04  0.7818609E-02  0.8275216E-01
       -1   -1    0    0    0  501  0.00000000000E+00  0.00000000000E+00  0.19612312748E+04  0.19612312748E+04  0.50400001928E-02 0.  1.
        1   -1    0    0  501    0  0.00000000000E+00  0.00000000000E+00 -0.10662367937E+04  0.10662367937E+04  0.50400001928E-02 0. -1.
    10030    2    1    2    0    0  0.00000000000E+00  0.00000000000E+00  0.89499448110E+03  0.30274680685E+04  0.28921527941E+04 0.  0.
        1    1    3    3  502    0 -0.86504151762E+03 -0.25626860632E+02  0.16602276474E+04  0.18722471536E+04  0.50400001928E-02 0.  1.
       -1    1    3    3    0  502  0.86504151762E+03  0.25626860632E+02 -0.76523316628E+03  0.11552209148E+04  0.50400001928E-02 0. -1.
</event>
<event>
 5   0  0.1228050E-05  0.2456539E+04  0.7818609E-02  0.8418634E-01
        3   -1    0    0  501    0  0.00000000000E+00  0.00000000000E+00  0.11735015744E+04  0.11735015788E+04  0.10100000352E+00 0. -1.
       -3   -1    0    0    0  501  0.00000000000E+00  0.00000000000E+00 -0.12855932687E+04  0.12855932727E+04  0.10100000352E+00 0.  1.
    10030    2    1    2    0    0  0.00000000000E+00  0.00000000000E+00 -0.11209169431E+03  0.24590948515E+04  0.24565388132E+04 0.  0.
        4    1    3    3  502    0  0.97955551313E+03 -0.24073834198E+03  0.64551157000E+03  0.11975686838E+04  0.12699999809E+01 0.  1.
       -4    1    3    3    0  502 -0.97955551313E+03  0.24073834198E+03 -0.75760326431E+03  0.12615261676E+04  0.12699999809E+01 0. -1.
</event>
<event>
 5   0  0.3568647E-05  0.2647231E+04  0.7818609E-02  0.8352333E-01
       -2   -1    0    0    0  501  0.00000000000E+00  0.00000000000E+00  0.12385923096E+04  0.12385923096E+04  0.25500000920E-02 0.  1.
        2   -1    0    0  501    0  0.00000000000E+00  0.00000000000E+00 -0.14144749772E+04  0.14144749772E+04  0.25500000920E-02 0. -1.
    10030    2    1    2    0    0  0.00000000000E+00  0.00000000000E+00 -0.17588266765E+03  0.26530672868E+04  0.26472308769E+04 0.  0.
        3    1    3    3  502    0  0.93234840260E+03  0.43860017219E+03  0.74474193243E+03  0.12713316684E+04  0.10100000352E+00 0.  1.
       -3    1    3    3    0  502 -0.93234840260E+03 -0.43860017219E+03 -0.92062460007E+03  0.13817356185E+04  0.10100000352E+00 0. -1.
</event>
<event>
 5   0  0.1438701E-05  0.2657284E+04  0.7818609E-02  0.8349000E-01
       -1   -1    0    0    0  501  0.00000000000E+00  0.00000000000E+00  0.10254113572E+04  0.10254113572E+04  0.50400001928E-02 0.  1.
        1   -1    0    0  501    0  0.00000000000E+00  0.00000000000E+00 -0.17215422118E+04  0.17215422118E+04  0.50400001928E-02 0. -1.
    10030    2    1    2    0    0  0.00000000000E+00  0.00000000000E+00 -0.69613085460E+03  0.27469535691E+04  0.26572835272E+04 0.  0.
        4    1    3    3  502    0  0.82092866410E+03  0.48360596002E+03 -0.13053204044E+04  0.16160636025E+04  0.12699999809E+01 0. -1.
       -4    1    3    3    0  502 -0.82092866410E+03 -0.48360596002E+03  0.60918954982E+03  0.11308899666E+04  0.12699999809E+01 0.  1.
</event>
<event>
 5   0  0.3676724E-05  0.2782375E+04  0.7818609E-02  0.8308761E-01
       -2   -1    0    0    0  501  0.00000000000E+00  0.00000000000E+00  0.91892058220E+03  0.91892058221E+03  0.25500000920E-02 0. -1.
        2   -1    0    0  501    0  0.00000000000E+00  0.00000000000E+00 -0.21061695327E+04  0.21061695327E+04  0.25500000920E-02 0.  1.
    10030    2    1    2    0    0  0.00000000000E+00  0.00000000000E+00 -0.11872489505E+04  0.30250901149E+04  0.27823749087E+04 0.  0.
        4    1    3    3  502    0  0.65169084533E+03 -0.32056350816E+03 -0.18836983715E+04  0.20188568767E+04  0.12699999809E+01 0.  1.
       -4    1    3    3    0  502 -0.65169084533E+03  0.32056350816E+03  0.69644942107E+03  0.10062332382E+04  0.12699999809E+01 0. -1.
</event>
<event>
 5   0  0.3652331E-05  0.2691152E+04  0.7818609E-02  0.8337882E-01
       -2   -1    0    0    0  501  0.00000000000E+00  0.00000000000E+00  0.11931095682E+04  0.11931095682E+04  0.25500000920E-02 0.  1.
        2   -1    0    0  501    0  0.00000000000E+00  0.00000000000E+00 -0.15175255147E+04  0.15175255147E+04  0.25500000920E-02 0. -1.
    10030    2    1    2    0    0  0.00000000000E+00  0.00000000000E+00 -0.32441594651E+03  0.27106350828E+04  0.26911515836E+04 0.  0.
        1    1    3    3  502    0 -0.73443698654E+03 -0.57668285393E+03 -0.11380427054E+04  0.14721080125E+04  0.50400001928E-02 0. -1.
       -1    1    3    3    0  502  0.73443698654E+03  0.57668285393E+03  0.81362675884E+03  0.12385270703E+04  0.50400001928E-02 0.  1.
</event>
<event>
 5   0  0.1449521E-05  0.2727992E+04  0.7818609E-02  0.8325979E-01
        1   -1    0    0  501    0  0.00000000000E+00  0.00000000000E+00  0.19274090028E+04  0.19274090028E+04  0.50400001928E-02 0. -1.
       -1   -1    0    0    0  501  0.00000000000E+00  0.00000000000E+00 -0.96527798421E+03  0.96527798422E+03  0.50400001928E-02 0.  1.
    10030    2    1    2    0    0  0.00000000000E+00  0.00000000000E+00  0.96213101861E+03  0.28926869870E+04  0.27279922852E+04 0.  0.
        3    1    3    3  502    0  0.62412160750E+03 -0.36586581492E+03 -0.74507497159E+03  0.10385192819E+04  0.10100000352E+00 0.  1.
       -3    1    3    3    0  502 -0.62412160750E+03  0.36586581492E+03  0.17072059902E+04  0.18541677051E+04  0.10100000352E+00 0. -1.
</event>
<event>
 5   0  0.3568647E-05  0.2675357E+04  0.7818609E-02  0.8343045E-01
       -2   -1    0    0    0  501  0.00000000000E+00  0.00000000000E+00  0.12666481765E+04  0.12666481765E+04  0.25500000920E-02 0.  1.
        2   -1    0    0  501    0  0.00000000000E+00  0.00000000000E+00 -0.14126916130E+04  0.14126916130E+04  0.25500000920E-02 0. -1.
    10030    2    1    2    0    0  0.00000000000E+00  0.00000000000E+00 -0.14604343644E+03  0.26793397895E+04  0.26753566159E+04 0.  0.
        3    1    3    3  502    0  0.60516577120E+03  0.37293211638E+03  0.10618376081E+04  0.12778118368E+04  0.10100000352E+00 0.  1.
       -3    1    3    3    0  502 -0.60516577120E+03 -0.37293211638E+03 -0.12078810446E+04  0.14015279527E+04  0.10100000352E+00 0. -1.
</event>
<event>
 5   0  0.1438701E-05  0.1469548E+04  0.7818609E-02  0.8904960E-01
        1   -1    0    0  501    0  0.00000000000E+00  0.00000000000E+00  0.16019206808E+04  0.16019206809E+04  0.50400001928E-02 0. -1.
       -1   -1    0    0    0  501  0.00000000000E+00  0.00000000000E+00 -0.33702835806E+03  0.33702835810E+03  0.50400001928E-02 0.  1.
    10030    2    1    2    0    0  0.00000000000E+00  0.00000000000E+00  0.12648923228E+04  0.19389490390E+04  0.14695478173E+04 0.  0.
        4    1    3    3  502    0  0.73468614119E+03  0.10973209281E+01  0.61762668625E+03  0.95980689028E+03  0.12699999809E+01 0. -1.
       -4    1    3    3    0  502 -0.73468614119E+03 -0.10973209281E+01  0.64726563653E+03  0.97914214867E+03  0.12699999809E+01 0.  1.
</event>
<event>
 5   0  0.3514294E-05  0.2720710E+04  0.7818609E-02  0.8328317E-01
        2   -1    0    0  501    0  0.00000000000E+00  0.00000000000E+00  0.15859693478E+04  0.15859693478E+04  0.25500000920E-02 0. -1.
       -2   -1    0    0    0  501  0.00000000000E+00  0.00000000000E+00 -0.11668354998E+04  0.11668354998E+04  0.25500000920E-02 0.  1.
    10030    2    1    2    0    0  0.00000000000E+00  0.00000000000E+00  0.41913384806E+03  0.27528048476E+04  0.27207097137E+04 0.  0.
        2    1    3    3  502    0  0.11607037910E+03  0.11419648970E+04  0.94825410206E+03  0.14888727283E+04  0.25500000920E-02 0.  1.
       -2    1    3    3    0  502 -0.11607037910E+03 -0.11419648970E+04 -0.52912025400E+03  0.12639321193E+04  0.25500000920E-02 0. -1.
</event>
<event>
 5   0  0.1438701E-05  0.2645374E+04  0.7818609E-02  0.8352950E-01
       -1   -1    0    0    0  501  0.00000000000E+00  0.00000000000E+00  0.14675735552E+04  0.14675735552E+04  0.50400001928E-02 0.  1.
        1   -1    0    0  501    0  0.00000000000E+00  0.00000000000E+00 -0.11921040600E+04  0.11921040600E+04  0.50400001928E-02 0. -1.
    10030    2    1    2    0    0  0.00000000000E+00  0.00000000000E+00  0.27546949522E+03  0.26596776152E+04  0.26453736171E+04 0.  0.
        4    1    3    3  502    0 -0.16985967649E+03 -0.11718441356E+04  0.73035195662E+03  0.13912176614E+04  0.12699999809E+01 0.  1.
       -4    1    3    3    0  502  0.16985967649E+03  0.11718441356E+04 -0.45488246140E+03  0.12684599538E+04  0.12699999809E+01 0. -1.
</event>
<event>
 5   0  0.1438701E-05  0.2645496E+04  0.7818609E-02  0.8352909E-01
       -1   -1    0    0    0  501  0.00000000000E+00  0.00000000000E+00  0.77363478414E+03  0.77363478415E+03  0.50400001928E-02 0. -1.
        1   -1    0    0  501    0  0.00000000000E+00  0.00000000000E+00 -0.22616134306E+04  0.22616134306E+04  0.50400001928E-02 0.  1.
    10030    2    1    2    0    0  0.00000000000E+00  0.00000000000E+00 -0.14879786465E+04  0.30352482148E+04  0.26454964133E+04 0.  0.
        4    1    3    3  502    0  0.12473160756E+04  0.33624250610E+03 -0.10701304659E+04  0.16775092376E+04  0.12699999809E+01 0.  1.
       -4    1    3    3    0  502 -0.12473160756E+04 -0.33624250610E+03 -0.41784818061E+03  0.13577389772E+04  0.12699999809E+01 0. -1.
</event>
<event>
 5   0  0.1474012E-05  0.2730340E+04  0.7818609E-02  0.8325227E-01
        1   -1    0    0  501    0  0.00000000000E+00  0.00000000000E+00  0.14709893374E+04  0.14709893374E+04  0.50400001928E-02 0. -1.
       -1   -1    0    0    0  501  0.00000000000E+00  0.00000000000E+00 -0.12669629694E+04  0.12669629694E+04  0.50400001928E-02 0.  1.
    10030    2    1    2    0    0  0.00000000000E+00  0.00000000000E+00  0.20402636803E+03  0.27379523068E+04  0.27303399194E+04 0.  0.
        2    1    3    3  502    0  0.38173863109E+03  0.28177672518E+03 -0.11816207737E+04  0.12733224879E+04  0.25500000920E-02 0.  1.
       -2    1    3    3    0  502 -0.38173863109E+03 -0.28177672518E+03  0.13856471417E+04  0.14646298190E+04  0.25500000920E-02 0. -1.
</event>
<event>
 5   0  0.3514294E-05  0.2636130E+04  0.7818609E-02  0.8356031E-01
        2   -1    0    0  501    0  0.00000000000E+00  0.00000000000E+00  0.23237513901E+04  0.23237513901E+04  0.25500000920E-02 0.  1.
       -2   -1    0    0    0  501  0.00000000000E+00  0.00000000000E+00 -0.74762508560E+03  0.74762508560E+03  0.25500000920E-02 0. -1.
    10030    2    1    2    0    0  0.00000000000E+00  0.00000000000E+00  0.15761263045E+04  0.30713764757E+04  0.26361296114E+04 0.  0.
        2    1    3    3  502    0  0.99648077277E+03  0.45471016899E+03 -0.66176231960E+02  0.10973215399E+04  0.25500000920E-02 0. -1.
       -2    1    3    3    0  502 -0.99648077277E+03 -0.45471016899E+03  0.16423025365E+04  0.19740549358E+04  0.25500000920E-02 0.  1.
</event>
<event>
 5   0  0.3652331E-05  0.2762974E+04  0.7818609E-02  0.8314856E-01
       -2   -1    0    0    0  501  0.00000000000E+00  0.00000000000E+00  0.25511512036E+04  0.25511512036E+04  0.25500000920E-02 0.  1.
        2   -1    0    0  501    0  0.00000000000E+00  0.00000000000E+00 -0.74809621669E+03  0.74809621669E+03  0.25500000920E-02 0. -1.
    10030    2    1    2    0    0  0.00000000000E+00  0.00000000000E+00  0.18030549869E+04  0.32992474203E+04  0.27629741683E+04 0.  0.
        1    1    3    3  502    0 -0.92450851931E+03 -0.88102426297E+03  0.27240172523E+03  0.13058033750E+04  0.50400001928E-02 0. -1.
       -1    1    3    3    0  502  0.92450851931E+03  0.88102426297E+03  0.15306532617E+04  0.19934440453E+04  0.50400001928E-02 0.  1.
</event>
<event>
 5   0  0.3497949E-05  0.2700853E+04  0.7818609E-02  0.8334728E-01
       -2   -1    0    0    0  501  0.00000000000E+00  0.00000000000E+00  0.77677712719E+03  0.77677712720E+03  0.25500000920E-02 0.  1.
        2   -1    0    0  501    0  0.00000000000E+00  0.00000000000E+00 -0.23477158266E+04  0.23477158267E+04  0.25500000920E-02 0. -1.
    10030    2    1    2    0    0  0.00000000000E+00  0.00000000000E+00 -0.15709386995E+04  0.31244929538E+04  0.27008531654E+04 0.  0.
        5    1    3    3  502    0  0.11204287741E+04 -0.24726686367E+03 -0.16092991736E+04  0.19764532526E+04  0.46999998093E+01 0. -1.
       -5    1    3    3    0  502 -0.11204287741E+04  0.24726686367E+03  0.38360474107E+02  0.11480397012E+04  0.46999998093E+01 0.  1.
</event>
<event>
 5   0  0.3652331E-05  0.1469770E+04  0.7818609E-02  0.8904808E-01
        2   -1    0    0  501    0  0.00000000000E+00  0.00000000000E+00  0.15649358726E+04  0.15649358726E+04  0.25500000920E-02 0.  1.
       -2   -1    0    0    0  501  0.00000000000E+00  0.00000000000E+00 -0.34509775206E+03  0.34509775207E+03  0.25500000920E-02 0. -1.
    10030    2    1    2    0    0  0.00000000000E+00  0.00000000000E+00  0.12198381206E+04  0.19100336247E+04  0.14697698483E+04 0.  0.
        1    1    3    3  502    0  0.42867831263E+03 -0.59397955773E+03  0.68657070064E+03  0.10039701877E+04  0.50400001928E-02 0. -1.
       -1    1    3    3    0  502 -0.42867831263E+03  0.59397955773E+03  0.53326741993E+03  0.90606343702E+03  0.50400001928E-02 0.  1.
</event>
<event>
 5   0  0.1484379E-05  0.2669820E+04  0.7818609E-02  0.8344864E-01
       -1   -1    0    0    0  501  0.00000000000E+00  0.00000000000E+00  0.11768445114E+04  0.11768445114E+04  0.50400001928E-02 0.  1.
        1   -1    0    0  501    0  0.00000000000E+00  0.00000000000E+00 -0.15142056191E+04  0.15142056191E+04  0.50400001928E-02 0. -1.
    10030    2    1    2    0    0  0.00000000000E+00  0.00000000000E+00 -0.33736110768E+03  0.26910501306E+04  0.26698198981E+04 0.  0.
        1    1    3    3  502    0  0.62448443751E+03  0.93368330590E+03  0.55833110812E+03  0.12543838945E+04  0.50400001928E-02 0.  1.
       -1    1    3    3    0  502 -0.62448443751E+03 -0.93368330590E+03 -0.89569221580E+03  0.14366662361E+04  0.50400001928E-02 0. -1.
</event>
<event>
 5   0  0.3497949E-05  0.2660176E+04  0.7818609E-02  0.8348043E-01
        2   -1    0    0  501    0  0.00000000000E+00  0.00000000000E+00  0.14220314170E+04  0.14220314170E+04  0.25500000920E-02 0. -1.
       -2   -1    0    0    0  501  0.00000000000E+00  0.00000000000E+00 -0.12440893034E+04  0.12440893034E+04  0.25500000920E-02 0.  1.
    10030    2    1    2    0    0  0.00000000000E+00  0.00000000000E+00  0.17794211362E+03  0.26661207204E+04  0.26601759904E+04 0.  0.
        5    1    3    3  502    0  0.12443446074E+04  0.28319531672E+03 -0.28672514502E+03  0.13079856606E+04  0.46999998093E+01 0. -1.
       -5    1    3    3    0  502 -0.12443446074E+04 -0.28319531672E+03  0.46466725865E+03  0.13581350598E+04  0.46999998093E+01 0.  1.
</event>
<event>
 5   0  0.1228050E-05  0.1425847E+04  0.7818609E-02  0.8935319E-01
        3   -1    0    0  501    0  0.00000000000E+00  0.00000000000E+00  0.93113821351E+03  0.93113821898E+03  0.10100000352E+00 0. -1.
       -3   -1    0    0    0  501  0.00000000000E+00  0.00000000000E+00 -0.54584804349E+03  0.54584805284E+03  0.10100000352E+00 0.  1.
    10030    2    1    2    0    0  0.00000000000E+00  0.00000000000E+00  0.38529017001E+03  0.14769862718E+04  0.14258470928E+04 0.  0.
        3    1    3    3  502    0 -0.22179908498E+03  0.10965697909E+03 -0.49994605629E+03  0.55782215496E+03  0.10100000352E+00 0.  1.
       -3    1    3    3    0  502  0.22179908498E+03 -0.10965697909E+03  0.88523622630E+03  0.91916411686E+03  0.10100000352E+00 0. -1.
</event>
<event>
 5   0  0.3676724E-05  0.2739808E+04  0.7818609E-02  0.8322203E-01
       -2   -1    0    0    0  501  0.00000000000E+00  0.00000000000E+00  0.19805892933E+04  0.19805892933E+04  0.25500000920E-02 0.  1.
        2   -1    0    0  501    0  0.00000000000E+00  0.00000000000E+00 -0.94751474494E+03  0.94751474495E+03  0.25500000920E-02 0. -1.
    10030    2    1    2    0    0  0.00000000000E+00  0.00000000000E+00  0.10330745483E+04  0.29281040382E+04  0.27398084306E+04 0.  0.
        4    1    3    3  502    0  0.10174459384E+04 -0.38375226655E+03  0.14069686368E+04  0.17782081986E+04  0.12699999809E+01 0.  1.
       -4    1    3    3    0  502 -0.10174459384E+04  0.38375226655E+03 -0.37389408847E+03  0.11498958396E+04  0.12699999809E+01 0. -1.
</event>
<event>
 5   0  0.3676724E-05  0.1532571E+04  0.7818609E-02  0.8863078E-01
       -2   -1    0    0    0  501  0.00000000000E+00  0.00000000000E+00  0.44152532967E+03  0.44152532968E+03  0.25500000920E-02 0.  1.
        2   -1    0    0  501    0  0.00000000000E+00  0.00000000000E+00 -0.13299198508E+04  0.13299198508E+04  0.25500000920E-02 0. -1.
    10030    2    1    2    0    0  0.00000000000E+00  0.00000000000E+00 -0.88839452116E+03  0.17714451805E+04  0.15325707822E+04 0.  0.
        4    1    3    3  502    0 -0.41721031910E+03 -0.33302610503E+03 -0.10796297075E+04  0.12043972580E+04  0.12699999809E+01 0. -1.
       -4    1    3    3    0  502  0.41721031910E+03  0.33302610503E+03  0.19123518632E+03  0.56704792247E+03  0.12699999809E+01 0.  1.
</event>
<event>
 5   0  0.1474012E-05  0.2725063E+04  0.7818609E-02  0.8326918E-01
        1   -1    0    0  501    0  0.00000000000E+00  0.00000000000E+00  0.20495494960E+04  0.20495494960E+04  0.50400001928E-02 0.  1.
       -1   -1    0    0    0  501  0.00000000000E+00  0.00000000000E+00 -0.90580487771E+03  0.90580487773E+03  0.50400001928E-02 0. -1.
    10030    2    1    2    0    0  0.00000000000E+00  0.00000000000E+00  0.11437446183E+04  0.29553543737E+04  0.27250628841E+04 0.  0.
        2    1    3    3  502    0 -0.41776751105E+03 -0.64930591300E+03 -0.64566153519E+03  0.10064823297E+04  0.25500000920E-02 0. -1.
       -2    1    3    3    0  502  0.41776751105E+03  0.64930591300E+03  0.17894061535E+04  0.19488720440E+04  0.25500000920E-02 0.  1.
</event>
<event>
 5   0  0.1484379E-05  0.2713635E+04  0.7818609E-02  0.8330594E-01
        1   -1    0    0  501    0  0.00000000000E+00  0.00000000000E+00  0.22937125077E+04  0.22937125077E+04  0.50400001928E-02 0. -1.
       -1   -1    0    0    0  501  0.00000000000E+00  0.00000000000E+00 -0.80260873812E+03  0.80260873813E+03  0.50400001928E-02 0.  1.
    10030    2    1    2    0    0  0.00000000000E+00  0.00000000000E+00  0.14911037696E+04  0.30963212458E+04  0.27136349802E+04 0.  0.
        1    1    3    3  502    0  0.82553868956E+03 -0.88473864489E+03  0.45259836433E+02  0.12109190933E+04  0.50400001928E-02 0.  1.
       -1    1    3    3    0  502 -0.82553868956E+03  0.88473864489E+03  0.14458439332E+04  0.18854021525E+04  0.50400001928E-02 0. -1.
</event>
<event>
 5   0  0.1495517E-05  0.2525270E+04  0.7818609E-02  0.8394038E-01
        1   -1    0    0  501    0  0.00000000000E+00  0.00000000000E+00  0.12614047615E+04  0.12614047615E+04  0.50400001928E-02 0. -1.
       -1   -1    0    0    0  501  0.00000000000E+00  0.00000000000E+00 -0.12638665112E+04  0.12638665112E+04  0.50400001928E-02 0.  1.
    10030    2    1    2    0    0  0.00000000000E+00  0.00000000000E+00 -0.24617496799E+01  0.25252712727E+04  0.25252700728E+04 0.  0.
        5    1    3    3  502    0 -0.34297539894E+03 -0.12016916760E+04 -0.18159208931E+03  0.12628114607E+04  0.46999998093E+01 0.  1.
       -5    1    3    3    0  502  0.34297539894E+03  0.12016916760E+04  0.17913033963E+03  0.12624598120E+04  0.46999998093E+01 0. -1.
</event>
<event>
 5   0  0.3676724E-05  0.2646124E+04  0.7818609E-02  0.8352701E-01
       -2   -1    0    0    0  501  0.00000000000E+00  0.00000000000E+00  0.10450901818E+04  0.10450901818E+04  0.25500000920E-02 0. -1.
        2   -1    0    0  501    0  0.00000000000E+00  0.00000000000E+00 -0.16749680617E+04  0.16749680617E+04  0.25500000920E-02 0.  1.
    10030    2    1    2    0    0  0.00000000000E+00  0.00000000000E+00 -0.62987787990E+03  0.27200582435E+04  0.26461237130E+04 0.  0.
        4    1    3    3  502    0  0.63189475574E+03  0.15093490274E+03 -0.14997130490E+04  0.16343846455E+04  0.12699999809E+01 0.  1.
       -4    1    3    3    0  502 -0.63189475574E+03 -0.15093490274E+03  0.86983516908E+03  0.10856735980E+04  0.12699999809E+01 0. -1.
</event>
<event>
 5   0  0.3497949E-05  0.2684827E+04  0.7818609E-02  0.8339945E-01
        2   -1    0    0  501    0  0.00000000000E+00  0.00000000000E+00  0.14644061426E+04  0.14644061426E+04  0.25500000920E-02 0.  1.
       -2   -1    0    0    0  501  0.00000000000E+00  0.00000000000E+00 -0.12305833625E+04  0.12305833625E+04  0.25500000920E-02 0. -1.
    10030    2    1    2    0    0  0.00000000000E+00  0.00000000000E+00  0.23382278011E+03  0.26949895051E+04  0.26848268734E+04 0.  0.
        5    1    3    3  502    0  0.13345667844E+04 -0.76169541387E+02 -0.67679992467E+01  0.13367640768E+04  0.46999998093E+01 0.  1.
       -5    1    3    3    0  502 -0.13345667844E+04  0.76169541387E+02  0.24059077936E+03  0.13582254284E+04  0.46999998093E+01 0. -1.
</event>
<event>
 5   0  0.3652331E-05  0.2590829E+04  0.7818609E-02  0.8371323E-01
       -2   -1    0    0    0  501  0.00000000000E+00  0.00000000000E+00  0.83868818456E+03  0.83868818457E+03  0.25500000920E-02 0.  1.
        2   -1    0    0  501    0  0.00000000000E+00  0.00000000000E+00 -0.20008616483E+04  0.20008616483E+04  0.25500000920E-02 0. -1.
    10030    2    1    2    0    0  0.00000000000E+00  0.00000000000E+00 -0.11621734638E+04  0.28395498329E+04  0.25908292290E+04 0.  0.
        1    1    3    3  502    0  0.11232733216E+04  0.57029885721E+02  0.12334713696E+03  0.11314636004E+04  0.50400001928E-02 0.  1.
       -1    1    3    3    0  502 -0.11232733216E+04 -0.57029885721E+02 -0.12855206007E+04  0.17080862325E+04  0.50400001928E-02 0. -1.
</event>
<event>
 5   0  0.3652331E-05  0.2683944E+04  0.7818609E-02  0.8340233E-01
        2   -1    0    0  501    0  0.00000000000E+00  0.00000000000E+00  0.12258067228E+04  0.12258067229E+04  0.25500000920E-02 0. -1.
       -2   -1    0    0    0  501  0.00000000000E+00  0.00000000000E+00 -0.14691462533E+04  0.14691462533E+04  0.25500000920E-02 0.  1.
    10030    2    1    2    0    0  0.00000000000E+00  0.00000000000E+00 -0.24333953049E+03  0.26949529762E+04  0.26839443766E+04 0.  0.
        1    1    3    3  502    0  0.35937528171E+03  0.96166533562E+03  0.74613117387E+03  0.12691188043E+04  0.50400001928E-02 0. -1.
       -1    1    3    3    0  502 -0.35937528171E+03 -0.96166533562E+03 -0.98947070436E+03  0.14258341719E+04  0.50400001928E-02 0.  1.
</event>
<event>
 5   0  0.1495517E-05  0.2710046E+04  0.7818609E-02  0.8331753E-01
       -1   -1    0    0    0  501  0.00000000000E+00  0.00000000000E+00  0.11085032590E+04  0.11085032591E+04  0.50400001928E-02 0. -1.
        1   -1    0    0  501    0  0.00000000000E+00  0.00000000000E+00 -0.16563656292E+04  0.16563656292E+04  0.50400001928E-02 0.  1.
    10030    2    1    2    0    0  0.00000000000E+00  0.00000000000E+00 -0.54786237019E+03  0.27648688883E+04  0.27100455334E+04 0.  0.
        5    1    3    3  502    0  0.11300410102E+04 -0.73459521512E+03 -0.13167665123E+03  0.13542465230E+04  0.46999998093E+01 0. -1.
       -5    1    3    3    0  502 -0.11300410102E+04  0.73459521512E+03 -0.41618571897E+03  0.14106223653E+04  0.46999998093E+01 0.  1.
</event>
<event>
 5   0  0.1495517E-05  0.2613505E+04  0.7818609E-02  0.8363628E-01
        1   -1    0    0  501    0  0.00000000000E+00  0.00000000000E+00  0.12476619066E+04  0.12476619066E+04  0.50400001928E-02 0. -1.
       -1   -1    0    0    0  501  0.00000000000E+00  0.00000000000E+00 -0.13686412332E+04  0.13686412332E+04  0.50400001928E-02 0.  1.
    10030    2    1    2    0    0  0.00000000000E+00  0.00000000000E+00 -0.12097932662E+03  0.26163031399E+04  0.26135045671E+04 0.  0.
        5    1    3    3  502    0  0.19801258652E+03 -0.89978746850E+03 -0.98817122440E+03  0.13510480863E+04  0.46999998093E+01 0.  1.
       -5    1    3    3    0  502 -0.19801258652E+03  0.89978746850E+03  0.86719189778E+03  0.12652550535E+04  0.46999998093E+01 0. -1.
</event>
<event>
 5   0  0.3676724E-05  0.2745663E+04  0.7818609E-02  0.8320339E-01
       -2   -1    0    0    0  501  0.00000000000E+00  0.00000000000E+00  0.16785120457E+04  0.16785120457E+04  0.25500000920E-02 0. -1.
        2   -1    0    0  501    0  0.00000000000E+00  0.00000000000E+00 -0.11228193875E+04  0.11228193875E+04  0.25500000920E-02 0.  1.
    10030    2    1    2    0    0  0.00000000000E+00  0.00000000000E+00  0.55569265825E+03  0.28013314332E+04  0.27456626647E+04 0.  0.
        4    1    3    3  502    0  0.75865426079E+02 -0.12269390282E+04 -0.34571569830E+03  0.12769713774E+04  0.12699999809E+01 0. -1.
       -4    1    3    3    0  502 -0.75865426079E+02  0.12269390282E+04  0.90140835655E+03  0.15243600559E+04  0.12699999809E+01 0.  1.
</event>
<event>
 5   0  0.1438701E-05  0.2600630E+04  0.7818609E-02  0.8367987E-01
       -1   -1    0    0    0  501  0.00000000000E+00  0.00000000000E+00  0.10513701997E+04  0.10513701997E+04  0.50400001928E-02 0. -1.
        1   -1    0    0  501    0  0.00000000000E+00  0.00000000000E+00 -0.16082046999E+04  0.16082046999E+04  0.50400001928E-02 0.  1.
    10030    2    1    2    0    0  0.00000000000E+00  0.00000000000E+00 -0.55683450019E+03  0.26595748996E+04  0.26006295365E+04 0.  0.
        4    1    3    3  502    0 -0.10581480476E+04  0.11216811067E+03  0.48588975005E+03  0.11697646933E+04  0.12699999809E+01 0. -1.
       -4    1    3    3    0  502  0.10581480476E+04 -0.11216811067E+03 -0.10427242502E+04  0.14898102063E+04  0.12699999809E+01 0.  1.
</event>
<event>
 5   0  0.3676724E-05  0.1393074E+04  0.7818609E-02  0.8958847E-01
       -2   -1    0    0    0  501  0.00000000000E+00  0.00000000000E+00  0.33460974215E+03  0.33460974216E+03  0.25500000920E-02 0. -1.
        2   -1    0    0  501    0  0.00000000000E+00  0.00000000000E+00 -0.14499391959E+04  0.14499391959E+04  0.25500000920E-02 0.  1.
    10030    2    1    2    0    0  0.00000000000E+00  0.00000000000E+00 -0.11153294537E+04  0.17845489381E+04  0.13930739829E+04 0.  0.
        4    1    3    3  502    0  0.18343314359E+03  0.65290028466E+03 -0.35416600735E+03  0.76508932390E+03  0.12699999809E+01 0. -1.
       -4    1    3    3    0  502 -0.18343314359E+03 -0.65290028466E+03 -0.76116344638E+03  0.10194596142E+04  0.12699999809E+01 0.  1.
</event>
<event>
 5   0  0.1449521E-05  0.2975019E+04  0.7818609E-02  0.8250901E-01
       -1   -1    0    0    0  501  0.00000000000E+00  0.00000000000E+00  0.14082681453E+04  0.14082681453E+04  0.50400001928E-02 0. -1.
        1   -1    0    0  501    0  0.00000000000E+00  0.00000000000E+00 -0.15712095379E+04  0.15712095379E+04  0.50400001928E-02 0.  1.
    10030    2    1    2    0    0  0.00000000000E+00  0.00000000000E+00 -0.16294139262E+03  0.29794776832E+04  0.29750188852E+04 0.  0.
        3    1    3    3  502    0 -0.63045836336E+03 -0.88587122436E+03  0.93515598265E+03  0.14341416583E+04  0.10100000352E+00 0. -1.
       -3    1    3    3    0  502  0.63045836336E+03  0.88587122436E+03 -0.10980973753E+04  0.15453360249E+04  0.10100000352E+00 0.  1.
</event>
<event>
 5   0  0.1438701E-05  0.2816839E+04  0.7818609E-02  0.8298060E-01
       -1   -1    0    0    0  501  0.00000000000E+00  0.00000000000E+00  0.13064598353E+04  0.13064598353E+04  0.50400001928E-02 0. -1.
        1   -1    0    0  501    0  0.00000000000E+00  0.00000000000E+00 -0.15183361629E+04  0.15183361629E+04  0.50400001928E-02 0.  1.
    10030    2    1    2    0    0  0.00000000000E+00  0.00000000000E+00 -0.21187632759E+03  0.28247959983E+04  0.28168388050E+04 0.  0.
        4    1    3    3  502    0 -0.54331967595E+03  0.40661901379E+02  0.11964969921E+04  0.13147076959E+04  0.12699999809E+01 0. -1.
       -4    1    3    3    0  502  0.54331967595E+03 -0.40661901379E+02 -0.14083733197E+04  0.15100883024E+04  0.12699999809E+01 0.  1.
</event>
<event>
 5   0  0.1474012E-05  0.2716764E+04  0.7818609E-02  0.8329586E-01
        1   -1    0    0  501    0  0.00000000000E+00  0.00000000000E+00  0.16093908196E+04  0.16093908196E+04  0.50400001928E-02 0.  1.
       -1   -1    0    0    0  501  0.00000000000E+00  0.00000000000E+00 -0.11465216162E+04  0.11465216162E+04  0.50400001928E-02 0. -1.
    10030    2    1    2    0    0  0.00000000000E+00  0.00000000000E+00  0.46286920339E+03  0.27559124358E+04  0.27167637833E+04 0.  0.
        2    1    3    3  502    0  0.77740661602E+03 -0.11136337483E+04  0.25749904854E+03  0.13823338714E+04  0.25500000920E-02 0.  1.
       -2    1    3    3    0  502 -0.77740661602E+03  0.11136337483E+04  0.20537015485E+03  0.13735785644E+04  0.25500000920E-02 0. -1.
</event>
<event>
 5   0  0.3652331E-05  0.2704458E+04  0.7818609E-02  0.8333560E-01
       -2   -1    0    0    0  501  0.00000000000E+00  0.00000000000E+00  0.14201371928E+04  0.14201371928E+04  0.25500000920E-02 0. -1.
        2   -1    0    0  501    0  0.00000000000E+00  0.00000000000E+00 -0.12875677833E+04  0.12875677833E+04  0.25500000920E-02 0.  1.
    10030    2    1    2    0    0  0.00000000000E+00  0.00000000000E+00  0.13256940952E+03  0.27077049762E+04  0.27044577256E+04 0.  0.
        1    1    3    3  502    0 -0.12276585897E+04  0.16823047335E+03  0.60829947288E+03  0.13803895659E+04  0.50400001928E-02 0. -1.
       -1    1    3    3    0  502  0.12276585897E+04 -0.16823047335E+03 -0.47573006336E+03  0.13273154102E+04  0.50400001928E-02 0.  1.
</event>
<event>
 5   0  0.1583970E-05  0.1501083E+04  0.7818609E-02  0.8883733E-01
       -1   -1    0    0    0  501  0.00000000000E+00  0.00000000000E+00  0.68171428376E+03  0.68171428378E+03  0.50400001928E-02 0.  1.
        1   -1    0    0  501    0  0.00000000000E+00  0.00000000000E+00 -0.82631786779E+03  0.82631786781E+03  0.50400001928E-02 0. -1.
    10030    2    1    2    0    0  0.00000000000E+00  0.00000000000E+00 -0.14460358403E+03  0.15080321516E+04  0.15010832001E+04 0.  0.
        1    1    3    3  502    0  0.10288707068E+03 -0.59828011278E+03  0.37108910159E+03  0.71149979902E+03  0.50400001928E-02 0.  1.
       -1    1    3    3    0  502 -0.10288707068E+03  0.59828011278E+03 -0.51569268562E+03  0.79653235257E+03  0.50400001928E-02 0. -1.
</event>
<event>
 5   0  0.3652331E-05  0.2711972E+04  0.7818609E-02  0.8331131E-01
       -2   -1    0    0    0  501  0.00000000000E+00  0.00000000000E+00  0.10775943055E+04  0.10775943055E+04  0.25500000920E-02 0.  1.
        2   -1    0    0  501    0  0.00000000000E+00  0.00000000000E+00 -0.17062985130E+04  0.17062985130E+04  0.25500000920E-02 0. -1.
    10030    2    1    2    0    0  0.00000000000E+00  0.00000000000E+00 -0.62870420751E+03  0.27838928185E+04  0.27119716525E+04 0.  0.
        1    1    3    3  502    0  0.11008290607E+04  0.20644226999E+03 -0.10989884267E+04  0.15691458166E+04  0.50400001928E-02 0. -1.
       -1    1    3    3    0  502 -0.11008290607E+04 -0.20644226999E+03  0.47028421922E+03  0.12147470019E+04  0.50400001928E-02 0.  1.
</event>
<event>
 5   0  0.3514294E-05  0.2715357E+04  0.7818609E-02  0.8330039E-01
        2   -1    0    0  501    0  0.00000000000E+00  0.00000000000E+00  0.23006246746E+04  0.23006246746E+04  0.25500000920E-02 0. -1.
       -2   -1    0    0    0  501  0.00000000000E+00  0.00000000000E+00 -0.80121301145E+03  0.80121301145E+03  0.25500000920E-02 0.  1.
    10030    2    1    2    0    0  0.00000000000E+00  0.00000000000E+00  0.14994116631E+04  0.31018376860E+04  0.27153566423E+04 0.  0.
        2    1    3    3  502    0  0.20380584831E+03 -0.53355315942E+03  0.21567108983E+04  0.22310575287E+04  0.25500000920E-02 0. -1.
       -2    1    3    3    0  502 -0.20380584831E+03  0.53355315942E+03 -0.65729923518E+03  0.87078015727E+03  0.25500000920E-02 0.  1.
</event>
<event>
 5   0  0.3676724E-05  0.2676479E+04  0.7818609E-02  0.8342677E-01
        2   -1    0    0  501    0  0.00000000000E+00  0.00000000000E+00  0.20932946004E+04  0.20932946004E+04  0.25500000920E-02 0.  1.
       -2   -1    0    0    0  501  0.00000000000E+00  0.00000000000E+00 -0.85553391318E+03  0.85553391319E+03  0.25500000920E-02 0. -1.
    10030    2    1    2    0    0  0.00000000000E+00  0.00000000000E+00  0.12377606872E+04  0.29488285136E+04  0.26764786724E+04 0.  0.
        4    1    3    3  502    0 -0.42522812221E+03  0.57434593630E+03 -0.62770800617E+03  0.95116305877E+03  0.12699999809E+01 0. -1.
       -4    1    3    3    0  502  0.42522812221E+03 -0.57434593630E+03  0.18654686934E+04  0.19976654548E+04  0.12699999809E+01 0.  1.
</event>
<event>
 5   0  0.1438701E-05  0.2674394E+04  0.7818609E-02  0.8343361E-01
       -1   -1    0    0    0  501  0.00000000000E+00  0.00000000000E+00  0.12389017011E+04  0.12389017011E+04  0.50400001928E-02 0.  1.
        1   -1    0    0  501    0  0.00000000000E+00  0.00000000000E+00 -0.14432905786E+04  0.14432905786E+04  0.50400001928E-02 0. -1.
    10030    2    1    2    0    0  0.00000000000E+00  0.00000000000E+00 -0.20438887752E+03  0.26821922797E+04  0.26743935036E+04 0.  0.
        4    1    3    3  502    0 -0.30068384644E+03  0.85857201273E+03 -0.10851222379E+04  0.14159973731E+04  0.12699999809E+01 0. -1.
       -4    1    3    3    0  502  0.30068384644E+03 -0.85857201273E+03  0.88073336036E+03  0.12661949066E+04  0.12699999809E+01 0.  1.
</event>
<event>
 5   0  0.1484379E-05  0.2488653E+04  0.7818609E-02  0.8407039E-01
        1   -1    0    0  501    0  0.00000000000E+00  0.00000000000E+00  0.23931783035E+04  0.23931783035E+04  0.50400001928E-02 0. -1.
       -1   -1    0    0    0  501  0.00000000000E+00  0.00000000000E+00 -0.64698395741E+03  0.64698395743E+03  0.50400001928E-02 0.  1.
    10030    2    1    2    0    0  0.00000000000E+00  0.00000000000E+00  0.17461943461E+04  0.30401622609E+04  0.24886526231E+04 0.  0.
        1    1    3    3  502    0  0.55419497808E+03 -0.84766576189E+03 -0.10084126278E+02  0.10128035383E+04  0.50400001928E-02 0.  1.
       -1    1    3    3    0  502 -0.55419497808E+03  0.84766576189E+03  0.17562784724E+04  0.20273587226E+04  0.50400001928E-02 0. -1.
</event>
<event>
 5   0  0.3676724E-05  0.2734837E+04  0.7818609E-02  0.8323789E-01
       -2   -1    0    0    0  501  0.00000000000E+00  0.00000000000E+00  0.10780792444E+04  0.10780792445E+04  0.25500000920E-02 0. -1.
        2   -1    0    0  501    0  0.00000000000E+00  0.00000000000E+00 -0.17344119096E+04  0.17344119096E+04  0.25500000920E-02 0.  1.
    10030    2    1    2    0    0  0.00000000000E+00  0.00000000000E+00 -0.65633266515E+03  0.28124911541E+04  0.27348370928E+04 0.  0.
        4    1    3    3  502    0  0.34090944693E+02 -0.13303827859E+04 -0.65133641968E+03  0.14816616665E+04  0.12699999809E+01 0.  1.
       -4    1    3    3    0  502 -0.34090944693E+02  0.13303827859E+04 -0.49962454783E+01  0.13308294875E+04  0.12699999809E+01 0. -1.
</event>
<event>
 5   0  0.3497949E-05  0.2646409E+04  0.7818609E-02  0.8352606E-01
       -2   -1    0    0    0  501  0.00000000000E+00  0.00000000000E+00  0.10010345751E+04  0.10010345751E+04  0.25500000920E-02 0.  1.
        2   -1    0    0  501    0  0.00000000000E+00  0.00000000000E+00 -0.17490605818E+04  0.17490605818E+04  0.25500000920E-02 0. -1.
    10030    2    1    2    0    0  0.00000000000E+00  0.00000000000E+00 -0.74802600670E+03  0.27500951570E+04  0.26464089755E+04 0.  0.
        5    1    3    3  502    0  0.32648946049E+03  0.10901387734E+04 -0.10756327348E+04  0.15658881771E+04  0.46999998093E+01 0. -1.
       -5    1    3    3    0  502 -0.32648946049E+03 -0.10901387734E+04  0.32760672807E+03  0.11842069799E+04  0.46999998093E+01 0.  1.
</event>
<event>
 5   0  0.1474012E-05  0.2695053E+04  0.7818609E-02  0.8336612E-01
        1   -1    0    0  501    0  0.00000000000E+00  0.00000000000E+00  0.18463013812E+04  0.18463013812E+04  0.50400001928E-02 0. -1.
       -1   -1    0    0    0  501  0.00000000000E+00  0.00000000000E+00 -0.98349467194E+03  0.98349467196E+03  0.50400001928E-02 0.  1.
    10030    2    1    2    0    0  0.00000000000E+00  0.00000000000E+00  0.86280670921E+03  0.28297960531E+04  0.26950529280E+04 0.  0.
        2    1    3    3  502    0  0.89313755828E+03  0.42981921294E+03 -0.52713951713E+03  0.11226376639E+04  0.25500000920E-02 0.  1.
       -2    1    3    3    0  502 -0.89313755828E+03 -0.42981921294E+03  0.13899462263E+04  0.17071583892E+04  0.25500000920E-02 0. -1.
</event>
<event>
 5   0  0.1449521E-05  0.2588991E+04  0.7818609E-02  0.8371950E-01
       -1   -1    0    0    0  501  0.00000000000E+00  0.00000000000E+00  0.11529251055E+04  0.11529251056E+04  0.50400001928E-02 0.  1.
        1   -1    0    0  501    0  0.00000000000E+00  0.00000000000E+00 -0.14534498508E+04  0.14534498508E+04  0.50400001928E-02 0. -1.
    10030    2    1    2    0    0  0.00000000000E+00  0.00000000000E+00 -0.30052474526E+03  0.26063749564E+04  0.25889911724E+04 0.  0.
        3    1    3    3  502    0 -0.32449074055E+03  0.12085344934E+04  0.18342810338E+03  0.12647117228E+04  0.10100000352E+00 0.  1.
       -3    1    3    3    0  502  0.32449074055E+03 -0.12085344934E+04 -0.48395284863E+03  0.13416632336E+04  0.10100000352E+00 0. -1.
</event>
<event>
 5   0  0.3514294E-05  0.2784220E+04  0.7818609E-02  0.8308184E-01
       -2   -1    0    0    0  501  0.00000000000E+00  0.00000000000E+00  0.13890878074E+04  0.13890878075E+04  0.25500000920E-02 0. -1.
        2   -1    0    0  501    0  0.00000000000E+00  0.00000000000E+00 -0.13951383786E+04  0.13951383786E+04  0.25500000920E-02 0.  1.
    10030    2    1    2    0    0  0.00000000000E+00  0.00000000000E+00 -0.60505711037E+01  0.27842261860E+04  0.27842196116E+04 0.  0.
        2    1    3    3  502    0 -0.87671855963E+03 -0.18166698780E+03  0.10629656856E+04  0.13897965232E+04  0.25500000920E-02 0. -1.
       -2    1    3    3    0  502  0.87671855963E+03  0.18166698780E+03 -0.10690162567E+04  0.13944296628E+04  0.25500000920E-02 0.  1.
</event>
<event>
 5   0  0.3676724E-05  0.2609561E+04  0.7818609E-02  0.8364961E-01
        2   -1    0    0  501    0  0.00000000000E+00  0.00000000000E+00  0.11960565623E+04  0.11960565623E+04  0.25500000920E-02 0.  1.
       -2   -1    0    0    0  501  0.00000000000E+00  0.00000000000E+00 -0.14233874294E+04  0.14233874294E+04  0.25500000920E-02 0. -1.
    10030    2    1    2    0    0  0.00000000000E+00  0.00000000000E+00 -0.22733086716E+03  0.26194439917E+04  0.26095607873E+04 0.  0.
        4    1    3    3  502    0  0.63540753260E+03 -0.27531122089E+03  0.99637595328E+03  0.12133860284E+04  0.12699999809E+01 0.  1.
       -4    1    3    3    0  502 -0.63540753260E+03  0.27531122089E+03 -0.12237068204E+04  0.14060579633E+04  0.12699999809E+01 0. -1.
</event>
<event>
 5   0  0.1484379E-05  0.2737467E+04  0.7818609E-02  0.8322950E-01
       -1   -1    0    0    0  501  0.00000000000E+00  0.00000000000E+00  0.11328241248E+04  0.11328241248E+04  0.50400001928E-02 0. -1.
        1   -1    0    0  501    0  0.00000000000E+00  0.00000000000E+00 -0.16537710263E+04  0.16537710263E+04  0.50400001928E-02 0.  1.
    10030    2    1    2    0    0  0.00000000000E+00  0.00000000000E+00 -0.52094690152E+03  0.27865951512E+04  0.27374672349E+04 0.  0.
        1    1    3    3  502    0  0.83950888159E+03 -0.10633391078E+04 -0.45882025197E+03  0.14303780074E+04  0.50400001928E-02 0.  1.
       -1    1    3    3    0  502 -0.83950888159E+03  0.10633391078E+04 -0.62126649546E+02  0.13562171438E+04  0.50400001928E-02 0. -1.
</event>
<event>
 5   0  0.1484379E-05  0.1860825E+04  0.7818609E-02  0.8674606E-01
        1   -1    0    0  501    0  0.00000000000E+00  0.00000000000E+00  0.87942732262E+03  0.87942732263E+03  0.50400001928E-02 0.  1.
       -1   -1    0    0    0  501  0.00000000000E+00  0.00000000000E+00 -0.98435346361E+03  0.98435346363E+03  0.50400001928E-02 0. -1.
    10030    2    1    2    0    0  0.00000000000E+00  0.00000000000E+00 -0.10492614100E+03  0.18637807863E+04  0.18608249042E+04 0.  0.
        1    1    3    3  502    0  0.96427768724E+02  0.63281582032E+03  0.62382290577E+03  0.89381720436E+03  0.50400001928E-02 0.  1.
       -1    1    3    3    0  502 -0.96427768724E+02 -0.63281582032E+03 -0.72874904677E+03  0.96996358190E+03  0.50400001928E-02 0. -1.
</event>
<event>
 5   0  0.3568647E-05  0.2710276E+04  0.7818609E-02  0.8331679E-01
       -2   -1    0    0    0  501  0.00000000000E+00  0.00000000000E+00  0.10071672901E+04  0.10071672901E+04  0.25500000920E-02 0.  1.
        2   -1    0    0  501    0  0.00000000000E+00  0.00000000000E+00 -0.18233300284E+04  0.18233300284E+04  0.25500000920E-02 0. -1.
    10030    2    1    2    0    0  0.00000000000E+00  0.00000000000E+00 -0.81616273834E+03  0.28304973185E+04  0.27102755311E+04 0.  0.
        3    1    3    3  502    0 -0.32617393581E+03 -0.76204697403E+03 -0.15276861545E+04  0.17380822834E+04  0.10100000352E+00 0. -1.
       -3    1    3    3    0  502  0.32617393581E+03  0.76204697403E+03  0.71152341613E+03  0.10924150351E+04  0.10100000352E+00 0.  1.
</event>
<event>
 5   0  0.1438701E-05  0.1685231E+04  0.7818609E-02  0.8769833E-01
       -1   -1    0    0    0  501  0.00000000000E+00  0.00000000000E+00  0.66912228611E+03  0.66912228613E+03  0.50400001928E-02 0.  1.
        1   -1    0    0  501    0  0.00000000000E+00  0.00000000000E+00 -0.10610931206E+04  0.10610931206E+04  0.50400001928E-02 0. -1.
    10030    2    1    2    0    0  0.00000000000E+00  0.00000000000E+00 -0.39197083448E+03  0.17302154067E+04  0.16852312063E+04 0.  0.
        4    1    3    3  502    0  0.21671422974E+03  0.66434265949E+03  0.28741507475E+03  0.75559596656E+03  0.12699999809E+01 0.  1.
       -4    1    3    3    0  502 -0.21671422974E+03 -0.66434265949E+03 -0.67938590923E+03  0.97461944017E+03  0.12699999809E+01 0. -1.
</event>
<event>
 5   0  0.1484379E-05  0.2676352E+04  0.7818609E-02  0.8342719E-01
       -1   -1    0    0    0  501  0.00000000000E+00  0.00000000000E+00  0.99151827284E+03  0.99151827285E+03  0.50400001928E-02 0.  1.
        1   -1    0    0  501    0  0.00000000000E+00  0.00000000000E+00 -0.18060339195E+04  0.18060339195E+04  0.50400001928E-02 0. -1.
    10030    2    1    2    0    0  0.00000000000E+00  0.00000000000E+00 -0.81451564670E+03  0.27975521924E+04  0.26763524675E+04 0.  0.
        1    1    3    3  502    0  0.40869077664E+03  0.71355123382E+03 -0.15107803010E+04  0.17200699498E+04  0.50400001928E-02 0. -1.
       -1    1    3    3    0  502 -0.40869077664E+03 -0.71355123382E+03  0.69626465434E+03  0.10774822426E+04  0.50400001928E-02 0.  1.
</event>
<event>
 5   0  0.1484379E-05  0.1563736E+04  0.7818609E-02  0.8843142E-01
        1   -1    0    0  501    0  0.00000000000E+00  0.00000000000E+00  0.69089787456E+03  0.69089787458E+03  0.50400001928E-02 0. -1.
       -1   -1    0    0    0  501  0.00000000000E+00  0.00000000000E+00 -0.88481561391E+03  0.88481561393E+03  0.50400001928E-02 0.  1.
    10030    2    1    2    0    0  0.00000000000E+00  0.00000000000E+00 -0.19391773935E+03  0.15757134885E+04  0.15637355621E+04 0.  0.
        1    1    3    3  502    0 -0.49456049253E+03 -0.49603020869E+03  0.25309405523E+03  0.74477691258E+03  0.50400001928E-02 0. -1.
       -1    1    3    3    0  502  0.49456049253E+03  0.49603020869E+03 -0.44701179457E+03  0.83093657593E+03  0.50400001928E-02 0.  1.
</event>
<event>
 5   0  0.1449521E-05  0.2726351E+04  0.7818609E-02  0.8326505E-01
       -1   -1    0    0    0  501  0.00000000000E+00  0.00000000000E+00  0.23539324597E+04  0.23539324597E+04  0.50400001928E-02 0. -1.
        1   -1    0    0  501    0  0.00000000000E+00  0.00000000000E+00 -0.78942236697E+03  0.78942236698E+03  0.50400001928E-02 0.  1.
    10030    2    1    2    0    0  0.00000000000E+00  0.00000000000E+00  0.15645100928E+04  0.31433548267E+04  0.27263506261E+04 0.  0.
        3    1    3    3  502    0  0.62983018239E+03  0.12089452534E+04  0.78628863476E+03  0.15736850104E+04  0.10100000352E+00 0. -1.
       -3    1    3    3    0  502 -0.62983018239E+03 -0.12089452534E+04  0.77822145799E+03  0.15696698163E+04  0.10100000352E+00 0.  1.
</event>
<event>
 5   0  0.3497949E-05  0.2664522E+04  0.7818609E-02  0.8346609E-01
        2   -1    0    0  501    0  0.00000000000E+00  0.00000000000E+00  0.14976034724E+04  0.14976034724E+04  0.25500000920E-02 0. -1.
       -2   -1    0    0    0  501  0.00000000000E+00  0.00000000000E+00 -0.11851732442E+04  0.11851732442E+04  0.25500000920E-02 0.  1.
    10030    2    1    2    0    0  0.00000000000E+00  0.00000000000E+00  0.31243022819E+03  0.26827767166E+04  0.26645221455E+04 0.  0.
        5    1    3    3  502    0  0.10743535487E+04  0.72832084725E+03  0.45862372476E+03  0.13766061946E+04  0.46999998093E+01 0.  1.
       -5    1    3    3    0  502 -0.10743535487E+04 -0.72832084725E+03 -0.14619349657E+03  0.13061705220E+04  0.46999998093E+01 0. -1.
</event>
<event>
 5   0  0.1438701E-05  0.2671143E+04  0.7818609E-02  0.8344429E-01
       -1   -1    0    0    0  501  0.00000000000E+00  0.00000000000E+00  0.13414116954E+04  0.13414116954E+04  0.50400001928E-02 0. -1.
        1   -1    0    0  501    0  0.00000000000E+00  0.00000000000E+00 -0.13297572042E+04  0.13297572042E+04  0.50400001928E-02 0.  1.
    10030    2    1    2    0    0  0.00000000000E+00  0.00000000000E+00  0.11654491194E+02  0.26711688996E+04  0.26711434748E+04 0.  0.
        4    1    3    3  502    0  0.12564772802E+04  0.42215482150E+03 -0.15788260179E+03  0.13348701726E+04  0.12699999809E+01 0. -1.
       -4    1    3    3    0  502 -0.12564772802E+04 -0.42215482150E+03  0.16953709299E+03  0.13362987270E+04  0.12699999809E+01 0.  1.
</event>
<event>
 5   0  0.1484379E-05  0.2667822E+04  0.7818609E-02  0.8345522E-01
       -1   -1    0    0    0  501  0.00000000000E+00  0.00000000000E+00  0.13009440608E+04  0.13009440608E+04  0.50400001928E-02 0.  1.
        1   -1    0    0  501    0  0.00000000000E+00  0.00000000000E+00 -0.13677134904E+04  0.13677134904E+04  0.50400001928E-02 0. -1.
    10030    2    1    2    0    0  0.00000000000E+00  0.00000000000E+00 -0.66769429610E+02  0.26686575512E+04  0.26678221396E+04 0.  0.
        1    1    3    3  502    0  0.82459734895E+03  0.47324007324E+03  0.90253735790E+03  0.13109121394E+04  0.50400001928E-02 0.  1.
       -1    1    3    3    0  502 -0.82459734895E+03 -0.47324007324E+03 -0.96930678751E+03  0.13577454118E+04  0.50400001928E-02 0. -1.
</event>
<event>
 5   0  0.1484379E-05  0.2661050E+04  0.7818609E-02  0.8347754E-01
       -1   -1    0    0    0  501  0.00000000000E+00  0.00000000000E+00  0.13217886975E+04  0.13217886976E+04  0.50400001928E-02 0. -1.
        1   -1    0    0  501    0  0.00000000000E+00  0.00000000000E+00 -0.13393194854E+04  0.13393194854E+04  0.50400001928E-02 0.  1.
    10030    2    1    2    0    0  0.00000000000E+00  0.00000000000E+00 -0.17530787838E+02  0.26611081830E+04  0.26610504379E+04 0.  0.
        1    1    3    3  502    0  0.78272617762E+03 -0.76136323188E+03  0.75148995937E+03  0.13255456986E+04  0.50400001928E-02 0. -1.
       -1    1    3    3    0  502 -0.78272617762E+03  0.76136323188E+03 -0.76902074721E+03  0.13355624844E+04  0.50400001928E-02 0.  1.
</event>
<event>
 5   0  0.3497949E-05  0.2719757E+04  0.7818609E-02  0.8328623E-01
        2   -1    0    0  501    0  0.00000000000E+00  0.00000000000E+00  0.11640407184E+04  0.11640407184E+04  0.25500000920E-02 0. -1.
       -2   -1    0    0    0  501  0.00000000000E+00  0.00000000000E+00 -0.15886634894E+04  0.15886634894E+04  0.25500000920E-02 0.  1.
    10030    2    1    2    0    0  0.00000000000E+00  0.00000000000E+00 -0.42462277092E+03  0.27527042078E+04  0.27197565991E+04 0.  0.
        5    1    3    3  502    0 -0.30876891064E+03 -0.10025859300E+04 -0.10880856068E+04  0.15114460510E+04  0.46999998093E+01 0.  1.
       -5    1    3    3    0  502  0.30876891064E+03  0.10025859300E+04  0.66346283592E+03  0.12412581568E+04  0.46999998093E+01 0. -1.
</event>
<event>
 5   0  0.3676724E-05  0.2718821E+04  0.7818609E-02  0.8328924E-01
       -2   -1    0    0    0  501  0.00000000000E+00  0.00000000000E+00  0.70458074895E+03  0.70458074896E+03  0.25500000920E-02 0. -1.
        2   -1    0    0  501    0  0.00000000000E+00  0.00000000000E+00 -0.26228311648E+04  0.26228311648E+04  0.25500000920E-02 0.  1.
    10030    2    1    2    0    0  0.00000000000E+00  0.00000000000E+00 -0.19182504158E+04  0.33274119137E+04  0.27188205873E+04 0.  0.
        4    1    3    3  502    0  0.90706219109E+02  0.46302373087E+03  0.60115628626E+03  0.76420487236E+03  0.12699999809E+01 0. -1.
       -4    1    3    3    0  502 -0.90706219109E+02 -0.46302373087E+03 -0.25194067021E+04  0.25632070414E+04  0.12699999809E+01 0.  1.
</event>
<event>
 5   0  0.1495517E-05  0.1917843E+04  0.7818609E-02  0.8646025E-01
        1   -1    0    0  501    0  0.00000000000E+00  0.00000000000E+00  0.27937138347E+04  0.27937138347E+04  0.50400001928E-02 0.  1.
       -1   -1    0    0    0  501  0.00000000000E+00  0.00000000000E+00 -0.32914269626E+03  0.32914269629E+03  0.50400001928E-02 0. -1.
    10030    2    1    2    0    0  0.00000000000E+00  0.00000000000E+00  0.24645711384E+04  0.31228565310E+04  0.19178430636E+04 0.  0.
        5    1    3    3  502    0  0.38546620596E+03  0.62138696610E+03  0.22423704821E+04  0.23585914073E+04  0.46999998093E+01 0.  1.
       -5    1    3    3    0  502 -0.38546620596E+03 -0.62138696610E+03  0.22220065630E+03  0.76426512365E+03  0.46999998093E+01 0. -1.
</event>
<event>
 5   0  0.3676724E-05  0.2704762E+04  0.7818609E-02  0.8333461E-01
       -2   -1    0    0    0  501  0.00000000000E+00  0.00000000000E+00  0.11894653692E+04  0.11894653692E+04  0.25500000920E-02 0. -1.
        2   -1    0    0  501    0  0.00000000000E+00  0.00000000000E+00 -0.15376108615E+04  0.15376108615E+04  0.25500000920E-02 0.  1.
    10030    2    1    2    0    0  0.00000000000E+00  0.00000000000E+00 -0.34814549224E+03  0.27270762307E+04  0.27047623711E+04 0.  0.
        4    1    3    3  502    0  0.12519590590E+03 -0.93605792872E+03 -0.11500746311E+04  0.14881370000E+04  0.12699999809E+01 0.  1.
       -4    1    3    3    0  502 -0.12519590590E+03  0.93605792872E+03  0.80192913884E+03  0.12389392307E+04  0.12699999809E+01 0. -1.
</event>
<event>
 5   0  0.1449521E-05  0.2709881E+04  0.7818609E-02  0.8331806E-01
       -1   -1    0    0    0  501  0.00000000000E+00  0.00000000000E+00  0.84152032002E+03  0.84152032004E+03  0.50400001928E-02 0.  1.
        1   -1    0    0  501    0  0.00000000000E+00  0.00000000000E+00 -0.21816033560E+04  0.21816033560E+04  0.50400001928E-02 0. -1.
    10030    2    1    2    0    0  0.00000000000E+00  0.00000000000E+00 -0.13400830360E+04  0.30231236761E+04  0.27098808493E+04 0.  0.
        3    1    3    3  502    0  0.12954079140E+03 -0.67986625259E+03 -0.19695346117E+04  0.20875980300E+04  0.10100000352E+00 0. -1.
       -3    1    3    3    0  502 -0.12954079140E+03  0.67986625259E+03  0.62945157570E+03  0.93552564604E+03  0.10100000352E+00 0.  1.
</event>
<event>
 5   0  0.3514294E-05  0.2670151E+04  0.7818609E-02  0.8344755E-01
       -2   -1    0    0    0  501  0.00000000000E+00  0.00000000000E+00  0.16828813693E+04  0.16828813693E+04  0.25500000920E-02 0. -1.
        2   -1    0    0  501    0  0.00000000000E+00  0.00000000000E+00 -0.10591520284E+04  0.10591520284E+04  0.25500000920E-02 0.  1.
    10030    2    1    2    0    0  0.00000000000E+00  0.00000000000E+00  0.62372934092E+03  0.27420333976E+04  0.26701514682E+04 0.  0.
        2    1    3    3  502    0 -0.38917026663E+03  0.31151370562E+03 -0.95999743408E+03  0.10817066879E+04  0.25500000920E-02 0.  1.
       -2    1    3    3    0  502  0.38917026663E+03 -0.31151370562E+03  0.15837267750E+04  0.16603267097E+04  0.25500000920E-02 0. -1.
</event>
<event>
 5   0  0.3652331E-05  0.2650879E+04  0.7818609E-02  0.8351121E-01
       -2   -1    0    0    0  501  0.00000000000E+00  0.00000000000E+00  0.14820106083E+04  0.14820106083E+04  0.25500000920E-02 0.  1.
        2   -1    0    0  501    0  0.00000000000E+00  0.00000000000E+00 -0.11854097641E+04  0.11854097641E+04  0.25500000920E-02 0. -1.
    10030    2    1    2    0    0  0.00000000000E+00  0.00000000000E+00  0.29660084420E+03  0.26674203725E+04  0.26508789830E+04 0.  0.
        1    1    3    3  502    0  0.45701880705E+03  0.79256218901E+03  0.11133306259E+04  0.14410156474E+04  0.50400001928E-02 0.  1.
       -1    1    3    3    0  502 -0.45701880705E+03 -0.79256218901E+03 -0.81672978166E+03  0.12264047251E+04  0.50400001928E-02 0. -1.
</event>
<event>
 5   0  0.1438701E-05  0.2674222E+04  0.7818609E-02  0.8343418E-01
       -1   -1    0    0    0  501  0.00000000000E+00  0.00000000000E+00  0.10626420222E+04  0.10626420223E+04  0.50400001928E-02 0. -1.
        1   -1    0    0  501    0  0.00000000000E+00  0.00000000000E+00 -0.16824729140E+04  0.16824729140E+04  0.50400001928E-02 0.  1.
    10030    2    1    2    0    0  0.00000000000E+00  0.00000000000E+00 -0.61983089178E+03  0.27451149363E+04  0.26742224438E+04 0.  0.
        4    1    3    3  502    0 -0.37242993024E+03 -0.11635948435E+04 -0.86764917996E+03  0.14984904822E+04  0.12699999809E+01 0. -1.
       -4    1    3    3    0  502  0.37242993024E+03  0.11635948435E+04  0.24781828817E+03  0.12466244541E+04  0.12699999809E+01 0.  1.
</event>
<event>
 5   0  0.3652331E-05  0.2516019E+04  0.7818609E-02  0.8397301E-01
        2   -1    0    0  501    0  0.00000000000E+00  0.00000000000E+00  0.85837736701E+03  0.85837736701E+03  0.25500000920E-02 0. -1.
       -2   -1    0    0    0  501  0.00000000000E+00  0.00000000000E+00 -0.18436971305E+04  0.18436971305E+04  0.25500000920E-02 0.  1.
    10030    2    1    2    0    0  0.00000000000E+00  0.00000000000E+00 -0.98531976351E+03  0.27020744975E+04  0.25160189892E+04 0.  0.
        1    1    3    3  502    0 -0.11293598798E+04  0.41673924538E+03 -0.88500035883E+03  0.14941054086E+04  0.50400001928E-02 0.  1.
       -1    1    3    3    0  502  0.11293598798E+04 -0.41673924538E+03 -0.10031940467E+03  0.12079690889E+04  0.50400001928E-02 0. -1.
</event>
<event>
 5   0  0.1474012E-05  0.2697788E+04  0.7818609E-02  0.8335723E-01
        1   -1    0    0  501    0  0.00000000000E+00  0.00000000000E+00  0.16704409012E+04  0.16704409012E+04  0.50400001928E-02 0. -1.
       -1   -1    0    0    0  501  0.00000000000E+00  0.00000000000E+00 -0.10892420847E+04  0.10892420847E+04  0.50400001928E-02 0.  1.
    10030    2    1    2    0    0  0.00000000000E+00  0.00000000000E+00  0.58119881656E+03  0.27596829859E+04  0.26977876340E+04 0.  0.
        2    1    3    3  502    0  0.56794366960E+03 -0.86358400172E+03  0.11771890076E+04  0.15665603402E+04  0.25500000920E-02 0. -1.
       -2    1    3    3    0  502 -0.56794366960E+03  0.86358400172E+03 -0.59599019106E+03  0.11931226457E+04  0.25500000920E-02 0.  1.
</event>
<event>
 5   0  0.3676724E-05  0.2729411E+04  0.7818609E-02  0.8325525E-01
        2   -1    0    0  501    0  0.00000000000E+00  0.00000000000E+00  0.12478147378E+04  0.12478147378E+04  0.25500000920E-02 0. -1.
       -2   -1    0    0    0  501  0.00000000000E+00  0.00000000000E+00 -0.14925459091E+04  0.14925459091E+04  0.25500000920E-02 0.  1.
    10030    2    1    2    0    0  0.00000000000E+00  0.00000000000E+00 -0.24473117135E+03  0.27403606469E+04  0.27294107659E+04 0.  0.
        4    1    3    3  502    0 -0.84916220809E+02 -0.65915293844E+03  0.10743582933E+04  0.12633054722E+04  0.12699999809E+01 0. -1.
       -4    1    3    3    0  502  0.84916220809E+02  0.65915293844E+03 -0.13190894646E+04  0.14770551748E+04  0.12699999809E+01 0.  1.
</event>
<event>
 5   0  0.3568647E-05  0.2679370E+04  0.7818609E-02  0.8341730E-01
        2   -1    0    0  501    0  0.00000000000E+00  0.00000000000E+00  0.87656942358E+03  0.87656942359E+03  0.25500000920E-02 0.  1.
       -2   -1    0    0    0  501  0.00000000000E+00  0.00000000000E+00 -0.20474774721E+04  0.20474774721E+04  0.25500000920E-02 0. -1.
    10030    2    1    2    0    0  0.00000000000E+00  0.00000000000E+00 -0.11709080485E+04  0.29240468957E+04  0.26793701853E+04 0.  0.
        3    1    3    3  502    0  0.79351271165E+03 -0.43019723506E+03 -0.16658177165E+04  0.18946452859E+04  0.10100000352E+00 0. -1.
       -3    1    3    3    0  502 -0.79351271165E+03  0.43019723506E+03  0.49490966796E+03  0.10294016098E+04  0.10100000352E+00 0.  1.
</event>
<event>
 5   0  0.1474012E-05  0.2709838E+04  0.7818609E-02  0.8331820E-01
        1   -1    0    0  501    0  0.00000000000E+00  0.00000000000E+00  0.12749381271E+04  0.12749381271E+04  0.50400001928E-02 0.  1.
       -1   -1    0    0    0  501  0.00000000000E+00  0.00000000000E+00 -0.14399170231E+04  0.14399170231E+04  0.50400001928E-02 0. -1.
    10030    2    1    2    0    0  0.00000000000E+00  0.00000000000E+00 -0.16497889604E+03  0.27148551502E+04  0.27098377166E+04 0.  0.
        2    1    3    3  502    0  0.64107167388E+03 -0.94994725453E+03 -0.80662262546E+03  0.14014323877E+04  0.25500000920E-02 0. -1.
       -2    1    3    3    0  502 -0.64107167388E+03  0.94994725453E+03  0.64164372942E+03  0.13134227625E+04  0.25500000920E-02 0.  1.
</event>
<event>
 5   0  0.1438701E-05  0.2725272E+04  0.7818609E-02  0.8326852E-01
       -1   -1    0    0    0  501  0.00000000000E+00  0.00000000000E+00  0.83687489876E+03  0.83687489878E+03  0.50400001928E-02 0. -1.
        1   -1    0    0  501    0  0.00000000000E+00  0.00000000000E+00 -0.22187023187E+04  0.22187023187E+04  0.50400001928E-02 0.  1.
    10030    2    1    2    0    0  0.00000000000E+00  0.00000000000E+00 -0.13818274199E+04  0.30555772175E+04  0.27252715669E+04 0.  0.
        4    1    3    3  502    0  0.27662979561E+03  0.13268511471E+04 -0.53347914177E+03  0.14565917815E+04  0.12699999809E+01 0. -1.
       -4    1    3    3    0  502 -0.27662979561E+03 -0.13268511471E+04 -0.84834827817E+03  0.15989854360E+04  0.12699999809E+01 0.  1.
</event>
<event>
 5   0  0.1449521E-05  0.2520161E+04  0.7818609E-02  0.8395838E-01
        1   -1    0    0  501    0  0.00000000000E+00  0.00000000000E+00  0.14000599171E+04  0.14000599171E+04  0.50400001928E-02 0. -1.
       -1   -1    0    0    0  501  0.00000000000E+00  0.00000000000E+00 -0.11340960176E+04  0.11340960176E+04  0.50400001928E-02 0.  1.
    10030    2    1    2    0    0  0.00000000000E+00  0.00000000000E+00  0.26596389950E+03  0.25341559347E+04  0.25201606110E+04 0.  0.
        3    1    3    3  502    0  0.11290698987E+03  0.94332584196E+03  0.96534128743E+03  0.13544354706E+04  0.10100000352E+00 0.  1.
       -3    1    3    3    0  502 -0.11290698987E+03 -0.94332584196E+03 -0.69937738794E+03  0.11797204641E+04  0.10100000352E+00 0. -1.
</event>
<event>
 5   0  0.1449521E-05  0.2553387E+04  0.7818609E-02  0.8384209E-01
       -1   -1    0    0    0  501  0.00000000000E+00  0.00000000000E+00  0.70116012839E+03  0.70116012841E+03  0.50400001928E-02 0.  1.
        1   -1    0    0  501    0  0.00000000000E+00  0.00000000000E+00 -0.23246416761E+04  0.23246416761E+04  0.50400001928E-02 0. -1.
    10030    2    1    2    0    0  0.00000000000E+00  0.00000000000E+00 -0.16234815477E+04  0.30258018045E+04  0.25533868145E+04 0.  0.
        3    1    3    3  502    0  0.82501261359E+03 -0.44240778660E+03 -0.18404373052E+04  0.20648438069E+04  0.10100000352E+00 0. -1.
       -3    1    3    3    0  502 -0.82501261359E+03  0.44240778660E+03  0.21695575753E+03  0.96095799760E+03  0.10100000352E+00 0.  1.
</event>
<event>
 5   0  0.3568647E-05  0.2774299E+04  0.7818609E-02  0.8311292E-01
        2   -1    0    0  501    0  0.00000000000E+00  0.00000000000E+00  0.17322741249E+04  0.17322741249E+04  0.25500000920E-02 0.  1.
       -2   -1    0    0    0  501  0.00000000000E+00  0.00000000000E+00 -0.11107849592E+04  0.11107849593E+04  0.25500000920E-02 0. -1.
    10030    2    1    2    0    0  0.00000000000E+00  0.00000000000E+00  0.62148916562E+03  0.28430590841E+04  0.27742992219E+04 0.  0.
        3    1    3    3  502    0  0.13652294849E+04 -0.16848062237E+03  0.49391107934E+03  0.14615695095E+04  0.10100000352E+00 0. -1.
       -3    1    3    3    0  502 -0.13652294849E+04  0.16848062237E+03  0.12757808627E+03  0.13814895746E+04  0.10100000352E+00 0.  1.
</event>
<event>
 5   0  0.3497949E-05  0.2748754E+04  0.7818609E-02  0.8319357E-01
        2   -1    0    0  501    0  0.00000000000E+00  0.00000000000E+00  0.15999512624E+04  0.15999512624E+04  0.25500000920E-02 0. -1.
       -2   -1    0    0    0  501  0.00000000000E+00  0.00000000000E+00 -0.11806056728E+04  0.11806056728E+04  0.25500000920E-02 0.  1.
    10030    2    1    2    0    0  0.00000000000E+00  0.00000000000E+00  0.41934558962E+03  0.27805569352E+04  0.27487535623E+04 0.  0.
        5    1    3    3  502    0  0.82578066821E+03 -0.83719459331E+03  0.92929736127E+03  0.14988075843E+04  0.46999998093E+01 0.  1.
       -5    1    3    3    0  502 -0.82578066821E+03  0.83719459331E+03 -0.50995177165E+03  0.12817493509E+04  0.46999998093E+01 0. -1.
</event>
<event>
 5   0  0.3514294E-05  0.2272584E+04  0.7818609E-02  0.8488810E-01
       -2   -1    0    0    0  501  0.00000000000E+00  0.00000000000E+00  0.76606154582E+03  0.76606154583E+03  0.25500000920E-02 0. -1.
        2   -1    0    0  501    0  0.00000000000E+00  0.00000000000E+00 -0.16854513338E+04  0.16854513338E+04  0.25500000920E-02 0.  1.
    10030    2    1    2    0    0  0.00000000000E+00  0.00000000000E+00 -0.91938978796E+03  0.24515128796E+04  0.22725839515E+04 0.  0.
        2    1    3    3  502    0 -0.54601894334E+03  0.84585062878E+03  0.10862423944E+03  0.10126199673E+04  0.25500000920E-02 0.  1.
       -2    1    3    3    0  502  0.54601894334E+03 -0.84585062878E+03 -0.10280140274E+04  0.14388929124E+04  0.25500000920E-02 0. -1.
</event>
<event>
 5   0  0.1484379E-05  0.2683786E+04  0.7818609E-02  0.8340285E-01
        1   -1    0    0  501    0  0.00000000000E+00  0.00000000000E+00  0.31366172308E+04  0.31366172308E+04  0.50400001928E-02 0.  1.
       -1   -1    0    0    0  501  0.00000000000E+00  0.00000000000E+00 -0.57408232522E+03  0.57408232524E+03  0.50400001928E-02 0. -1.
    10030    2    1    2    0    0  0.00000000000E+00  0.00000000000E+00  0.25625349056E+04  0.37106995561E+04  0.26837857688E+04 0.  0.
        1    1    3    3  502    0  0.30442974650E+03 -0.18807034178E+03  0.30694329235E+04  0.30902210918E+04  0.50400001928E-02 0.  1.
       -1    1    3    3    0  502 -0.30442974650E+03  0.18807034178E+03 -0.50689801794E+03  0.62047846428E+03  0.50400001928E-02 0. -1.
</event>
<event>
 5   0  0.3514294E-05  0.2558536E+04  0.7818609E-02  0.8382424E-01
       -2   -1    0    0    0  501  0.00000000000E+00  0.00000000000E+00  0.99325525420E+03  0.99325525420E+03  0.25500000920E-02 0. -1.
        2   -1    0    0  501    0  0.00000000000E+00  0.00000000000E+00 -0.16476391917E+04  0.16476391917E+04  0.25500000920E-02 0.  1.
    10030    2    1    2    0    0  0.00000000000E+00  0.00000000000E+00 -0.65438393748E+03  0.26408944459E+04  0.25585357407E+04 0.  0.
        2    1    3    3  502    0  0.13325880990E+03 -0.11767451887E+04 -0.82654052305E+03  0.14441801778E+04  0.25500000920E-02 0.  1.
       -2    1    3    3    0  502 -0.13325880990E+03  0.11767451887E+04  0.17215658556E+03  0.11967142681E+04  0.25500000920E-02 0. -1.
</event>
<event>
 5   0  0.1484379E-05  0.2607020E+04  0.7818609E-02  0.8365821E-01
       -1   -1    0    0    0  501  0.00000000000E+00  0.00000000000E+00  0.15124679921E+04  0.15124679921E+04  0.50400001928E-02 0.  1.
        1   -1    0    0  501    0  0.00000000000E+00  0.00000000000E+00 -0.11234211503E+04  0.11234211503E+04  0.50400001928E-02 0. -1.
    10030    2    1    2    0    0  0.00000000000E+00  0.00000000000E+00  0.38904684182E+03  0.26358891425E+04  0.26070201622E+04 0.  0.
        1    1    3    3  502    0  0.78135949735E+03  0.47050953846E+02 -0.85932474614E+03  0.11624007380E+04  0.50400001928E-02 0. -1.
       -1    1    3    3    0  502 -0.78135949735E+03 -0.47050953846E+02  0.12483715880E+04  0.14734884044E+04  0.50400001928E-02 0.  1.
</event>
<event>
 5   0  0.1495517E-05  0.2662326E+04  0.7818609E-02  0.8347333E-01
       -1   -1    0    0    0  501  0.00000000000E+00  0.00000000000E+00  0.27383850947E+04  0.27383850947E+04  0.50400001928E-02 0. -1.
        1   -1    0    0  501    0  0.00000000000E+00  0.00000000000E+00 -0.64709508203E+03  0.64709508205E+03  0.50400001928E-02 0.  1.
    10030    2    1    2    0    0  0.00000000000E+00  0.00000000000E+00  0.20912900127E+04  0.33854801767E+04  0.26623264469E+04 0.  0.
        5    1    3    3  502    0 -0.92175839336E+03  0.82675835997E+01  0.22668461356E+04  0.24471044892E+04  0.46999998093E+01 0. -1.
       -5    1    3    3    0  502  0.92175839336E+03 -0.82675835997E+01 -0.17555612293E+03  0.93837568754E+03  0.46999998093E+01 0.  1.
</event>
<event>
 5   0  0.3676724E-05  0.2413172E+04  0.7818609E-02  0.8434588E-01
       -2   -1    0    0    0  501  0.00000000000E+00  0.00000000000E+00  0.11124251589E+04  0.11124251589E+04  0.25500000920E-02 0.  1.
        2   -1    0    0  501    0  0.00000000000E+00  0.00000000000E+00 -0.13087175465E+04  0.13087175465E+04  0.25500000920E-02 0. -1.
    10030    2    1    2    0    0  0.00000000000E+00  0.00000000000E+00 -0.19629238765E+03  0.24211427054E+04  0.24131724552E+04 0.  0.
        4    1    3    3  502    0  0.10610718182E+04 -0.51017466435E+03  0.16672787678E+03  0.11890968797E+04  0.12699999809E+01 0.  1.
       -4    1    3    3    0  502 -0.10610718182E+04  0.51017466435E+03 -0.36302026443E+03  0.12320458257E+04  0.12699999809E+01 0. -1.
</event>
<event>
 5   0  0.1449521E-05  0.2910332E+04  0.7818609E-02  0.8269810E-01
        1   -1    0    0  501    0  0.00000000000E+00  0.00000000000E+00  0.11676273307E+04  0.11676273307E+04  0.50400001928E-02 0.  1.
       -1   -1    0    0    0  501  0.00000000000E+00  0.00000000000E+00 -0.18135134023E+04  0.18135134023E+04  0.50400001928E-02 0. -1.
    10030    2    1    2    0    0  0.00000000000E+00  0.00000000000E+00 -0.64588607159E+03  0.29811407330E+04  0.29103318114E+04 0.  0.
        3    1    3    3  502    0 -0.51051419233E+03  0.13445723031E+04 -0.54970758636E+03  0.15397005746E+04  0.10100000352E+00 0. -1.
       -3    1    3    3    0  502  0.51051419233E+03 -0.13445723031E+04 -0.96178485231E+02  0.14414401583E+04  0.10100000352E+00 0.  1.
</event>
<event>
 5   0  0.1228050E-05  0.2664511E+04  0.7818609E-02  0.8346613E-01
       -3   -1    0    0    0  501  0.00000000000E+00  0.00000000000E+00  0.22858030161E+04  0.22858030183E+04  0.10100000352E+00 0.  1.
        3   -1    0    0  501    0  0.00000000000E+00  0.00000000000E+00 -0.77649071729E+03  0.77649072386E+03  0.10100000352E+00 0. -1.
    10030    2    1    2    0    0  0.00000000000E+00  0.00000000000E+00  0.15093122988E+04  0.30622937422E+04  0.26645110899E+04 0.  0.
        4    1    3    3  502    0 -0.61751882208E+03  0.66079118659E+03 -0.36960994386E+03  0.97702999513E+03  0.12699999809E+01 0. -1.
       -4    1    3    3    0  502  0.61751882208E+03 -0.66079118659E+03  0.18789222426E+04  0.20852637470E+04  0.12699999809E+01 0.  1.
</event>
<event>
 5   0  0.1484379E-05  0.2653090E+04  0.7818609E-02  0.8350388E-01
       -1   -1    0    0    0  501  0.00000000000E+00  0.00000000000E+00  0.15516840429E+04  0.15516840429E+04  0.50400001928E-02 0. -1.
        1   -1    0    0  501    0  0.00000000000E+00  0.00000000000E+00 -0.11340722000E+04  0.11340722000E+04  0.50400001928E-02 0.  1.
    10030    2    1    2    0    0  0.00000000000E+00  0.00000000000E+00  0.41761184298E+03  0.26857562429E+04  0.26530900748E+04 0.  0.
        1    1    3    3  502    0  0.58385310693E+03 -0.88853158422E+03  0.10118887520E+04  0.14677505486E+04  0.50400001928E-02 0. -1.
       -1    1    3    3    0  502 -0.58385310693E+03  0.88853158422E+03 -0.59427690900E+03  0.12180056943E+04  0.50400001928E-02 0.  1.
</event>
<event>
 5   0  0.1474012E-05  0.2655889E+04  0.7818609E-02  0.8349461E-01
        1   -1    0    0  501    0  0.00000000000E+00  0.00000000000E+00  0.57982633784E+03  0.57982633786E+03  0.50400001928E-02 0. -1.
       -1   -1    0    0    0  501  0.00000000000E+00  0.00000000000E+00 -0.30413185496E+04  0.30413185496E+04  0.50400001928E-02 0.  1.
    10030    2    1    2    0    0  0.00000000000E+00  0.00000000000E+00 -0.24614922118E+04  0.36211448875E+04  0.26558890014E+04 0.  0.
        2    1    3    3  502    0  0.26762800792E+01 -0.23865141743E+03  0.55034419392E+03  0.59986697968E+03  0.25500000920E-02 0. -1.
       -2    1    3    3    0  502 -0.26762800792E+01  0.23865141743E+03 -0.30118364057E+04  0.30212779078E+04  0.25500000920E-02 0.  1.
</event>
<event>
 5   0  0.1438701E-05  0.2737061E+04  0.7818609E-02  0.8323079E-01
       -1   -1    0    0    0  501  0.00000000000E+00  0.00000000000E+00  0.10741087467E+04  0.10741087467E+04  0.50400001928E-02 0. -1.
        1   -1    0    0  501    0  0.00000000000E+00  0.00000000000E+00 -0.17436556505E+04  0.17436556505E+04  0.50400001928E-02 0.  1.
    10030    2    1    2    0    0  0.00000000000E+00  0.00000000000E+00 -0.66954690381E+03  0.28177643972E+04  0.27370610409E+04 0.  0.
        4    1    3    3  502    0  0.14947197747E+02 -0.32045505005E+03 -0.17043989615E+04  0.17343276192E+04  0.12699999809E+01 0.  1.
       -4    1    3    3    0  502 -0.14947197747E+02  0.32045505005E+03  0.10348520577E+04  0.10834367780E+04  0.12699999809E+01 0. -1.
</event>
<event>
 5   0  0.1495517E-05  0.2404993E+04  0.7818609E-02  0.8437637E-01
       -1   -1    0    0    0  501  0.00000000000E+00  0.00000000000E+00  0.81539935744E+03  0.81539935746E+03  0.50400001928E-02 0. -1.
        1   -1    0    0  501    0  0.00000000000E+00  0.00000000000E+00 -0.17733610851E+04  0.17733610851E+04  0.50400001928E-02 0.  1.
    10030    2    1    2    0    0  0.00000000000E+00  0.00000000000E+00 -0.95796172762E+03  0.25887604425E+04  0.24049927146E+04 0.  0.
        5    1    3    3  502    0 -0.54547568138E+03 -0.91860504610E+03 -0.10730548248E+04  0.15142152082E+04  0.46999998093E+01 0.  1.
       -5    1    3    3    0  502  0.54547568138E+03  0.91860504610E+03  0.11509309715E+03  0.10745452344E+04  0.46999998093E+01 0. -1.
</event>
<event>
 5   0  0.3652331E-05  0.2602859E+04  0.7818609E-02  0.8367231E-01
       -2   -1    0    0    0  501  0.00000000000E+00  0.00000000000E+00  0.15686833174E+04  0.15686833174E+04  0.25500000920E-02 0.  1.
        2   -1    0    0  501    0  0.00000000000E+00  0.00000000000E+00 -0.10797069708E+04  0.10797069708E+04  0.25500000920E-02 0. -1.
    10030    2    1    2    0    0  0.00000000000E+00  0.00000000000E+00  0.48897634654E+03  0.26483902882E+04  0.26028586691E+04 0.  0.
        1    1    3    3  502    0 -0.63535027895E+03 -0.10274390197E+04 -0.24814802333E+03  0.12332389702E+04  0.50400001928E-02 0.  1.
       -1    1    3    3    0  502  0.63535027895E+03  0.10274390197E+04  0.73712436987E+03  0.14151513180E+04  0.50400001928E-02 0. -1.
</event>
<event>
 5   0  0.1474012E-05  0.2624986E+04  0.7818609E-02  0.8359763E-01
        1   -1    0    0  501    0  0.00000000000E+00  0.00000000000E+00  0.14028992382E+04  0.14028992382E+04  0.50400001928E-02 0.  1.
       -1   -1    0    0    0  501  0.00000000000E+00  0.00000000000E+00 -0.12279130660E+04  0.12279130660E+04  0.50400001928E-02 0. -1.
    10030    2    1    2    0    0  0.00000000000E+00  0.00000000000E+00  0.17498617223E+03  0.26308123042E+04  0.26249863275E+04 0.  0.
        2    1    3    3  502    0  0.15488517322E+03  0.67183820866E+03 -0.10318035537E+04  0.12409571181E+04  0.25500000920E-02 0. -1.
       -2    1    3    3    0  502 -0.15488517322E+03 -0.67183820866E+03  0.12067897260E+04  0.13898551861E+04  0.25500000920E-02 0.  1.
</event>
<event>
 5   0  0.3568647E-05  0.2698280E+04  0.7818609E-02  0.8335563E-01
        2   -1    0    0  501    0  0.00000000000E+00  0.00000000000E+00  0.12578229122E+04  0.12578229122E+04  0.25500000920E-02 0.  1.
       -2   -1    0    0    0  501  0.00000000000E+00  0.00000000000E+00 -0.14470866704E+04  0.14470866704E+04  0.25500000920E-02 0. -1.
    10030    2    1    2    0    0  0.00000000000E+00  0.00000000000E+00 -0.18926375825E+03  0.27049095826E+04  0.26982800225E+04 0.  0.
        3    1    3    3  502    0 -0.36447089364E+02  0.10894413881E+04  0.70228535807E+03  0.12966941284E+04  0.10100000352E+00 0.  1.
       -3    1    3    3    0  502  0.36447089364E+02 -0.10894413881E+04 -0.89154911632E+03  0.14082154542E+04  0.10100000352E+00 0. -1.
</event>
<event>
 5   0  0.1438701E-05  0.2757079E+04  0.7818609E-02  0.8316719E-01
       -1   -1    0    0    0  501  0.00000000000E+00  0.00000000000E+00  0.18573568291E+04  0.18573568291E+04  0.50400001928E-02 0. -1.
        1   -1    0    0  501    0  0.00000000000E+00  0.00000000000E+00 -0.10231592548E+04  0.10231592549E+04  0.50400001928E-02 0.  1.
    10030    2    1    2    0    0  0.00000000000E+00  0.00000000000E+00  0.83419757425E+03  0.28805160840E+04  0.27570794905E+04 0.  0.
        4    1    3    3  502    0  0.76388555282E+03 -0.42370963205E+03 -0.69709878397E+03  0.11175863804E+04  0.12699999809E+01 0.  1.
       -4    1    3    3    0  502 -0.76388555282E+03  0.42370963205E+03  0.15312963582E+04  0.17629297036E+04  0.12699999809E+01 0. -1.
</event>
<event>
 5   0  0.3652331E-05  0.2634480E+04  0.7818609E-02  0.8356582E-01
        2   -1    0    0  501    0  0.00000000000E+00  0.00000000000E+00  0.12231115025E+04  0.12231115025E+04  0.25500000920E-02 0.  1.
       -2   -1    0    0    0  501  0.00000000000E+00  0.00000000000E+00 -0.14186128232E+04  0.14186128232E+04  0.25500000920E-02 0. -1.
    10030    2    1    2    0    0  0.00000000000E+00  0.00000000000E+00 -0.19550132071E+03  0.26417243257E+04  0.26344803371E+04 0.  0.
        1    1    3    3  502    0  0.11724672095E+04 -0.17673784418E+03 -0.67309312623E+03  0.13634404936E+04  0.50400001928E-02 0. -1.
       -1    1    3    3    0  502 -0.11724672095E+04  0.17673784418E+03  0.47759180552E+03  0.12782838322E+04  0.50400001928E-02 0.  1.
</event>
<event>
 5   0  0.1449521E-05  0.2624741E+04  0.7818609E-02  0.8359846E-01
       -1   -1    0    0    0  501  0.00000000000E+00  0.00000000000E+00  0.60614233672E+03  0.60614233674E+03  0.50400001928E-02 0. -1.
        1   -1    0    0  501    0  0.00000000000E+00  0.00000000000E+00 -0.28414377809E+04  0.28414377809E+04  0.50400001928E-02 0.  1.
    10030    2    1    2    0    0  0.00000000000E+00  0.00000000000E+00 -0.22352954441E+04  0.34475801176E+04  0.26247405481E+04 0.  0.
        3    1    3    3  502    0  0.34799951916E+03 -0.30137667841E+03  0.49660563377E+03  0.67716226513E+03  0.10100000352E+00 0. -1.
       -3    1    3    3    0  502 -0.34799951916E+03  0.30137667841E+03 -0.27319010779E+04  0.27704178525E+04  0.10100000352E+00 0.  1.
</event>
<event>
 5   0  0.3676724E-05  0.2032741E+04  0.7818609E-02  0.8591464E-01
       -2   -1    0    0    0  501  0.00000000000E+00  0.00000000000E+00  0.14154329828E+04  0.14154329828E+04  0.25500000920E-02 0.  1.
        2   -1    0    0  501    0  0.00000000000E+00  0.00000000000E+00 -0.72981846457E+03  0.72981846458E+03  0.25500000920E-02 0. -1.
    10030    2    1    2    0    0  0.00000000000E+00  0.00000000000E+00  0.68561451820E+03  0.21452514473E+04  0.20327411308E+04 0.  0.
        4    1    3    3  502    0  0.48849980412E+03  0.30904052701E+03  0.12250622905E+04  0.13545912056E+04  0.12699999809E+01 0.  1.
       -4    1    3    3    0  502 -0.48849980412E+03 -0.30904052701E+03 -0.53944777225E+03  0.79066024173E+03  0.12699999809E+01 0. -1.
</event>
<event>
 5   0  0.3514294E-05  0.2663340E+04  0.7818609E-02  0.8346999E-01
       -2   -1    0    0    0  501  0.00000000000E+00  0.00000000000E+00  0.74357445639E+03  0.74357445639E+03  0.25500000920E-02 0.  1.
        2   -1    0    0  501    0  0.00000000000E+00  0.00000000000E+00 -0.23848914956E+04  0.23848914956E+04  0.25500000920E-02 0. -1.
    10030    2    1    2    0    0  0.00000000000E+00  0.00000000000E+00 -0.16413170392E+04  0.31284659520E+04  0.26633395558E+04 0.  0.
        2    1    3    3  502    0 -0.63948215264E+03  0.31465377803E+03  0.50069432532E+03  0.87099898449E+03  0.25500000920E-02 0.  1.
       -2    1    3    3    0  502  0.63948215264E+03 -0.31465377803E+03 -0.21420113645E+04  0.22574669675E+04  0.25500000920E-02 0. -1.
</event>
<event>
 5   0  0.3497949E-05  0.2671316E+04  0.7818609E-02  0.8344372E-01
        2   -1    0    0  501    0  0.00000000000E+00  0.00000000000E+00  0.18535904272E+04  0.18535904272E+04  0.25500000920E-02 0. -1.
       -2   -1    0    0    0  501  0.00000000000E+00  0.00000000000E+00 -0.96244709124E+03  0.96244709124E+03  0.25500000920E-02 0.  1.
    10030    2    1    2    0    0  0.00000000000E+00  0.00000000000E+00  0.89114333597E+03  0.28160375184E+04  0.26713163160E+04 0.  0.
        5    1    3    3  502    0 -0.67080754444E+03  0.11137926389E+04  0.12332501600E+03  0.13060428606E+04  0.46999998093E+01 0.  1.
       -5    1    3    3    0  502  0.67080754444E+03 -0.11137926389E+04  0.76781831997E+03  0.15099946578E+04  0.46999998093E+01 0. -1.
</event>
<event>
 5   0  0.3514294E-05  0.2200983E+04  0.7818609E-02  0.8518019E-01
        2   -1    0    0  501    0  0.00000000000E+00  0.00000000000E+00  0.17953519685E+04  0.17953519685E+04  0.25500000920E-02 0. -1.
       -2   -1    0    0    0  501  0.00000000000E+00  0.00000000000E+00 -0.67456491801E+03  0.67456491801E+03  0.25500000920E-02 0.  1.
    10030    2    1    2    0    0  0.00000000000E+00  0.00000000000E+00  0.11207870505E+04  0.24699168866E+04  0.22009829199E+04 0.  0.
        2    1    3    3  502    0  0.65659072345E+03 -0.15535952495E+03 -0.41522206903E+03  0.79224827342E+03  0.25500000920E-02 0.  1.
       -2    1    3    3    0  502 -0.65659072345E+03  0.15535952495E+03  0.15360091196E+04  0.16776686131E+04  0.25500000920E-02 0. -1.
</event>
<event>
 5   0  0.3568647E-05  0.2605887E+04  0.7818609E-02  0.8366204E-01
       -2   -1    0    0    0  501  0.00000000000E+00  0.00000000000E+00  0.89009661823E+03  0.89009661824E+03  0.25500000920E-02 0. -1.
        2   -1    0    0  501    0  0.00000000000E+00  0.00000000000E+00 -0.19072787686E+04  0.19072787686E+04  0.25500000920E-02 0.  1.
    10030    2    1    2    0    0  0.00000000000E+00  0.00000000000E+00 -0.10171821504E+04  0.27973753869E+04  0.26058874742E+04 0.  0.
        3    1    3    3  502    0 -0.23154635149E+03  0.86590501441E+03  0.50654977666E+03  0.10295619910E+04  0.10100000352E+00 0. -1.
       -3    1    3    3    0  502  0.23154635149E+03 -0.86590501441E+03 -0.15237319271E+04  0.17678133959E+04  0.10100000352E+00 0.  1.
</event>
<event>
 5   0  0.3568647E-05  0.1436067E+04  0.7818609E-02  0.8928118E-01
       -2   -1    0    0    0  501  0.00000000000E+00  0.00000000000E+00  0.50018568618E+03  0.50018568618E+03  0.25500000920E-02 0. -1.
        2   -1    0    0  501    0  0.00000000000E+00  0.00000000000E+00 -0.10307608972E+04  0.10307608972E+04  0.25500000920E-02 0.  1.
    10030    2    1    2    0    0  0.00000000000E+00  0.00000000000E+00 -0.53057521103E+03  0.15309465834E+04  0.14360666373E+04 0.  0.
        3    1    3    3  502    0  0.51545844520E+03  0.14159541649E+02  0.26739933327E+03  0.58086170039E+03  0.10100000352E+00 0. -1.
       -3    1    3    3    0  502 -0.51545844520E+03 -0.14159541649E+02 -0.79797454431E+03  0.95008488300E+03  0.10100000352E+00 0.  1.
</event>
<event>
 5   0  0.3514294E-05  0.2156619E+04  0.7818609E-02  0.8536704E-01
       -2   -1    0    0    0  501  0.00000000000E+00  0.00000000000E+00  0.17527460154E+04  0.17527460154E+04  0.25500000920E-02 0.  1.
        2   -1    0    0  501    0  0.00000000000E+00  0.00000000000E+00 -0.66338825741E+03  0.66338825741E+03  0.25500000920E-02 0. -1.
    10030    2    1    2    0    0  0.00000000000E+00  0.00000000000E+00  0.10893577580E+04  0.24161342728E+04  0.21566187654E+04 0.  0.
        2    1    3    3  502    0  0.25622039180E+03  0.19430806517E+03  0.16977782279E+04  0.17279627960E+04  0.25500000920E-02 0.  1.
       -2    1    3    3    0  502 -0.25622039180E+03 -0.19430806517E+03 -0.60842046985E+03  0.68817147682E+03  0.25500000920E-02 0. -1.
</event>
<event>
 5   0  0.1228050E-05  0.2573309E+04  0.7818609E-02  0.8377324E-01
        3   -1    0    0  501    0  0.00000000000E+00  0.00000000000E+00  0.10728838067E+04  0.10728838114E+04  0.10100000352E+00 0. -1.
       -3   -1    0    0    0  501  0.00000000000E+00  0.00000000000E+00 -0.15430190785E+04  0.15430190818E+04  0.10100000352E+00 0.  1.
    10030    2    1    2    0    0  0.00000000000E+00  0.00000000000E+00 -0.47013527184E+03  0.26159028933E+04  0.25733093038E+04 0.  0.
        3    1    3    3  502    0  0.99455396165E+02  0.93286338752E+03 -0.11301847116E+04  0.14688236681E+04  0.10100000352E+00 0.  1.
       -3    1    3    3    0  502 -0.99455396165E+02 -0.93286338752E+03  0.66004943975E+03  0.11470792251E+04  0.10100000352E+00 0. -1.
</event>
<event>
 5   0  0.3497949E-05  0.1554219E+04  0.7818609E-02  0.8849177E-01
       -2   -1    0    0    0  501  0.00000000000E+00  0.00000000000E+00  0.11705143943E+04  0.11705143943E+04  0.25500000920E-02 0.  1.
        2   -1    0    0  501    0  0.00000000000E+00  0.00000000000E+00 -0.51592657780E+03  0.51592657780E+03  0.25500000920E-02 0. -1.
    10030    2    1    2    0    0  0.00000000000E+00  0.00000000000E+00  0.65458781648E+03  0.16864409721E+04  0.15542193998E+04 0.  0.
        5    1    3    3  502    0 -0.59227601036E+03  0.49116029212E+03  0.44540291155E+03  0.88906419825E+03  0.46999998093E+01 0. -1.
       -5    1    3    3    0  502  0.59227601036E+03 -0.49116029212E+03  0.20918490493E+03  0.79737677383E+03  0.46999998093E+01 0.  1.
</event>
<event>
 5   0  0.3568647E-05  0.2725574E+04  0.7818609E-02  0.8326754E-01
       -2   -1    0    0    0  501  0.00000000000E+00  0.00000000000E+00  0.93005216843E+03  0.93005216843E+03  0.25500000920E-02 0.  1.
        2   -1    0    0  501    0  0.00000000000E+00  0.00000000000E+00 -0.19968651212E+04  0.19968651212E+04  0.25500000920E-02 0. -1.
    10030    2    1    2    0    0  0.00000000000E+00  0.00000000000E+00 -0.10668129528E+04  0.29269172896E+04  0.27255742412E+04 0.  0.
        3    1    3    3  502    0 -0.73294484916E+03  0.61310406325E+03  0.51001013959E+03  0.10831505422E+04  0.10100000352E+00 0.  1.
       -3    1    3    3    0  502  0.73294484916E+03 -0.61310406325E+03 -0.15768230924E+04  0.18437667475E+04  0.10100000352E+00 0. -1.
</event>
<event>
 5   0  0.1438701E-05  0.2686595E+04  0.7818609E-02  0.8339367E-01
       -1   -1    0    0    0  501  0.00000000000E+00  0.00000000000E+00  0.94418336225E+03  0.94418336227E+03  0.50400001928E-02 0. -1.
        1   -1    0    0  501    0  0.00000000000E+00  0.00000000000E+00 -0.19111209892E+04  0.19111209892E+04  0.50400001928E-02 0.  1.
    10030    2    1    2    0    0  0.00000000000E+00  0.00000000000E+00 -0.96693762696E+03  0.28553043515E+04  0.26865953482E+04 0.  0.
        4    1    3    3  502    0  0.86772823977E+03  0.83198238168E+03  0.15358891053E+03  0.12119150745E+04  0.12699999809E+01 0. -1.
       -4    1    3    3    0  502 -0.86772823977E+03 -0.83198238168E+03 -0.11205265375E+04  0.16433892770E+04  0.12699999809E+01 0.  1.
</event>
<event>
 5   0  0.3652331E-05  0.2708386E+04  0.7818609E-02  0.8332289E-01
       -2   -1    0    0    0  501  0.00000000000E+00  0.00000000000E+00  0.15235565022E+04  0.15235565022E+04  0.25500000920E-02 0. -1.
        2   -1    0    0  501    0  0.00000000000E+00  0.00000000000E+00 -0.12036564224E+04  0.12036564224E+04  0.25500000920E-02 0.  1.
    10030    2    1    2    0    0  0.00000000000E+00  0.00000000000E+00  0.31990007987E+03  0.27272129246E+04  0.27083859169E+04 0.  0.
        1    1    3    3  502    0  0.12851246147E+04  0.10922492253E+02 -0.26983538937E+03  0.13131929460E+04  0.50400001928E-02 0.  1.
       -1    1    3    3    0  502 -0.12851246147E+04 -0.10922492253E+02  0.58973546924E+03  0.14140199786E+04  0.50400001928E-02 0. -1.
</event>
<event>
 5   0  0.3514294E-05  0.2658509E+04  0.7818609E-02  0.8348594E-01
        2   -1    0    0  501    0  0.00000000000E+00  0.00000000000E+00  0.15091860527E+04  0.15091860527E+04  0.25500000920E-02 0.  1.
       -2   -1    0    0    0  501  0.00000000000E+00  0.00000000000E+00 -0.11707748885E+04  0.11707748885E+04  0.25500000920E-02 0. -1.
    10030    2    1    2    0    0  0.00000000000E+00  0.00000000000E+00  0.33841116429E+03  0.26799609412E+04  0.26585087042E+04 0.  0.
        2    1    3    3  502    0 -0.96523576071E+03 -0.36222515023E+03  0.10150411831E+04  0.14467880759E+04  0.25500000920E-02 0.  1.
       -2    1    3    3    0  502  0.96523576071E+03  0.36222515023E+03 -0.67663001884E+03  0.12331728653E+04  0.25500000920E-02 0. -1.
</event>
<event>
 5   0  0.1474012E-05  0.2695537E+04  0.7818609E-02  0.8336455E-01
        1   -1    0    0  501    0  0.00000000000E+00  0.00000000000E+00  0.14661906220E+04  0.14661906220E+04  0.50400001928E-02 0.  1.
       -1   -1    0    0    0  501  0.00000000000E+00  0.00000000000E+00 -0.12389110789E+04  0.12389110789E+04  0.50400001928E-02 0. -1.
    10030    2    1    2    0    0  0.00000000000E+00  0.00000000000E+00  0.22727954308E+03  0.27051017009E+04  0.26955369078E+04 0.  0.
        2    1    3    3  502    0 -0.19503492894E+03 -0.25787277457E+03 -0.11994153001E+04  0.12422294689E+04  0.25500000920E-02 0. -1.
       -2    1    3    3    0  502  0.19503492894E+03  0.25787277457E+03  0.14266948432E+04  0.14628722319E+04  0.25500000920E-02 0.  1.
</event>
<event>
 5   0  0.3497949E-05  0.2541560E+04  0.7818609E-02  0.8388328E-01
       -2   -1    0    0    0  501  0.00000000000E+00  0.00000000000E+00  0.15759908157E+04  0.15759908157E+04  0.25500000920E-02 0.  1.
        2   -1    0    0  501    0  0.00000000000E+00  0.00000000000E+00 -0.10246769186E+04  0.10246769186E+04  0.25500000920E-02 0. -1.
    10030    2    1    2    0    0  0.00000000000E+00  0.00000000000E+00  0.55131389712E+03  0.26006677343E+04  0.25415596886E+04 0.  0.
        5    1    3    3  502    0 -0.38421796535E+03  0.59541662797E+03  0.13550422781E+04  0.15291520759E+04  0.46999998093E+01 0.  1.
       -5    1    3    3    0  502  0.38421796535E+03 -0.59541662797E+03 -0.80372838099E+03  0.10715156584E+04  0.46999998093E+01 0. -1.
</event>
<event>
 5   0  0.1449521E-05  0.2696452E+04  0.7818609E-02  0.8336157E-01
       -1   -1    0    0    0  501  0.00000000000E+00  0.00000000000E+00  0.10541919610E+04  0.10541919610E+04  0.50400001928E-02 0. -1.
        1   -1    0    0  501    0  0.00000000000E+00  0.00000000000E+00 -0.17242714127E+04  0.17242714127E+04  0.50400001928E-02 0.  1.
    10030    2    1    2    0    0  0.00000000000E+00  0.00000000000E+00 -0.67007945168E+03  0.27784633737E+04  0.26964517885E+04 0.  0.
        3    1    3    3  502    0  0.10246082949E+04 -0.76342266763E+03  0.10825025817E+03  0.12823238499E+04  0.10100000352E+00 0. -1.
       -3    1    3    3    0  502 -0.10246082949E+04  0.76342266763E+03 -0.77832970985E+03  0.14961395238E+04  0.10100000352E+00 0.  1.
</event>
<event>
 5   0  0.1449521E-05  0.2547824E+04  0.7818609E-02  0.8386143E-01
        1   -1    0    0  501    0  0.00000000000E+00  0.00000000000E+00  0.16871863496E+04  0.16871863496E+04  0.50400001928E-02 0.  1.
       -1   -1    0    0    0  501  0.00000000000E+00  0.00000000000E+00 -0.96186843017E+03  0.96186843018E+03  0.50400001928E-02 0. -1.
    10030    2    1    2    0    0  0.00000000000E+00  0.00000000000E+00  0.72531791939E+03  0.26490547797E+04  0.25478236089E+04 0.  0.
        3    1    3    3  502    0 -0.52575553656E+03 -0.56683216192E+03  0.14153764415E+04  0.16127641071E+04  0.10100000352E+00 0.  1.
       -3    1    3    3    0  502  0.52575553656E+03  0.56683216192E+03 -0.69005852209E+03  0.10362906726E+04  0.10100000352E+00 0. -1.
</event>
<event>
 5   0  0.1438701E-05  0.2045784E+04  0.7818609E-02  0.8585509E-01
        1   -1    0    0  501    0  0.00000000000E+00  0.00000000000E+00  0.97314524143E+03  0.97314524144E+03  0.50400001928E-02 0. -1.
       -1   -1    0    0    0  501  0.00000000000E+00  0.00000000000E+00 -0.10751817896E+04  0.10751817896E+04  0.50400001928E-02 0.  1.
    10030    2    1    2    0    0  0.00000000000E+00  0.00000000000E+00 -0.10203654816E+03  0.20483270310E+04  0.20457839986E+04 0.  0.
        4    1    3    3  502    0 -0.35539085858E+03 -0.27559556276E+03  0.86884615551E+03  0.97834085647E+03  0.12699999809E+01 0. -1.
       -4    1    3    3    0  502  0.35539085858E+03  0.27559556276E+03 -0.97088270367E+03  0.10699861746E+04  0.12699999809E+01 0.  1.
</event>
<event>
 5   0  0.3676724E-05  0.2691094E+04  0.7818609E-02  0.8337900E-01
        2   -1    0    0  501    0  0.00000000000E+00  0.00000000000E+00  0.13191885564E+04  0.13191885564E+04  0.25500000920E-02 0. -1.
       -2   -1    0    0    0  501  0.00000000000E+00  0.00000000000E+00 -0.13724321557E+04  0.13724321557E+04  0.25500000920E-02 0.  1.
    10030    2    1    2    0    0  0.00000000000E+00  0.00000000000E+00 -0.53243599238E+02  0.26916207121E+04  0.26910940483E+04 0.  0.
        4    1    3    3  502    0 -0.30260233694E+03 -0.98106268072E+03  0.84328574353E+03  0.13286025049E+04  0.12699999809E+01 0. -1.
       -4    1    3    3    0  502  0.30260233694E+03  0.98106268072E+03 -0.89652934277E+03  0.13630182072E+04  0.12699999809E+01 0.  1.
</event>
<event>
 5   0  0.3514294E-05  0.2154044E+04  0.7818609E-02  0.8537803E-01
        2   -1    0    0  501    0  0.00000000000E+00  0.00000000000E+00  0.18156213520E+04  0.18156213520E+04  0.25500000920E-02 0.  1.
       -2   -1    0    0    0  501  0.00000000000E+00  0.00000000000E+00 -0.63888671144E+03  0.63888671145E+03  0.25500000920E-02 0. -1.
    10030    2    1    2    0    0  0.00000000000E+00  0.00000000000E+00  0.11767346406E+04  0.24545080635E+04  0.21540439687E+04 0.  0.
        2    1    3    3  502    0 -0.10500388538E+04  0.13411412489E+03  0.81457273043E+03  0.13357009120E+04  0.25500000920E-02 0.  1.
       -2    1    3    3    0  502  0.10500388538E+04 -0.13411412489E+03  0.36216191013E+03  0.11188071515E+04  0.25500000920E-02 0. -1.
</event>
<event>
 5   0  0.3676724E-05  0.2827806E+04  0.7818609E-02  0.8294687E-01
        2   -1    0    0  501    0  0.00000000000E+00  0.00000000000E+00  0.15492666240E+04  0.15492666240E+04  0.25500000920E-02 0. -1.
       -2   -1    0    0    0  501  0.00000000000E+00  0.00000000000E+00 -0.12903664298E+04  0.12903664298E+04  0.25500000920E-02 0.  1.
    10030    2    1    2    0    0  0.00000000000E+00  0.00000000000E+00  0.25890019420E+03  0.28396330538E+04  0.28278059640E+04 0.  0.
        4    1    3    3  502    0 -0.12399047132E+04  0.34222862669E+02 -0.55205258884E+03  0.13576813234E+04  0.12699999809E+01 0.  1.
       -4    1    3    3    0  502  0.12399047132E+04 -0.34222862669E+02  0.81095278304E+03  0.14819517304E+04  0.12699999809E+01 0. -1.
</event>
<event>
 5   0  0.3652331E-05  0.2724238E+04  0.7818609E-02  0.8327183E-01
       -2   -1    0    0    0  501  0.00000000000E+00  0.00000000000E+00  0.14014032314E+04  0.14014032314E+04  0.25500000920E-02 0.  1.
        2   -1    0    0  501    0  0.00000000000E+00  0.00000000000E+00 -0.13239362178E+04  0.13239362178E+04  0.25500000920E-02 0. -1.
    10030    2    1    2    0    0  0.00000000000E+00  0.00000000000E+00  0.77467013653E+02  0.27253394492E+04  0.27242382376E+04 0.  0.
        1    1    3    3  502    0  0.62744869432E+03 -0.92225315799E+02 -0.11672292544E+04  0.13283905695E+04  0.50400001928E-02 0. -1.
       -1    1    3    3    0  502 -0.62744869432E+03  0.92225315799E+02  0.12446962680E+04  0.13969488797E+04  0.50400001928E-02 0.  1.
</event>
<event>
 5   0  0.3568647E-05  0.2687936E+04  0.7818609E-02  0.8338930E-01
        2   -1    0    0  501    0  0.00000000000E+00  0.00000000000E+00  0.13957898179E+04  0.13957898179E+04  0.25500000920E-02 0. -1.
       -2   -1    0    0    0  501  0.00000000000E+00  0.00000000000E+00 -0.12940704191E+04  0.12940704192E+04  0.25500000920E-02 0.  1.
    10030    2    1    2    0    0  0.00000000000E+00  0.00000000000E+00  0.10171939873E+03  0.26898602370E+04  0.26879362453E+04 0.  0.
        3    1    3    3  502    0  0.13342141060E+04  0.94487747386E+02  0.18208360833E+03  0.13498924645E+04  0.10100000352E+00 0.  1.
       -3    1    3    3    0  502 -0.13342141060E+04 -0.94487747386E+02 -0.80364209602E+02  0.13399677725E+04  0.10100000352E+00 0. -1.
</event>
<event>
 5   0  0.1484379E-05  0.2581366E+04  0.7818609E-02  0.8374558E-01
       -1   -1    0    0    0  501  0.00000000000E+00  0.00000000000E+00  0.19183038382E+04  0.19183038382E+04  0.50400001928E-02 0. -1.
        1   -1    0    0  501    0  0.00000000000E+00  0.00000000000E+00 -0.86840386180E+03  0.86840386181E+03  0.50400001928E-02 0.  1.
    10030    2    1    2    0    0  0.00000000000E+00  0.00000000000E+00  0.10498999764E+04  0.27867077001E+04  0.25813658875E+04 0.  0.
        1    1    3    3  502    0 -0.93757394368E+03 -0.37711901005E+03  0.13916855223E+04  0.17198989042E+04  0.50400001928E-02 0. -1.
       -1    1    3    3    0  502  0.93757394368E+03  0.37711901005E+03 -0.34178554584E+03  0.10668087959E+04  0.50400001928E-02 0.  1.
</event>
<event>
 5   0  0.3514294E-05  0.2939621E+04  0.7818609E-02  0.8261186E-01
       -2   -1    0    0    0  501  0.00000000000E+00  0.00000000000E+00  0.11629834965E+04  0.11629834965E+04  0.25500000920E-02 0. -1.
        2   -1    0    0  501    0  0.00000000000E+00  0.00000000000E+00 -0.18575872232E+04  0.18575872232E+04  0.25500000920E-02 0.  1.
    10030    2    1    2    0    0  0.00000000000E+00  0.00000000000E+00 -0.69460372672E+03  0.30205707197E+04  0.29396212572E+04 0.  0.
        2    1    3    3  502    0 -0.10493506533E+04 -0.86203020078E+03  0.23041765052E+03  0.13774342650E+04  0.25500000920E-02 0.  1.
       -2    1    3    3    0  502  0.10493506533E+04  0.86203020078E+03 -0.92502137723E+03  0.16431364548E+04  0.25500000920E-02 0. -1.
</event>
<event>
 5   0  0.1474012E-05  0.2669125E+04  0.7818609E-02  0.8345093E-01
        1   -1    0    0  501    0  0.00000000000E+00  0.00000000000E+00  0.18483253433E+04  0.18483253433E+04  0.50400001928E-02 0.  1.
       -1   -1    0    0    0  501  0.00000000000E+00  0.00000000000E+00 -0.96360576020E+03  0.96360576021E+03  0.50400001928E-02 0. -1.
    10030    2    1    2    0    0  0.00000000000E+00  0.00000000000E+00  0.88471958310E+03  0.28119311035E+04  0.26691249109E+04 0.  0.
        2    1    3    3  502    0 -0.16848503248E+03 -0.11443247054E+04 -0.25898423303E+03  0.11853012573E+04  0.25500000920E-02 0.  1.
       -2    1    3    3    0  502  0.16848503248E+03  0.11443247054E+04  0.11437038161E+04  0.16266298462E+04  0.25500000920E-02 0. -1.
</event>
<event>
 5   0  0.3514294E-05  0.2676374E+04  0.7818609E-02  0.8342712E-01
       -2   -1    0    0    0  501  0.00000000000E+00  0.00000000000E+00  0.13213306071E+04  0.13213306071E+04  0.25500000920E-02 0. -1.
        2   -1    0    0  501    0  0.00000000000E+00  0.00000000000E+00 -0.13552587323E+04  0.13552587323E+04  0.25500000920E-02 0.  1.
    10030    2    1    2    0    0  0.00000000000E+00  0.00000000000E+00 -0.33928125112E+02  0.26765893394E+04  0.26763742963E+04 0.  0.
        2    1    3    3  502    0  0.87762725844E+03 -0.99062998872E+03 -0.21488768058E+03  0.13408035257E+04  0.25500000920E-02 0.  1.
       -2    1    3    3    0  502 -0.87762725844E+03  0.99062998872E+03  0.18095955547E+03  0.13357858137E+04  0.25500000920E-02 0. -1.
</event>
<event>
 5   0  0.3676724E-05  0.2689346E+04  0.7818609E-02  0.8338470E-01
        2   -1    0    0  501    0  0.00000000000E+00  0.00000000000E+00  0.89209555832E+03  0.89209555833E+03  0.25500000920E-02 0. -1.
       -2   -1    0    0    0  501  0.00000000000E+00  0.00000000000E+00 -0.20268520548E+04  0.20268520548E+04  0.25500000920E-02 0.  1.
    10030    2    1    2    0    0  0.00000000000E+00  0.00000000000E+00 -0.11347564965E+04  0.29189476131E+04  0.26893461774E+04 0.  0.
        4    1    3    3  502    0 -0.92571175563E+03  0.57786435471E+02 -0.16240796414E+04  0.18702721249E+04  0.12699999809E+01 0.  1.
       -4    1    3    3    0  502  0.92571175563E+03 -0.57786435471E+02  0.48932314490E+03  0.10486754883E+04  0.12699999809E+01 0. -1.
</event>
<event>
 5   0  0.1484379E-05  0.1661586E+04  0.7818609E-02  0.8783581E-01
        1   -1    0    0  501    0  0.00000000000E+00  0.00000000000E+00  0.92226681817E+03  0.92226681818E+03  0.50400001928E-02 0.  1.
       -1   -1    0    0    0  501  0.00000000000E+00  0.00000000000E+00 -0.74839230373E+03  0.74839230375E+03  0.50400001928E-02 0. -1.
    10030    2    1    2    0    0  0.00000000000E+00  0.00000000000E+00  0.17387451444E+03  0.16706591219E+04  0.16615864572E+04 0.  0.
        1    1    3    3  502    0 -0.55531890740E+03  0.11543421212E+03 -0.52343031449E+03  0.77180531250E+03  0.50400001928E-02 0. -1.
       -1    1    3    3    0  502  0.55531890740E+03 -0.11543421212E+03  0.69730482893E+03  0.89885380943E+03  0.50400001928E-02 0.  1.
</event>
<event>
 5   0  0.1449521E-05  0.2644763E+04  0.7818609E-02  0.8353153E-01
        1   -1    0    0  501    0  0.00000000000E+00  0.00000000000E+00  0.20643716922E+04  0.20643716922E+04  0.50400001928E-02 0.  1.
       -1   -1    0    0    0  501  0.00000000000E+00  0.00000000000E+00 -0.84708263006E+03  0.84708263007E+03  0.50400001928E-02 0. -1.
    10030    2    1    2    0    0  0.00000000000E+00  0.00000000000E+00  0.12172890622E+04  0.29114543223E+04  0.26447634318E+04 0.  0.
        3    1    3    3  502    0  0.41489470661E+03  0.11743336602E+04  0.11942638957E+03  0.12511833742E+04  0.10100000352E+00 0.  1.
       -3    1    3    3    0  502 -0.41489470661E+03 -0.11743336602E+04  0.10978626726E+04  0.16602709481E+04  0.10100000352E+00 0. -1.
</event>
<event>
 5   0  0.3568647E-05  0.2616483E+04  0.7818609E-02  0.8362624E-01
        2   -1    0    0  501    0  0.00000000000E+00  0.00000000000E+00  0.10387495747E+04  0.10387495747E+04  0.25500000920E-02 0.  1.
       -2   -1    0    0    0  501  0.00000000000E+00  0.00000000000E+00 -0.16476497957E+04  0.16476497957E+04  0.25500000920E-02 0. -1.
    10030    2    1    2    0    0  0.00000000000E+00  0.00000000000E+00 -0.60890022097E+03  0.26863993704E+04  0.26164827724E+04 0.  0.
        3    1    3    3  502    0 -0.12676826369E+03 -0.10082559587E+04  0.54148701864E+03  0.11514592796E+04  0.10100000352E+00 0.  1.
       -3    1    3    3    0  502  0.12676826369E+03  0.10082559587E+04 -0.11503872396E+04  0.15349400908E+04  0.10100000352E+00 0. -1.
</event>
<event>
 5   0  0.1495517E-05  0.2551021E+04  0.7818609E-02  0.8385031E-01
       -1   -1    0    0    0  501  0.00000000000E+00  0.00000000000E+00  0.24233933034E+04  0.24233933034E+04  0.50400001928E-02 0. -1.
        1   -1    0    0  501    0  0.00000000000E+00  0.00000000000E+00 -0.67134239819E+03  0.67134239820E+03  0.50400001928E-02 0.  1.
    10030    2    1    2    0    0  0.00000000000E+00  0.00000000000E+00  0.17520509052E+04  0.30947357016E+04  0.25510207150E+04 0.  0.
        5    1    3    3  502    0  0.53567689380E+03  0.48124962012E+02 -0.52704349947E+03  0.75303564780E+03  0.46999998093E+01 0.  1.
       -5    1    3    3    0  502 -0.53567689380E+03 -0.48124962012E+02  0.22790944046E+04  0.23417000538E+04  0.46999998093E+01 0. -1.
</event>
<event>
 5   0  0.1438701E-05  0.2716634E+04  0.7818609E-02  0.8329628E-01
        1   -1    0    0  501    0  0.00000000000E+00  0.00000000000E+00  0.11674964219E+04  0.11674964219E+04  0.50400001928E-02 0.  1.
       -1   -1    0    0    0  501  0.00000000000E+00  0.00000000000E+00 -0.15803259165E+04  0.15803259165E+04  0.50400001928E-02 0. -1.
    10030    2    1    2    0    0  0.00000000000E+00  0.00000000000E+00 -0.41282949465E+03  0.27478223384E+04  0.27166338384E+04 0.  0.
        4    1    3    3  502    0 -0.14390208592E+03  0.12642312638E+04  0.27447458298E+03  0.13016629396E+04  0.12699999809E+01 0.  1.
       -4    1    3    3    0  502  0.14390208592E+03 -0.12642312638E+04 -0.68730407762E+03  0.14461593988E+04  0.12699999809E+01 0. -1.
</event>
<event>
 5   0  0.3676724E-05  0.2605733E+04  0.7818609E-02  0.8366257E-01
        2   -1    0    0  501    0  0.00000000000E+00  0.00000000000E+00  0.13116732654E+04  0.13116732654E+04  0.25500000920E-02 0. -1.
       -2   -1    0    0    0  501  0.00000000000E+00  0.00000000000E+00 -0.12941184094E+04  0.12941184094E+04  0.25500000920E-02 0.  1.
    10030    2    1    2    0    0  0.00000000000E+00  0.00000000000E+00  0.17554856003E+02  0.26057916748E+04  0.26057325418E+04 0.  0.
        4    1    3    3  502    0 -0.27857701151E+03  0.12072596737E+04  0.41174790562E+03  0.13056105934E+04  0.12699999809E+01 0.  1.
       -4    1    3    3    0  502  0.27857701151E+03 -0.12072596737E+04 -0.39419304962E+03  0.13001810814E+04  0.12699999809E+01 0. -1.
</event>
<event>
 5   0  0.3652331E-05  0.2632060E+04  0.7818609E-02  0.8357392E-01
        2   -1    0    0  501    0  0.00000000000E+00  0.00000000000E+00  0.23727653446E+04  0.23727653446E+04  0.25500000920E-02 0.  1.
       -2   -1    0    0    0  501  0.00000000000E+00  0.00000000000E+00 -0.72992261467E+03  0.72992261468E+03  0.25500000920E-02 0. -1.
    10030    2    1    2    0    0  0.00000000000E+00  0.00000000000E+00  0.16428427299E+04  0.31026879592E+04  0.26320600938E+04 0.  0.
        1    1    3    3  502    0  0.10579828831E+03  0.13108349613E+04  0.87981106901E+03  0.15822607531E+04  0.50400001928E-02 0.  1.
       -1    1    3    3    0  502 -0.10579828831E+03 -0.13108349613E+04  0.76303166088E+03  0.15204272061E+04  0.50400001928E-02 0. -1.
</event>
<event>
 5   0  0.1474012E-05  0.2707677E+04  0.7818609E-02  0.8332518E-01
        1   -1    0    0  501    0  0.00000000000E+00  0.00000000000E+00  0.20469987787E+04  0.20469987787E+04  0.50400001928E-02 0. -1.
       -1   -1    0    0    0  501  0.00000000000E+00  0.00000000000E+00 -0.89539787090E+03  0.89539787091E+03  0.50400001928E-02 0.  1.
    10030    2    1    2    0    0  0.00000000000E+00  0.00000000000E+00  0.11516009078E+04  0.29423966497E+04  0.27076767519E+04 0.  0.
        2    1    3    3  502    0  0.52920232443E+03  0.12438103998E+04  0.49333433000E+03  0.14389225733E+04  0.25500000920E-02 0.  1.
       -2    1    3    3    0  502 -0.52920232443E+03 -0.12438103998E+04  0.65826657785E+03  0.15034740764E+04  0.25500000920E-02 0. -1.
</event>
<event>
 5   0  0.3514294E-05  0.2727686E+04  0.7818609E-02  0.8326077E-01
        2   -1    0    0  501    0  0.00000000000E+00  0.00000000000E+00  0.21225670562E+04  0.21225670562E+04  0.25500000920E-02 0. -1.
       -2   -1    0    0    0  501  0.00000000000E+00  0.00000000000E+00 -0.87632952338E+03  0.87632952338E+03  0.25500000920E-02 0.  1.
    10030    2    1    2    0    0  0.00000000000E+00  0.00000000000E+00  0.12462375328E+04  0.29988965796E+04  0.27276863285E+04 0.  0.
        2    1    3    3  502    0  0.51830327848E+03  0.11145284817E+04  0.12728580033E+04  0.17694574088E+04  0.25500000920E-02 0. -1.
       -2    1    3    3    0  502 -0.51830327848E+03 -0.11145284817E+04 -0.26620470514E+02  0.12294391707E+04  0.25500000920E-02 0.  1.
</event>
<event>
 5   0  0.3652331E-05  0.2743703E+04  0.7818609E-02  0.8320962E-01
        2   -1    0    0  501    0  0.00000000000E+00  0.00000000000E+00  0.13377739313E+04  0.13377739313E+04  0.25500000920E-02 0. -1.
       -2   -1    0    0    0  501  0.00000000000E+00  0.00000000000E+00 -0.14067975692E+04  0.14067975692E+04  0.25500000920E-02 0.  1.
    10030    2    1    2    0    0  0.00000000000E+00  0.00000000000E+00 -0.69023637844E+02  0.27445715005E+04  0.27437034204E+04 0.  0.
        1    1    3    3  502    0 -0.87997928663E+03 -0.91788965132E+03 -0.54954572976E+03  0.13852384149E+04  0.50400001928E-02 0.  1.
       -1    1    3    3    0  502  0.87997928663E+03  0.91788965132E+03  0.48052209192E+03  0.13593330856E+04  0.50400001928E-02 0. -1.
</event>
<event>
 5   0  0.3568647E-05  0.2681048E+04  0.7818609E-02  0.8341181E-01
        2   -1    0    0  501    0  0.00000000000E+00  0.00000000000E+00  0.18682597616E+04  0.18682597616E+04  0.25500000920E-02 0. -1.
       -2   -1    0    0    0  501  0.00000000000E+00  0.00000000000E+00 -0.96185998906E+03  0.96185998906E+03  0.25500000920E-02 0.  1.
    10030    2    1    2    0    0  0.00000000000E+00  0.00000000000E+00  0.90639977253E+03  0.28301197506E+04  0.26810477906E+04 0.  0.
        3    1    3    3  502    0 -0.13281716258E+04 -0.18134918116E+03  0.44394239794E+03  0.14120949883E+04  0.10100000352E+00 0.  1.
       -3    1    3    3    0  502  0.13281716258E+04  0.18134918116E+03  0.46245737459E+03  0.14180247623E+04  0.10100000352E+00 0. -1.
</event>
<event>
 5   0  0.3514294E-05  0.2721735E+04  0.7818609E-02  0.8327987E-01
       -2   -1    0    0    0  501  0.00000000000E+00  0.00000000000E+00  0.93777686018E+03  0.93777686019E+03  0.25500000920E-02 0. -1.
        2   -1    0    0  501    0  0.00000000000E+00  0.00000000000E+00 -0.19748413046E+04  0.19748413046E+04  0.25500000920E-02 0.  1.
    10030    2    1    2    0    0  0.00000000000E+00  0.00000000000E+00 -0.10370644444E+04  0.29126181647E+04  0.27217350921E+04 0.  0.
        2    1    3    3  502    0  0.36933829108E+03 -0.10976507464E+04  0.24622918421E+03  0.11840087608E+04  0.25500000920E-02 0. -1.
       -2    1    3    3    0  502 -0.36933829108E+03  0.10976507464E+04 -0.12832936286E+04  0.17286094040E+04  0.25500000920E-02 0.  1.
</event>
<event>
 5   0  0.1495517E-05  0.2490674E+04  0.7818609E-02  0.8406315E-01
       -1   -1    0    0    0  501  0.00000000000E+00  0.00000000000E+00  0.12773754223E+04  0.12773754223E+04  0.50400001928E-02 0. -1.
        1   -1    0    0  501    0  0.00000000000E+00  0.00000000000E+00 -0.12141025884E+04  0.12141025884E+04  0.50400001928E-02 0.  1.
    10030    2    1    2    0    0  0.00000000000E+00  0.00000000000E+00  0.63272833854E+02  0.24914780107E+04  0.24906744521E+04 0.  0.
        5    1    3    3  502    0  0.63333553147E+03  0.97090632441E+03 -0.42355954579E+03  0.12341789842E+04  0.46999998093E+01 0.  1.
       -5    1    3    3    0  502 -0.63333553147E+03 -0.97090632441E+03  0.48683237965E+03  0.12572990265E+04  0.46999998093E+01 0. -1.
</event>
<event>
 5   0  0.3676724E-05  0.2361571E+04  0.7818609E-02  0.8454033E-01
       -2   -1    0    0    0  501  0.00000000000E+00  0.00000000000E+00  0.59753176472E+03  0.59753176473E+03  0.25500000920E-02 0. -1.
        2   -1    0    0  501    0  0.00000000000E+00  0.00000000000E+00 -0.23333553640E+04  0.23333553640E+04  0.25500000920E-02 0.  1.
    10030    2    1    2    0    0  0.00000000000E+00  0.00000000000E+00 -0.17358235993E+04  0.29308871288E+04  0.23615706201E+04 0.  0.
        4    1    3    3  502    0  0.31227193301E+03  0.35487591641E+03 -0.22107998866E+04  0.22607716443E+04  0.12699999809E+01 0.  1.
       -4    1    3    3    0  502 -0.31227193301E+03 -0.35487591641E+03  0.47497628726E+03  0.67011548449E+03  0.12699999809E+01 0. -1.
</event>
<event>
 5   0  0.1449521E-05  0.2245499E+04  0.7818609E-02  0.8499726E-01
        1   -1    0    0  501    0  0.00000000000E+00  0.00000000000E+00  0.12639958455E+04  0.12639958456E+04  0.50400001928E-02 0.  1.
       -1   -1    0    0    0  501  0.00000000000E+00  0.00000000000E+00 -0.99728681130E+03  0.99728681131E+03  0.50400001928E-02 0. -1.
    10030    2    1    2    0    0  0.00000000000E+00  0.00000000000E+00  0.26670903424E+03  0.22612826569E+04  0.22454989524E+04 0.  0.
        3    1    3    3  502    0 -0.13423325100E+01  0.10775436370E+04 -0.18424188700E+03  0.10931821324E+04  0.10100000352E+00 0. -1.
       -3    1    3    3    0  502  0.13423325100E+01 -0.10775436370E+04  0.45095092124E+03  0.11681005244E+04  0.10100000352E+00 0.  1.
</event>
<event>
 5   0  0.1484379E-05  0.2706310E+04  0.7818609E-02  0.8332961E-01
       -1   -1    0    0    0  501  0.00000000000E+00  0.00000000000E+00  0.11547894025E+04  0.11547894025E+04  0.50400001928E-02 0. -1.
        1   -1    0    0  501    0  0.00000000000E+00  0.00000000000E+00 -0.15855949767E+04  0.15855949767E+04  0.50400001928E-02 0.  1.
    10030    2    1    2    0    0  0.00000000000E+00  0.00000000000E+00 -0.43080557415E+03  0.27403843792E+04  0.27063098683E+04 0.  0.
        1    1    3    3  502    0  0.10535327736E+04 -0.84526965882E+03 -0.13303878469E+03  0.13572440530E+04  0.50400001928E-02 0. -1.
       -1    1    3    3    0  502 -0.10535327736E+04  0.84526965882E+03 -0.29776678946E+03  0.13831403262E+04  0.50400001928E-02 0.  1.
</event>
<event>
 5   0  0.3568647E-05  0.2757933E+04  0.7818609E-02  0.8316449E-01
        2   -1    0    0  501    0  0.00000000000E+00  0.00000000000E+00  0.28275953603E+04  0.28275953603E+04  0.25500000920E-02 0.  1.
       -2   -1    0    0    0  501  0.00000000000E+00  0.00000000000E+00 -0.67249680331E+03  0.67249680331E+03  0.25500000920E-02 0. -1.
    10030    2    1    2    0    0  0.00000000000E+00  0.00000000000E+00  0.21550985570E+04  0.35000921637E+04  0.27579331688E+04 0.  0.
        3    1    3    3  502    0  0.16314886918E+03  0.12446000483E+04  0.35304783830E+03  0.13039515405E+04  0.10100000352E+00 0. -1.
       -3    1    3    3    0  502 -0.16314886918E+03 -0.12446000483E+04  0.18020507187E+04  0.21961406232E+04  0.10100000352E+00 0.  1.
</event>
<event>
 5   0  0.1228050E-05  0.2513601E+04  0.7818609E-02  0.8398156E-01
       -3   -1    0    0    0  501  0.00000000000E+00  0.00000000000E+00  0.29724255190E+04  0.29724255207E+04  0.10100000352E+00 0.  1.
        3   -1    0    0  501    0  0.00000000000E+00  0.00000000000E+00 -0.53140007499E+03  0.53140008459E+03  0.10100000352E+00 0. -1.
    10030    2    1    2    0    0  0.00000000000E+00  0.00000000000E+00  0.24410254440E+04  0.35038256053E+04  0.25136007348E+04 0.  0.
        4    1    3    3  502    0 -0.60790782990E+03 -0.54509205878E+03  0.25523471675E+04  0.26797677061E+04  0.12699999809E+01 0.  1.
       -4    1    3    3    0  502  0.60790782990E+03  0.54509205878E+03 -0.11132172352E+03  0.82405789920E+03  0.12699999809E+01 0. -1.
</event>
<event>
 5   0  0.1449521E-05  0.3313042E+04  0.7818609E-02  0.8159585E-01
        1   -1    0    0  501    0  0.00000000000E+00  0.00000000000E+00  0.22029406973E+04  0.22029406973E+04  0.50400001928E-02 0. -1.
       -1   -1    0    0    0  501  0.00000000000E+00  0.00000000000E+00 -0.12456361809E+04  0.12456361809E+04  0.50400001928E-02 0.  1.
    10030    2    1    2    0    0  0.00000000000E+00  0.00000000000E+00  0.95730451636E+03  0.34485768782E+04  0.33130424911E+04 0.  0.
        3    1    3    3  502    0 -0.13589421431E+04  0.28115400413E+03 -0.46294866195E+03  0.14629056005E+04  0.10100000352E+00 0.  1.
       -3    1    3    3    0  502  0.13589421431E+04 -0.28115400413E+03  0.14202531783E+04  0.19856712777E+04  0.10100000352E+00 0. -1.
</event>
<event>
 5   0  0.1438701E-05  0.2667518E+04  0.7818609E-02  0.8345622E-01
        1   -1    0    0  501    0  0.00000000000E+00  0.00000000000E+00  0.10682676569E+04  0.10682676569E+04  0.50400001928E-02 0.  1.
       -1   -1    0    0    0  501  0.00000000000E+00  0.00000000000E+00 -0.16652319089E+04  0.16652319089E+04  0.50400001928E-02 0. -1.
    10030    2    1    2    0    0  0.00000000000E+00  0.00000000000E+00 -0.59696425205E+03  0.27334995658E+04  0.26675182395E+04 0.  0.
        4    1    3    3  502    0  0.11963813771E+04  0.35797556482E+03  0.18154570057E+03  0.12619173344E+04  0.12699999809E+01 0.  1.
       -4    1    3    3    0  502 -0.11963813771E+04 -0.35797556482E+03 -0.77850995261E+03  0.14715822314E+04  0.12699999809E+01 0. -1.
</event>
<event>
 5   0  0.1495517E-05  0.2083655E+04  0.7818609E-02  0.8568478E-01
        1   -1    0    0  501    0  0.00000000000E+00  0.00000000000E+00  0.84616177497E+03  0.84616177498E+03  0.50400001928E-02 0.  1.
       -1   -1    0    0    0  501  0.00000000000E+00  0.00000000000E+00 -0.12827383963E+04  0.12827383963E+04  0.50400001928E-02 0. -1.
    10030    2    1    2    0    0  0.00000000000E+00  0.00000000000E+00 -0.43657662133E+03  0.21289001713E+04  0.20836546722E+04 0.  0.
        5    1    3    3  502    0 -0.17664870062E+03  0.23484190962E+02  0.83046358481E+03  0.84938102542E+03  0.46999998093E+01 0.  1.
       -5    1    3    3    0  502  0.17664870062E+03 -0.23484190962E+02 -0.12670402061E+04  0.12795191459E+04  0.46999998093E+01 0. -1.
</event>
<event>
 5   0  0.1438701E-05  0.2551782E+04  0.7818609E-02  0.8384767E-01
        1   -1    0    0  501    0  0.00000000000E+00  0.00000000000E+00  0.90062065730E+03  0.90062065731E+03  0.50400001928E-02 0.  1.
       -1   -1    0    0    0  501  0.00000000000E+00  0.00000000000E+00 -0.18075285914E+04  0.18075285914E+04  0.50400001928E-02 0. -1.
    10030    2    1    2    0    0  0.00000000000E+00  0.00000000000E+00 -0.90690793414E+03  0.27081492488E+04  0.25517817996E+04 0.  0.
        4    1    3    3  502    0 -0.87169847217E+03 -0.25620937052E+03 -0.14041091780E+04  0.16724310642E+04  0.12699999809E+01 0. -1.
       -4    1    3    3    0  502  0.87169847217E+03  0.25620937052E+03  0.49720124388E+03  0.10357181845E+04  0.12699999809E+01 0.  1.
</event>
<event>
 5   0  0.3568647E-05  0.1552393E+04  0.7818609E-02  0.8850341E-01
        2   -1    0    0  501    0  0.00000000000E+00  0.00000000000E+00  0.55210991360E+03  0.55210991360E+03  0.25500000920E-02 0. -1.
       -2   -1    0    0    0  501  0.00000000000E+00  0.00000000000E+00 -0.10912331327E+04  0.10912331327E+04  0.25500000920E-02 0.  1.
    10030    2    1    2    0    0  0.00000000000E+00  0.00000000000E+00 -0.53912321909E+03  0.16433430463E+04  0.15523925156E+04 0.  0.
        3    1    3    3  502    0  0.73272405222E+03  0.91452793925E+02 -0.16312494420E+02  0.73858937028E+03  0.10100000352E+00 0. -1.
       -3    1    3    3    0  502 -0.73272405222E+03 -0.91452793925E+02 -0.52281072467E+03  0.90475367601E+03  0.10100000352E+00 0.  1.
</event>
<event>
 5   0  0.1438701E-05  0.2784158E+04  0.7818609E-02  0.8308204E-01
        1   -1    0    0  501    0  0.00000000000E+00  0.00000000000E+00  0.15671143035E+04  0.15671143035E+04  0.50400001928E-02 0.  1.
       -1   -1    0    0    0  501  0.00000000000E+00  0.00000000000E+00 -0.12365936682E+04  0.12365936682E+04  0.50400001928E-02 0. -1.
    10030    2    1    2    0    0  0.00000000000E+00  0.00000000000E+00  0.33052063530E+03  0.28037079718E+04  0.27841577722E+04 0.  0.
        4    1    3    3  502    0  0.12810890447E+03 -0.55618407979E+02 -0.12295202283E+04  0.12374275346E+04  0.12699999809E+01 0. -1.
       -4    1    3    3    0  502 -0.12810890447E+03  0.55618407979E+02  0.15600408636E+04  0.15662804371E+04  0.12699999809E+01 0.  1.
</event>
<event>
 5   0  0.3568647E-05  0.2589931E+04  0.7818609E-02  0.8371629E-01
        2   -1    0    0  501    0  0.00000000000E+00  0.00000000000E+00  0.78942485683E+03  0.78942485684E+03  0.25500000920E-02 0.  1.
       -2   -1    0    0    0  501  0.00000000000E+00  0.00000000000E+00 -0.21242497662E+04  0.21242497662E+04  0.25500000920E-02 0. -1.
    10030    2    1    2    0    0  0.00000000000E+00  0.00000000000E+00 -0.13348249093E+04  0.29136746230E+04  0.25899309393E+04 0.  0.
        3    1    3    3  502    0  0.42274307354E+03 -0.95061746619E+03  0.20004296190E+03  0.10594349768E+04  0.10100000352E+00 0.  1.
       -3    1    3    3    0  502 -0.42274307354E+03  0.95061746619E+03 -0.15348678712E+04  0.18542396462E+04  0.10100000352E+00 0. -1.
</event>
<event>
 5   0  0.3676724E-05  0.2677400E+04  0.7818609E-02  0.8342375E-01
        2   -1    0    0  501    0  0.00000000000E+00  0.00000000000E+00  0.14439845781E+04  0.14439845781E+04  0.25500000920E-02 0.  1.
       -2   -1    0    0    0  501  0.00000000000E+00  0.00000000000E+00 -0.12410923293E+04  0.12410923293E+04  0.25500000920E-02 0. -1.
    10030    2    1    2    0    0  0.00000000000E+00  0.00000000000E+00  0.20289224879E+03  0.26850769074E+04  0.26774003686E+04 0.  0.
        4    1    3    3  502    0  0.66320865646E+03 -0.16098864221E+03  0.12564223787E+04  0.14298118308E+04  0.12699999809E+01 0.  1.
       -4    1    3    3    0  502 -0.66320865646E+03  0.16098864221E+03 -0.10535301299E+04  0.12552650766E+04  0.12699999809E+01 0. -1.
</event>
<event>
 5   0  0.1438701E-05  0.2707850E+04  0.7818609E-02  0.8332462E-01
       -1   -1    0    0    0  501  0.00000000000E+00  0.00000000000E+00  0.92446508489E+03  0.92446508490E+03  0.50400001928E-02 0. -1.
        1   -1    0    0  501    0  0.00000000000E+00  0.00000000000E+00 -0.19828902017E+04  0.19828902017E+04  0.50400001928E-02 0.  1.
    10030    2    1    2    0    0  0.00000000000E+00  0.00000000000E+00 -0.10584251168E+04  0.29073552866E+04  0.27078498914E+04 0.  0.
        4    1    3    3  502    0  0.23254320402E+03 -0.10582509164E+04 -0.14009030121E+04  0.17710172799E+04  0.12699999809E+01 0.  1.
       -4    1    3    3    0  502 -0.23254320402E+03  0.10582509164E+04  0.34247789528E+03  0.11363380067E+04  0.12699999809E+01 0. -1.
</event>
<event>
 5   0  0.1484379E-05  0.2832657E+04  0.7818609E-02  0.8293201E-01
        1   -1    0    0  501    0  0.00000000000E+00  0.00000000000E+00  0.16239759419E+04  0.16239759419E+04  0.50400001928E-02 0. -1.
       -1   -1    0    0    0  501  0.00000000000E+00  0.00000000000E+00 -0.12352318629E+04  0.12352318629E+04  0.50400001928E-02 0.  1.
    10030    2    1    2    0    0  0.00000000000E+00  0.00000000000E+00  0.38874407906E+03  0.28592078048E+04  0.28326572882E+04 0.  0.
        1    1    3    3  502    0 -0.27797456041E+03  0.14502746429E+03 -0.11997632028E+04  0.12400542586E+04  0.50400001928E-02 0.  1.
       -1    1    3    3    0  502  0.27797456041E+03 -0.14502746429E+03  0.15885072818E+04  0.16191535462E+04  0.50400001928E-02 0. -1.
</event>
<event>
 5   0  0.3514294E-05  0.2726817E+04  0.7818609E-02  0.8326356E-01
        2   -1    0    0  501    0  0.00000000000E+00  0.00000000000E+00  0.93623398603E+03  0.93623398604E+03  0.25500000920E-02 0. -1.
       -2   -1    0    0    0  501  0.00000000000E+00  0.00000000000E+00 -0.19854892833E+04  0.19854892833E+04  0.25500000920E-02 0.  1.
    10030    2    1    2    0    0  0.00000000000E+00  0.00000000000E+00 -0.10492552972E+04  0.29217232693E+04  0.27268168592E+04 0.  0.
        2    1    3    3  502    0 -0.12638898518E+04  0.28376405187E+03 -0.98040626282E+03  0.16245417923E+04  0.25500000920E-02 0.  1.
       -2    1    3    3    0  502  0.12638898518E+04 -0.28376405187E+03 -0.68849034416E+02  0.12971814770E+04  0.25500000920E-02 0. -1.
</event>
<event>
 5   0  0.3568647E-05  0.2679439E+04  0.7818609E-02  0.8341707E-01
        2   -1    0    0  501    0  0.00000000000E+00  0.00000000000E+00  0.18522468520E+04  0.18522468520E+04  0.25500000920E-02 0.  1.
       -2   -1    0    0    0  501  0.00000000000E+00  0.00000000000E+00 -0.96901143929E+03  0.96901143930E+03  0.25500000920E-02 0. -1.
    10030    2    1    2    0    0  0.00000000000E+00  0.00000000000E+00  0.88323541272E+03  0.28212582913E+04  0.26794390368E+04 0.  0.
        3    1    3    3  502    0 -0.41656540350E+03 -0.12267265046E+04  0.80094839265E+03  0.15231227759E+04  0.10100000352E+00 0.  1.
       -3    1    3    3    0  502  0.41656540350E+03  0.12267265046E+04  0.82287020068E+02  0.12981355154E+04  0.10100000352E+00 0. -1.
</event>
<event>
 5   0  0.1438701E-05  0.2672319E+04  0.7818609E-02  0.8344043E-01
        1   -1    0    0  501    0  0.00000000000E+00  0.00000000000E+00  0.13603160965E+04  0.13603160965E+04  0.50400001928E-02 0.  1.
       -1   -1    0    0    0  501  0.00000000000E+00  0.00000000000E+00 -0.13124322886E+04  0.13124322887E+04  0.50400001928E-02 0. -1.
    10030    2    1    2    0    0  0.00000000000E+00  0.00000000000E+00  0.47883807808E+02  0.26727483851E+04  0.26723194179E+04 0.  0.
        4    1    3    3  502    0 -0.13240121130E+04 -0.17425055865E+03 -0.20221975111E+02  0.13355829715E+04  0.12699999809E+01 0.  1.
       -4    1    3    3    0  502  0.13240121130E+04  0.17425055865E+03  0.68105782920E+02  0.13371654136E+04  0.12699999809E+01 0. -1.
</event>
<event>
 5   0  0.1474012E-05  0.2698102E+04  0.7818609E-02  0.8335621E-01
       -1   -1    0    0    0  501  0.00000000000E+00  0.00000000000E+00  0.75248619855E+03  0.75248619857E+03  0.50400001928E-02 0.  1.
        1   -1    0    0  501    0  0.00000000000E+00  0.00000000000E+00 -0.24185672453E+04  0.24185672453E+04  0.50400001928E-02 0. -1.
    10030    2    1    2    0    0  0.00000000000E+00  0.00000000000E+00 -0.16660810467E+04  0.31710534438E+04  0.26981019049E+04 0.  0.
        2    1    3    3  502    0  0.39313390564E+03 -0.12836116792E+04 -0.67656675560E+03  0.15033149322E+04  0.25500000920E-02 0. -1.
       -2    1    3    3    0  502 -0.39313390564E+03  0.12836116792E+04 -0.98951429112E+03  0.16677385116E+04  0.25500000920E-02 0.  1.
</event>
<event>
 5   0  0.1484379E-05  0.2681825E+04  0.7818609E-02  0.8340926E-01
       -1   -1    0    0    0  501  0.00000000000E+00  0.00000000000E+00  0.88099595196E+03  0.88099595198E+03  0.50400001928E-02 0.  1.
        1   -1    0    0  501    0  0.00000000000E+00  0.00000000000E+00 -0.20409243864E+04  0.20409243864E+04  0.50400001928E-02 0. -1.
    10030    2    1    2    0    0  0.00000000000E+00  0.00000000000E+00 -0.11599284344E+04  0.29219203384E+04  0.26818248434E+04 0.  0.
        1    1    3    3  502    0 -0.64704964720E+03  0.11491773669E+04 -0.31584829498E+03  0.13561128316E+04  0.50400001928E-02 0.  1.
       -1    1    3    3    0  502  0.64704964720E+03 -0.11491773669E+04 -0.84408013945E+03  0.15658075068E+04  0.50400001928E-02 0. -1.
</event>
<event>
 5   0  0.3514294E-05  0.2649412E+04  0.7818609E-02  0.8351608E-01
       -2   -1    0    0    0  501  0.00000000000E+00  0.00000000000E+00  0.20757574088E+04  0.20757574088E+04  0.25500000920E-02 0.  1.
        2   -1    0    0  501    0  0.00000000000E+00  0.00000000000E+00 -0.84540043048E+03  0.84540043048E+03  0.25500000920E-02 0. -1.
    10030    2    1    2    0    0  0.00000000000E+00  0.00000000000E+00  0.12303569784E+04  0.29211578393E+04  0.26494121665E+04 0.  0.
        2    1    3    3  502    0 -0.29051864989E+03 -0.21800577260E+03 -0.78942540120E+03  0.86897644783E+03  0.25500000920E-02 0. -1.
       -2    1    3    3    0  502  0.29051864989E+03  0.21800577260E+03  0.20197823796E+04  0.20521813915E+04  0.25500000920E-02 0.  1.
</event>
<event>
 5   0  0.1495517E-05  0.2762819E+04  0.7818609E-02  0.8314905E-01
        1   -1    0    0  501    0  0.00000000000E+00  0.00000000000E+00  0.26482478635E+04  0.26482478635E+04  0.50400001928E-02 0.  1.
       -1   -1    0    0    0  501  0.00000000000E+00  0.00000000000E+00 -0.72058657198E+03  0.72058657200E+03  0.50400001928E-02 0. -1.
    10030    2    1    2    0    0  0.00000000000E+00  0.00000000000E+00  0.19276612915E+04  0.33688344355E+04  0.27628187416E+04 0.  0.
        5    1    3    3  502    0 -0.12729655039E+04 -0.33391467391E+03  0.45180719042E+03  0.13914352342E+04  0.46999998093E+01 0. -1.
       -5    1    3    3    0  502  0.12729655039E+04  0.33391467391E+03  0.14758541011E+04  0.19773992013E+04  0.46999998093E+01 0.  1.
</event>
<event>
 5   0  0.1449521E-05  0.2726779E+04  0.7818609E-02  0.8326368E-01
        1   -1    0    0  501    0  0.00000000000E+00  0.00000000000E+00  0.23131177514E+04  0.23131177514E+04  0.50400001928E-02 0.  1.
       -1   -1    0    0    0  501  0.00000000000E+00  0.00000000000E+00 -0.80360395113E+03  0.80360395115E+03  0.50400001928E-02 0. -1.
    10030    2    1    2    0    0  0.00000000000E+00  0.00000000000E+00  0.15095138003E+04  0.31167217026E+04  0.27267787329E+04 0.  0.
        3    1    3    3  502    0 -0.37850019154E+03  0.93987717160E+03 -0.28794877638E+03  0.10533498947E+04  0.10100000352E+00 0. -1.
       -3    1    3    3    0  502  0.37850019154E+03 -0.93987717160E+03  0.17974625767E+04  0.20633718078E+04  0.10100000352E+00 0.  1.
</event>
<event>
 5   0  0.3568647E-05  0.2748089E+04  0.7818609E-02  0.8319568E-01
       -2   -1    0    0    0  501  0.00000000000E+00  0.00000000000E+00  0.12995342627E+04  0.12995342627E+04  0.25500000920E-02 0.  1.
        2   -1    0    0  501    0  0.00000000000E+00  0.00000000000E+00 -0.14528263861E+04  0.14528263861E+04  0.25500000920E-02 0. -1.
    10030    2    1    2    0    0  0.00000000000E+00  0.00000000000E+00 -0.15329212343E+03  0.27523606488E+04  0.27480885477E+04 0.  0.
        3    1    3    3  502    0 -0.29069790169E+02 -0.54174965956E+03  0.11877188694E+04  0.13057617965E+04  0.10100000352E+00 0.  1.
       -3    1    3    3    0  502  0.29069790169E+02  0.54174965956E+03 -0.13410109928E+04  0.14465988523E+04  0.10100000352E+00 0. -1.
</event>
<event>
 5   0  0.3568647E-05  0.2606969E+04  0.7818609E-02  0.8365838E-01
        2   -1    0    0  501    0  0.00000000000E+00  0.00000000000E+00  0.10688569079E+04  0.10688569079E+04  0.25500000920E-02 0. -1.
       -2   -1    0    0    0  501  0.00000000000E+00  0.00000000000E+00 -0.15896157759E+04  0.15896157759E+04  0.25500000920E-02 0.  1.
    10030    2    1    2    0    0  0.00000000000E+00  0.00000000000E+00 -0.52075886799E+03  0.26584726838E+04  0.26069689703E+04 0.  0.
        3    1    3    3  502    0 -0.65888792317E+03  0.53646446868E+03  0.74765578909E+03  0.11317758659E+04  0.10100000352E+00 0. -1.
       -3    1    3    3    0  502  0.65888792317E+03 -0.53646446868E+03 -0.12684146571E+04  0.15266968180E+04  0.10100000352E+00 0.  1.
</event>
<event>
 5   0  0.1484379E-05  0.2734675E+04  0.7818609E-02  0.8323841E-01
        1   -1    0    0  501    0  0.00000000000E+00  0.00000000000E+00  0.25506680010E+04  0.25506680010E+04  0.50400001928E-02 0. -1.
       -1   -1    0    0    0  501  0.00000000000E+00  0.00000000000E+00 -0.73298903456E+03  0.73298903458E+03  0.50400001928E-02 0.  1.
    10030    2    1    2    0    0  0.00000000000E+00  0.00000000000E+00  0.18176789664E+04  0.32836570356E+04  0.27346748805E+04 0.  0.
        1    1    3    3  502    0 -0.47987064023E+03  0.38691845195E+03  0.23743579244E+04  0.24530709882E+04  0.50400001928E-02 0. -1.
       -1    1    3    3    0  502  0.47987064023E+03 -0.38691845195E+03 -0.55667895800E+03  0.83058604738E+03  0.50400001928E-02 0.  1.
</event>
<event>
 5   0  0.3652331E-05  0.2708611E+04  0.7818609E-02  0.8332217E-01
       -2   -1    0    0    0  501  0.00000000000E+00  0.00000000000E+00  0.16661381585E+04  0.16661381585E+04  0.25500000920E-02 0. -1.
        2   -1    0    0  501    0  0.00000000000E+00  0.00000000000E+00 -0.11008347544E+04  0.11008347544E+04  0.25500000920E-02 0.  1.
    10030    2    1    2    0    0  0.00000000000E+00  0.00000000000E+00  0.56530340413E+03  0.27669729129E+04  0.27086105593E+04 0.  0.
        1    1    3    3  502    0 -0.74364496505E+02 -0.57705886510E+03 -0.96665295687E+03  0.11282486212E+04  0.50400001928E-02 0.  1.
       -1    1    3    3    0  502  0.74364496505E+02  0.57705886510E+03  0.15319563610E+04  0.16387242917E+04  0.50400001928E-02 0. -1.
</event>
<event>
 5   0  0.1474012E-05  0.2818102E+04  0.7818609E-02  0.8297670E-01
       -1   -1    0    0    0  501  0.00000000000E+00  0.00000000000E+00  0.11775264287E+04  0.11775264287E+04  0.50400001928E-02 0. -1.
        1   -1    0    0  501    0  0.00000000000E+00  0.00000000000E+00 -0.16860973498E+04  0.16860973498E+04  0.50400001928E-02 0.  1.
    10030    2    1    2    0    0  0.00000000000E+00  0.00000000000E+00 -0.50857092116E+03  0.28636237785E+04  0.28181016239E+04 0.  0.
        2    1    3    3  502    0 -0.13397931391E+03  0.68970972049E+03  0.98682621407E+03  0.12113942099E+04  0.25500000920E-02 0. -1.
       -2    1    3    3    0  502  0.13397931391E+03 -0.68970972049E+03 -0.14953971352E+04  0.16522295685E+04  0.25500000920E-02 0.  1.
</event>
<event>
 5   0  0.1484379E-05  0.2689648E+04  0.7818609E-02  0.8338372E-01
       -1   -1    0    0    0  501  0.00000000000E+00  0.00000000000E+00  0.22977261997E+04  0.22977261997E+04  0.50400001928E-02 0. -1.
        1   -1    0    0  501    0  0.00000000000E+00  0.00000000000E+00 -0.78710500491E+03  0.78710500493E+03  0.50400001928E-02 0.  1.
    10030    2    1    2    0    0  0.00000000000E+00  0.00000000000E+00  0.15106211948E+04  0.30848312046E+04  0.26896481493E+04 0.  0.
        1    1    3    3  502    0 -0.41195238656E+03 -0.11906894817E+04  0.12946172618E+04  0.18065104664E+04  0.50400001928E-02 0. -1.
       -1    1    3    3    0  502  0.41195238656E+03  0.11906894817E+04  0.21600393298E+03  0.12783207382E+04  0.50400001928E-02 0.  1.
</event>
<event>
 5   0  0.1228050E-05  0.2685640E+04  0.7818609E-02  0.8339679E-01
        4   -1    0    0  501    0  0.00000000000E+00  0.00000000000E+00  0.19017926423E+04  0.19017930663E+04  0.12699999809E+01 0. -1.
       -4   -1    0    0    0  501  0.00000000000E+00  0.00000000000E+00 -0.94813928519E+03  0.94814013575E+03  0.12699999809E+01 0.  1.
    10030    2    1    2    0    0  0.00000000000E+00  0.00000000000E+00  0.95365335707E+03  0.28499332021E+04  0.26856404321E+04 0.  0.
        2    1    3    3  502    0 -0.49301925132E+03  0.26696193851E+03  0.17716463635E+04  0.18582431208E+04  0.25500000920E-02 0. -1.
       -2    1    3    3    0  502  0.49301925132E+03 -0.26696193851E+03 -0.81799300639E+03  0.99169008127E+03  0.25500000920E-02 0.  1.
</event>
<event>
 5   0  0.3652331E-05  0.2661881E+04  0.7818609E-02  0.8347480E-01
       -2   -1    0    0    0  501  0.00000000000E+00  0.00000000000E+00  0.11481866617E+04  0.11481866617E+04  0.25500000920E-02 0. -1.
        2   -1    0    0  501    0  0.00000000000E+00  0.00000000000E+00 -0.15427829435E+04  0.15427829435E+04  0.25500000920E-02 0.  1.
    10030    2    1    2    0    0  0.00000000000E+00  0.00000000000E+00 -0.39459628185E+03  0.26909696052E+04  0.26618811376E+04 0.  0.
        1    1    3    3  502    0  0.30461870731E+03  0.76290757393E+03 -0.12559197246E+04  0.15007181207E+04  0.50400001928E-02 0.  1.
       -1    1    3    3    0  502 -0.30461870731E+03 -0.76290757393E+03  0.86132344278E+03  0.11902514845E+04  0.50400001928E-02 0. -1.
</event>
<event>
 5   0  0.1474012E-05  0.2706028E+04  0.7818609E-02  0.8333052E-01
       -1   -1    0    0    0  501  0.00000000000E+00  0.00000000000E+00  0.13699979929E+04  0.13699979930E+04  0.50400001928E-02 0. -1.
        1   -1    0    0  501    0  0.00000000000E+00  0.00000000000E+00 -0.13362407119E+04  0.13362407119E+04  0.50400001928E-02 0.  1.
    10030    2    1    2    0    0  0.00000000000E+00  0.00000000000E+00  0.33757281084E+02  0.27062387048E+04  0.27060281546E+04 0.  0.
        2    1    3    3  502    0  0.11530118365E+04  0.29331155391E+03  0.66127272915E+03  0.13611574432E+04  0.25500000920E-02 0. -1.
       -2    1    3    3    0  502 -0.11530118365E+04 -0.29331155391E+03 -0.62751544807E+03  0.13450812616E+04  0.25500000920E-02 0.  1.
</event>
<event>
 5   0  0.1474012E-05  0.2841442E+04  0.7818609E-02  0.8290516E-01
        1   -1    0    0  501    0  0.00000000000E+00  0.00000000000E+00  0.15996505621E+04  0.15996505621E+04  0.50400001928E-02 0.  1.
       -1   -1    0    0    0  501  0.00000000000E+00  0.00000000000E+00 -0.12618061137E+04  0.12618061137E+04  0.50400001928E-02 0. -1.
    10030    2    1    2    0    0  0.00000000000E+00  0.00000000000E+00  0.33784444841E+03  0.28614566758E+04  0.28414424921E+04 0.  0.
        2    1    3    3  502    0  0.12195087115E+04 -0.69545877820E+03  0.38859732172E+03  0.14566647824E+04  0.25500000920E-02 0.  1.
       -2    1    3    3    0  502 -0.12195087115E+04  0.69545877820E+03 -0.50752873315E+02  0.14047918934E+04  0.25500000920E-02 0. -1.
</event>
<event>
 5   0  0.3514294E-05  0.2749417E+04  0.7818609E-02  0.8319147E-01
        2   -1    0    0  501    0  0.00000000000E+00  0.00000000000E+00  0.16309150548E+04  0.16309150548E+04  0.25500000920E-02 0.  1.
       -2   -1    0    0    0  501  0.00000000000E+00  0.00000000000E+00 -0.11587504273E+04  0.11587504273E+04  0.25500000920E-02 0. -1.
    10030    2    1    2    0    0  0.00000000000E+00  0.00000000000E+00  0.47216462751E+03  0.27896654821E+04  0.27494170412E+04 0.  0.
        2    1    3    3  502    0 -0.86059196286E+02  0.10716362689E+04  0.11053697360E+04  0.15419639202E+04  0.25500000920E-02 0.  1.
       -2    1    3    3    0  502  0.86059196286E+02 -0.10716362689E+04 -0.63320510848E+03  0.12477015619E+04  0.25500000920E-02 0. -1.
</event>
<event>
 5   0  0.1449521E-05  0.2754578E+04  0.7818609E-02  0.8317510E-01
        1   -1    0    0  501    0  0.00000000000E+00  0.00000000000E+00  0.14078381907E+04  0.14078381907E+04  0.50400001928E-02 0. -1.
       -1   -1    0    0    0  501  0.00000000000E+00  0.00000000000E+00 -0.13474027790E+04  0.13474027791E+04  0.50400001928E-02 0.  1.
    10030    2    1    2    0    0  0.00000000000E+00  0.00000000000E+00  0.60435411626E+02  0.27552409697E+04  0.27545780734E+04 0.  0.
        3    1    3    3  502    0  0.92464961708E+03 -0.41354154809E+03  0.96367942882E+03  0.13980956970E+04  0.10100000352E+00 0. -1.
       -3    1    3    3    0  502 -0.92464961708E+03  0.41354154809E+03 -0.90324401719E+03  0.13571452727E+04  0.10100000352E+00 0.  1.
</event>
<event>
 5   0  0.3497949E-05  0.2694355E+04  0.7818609E-02  0.8336839E-01
        2   -1    0    0  501    0  0.00000000000E+00  0.00000000000E+00  0.12713819529E+04  0.12713819529E+04  0.25500000920E-02 0. -1.
       -2   -1    0    0    0  501  0.00000000000E+00  0.00000000000E+00 -0.14274921688E+04  0.14274921688E+04  0.25500000920E-02 0.  1.
    10030    2    1    2    0    0  0.00000000000E+00  0.00000000000E+00 -0.15611021590E+03  0.26988741216E+04  0.26943554192E+04 0.  0.
        5    1    3    3  502    0  0.40012305048E+03  0.12798000995E+04 -0.20819197360E+03  0.13569645309E+04  0.46999998093E+01 0.  1.
       -5    1    3    3    0  502 -0.40012305048E+03 -0.12798000995E+04  0.52081757703E+02  0.13419095907E+04  0.46999998093E+01 0. -1.
</event>
<event>
 5   0  0.1449521E-05  0.3037872E+04  0.7818609E-02  0.8232998E-01
        1   -1    0    0  501    0  0.00000000000E+00  0.00000000000E+00  0.15943470675E+04  0.15943470675E+04  0.50400001928E-02 0.  1.
       -1   -1    0    0    0  501  0.00000000000E+00  0.00000000000E+00 -0.14470921689E+04  0.14470921689E+04  0.50400001928E-02 0. -1.
    10030    2    1    2    0    0  0.00000000000E+00  0.00000000000E+00  0.14725489863E+03  0.30414392364E+04  0.30378723844E+04 0.  0.
        3    1    3    3  502    0  0.96011433169E+02  0.34378354471E+03 -0.14045076832E+04  0.14491539474E+04  0.10100000352E+00 0. -1.
       -3    1    3    3    0  502 -0.96011433169E+02 -0.34378354471E+03  0.15517625819E+04  0.15922852890E+04  0.10100000352E+00 0.  1.
</event>
<event>
 5   0  0.3514294E-05  0.2667539E+04  0.7818609E-02  0.8345615E-01
        2   -1    0    0  501    0  0.00000000000E+00  0.00000000000E+00  0.96616042351E+03  0.96616042351E+03  0.25500000920E-02 0.  1.
       -2   -1    0    0    0  501  0.00000000000E+00  0.00000000000E+00 -0.18412483420E+04  0.18412483420E+04  0.25500000920E-02 0. -1.
    10030    2    1    2    0    0  0.00000000000E+00  0.00000000000E+00 -0.87508791846E+03  0.28074087655E+04  0.26675391490E+04 0.  0.
        2    1    3    3  502    0 -0.21103855083E+03 -0.68760909131E+03  0.74455899254E+03  0.10352350582E+04  0.25500000920E-02 0.  1.
       -2    1    3    3    0  502  0.21103855083E+03  0.68760909131E+03 -0.16196469110E+04  0.17721737073E+04  0.25500000920E-02 0. -1.
</event>
<event>
 5   0  0.3514294E-05  0.2662996E+04  0.7818609E-02  0.8347112E-01
       -2   -1    0    0    0  501  0.00000000000E+00  0.00000000000E+00  0.14986323996E+04  0.14986323996E+04  0.25500000920E-02 0.  1.
        2   -1    0    0  501    0  0.00000000000E+00  0.00000000000E+00 -0.11830035502E+04  0.11830035502E+04  0.25500000920E-02 0. -1.
    10030    2    1    2    0    0  0.00000000000E+00  0.00000000000E+00  0.31562884939E+03  0.26816359498E+04  0.26629963945E+04 0.  0.
        2    1    3    3  502    0 -0.37511063990E+03 -0.68794927428E+03 -0.92624529181E+03  0.12132240258E+04  0.25500000920E-02 0. -1.
       -2    1    3    3    0  502  0.37511063990E+03  0.68794927428E+03  0.12418741412E+04  0.14684119241E+04  0.25500000920E-02 0.  1.
</event>
<event>
 5   0  0.1484379E-05  0.2369508E+04  0.7818609E-02  0.8451008E-01
        1   -1    0    0  501    0  0.00000000000E+00  0.00000000000E+00  0.16613729711E+04  0.16613729711E+04  0.50400001928E-02 0. -1.
       -1   -1    0    0    0  501  0.00000000000E+00  0.00000000000E+00 -0.84486875116E+03  0.84486875118E+03  0.50400001928E-02 0.  1.
    10030    2    1    2    0    0  0.00000000000E+00  0.00000000000E+00  0.81650421998E+03  0.25062417223E+04  0.23695080564E+04 0.  0.
        1    1    3    3  502    0 -0.97542779636E+03 -0.63745688456E+03  0.18181556195E+03  0.11793504840E+04  0.50400001928E-02 0.  1.
       -1    1    3    3    0  502  0.97542779636E+03  0.63745688456E+03  0.63468865803E+03  0.13268912383E+04  0.50400001928E-02 0. -1.
</event>
<event>
 5   0  0.3568647E-05  0.3025222E+04  0.7818609E-02  0.8236565E-01
       -2   -1    0    0    0  501  0.00000000000E+00  0.00000000000E+00  0.12547230607E+04  0.12547230607E+04  0.25500000920E-02 0.  1.
        2   -1    0    0  501    0  0.00000000000E+00  0.00000000000E+00 -0.18235035716E+04  0.18235035716E+04  0.25500000920E-02 0. -1.
    10030    2    1    2    0    0  0.00000000000E+00  0.00000000000E+00 -0.56878051089E+03  0.30782266324E+04  0.30252219639E+04 0.  0.
        3    1    3    3  502    0  0.14312014914E+04  0.36104928303E+03 -0.62078470058E+03  0.16012707293E+04  0.10100000352E+00 0. -1.
       -3    1    3    3    0  502 -0.14312014914E+04 -0.36104928303E+03  0.52004189688E+02  0.14769559031E+04  0.10100000352E+00 0.  1.
</event>
<event>
 5   0  0.3514294E-05  0.2696703E+04  0.7818609E-02  0.8336075E-01
        2   -1    0    0  501    0  0.00000000000E+00  0.00000000000E+00  0.21769090852E+04  0.21769090852E+04  0.25500000920E-02 0. -1.
       -2   -1    0    0    0  501  0.00000000000E+00  0.00000000000E+00 -0.83515296909E+03  0.83515296909E+03  0.25500000920E-02 0.  1.
    10030    2    1    2    0    0  0.00000000000E+00  0.00000000000E+00  0.13417561162E+04  0.30120620543E+04  0.26967032362E+04 0.  0.
        2    1    3    3  502    0  0.42145422377E+03 -0.60190757643E+03 -0.59187735847E+03  0.94352276114E+03  0.25500000920E-02 0.  1.
       -2    1    3    3    0  502 -0.42145422377E+03  0.60190757643E+03  0.19336334746E+04  0.20685392932E+04  0.25500000920E-02 0. -1.
</event>
<event>
 5   0  0.1449521E-05  0.2695430E+04  0.7818609E-02  0.8336489E-01
       -1   -1    0    0    0  501  0.00000000000E+00  0.00000000000E+00  0.11602238411E+04  0.11602238411E+04  0.50400001928E-02 0. -1.
        1   -1    0    0  501    0  0.00000000000E+00  0.00000000000E+00 -0.15655040833E+04  0.15655040833E+04  0.50400001928E-02 0.  1.
    10030    2    1    2    0    0  0.00000000000E+00  0.00000000000E+00 -0.40528024227E+03  0.27257279244E+04  0.26954295841E+04 0.  0.
        3    1    3    3  502    0 -0.81998602195E+03  0.10021333821E+04  0.17530794974E+03  0.13066680065E+04  0.10100000352E+00 0. -1.
       -3    1    3    3    0  502  0.81998602195E+03 -0.10021333821E+04 -0.58058819201E+03  0.14190599179E+04  0.10100000352E+00 0.  1.
</event>
<event>
 5   0  0.1449521E-05  0.2719586E+04  0.7818609E-02  0.8328678E-01
        1   -1    0    0  501    0  0.00000000000E+00  0.00000000000E+00  0.21194895218E+04  0.21194895218E+04  0.50400001928E-02 0.  1.
       -1   -1    0    0    0  501  0.00000000000E+00  0.00000000000E+00 -0.87239704691E+03  0.87239704692E+03  0.50400001928E-02 0. -1.
    10030    2    1    2    0    0  0.00000000000E+00  0.00000000000E+00  0.12470924749E+04  0.29918865687E+04  0.27195855565E+04 0.  0.
        3    1    3    3  502    0  0.22277031573E+03  0.19648182977E+03  0.20833617973E+04  0.21044305908E+04  0.10100000352E+00 0.  1.
       -3    1    3    3    0  502 -0.22277031573E+03 -0.19648182977E+03 -0.83626932238E+03  0.88745597792E+03  0.10100000352E+00 0. -1.
</event>
<event>
 5   0  0.1438701E-05  0.2675305E+04  0.7818609E-02  0.8343062E-01
        1   -1    0    0  501    0  0.00000000000E+00  0.00000000000E+00  0.12190827572E+04  0.12190827573E+04  0.50400001928E-02 0.  1.
       -1   -1    0    0    0  501  0.00000000000E+00  0.00000000000E+00 -0.14677542120E+04  0.14677542120E+04  0.50400001928E-02 0. -1.
    10030    2    1    2    0    0  0.00000000000E+00  0.00000000000E+00 -0.24867145476E+03  0.26868369693E+04  0.26753047316E+04 0.  0.
        4    1    3    3  502    0  0.63343046331E+03 -0.57378505860E+03 -0.11577751646E+04  0.14390651097E+04  0.12699999809E+01 0. -1.
       -4    1    3    3    0  502 -0.63343046331E+03  0.57378505860E+03  0.90910370986E+03  0.12477718596E+04  0.12699999809E+01 0.  1.
</event>
<event>
 5   0  0.3568647E-05  0.1894867E+04  0.7818609E-02  0.8657416E-01
       -2   -1    0    0    0  501  0.00000000000E+00  0.00000000000E+00  0.16867191012E+04  0.16867191012E+04  0.25500000920E-02 0.  1.
        2   -1    0    0  501    0  0.00000000000E+00  0.00000000000E+00 -0.53217527776E+03  0.53217527776E+03  0.25500000920E-02 0. -1.
    10030    2    1    2    0    0  0.00000000000E+00  0.00000000000E+00  0.11545438235E+04  0.22188943790E+04  0.18948669676E+04 0.  0.
        3    1    3    3  502    0 -0.67187762495E+03 -0.30356134060E+03  0.12740541193E+04  0.14719996398E+04  0.10100000352E+00 0.  1.
       -3    1    3    3    0  502  0.67187762495E+03  0.30356134060E+03 -0.11951029586E+03  0.74689473919E+03  0.10100000352E+00 0. -1.
</event>
<event>
 5   0  0.3514294E-05  0.2708892E+04  0.7818609E-02  0.8332126E-01
        2   -1    0    0  501    0  0.00000000000E+00  0.00000000000E+00  0.10990662041E+04  0.10990662041E+04  0.25500000920E-02 0. -1.
       -2   -1    0    0    0  501  0.00000000000E+00  0.00000000000E+00 -0.16691655672E+04  0.16691655672E+04  0.25500000920E-02 0.  1.
    10030    2    1    2    0    0  0.00000000000E+00  0.00000000000E+00 -0.57009936307E+03  0.27682317713E+04  0.27088916287E+04 0.  0.
        2    1    3    3  502    0  0.49967129588E+03 -0.11925097179E+04 -0.69733845740E+03  0.14690240826E+04  0.25500000920E-02 0. -1.
       -2    1    3    3    0  502 -0.49967129588E+03  0.11925097179E+04  0.12723909433E+03  0.12992076887E+04  0.25500000920E-02 0.  1.
</event>
<event>
 5   0  0.3676724E-05  0.2703950E+04  0.7818609E-02  0.8333724E-01
        2   -1    0    0  501    0  0.00000000000E+00  0.00000000000E+00  0.20327774240E+04  0.20327774240E+04  0.25500000920E-02 0.  1.
       -2   -1    0    0    0  501  0.00000000000E+00  0.00000000000E+00 -0.89918174941E+03  0.89918174942E+03  0.25500000920E-02 0. -1.
    10030    2    1    2    0    0  0.00000000000E+00  0.00000000000E+00  0.11335956746E+04  0.29319591734E+04  0.27039499702E+04 0.  0.
        4    1    3    3  502    0 -0.41627178366E+03 -0.10939561098E+04  0.13004718354E+04  0.17496430423E+04  0.12699999809E+01 0.  1.
       -4    1    3    3    0  502  0.41627178366E+03  0.10939561098E+04 -0.16687616077E+03  0.11823161311E+04  0.12699999809E+01 0. -1.
</event>
<event>
 5   0  0.1474012E-05  0.2707504E+04  0.7818609E-02  0.8332574E-01
        1   -1    0    0  501    0  0.00000000000E+00  0.00000000000E+00  0.13755489296E+04  0.13755489296E+04  0.50400001928E-02 0. -1.
       -1   -1    0    0    0  501  0.00000000000E+00  0.00000000000E+00 -0.13323008761E+04  0.13323008761E+04  0.50400001928E-02 0.  1.
    10030    2    1    2    0    0  0.00000000000E+00  0.00000000000E+00  0.43248053525E+02  0.27078498057E+04  0.27075044185E+04 0.  0.
        2    1    3    3  502    0 -0.10398723382E+04 -0.52325362816E+03  0.71273765189E+03  0.13649629298E+04  0.25500000920E-02 0. -1.
       -2    1    3    3    0  502  0.10398723382E+04  0.52325362816E+03 -0.66948959837E+03  0.13428868759E+04  0.25500000920E-02 0.  1.
</event>
<event>
 5   0  0.1228050E-05  0.2341625E+04  0.7818609E-02  0.8461687E-01
        3   -1    0    0  501    0  0.00000000000E+00  0.00000000000E+00  0.78231867409E+03  0.78231868061E+03  0.10100000352E+00 0. -1.
       -3   -1    0    0    0  501  0.00000000000E+00  0.00000000000E+00 -0.17522302169E+04  0.17522302198E+04  0.10100000352E+00 0.  1.
    10030    2    1    2    0    0  0.00000000000E+00  0.00000000000E+00 -0.96991154282E+03  0.25345489004E+04  0.23416254457E+04 0.  0.
        1    1    3    3  502    0  0.58531727984E+03 -0.75902621374E+02  0.60951257000E+03  0.84844746392E+03  0.50400001928E-02 0. -1.
       -1    1    3    3    0  502 -0.58531727984E+03  0.75902621374E+02 -0.15794241128E+04  0.16861014365E+04  0.50400001928E-02 0.  1.
</event>
<event>
 5   0  0.3568647E-05  0.2460500E+04  0.7818609E-02  0.8417194E-01
       -2   -1    0    0    0  501  0.00000000000E+00  0.00000000000E+00  0.10566759675E+04  0.10566759675E+04  0.25500000920E-02 0.  1.
        2   -1    0    0  501    0  0.00000000000E+00  0.00000000000E+00 -0.14323359053E+04  0.14323359053E+04  0.25500000920E-02 0. -1.
    10030    2    1    2    0    0  0.00000000000E+00  0.00000000000E+00 -0.37565993782E+03  0.24890118728E+04  0.24604998911E+04 0.  0.
        3    1    3    3  502    0  0.10145224611E+04 -0.49679665789E+03 -0.68076728269E+03  0.13189036533E+04  0.10100000352E+00 0. -1.
       -3    1    3    3    0  502 -0.10145224611E+04  0.49679665789E+03  0.30510734487E+03  0.11701082195E+04  0.10100000352E+00 0.  1.
</event>
<event>
 5   0  0.3514294E-05  0.2950759E+04  0.7818609E-02  0.8257933E-01
        2   -1    0    0  501    0  0.00000000000E+00  0.00000000000E+00  0.16046474064E+04  0.16046474064E+04  0.25500000920E-02 0. -1.
       -2   -1    0    0    0  501  0.00000000000E+00  0.00000000000E+00 -0.13565250943E+04  0.13565250943E+04  0.25500000920E-02 0.  1.
    10030    2    1    2    0    0  0.00000000000E+00  0.00000000000E+00  0.24812231210E+03  0.29611725006E+04  0.29507588680E+04 0.  0.
        2    1    3    3  502    0 -0.34523653142E+03  0.40571424601E+03  0.15047626857E+04  0.15962778744E+04  0.25500000920E-02 0. -1.
       -2    1    3    3    0  502  0.34523653142E+03 -0.40571424601E+03 -0.12566403736E+04  0.13648946262E+04  0.25500000920E-02 0.  1.
</event>
<event>
 5   0  0.1484379E-05  0.2394389E+04  0.7818609E-02  0.8441607E-01
        1   -1    0    0  501    0  0.00000000000E+00  0.00000000000E+00  0.17523992863E+04  0.17523992863E+04  0.50400001928E-02 0. -1.
       -1   -1    0    0    0  501  0.00000000000E+00  0.00000000000E+00 -0.81789306543E+03  0.81789306545E+03  0.50400001928E-02 0.  1.
    10030    2    1    2    0    0  0.00000000000E+00  0.00000000000E+00  0.93450622091E+03  0.25702923518E+04  0.23943894622E+04 0.  0.
        1    1    3    3  502    0  0.14437355824E+03  0.26711607350E+02 -0.80819180251E+03  0.82142024808E+03  0.50400001928E-02 0.  1.
       -1    1    3    3    0  502 -0.14437355824E+03 -0.26711607350E+02  0.17426980234E+04  0.17488721037E+04  0.50400001928E-02 0. -1.
</event>
<event>
 5   0  0.1449521E-05  0.2661369E+04  0.7818609E-02  0.8347649E-01
        1   -1    0    0  501    0  0.00000000000E+00  0.00000000000E+00  0.25253415134E+04  0.25253415134E+04  0.50400001928E-02 0. -1.
       -1   -1    0    0    0  501  0.00000000000E+00  0.00000000000E+00 -0.70118081619E+03  0.70118081621E+03  0.50400001928E-02 0.  1.
    10030    2    1    2    0    0  0.00000000000E+00  0.00000000000E+00  0.18241606972E+04  0.32265223296E+04  0.26613688384E+04 0.  0.
        3    1    3    3  502    0  0.33454422960E+03  0.27080407361E+03  0.24386201028E+04  0.24763123196E+04  0.10100000352E+00 0. -1.
       -3    1    3    3    0  502 -0.33454422960E+03 -0.27080407361E+03 -0.61445940562E+03  0.75021001006E+03  0.10100000352E+00 0.  1.
</event>
<event>
 5   0  0.1438701E-05  0.2736459E+04  0.7818609E-02  0.8323271E-01
        1   -1    0    0  501    0  0.00000000000E+00  0.00000000000E+00  0.17163877289E+04  0.17163877289E+04  0.50400001928E-02 0. -1.
       -1   -1    0    0    0  501  0.00000000000E+00  0.00000000000E+00 -0.10906933238E+04  0.10906933239E+04  0.50400001928E-02 0.  1.
    10030    2    1    2    0    0  0.00000000000E+00  0.00000000000E+00  0.62569440505E+03  0.28070810528E+04  0.27364594914E+04 0.  0.
        4    1    3    3  502    0 -0.78281586619E+03 -0.10681619435E+04 -0.39947725560E+02  0.13249030348E+04  0.12699999809E+01 0. -1.
       -4    1    3    3    0  502  0.78281586619E+03  0.10681619435E+04  0.66564213061E+03  0.14821780179E+04  0.12699999809E+01 0.  1.
</event>
<event>
 5   0  0.1484379E-05  0.1516724E+04  0.7818609E-02  0.8873407E-01
        1   -1    0    0  501    0  0.00000000000E+00  0.00000000000E+00  0.12088745141E+04  0.12088745141E+04  0.50400001928E-02 0.  1.
       -1   -1    0    0    0  501  0.00000000000E+00  0.00000000000E+00 -0.47574269987E+03  0.47574269990E+03  0.50400001928E-02 0. -1.
    10030    2    1    2    0    0  0.00000000000E+00  0.00000000000E+00  0.73313181423E+03  0.16846172140E+04  0.15167243984E+04 0.  0.
        1    1    3    3  502    0  0.34972730567E+03  0.33397850313E+03  0.10154076454E+04  0.11246792944E+04  0.50400001928E-02 0.  1.
       -1    1    3    3    0  502 -0.34972730567E+03 -0.33397850313E+03 -0.28227583120E+03  0.55993791959E+03  0.50400001928E-02 0. -1.
</event>
<event>
 5   0  0.3568647E-05  0.2918174E+04  0.7818609E-02  0.8267491E-01
        2   -1    0    0  501    0  0.00000000000E+00  0.00000000000E+00  0.12955530774E+04  0.12955530774E+04  0.25500000920E-02 0.  1.
       -2   -1    0    0    0  501  0.00000000000E+00  0.00000000000E+00 -0.16432631877E+04  0.16432631877E+04  0.25500000920E-02 0. -1.
    10030    2    1    2    0    0  0.00000000000E+00  0.00000000000E+00 -0.34771011026E+03  0.29388162652E+04  0.29181738673E+04 0.  0.
        3    1    3    3  502    0 -0.12588987343E+02  0.13687221526E+04 -0.68277701215E+03  0.15296219377E+04  0.10100000352E+00 0.  1.
       -3    1    3    3    0  502  0.12588987343E+02 -0.13687221526E+04  0.33506690188E+03  0.14091943275E+04  0.10100000352E+00 0. -1.
</event>
<event>
 5   0  0.1474012E-05  0.2712741E+04  0.7818609E-02  0.8330883E-01
        1   -1    0    0  501    0  0.00000000000E+00  0.00000000000E+00  0.11190633855E+04  0.11190633855E+04  0.50400001928E-02 0.  1.
       -1   -1    0    0    0  501  0.00000000000E+00  0.00000000000E+00 -0.16440010915E+04  0.16440010915E+04  0.50400001928E-02 0. -1.
    10030    2    1    2    0    0  0.00000000000E+00  0.00000000000E+00 -0.52493770597E+03  0.27630644770E+04  0.27127413641E+04 0.  0.
        2    1    3    3  502    0  0.53417761731E+03 -0.11485673369E+04  0.23149017000E+03  0.12876879875E+04  0.25500000920E-02 0.  1.
       -2    1    3    3    0  502 -0.53417761731E+03  0.11485673369E+04 -0.75642787598E+03  0.14753764895E+04  0.25500000920E-02 0. -1.
</event>
<event>
 5   0  0.3652331E-05  0.2756788E+04  0.7818609E-02  0.8316811E-01
       -2   -1    0    0    0  501  0.00000000000E+00  0.00000000000E+00  0.16097814375E+04  0.16097814375E+04  0.25500000920E-02 0.  1.
        2   -1    0    0  501    0  0.00000000000E+00  0.00000000000E+00 -0.11802654238E+04  0.11802654239E+04  0.25500000920E-02 0. -1.
    10030    2    1    2    0    0  0.00000000000E+00  0.00000000000E+00  0.42951601368E+03  0.27900468614E+04  0.27567875295E+04 0.  0.
        1    1    3    3  502    0  0.26110211633E+03  0.11160850410E+04 -0.56008247771E+03  0.12757399875E+04  0.50400001928E-02 0. -1.
       -1    1    3    3    0  502 -0.26110211633E+03 -0.11160850410E+04  0.98959849139E+03  0.15143068738E+04  0.50400001928E-02 0.  1.
</event>
<event>
 5   0  0.1474012E-05  0.2730226E+04  0.7818609E-02  0.8325264E-01
       -1   -1    0    0    0  501  0.00000000000E+00  0.00000000000E+00  0.10742865384E+04  0.10742865385E+04  0.50400001928E-02 0. -1.
        1   -1    0    0  501    0  0.00000000000E+00  0.00000000000E+00 -0.17346711203E+04  0.17346711203E+04  0.50400001928E-02 0.  1.
    10030    2    1    2    0    0  0.00000000000E+00  0.00000000000E+00 -0.66038458190E+03  0.28089576588E+04  0.27302262421E+04 0.  0.
        2    1    3    3  502    0  0.76927749320E+03  0.92199095367E+03  0.33790139017E+03  0.12474103293E+04  0.25500000920E-02 0. -1.
       -2    1    3    3    0  502 -0.76927749320E+03 -0.92199095367E+03 -0.99828597207E+03  0.15615473295E+04  0.25500000920E-02 0.  1.
</event>
<event>
 5   0  0.1449521E-05  0.2630103E+04  0.7818609E-02  0.8358047E-01
       -1   -1    0    0    0  501  0.00000000000E+00  0.00000000000E+00  0.16878283725E+04  0.16878283725E+04  0.50400001928E-02 0. -1.
        1   -1    0    0  501    0  0.00000000000E+00  0.00000000000E+00 -0.10246064382E+04  0.10246064382E+04  0.50400001928E-02 0.  1.
    10030    2    1    2    0    0  0.00000000000E+00  0.00000000000E+00  0.66322193433E+03  0.27124348107E+04  0.26301025204E+04 0.  0.
        3    1    3    3  502    0  0.29284844975E+03  0.12404665616E+04 -0.23186240088E+01  0.12745677271E+04  0.10100000352E+00 0.  1.
       -3    1    3    3    0  502 -0.29284844975E+03 -0.12404665616E+04  0.66554055834E+03  0.14378670835E+04  0.10100000352E+00 0. -1.
</event>
<event>
 5   0  0.3676724E-05  0.2625551E+04  0.7818609E-02  0.8359573E-01
        2   -1    0    0  501    0  0.00000000000E+00  0.00000000000E+00  0.14810538864E+04  0.14810538864E+04  0.25500000920E-02 0. -1.
       -2   -1    0    0    0  501  0.00000000000E+00  0.00000000000E+00 -0.11636173858E+04  0.11636173858E+04  0.25500000920E-02 0.  1.
    10030    2    1    2    0    0  0.00000000000E+00  0.00000000000E+00  0.31743650055E+03  0.26446712722E+04  0.26255514099E+04 0.  0.
        4    1    3    3  502    0 -0.58914738533E+03  0.44915695923E+03  0.12503732650E+04  0.14533655873E+04  0.12699999809E+01 0. -1.
       -4    1    3    3    0  502  0.58914738533E+03 -0.44915695923E+03 -0.93293676440E+03  0.11913056849E+04  0.12699999809E+01 0.  1.
</event>
<event>
 5   0  0.1438701E-05  0.1702524E+04  0.7818609E-02  0.8759926E-01
       -1   -1    0    0    0  501  0.00000000000E+00  0.00000000000E+00  0.81124591890E+03  0.81124591892E+03  0.50400001928E-02 0.  1.
        1   -1    0    0  501    0  0.00000000000E+00  0.00000000000E+00 -0.89325208149E+03  0.89325208150E+03  0.50400001928E-02 0. -1.
    10030    2    1    2    0    0  0.00000000000E+00  0.00000000000E+00 -0.82006162587E+02  0.17044980004E+04  0.17025241328E+04 0.  0.
        4    1    3    3  502    0 -0.15592762876E+03  0.17418757146E+03  0.77847553459E+03  0.81282255524E+03  0.12699999809E+01 0.  1.
       -4    1    3    3    0  502  0.15592762876E+03 -0.17418757146E+03 -0.86048169717E+03  0.89167544518E+03  0.12699999809E+01 0. -1.
</event>
<event>
 5   0  0.3514294E-05  0.1338934E+04  0.7818609E-02  0.8999247E-01
        2   -1    0    0  501    0  0.00000000000E+00  0.00000000000E+00  0.69243711514E+03  0.69243711515E+03  0.25500000920E-02 0.  1.
       -2   -1    0    0    0  501  0.00000000000E+00  0.00000000000E+00 -0.64725891924E+03  0.64725891924E+03  0.25500000920E-02 0. -1.
    10030    2    1    2    0    0  0.00000000000E+00  0.00000000000E+00  0.45178195906E+02  0.13396960344E+04  0.13389340518E+04 0.  0.
        2    1    3    3  502    0  0.22993995112E+03  0.50848486290E+03 -0.34742787711E+03  0.65737003789E+03  0.25500000920E-02 0. -1.
       -2    1    3    3    0  502 -0.22993995112E+03 -0.50848486290E+03  0.39260607302E+03  0.68232599650E+03  0.25500000920E-02 0.  1.
</event>
<event>
 5   0  0.1495517E-05  0.2664584E+04  0.7818609E-02  0.8346589E-01
       -1   -1    0    0    0  501  0.00000000000E+00  0.00000000000E+00  0.12014336773E+04  0.12014336773E+04  0.50400001928E-02 0.  1.
        1   -1    0    0  501    0  0.00000000000E+00  0.00000000000E+00 -0.14774029007E+04  0.14774029007E+04  0.50400001928E-02 0. -1.
    10030    2    1    2    0    0  0.00000000000E+00  0.00000000000E+00 -0.27596922347E+03  0.26788365780E+04  0.26645837197E+04 0.  0.
        5    1    3    3  502    0 -0.12181194153E+04 -0.12264937827E+03 -0.66626822929E+03  0.13938411758E+04  0.46999998093E+01 0. -1.
       -5    1    3    3    0  502  0.12181194153E+04  0.12264937827E+03  0.39029900582E+03  0.12849954023E+04  0.46999998093E+01 0.  1.
</event>
<event>
 5   0  0.3568647E-05  0.2683834E+04  0.7818609E-02  0.8340269E-01
        2   -1    0    0  501    0  0.00000000000E+00  0.00000000000E+00  0.23209977912E+04  0.23209977912E+04  0.25500000920E-02 0.  1.
       -2   -1    0    0    0  501  0.00000000000E+00  0.00000000000E+00 -0.77584816891E+03  0.77584816892E+03  0.25500000920E-02 0. -1.
    10030    2    1    2    0    0  0.00000000000E+00  0.00000000000E+00  0.15451496223E+04  0.30968459601E+04  0.26838344855E+04 0.  0.
        3    1    3    3  502    0  0.99845694798E+03  0.88661940308E+03  0.61892280147E+03  0.14717593850E+04  0.10100000352E+00 0. -1.
       -3    1    3    3    0  502 -0.99845694798E+03 -0.88661940308E+03  0.92622682083E+03  0.16250865751E+04  0.10100000352E+00 0.  1.
</event>
<event>
 5   0  0.1474012E-05  0.1380442E+04  0.7818609E-02  0.8968098E-01
        1   -1    0    0  501    0  0.00000000000E+00  0.00000000000E+00  0.50411366028E+03  0.50411366031E+03  0.50400001928E-02 0. -1.
       -1   -1    0    0    0  501  0.00000000000E+00  0.00000000000E+00 -0.94503521399E+03  0.94503521401E+03  0.50400001928E-02 0.  1.
    10030    2    1    2    0    0  0.00000000000E+00  0.00000000000E+00 -0.44092155371E+03  0.14491488743E+04  0.13804421913E+04 0.  0.
        2    1    3    3  502    0 -0.17428792657E+02 -0.98586492319E+02 -0.93737255740E+03  0.94270375551E+03  0.25500000920E-02 0.  1.
       -2    1    3    3    0  502  0.17428792657E+02  0.98586492319E+02  0.49645100369E+03  0.50644511880E+03  0.25500000920E-02 0. -1.
</event>
<event>
 5   0  0.3514294E-05  0.2692651E+04  0.7818609E-02  0.8337393E-01
       -2   -1    0    0    0  501  0.00000000000E+00  0.00000000000E+00  0.94047745653E+03  0.94047745654E+03  0.25500000920E-02 0. -1.
        2   -1    0    0  501    0  0.00000000000E+00  0.00000000000E+00 -0.19273108251E+04  0.19273108251E+04  0.25500000920E-02 0.  1.
    10030    2    1    2    0    0  0.00000000000E+00  0.00000000000E+00 -0.98683336852E+03  0.28677882816E+04  0.26926510228E+04 0.  0.
        2    1    3    3  502    0  0.20207607909E+03  0.11485673717E+03  0.91894620605E+03  0.94788656570E+03  0.25500000920E-02 0. -1.
       -2    1    3    3    0  502 -0.20207607909E+03 -0.11485673717E+03 -0.19057795746E+04  0.19199017159E+04  0.25500000920E-02 0.  1.
</event>
<event>
 5   0  0.3652331E-05  0.2629273E+04  0.7818609E-02  0.8358325E-01
       -2   -1    0    0    0  501  0.00000000000E+00  0.00000000000E+00  0.97274466875E+03  0.97274466876E+03  0.25500000920E-02 0.  1.
        2   -1    0    0  501    0  0.00000000000E+00  0.00000000000E+00 -0.17766935301E+04  0.17766935302E+04  0.25500000920E-02 0. -1.
    10030    2    1    2    0    0  0.00000000000E+00  0.00000000000E+00 -0.80394886140E+03  0.27494381989E+04  0.26292730246E+04 0.  0.
        1    1    3    3  502    0 -0.34627685920E+03 -0.12155970813E+04 -0.23948550382E+02  0.12641825265E+04  0.50400001928E-02 0. -1.
       -1    1    3    3    0  502  0.34627685920E+03  0.12155970813E+04 -0.78000031101E+03  0.14852556724E+04  0.50400001928E-02 0.  1.
</event>
<event>
 5   0  0.1449521E-05  0.2660768E+04  0.7818609E-02  0.8347848E-01
        1   -1    0    0  501    0  0.00000000000E+00  0.00000000000E+00  0.16088876277E+04  0.16088876277E+04  0.50400001928E-02 0.  1.
       -1   -1    0    0    0  501  0.00000000000E+00  0.00000000000E+00 -0.11000903112E+04  0.11000903112E+04  0.50400001928E-02 0. -1.
    10030    2    1    2    0    0  0.00000000000E+00  0.00000000000E+00  0.50879731651E+03  0.27089779389E+04  0.26607680778E+04 0.  0.
        3    1    3    3  502    0  0.70613089904E+03  0.96017305471E+03  0.85618225234E+03  0.14675153154E+04  0.10100000352E+00 0. -1.
       -3    1    3    3    0  502 -0.70613089904E+03 -0.96017305471E+03 -0.34738493583E+03  0.12414626234E+04  0.10100000352E+00 0.  1.
</event>
<event>
 5   0  0.1438701E-05  0.2339889E+04  0.7818609E-02  0.8462358E-01
       -1   -1    0    0    0  501  0.00000000000E+00  0.00000000000E+00  0.98212579008E+03  0.98212579010E+03  0.50400001928E-02 0.  1.
        1   -1    0    0  501    0  0.00000000000E+00  0.00000000000E+00 -0.13936808443E+04  0.13936808443E+04  0.50400001928E-02 0. -1.
    10030    2    1    2    0    0  0.00000000000E+00  0.00000000000E+00 -0.41155505421E+03  0.23758066344E+04  0.23398888011E+04 0.  0.
        4    1    3    3  502    0 -0.15599759280E+03 -0.85928990634E+02  0.96828053138E+03  0.98452416971E+03  0.12699999809E+01 0.  1.
       -4    1    3    3    0  502  0.15599759280E+03  0.85928990634E+02 -0.13798355856E+04  0.13912824647E+04  0.12699999809E+01 0. -1.
</event>
<event>
 5   0  0.3514294E-05  0.2711863E+04  0.7818609E-02  0.8331166E-01
        2   -1    0    0  501    0  0.00000000000E+00  0.00000000000E+00  0.15493314118E+04  0.15493314118E+04  0.25500000920E-02 0.  1.
       -2   -1    0    0    0  501  0.00000000000E+00  0.00000000000E+00 -0.11866733280E+04  0.11866733280E+04  0.25500000920E-02 0. -1.
    10030    2    1    2    0    0  0.00000000000E+00  0.00000000000E+00  0.36265808379E+03  0.27360047399E+04  0.27118630221E+04 0.  0.
        2    1    3    3  502    0 -0.63698876619E+03  0.25651348095E+02  0.13887020625E+04  0.15280399531E+04  0.25500000920E-02 0.  1.
       -2    1    3    3    0  502  0.63698876619E+03 -0.25651348095E+02 -0.10260439787E+04  0.12079647868E+04  0.25500000920E-02 0. -1.
</event>
<event>
 5   0  0.3676724E-05  0.2715188E+04  0.7818609E-02  0.8330094E-01
        2   -1    0    0  501    0  0.00000000000E+00  0.00000000000E+00  0.13347167170E+04  0.13347167170E+04  0.25500000920E-02 0.  1.
       -2   -1    0    0    0  501  0.00000000000E+00  0.00000000000E+00 -0.13808633396E+04  0.13808633396E+04  0.25500000920E-02 0. -1.
    10030    2    1    2    0    0  0.00000000000E+00  0.00000000000E+00 -0.46146622611E+02  0.27155800567E+04  0.27151879370E+04 0.  0.
        4    1    3    3  502    0  0.16170964730E+03 -0.90757380551E+03 -0.10198212456E+04  0.13747280489E+04  0.12699999809E+01 0. -1.
       -4    1    3    3    0  502 -0.16170964730E+03  0.90757380551E+03  0.97367462298E+03  0.13408520078E+04  0.12699999809E+01 0.  1.
</event>
<event>
 5   0  0.3568647E-05  0.2709182E+04  0.7818609E-02  0.8332032E-01
       -2   -1    0    0    0  501  0.00000000000E+00  0.00000000000E+00  0.74560413959E+03  0.74560413959E+03  0.25500000920E-02 0. -1.
        2   -1    0    0  501    0  0.00000000000E+00  0.00000000000E+00 -0.24609803692E+04  0.24609803692E+04  0.25500000920E-02 0.  1.
    10030    2    1    2    0    0  0.00000000000E+00  0.00000000000E+00 -0.17153762297E+04  0.32065845088E+04  0.27091822757E+04 0.  0.
        3    1    3    3  502    0  0.93559032186E+03 -0.82365179979E+03 -0.14853142281E+04  0.19390435539E+04  0.10100000352E+00 0.  1.
       -3    1    3    3    0  502 -0.93559032186E+03  0.82365179979E+03 -0.23006200159E+03  0.12675409549E+04  0.10100000352E+00 0. -1.
</event>
<event>
 5   0  0.3497949E-05  0.2623633E+04  0.7818609E-02  0.8360218E-01
        2   -1    0    0  501    0  0.00000000000E+00  0.00000000000E+00  0.29751238856E+04  0.29751238856E+04  0.25500000920E-02 0.  1.
       -2   -1    0    0    0  501  0.00000000000E+00  0.00000000000E+00 -0.57841709382E+03  0.57841709382E+03  0.25500000920E-02 0. -1.
    10030    2    1    2    0    0  0.00000000000E+00  0.00000000000E+00  0.23967067917E+04  0.35535409794E+04  0.26236329863E+04 0.  0.
        5    1    3    3  502    0 -0.12292635854E+04  0.16075226039E+03  0.61750724131E+03  0.13850153554E+04  0.46999998093E+01 0. -1.
       -5    1    3    3    0  502  0.12292635854E+04 -0.16075226039E+03  0.17791995504E+04  0.21685256240E+04  0.46999998093E+01 0.  1.
</event>
<event>
 5   0  0.1438701E-05  0.2703099E+04  0.7818609E-02  0.8334000E-01
        1   -1    0    0  501    0  0.00000000000E+00  0.00000000000E+00  0.13608362278E+04  0.13608362278E+04  0.50400001928E-02 0.  1.
       -1   -1    0    0    0  501  0.00000000000E+00  0.00000000000E+00 -0.13423263385E+04  0.13423263385E+04  0.50400001928E-02 0. -1.
    10030    2    1    2    0    0  0.00000000000E+00  0.00000000000E+00  0.18509889250E+02  0.27031625663E+04  0.27030991924E+04 0.  0.
        4    1    3    3  502    0 -0.24943936420E+03 -0.13219911690E+04  0.13888842294E+03  0.13524689476E+04  0.12699999809E+01 0.  1.
       -4    1    3    3    0  502  0.24943936420E+03  0.13219911690E+04 -0.12037853369E+03  0.13506936187E+04  0.12699999809E+01 0. -1.
</event>
<event>
 5   0  0.1495517E-05  0.2689637E+04  0.7818609E-02  0.8338375E-01
       -1   -1    0    0    0  501  0.00000000000E+00  0.00000000000E+00  0.17819424840E+04  0.17819424840E+04  0.50400001928E-02 0. -1.
        1   -1    0    0  501    0  0.00000000000E+00  0.00000000000E+00 -0.10149240439E+04  0.10149240439E+04  0.50400001928E-02 0.  1.
    10030    2    1    2    0    0  0.00000000000E+00  0.00000000000E+00  0.76701844009E+03  0.27968665279E+04  0.26896366088E+04 0.  0.
        5    1    3    3  502    0 -0.22504292141E+03 -0.34196634120E+03  0.17155668494E+04  0.17637394932E+04  0.46999998093E+01 0. -1.
       -5    1    3    3    0  502  0.22504292141E+03  0.34196634120E+03 -0.94854840932E+03  0.10331270347E+04  0.46999998093E+01 0.  1.
</event>
<event>
 5   0  0.1484379E-05  0.2692248E+04  0.7818609E-02  0.8337525E-01
        1   -1    0    0  501    0  0.00000000000E+00  0.00000000000E+00  0.21195090984E+04  0.21195090984E+04  0.50400001928E-02 0.  1.
       -1   -1    0    0    0  501  0.00000000000E+00  0.00000000000E+00 -0.85493816896E+03  0.85493816897E+03  0.50400001928E-02 0. -1.
    10030    2    1    2    0    0  0.00000000000E+00  0.00000000000E+00  0.12645709294E+04  0.29744472674E+04  0.26922475575E+04 0.  0.
        1    1    3    3  502    0  0.89891557732E+03  0.50823857812E+03  0.15863362176E+04  0.18928333954E+04  0.50400001928E-02 0.  1.
       -1    1    3    3    0  502 -0.89891557732E+03 -0.50823857812E+03 -0.32176528813E+03  0.10816138720E+04  0.50400001928E-02 0. -1.
</event>
<event>
 5   0  0.3676724E-05  0.2574965E+04  0.7818609E-02  0.8376755E-01
       -2   -1    0    0    0  501  0.00000000000E+00  0.00000000000E+00  0.60610325465E+03  0.60610325466E+03  0.25500000920E-02 0. -1.
        2   -1    0    0  501    0  0.00000000000E+00  0.00000000000E+00 -0.27348656871E+04  0.27348656871E+04  0.25500000920E-02 0.  1.
    10030    2    1    2    0    0  0.00000000000E+00  0.00000000000E+00 -0.21287624325E+04  0.33409689418E+04  0.25749648495E+04 0.  0.
        4    1    3    3  502    0  0.32096373768E+02  0.12606871217E+04 -0.14008448948E+04  0.18848687562E+04  0.12699999809E+01 0. -1.
       -4    1    3    3    0  502 -0.32096373768E+02 -0.12606871217E+04 -0.72791753772E+03  0.14561001856E+04  0.12699999809E+01 0.  1.
</event>
<event>
 5   0  0.3676724E-05  0.2932418E+04  0.7818609E-02  0.8263297E-01
        2   -1    0    0  501    0  0.00000000000E+00  0.00000000000E+00  0.19100085024E+04  0.19100085024E+04  0.25500000920E-02 0.  1.
       -2   -1    0    0    0  501  0.00000000000E+00  0.00000000000E+00 -0.11255285872E+04  0.11255285872E+04  0.25500000920E-02 0. -1.
    10030    2    1    2    0    0  0.00000000000E+00  0.00000000000E+00  0.78447991520E+03  0.30355370896E+04  0.29324182316E+04 0.  0.
        4    1    3    3  502    0 -0.20645764787E+03  0.14276746075E+04  0.66393484254E+03  0.15879831968E+04  0.12699999809E+01 0.  1.
       -4    1    3    3    0  502  0.20645764787E+03 -0.14276746075E+04  0.12054507266E+03  0.14475538928E+04  0.12699999809E+01 0. -1.
</event>
<event>
 5   0  0.1228050E-05  0.2593785E+04  0.7818609E-02  0.8370315E-01
        3   -1    0    0  501    0  0.00000000000E+00  0.00000000000E+00  0.12246609338E+04  0.12246609380E+04  0.10100000352E+00 0.  1.
       -3   -1    0    0    0  501  0.00000000000E+00  0.00000000000E+00 -0.13733845196E+04  0.13733845233E+04  0.10100000352E+00 0. -1.
    10030    2    1    2    0    0  0.00000000000E+00  0.00000000000E+00 -0.14872358572E+03  0.25980454613E+04  0.25937851711E+04 0.  0.
        2    1    3    3  502    0 -0.46037358458E+03  0.59568692998E+03  0.98337630142E+03  0.12384731350E+04  0.25500000920E-02 0.  1.
       -2    1    3    3    0  502  0.46037358458E+03 -0.59568692998E+03 -0.11320998871E+04  0.13595723263E+04  0.25500000920E-02 0. -1.
</event>
<event>
 5   0  0.3514294E-05  0.2681506E+04  0.7818609E-02  0.8341031E-01
       -2   -1    0    0    0  501  0.00000000000E+00  0.00000000000E+00  0.14460139260E+04  0.14460139260E+04  0.25500000920E-02 0.  1.
        2   -1    0    0  501    0  0.00000000000E+00  0.00000000000E+00 -0.12431541153E+04  0.12431541153E+04  0.25500000920E-02 0. -1.
    10030    2    1    2    0    0  0.00000000000E+00  0.00000000000E+00  0.20285981070E+03  0.26891680414E+04  0.26815056688E+04 0.  0.
        2    1    3    3  502    0 -0.11585303544E+04 -0.65634793227E+03 -0.55967524002E+02  0.13327106040E+04  0.25500000920E-02 0. -1.
       -2    1    3    3    0  502  0.11585303544E+04  0.65634793227E+03  0.25882733470E+03  0.13564574374E+04  0.25500000920E-02 0.  1.
</event>
<event>
 5   0  0.1474012E-05  0.2713254E+04  0.7818609E-02  0.8330717E-01
        1   -1    0    0  501    0  0.00000000000E+00  0.00000000000E+00  0.13145032855E+04  0.13145032856E+04  0.50400001928E-02 0. -1.
       -1   -1    0    0    0  501  0.00000000000E+00  0.00000000000E+00 -0.14001007764E+04  0.14001007764E+04  0.50400001928E-02 0.  1.
    10030    2    1    2    0    0  0.00000000000E+00  0.00000000000E+00 -0.85597490880E+02  0.27146040620E+04  0.27132541869E+04 0.  0.
        2    1    3    3  502    0 -0.41326874912E+03 -0.12920289020E+04 -0.25259246877E+02  0.13567489717E+04  0.25500000920E-02 0. -1.
       -2    1    3    3    0  502  0.41326874912E+03  0.12920289020E+04 -0.60338244003E+02  0.13578550903E+04  0.25500000920E-02 0.  1.
</event>
<event>
 5   0  0.1449521E-05  0.2726852E+04  0.7818609E-02  0.8326345E-01
        1   -1    0    0  501    0  0.00000000000E+00  0.00000000000E+00  0.15898569820E+04  0.15898569820E+04  0.50400001928E-02 0. -1.
       -1   -1    0    0    0  501  0.00000000000E+00  0.00000000000E+00 -0.11692436076E+04  0.11692436076E+04  0.50400001928E-02 0.  1.
    10030    2    1    2    0    0  0.00000000000E+00  0.00000000000E+00  0.42061337441E+03  0.27591005896E+04  0.27268517475E+04 0.  0.
        3    1    3    3  502    0 -0.92927015165E+03  0.99003715051E+03  0.85504847031E+02  0.13605247749E+04  0.10100000352E+00 0. -1.
       -3    1    3    3    0  502  0.92927015165E+03 -0.99003715051E+03  0.33510852738E+03  0.13985758147E+04  0.10100000352E+00 0.  1.
</event>
<event>
 5   0  0.3497949E-05  0.2615352E+04  0.7818609E-02  0.8363005E-01
        2   -1    0    0  501    0  0.00000000000E+00  0.00000000000E+00  0.19320059976E+04  0.19320059977E+04  0.25500000920E-02 0. -1.
       -2   -1    0    0    0  501  0.00000000000E+00  0.00000000000E+00 -0.88509885538E+03  0.88509885538E+03  0.25500000920E-02 0.  1.
    10030    2    1    2    0    0  0.00000000000E+00  0.00000000000E+00  0.10469071423E+04  0.28171048530E+04  0.26153518288E+04 0.  0.
        5    1    3    3  502    0 -0.77609278816E+03 -0.52653979618E+03  0.15050306657E+04  0.17733312064E+04  0.46999998093E+01 0. -1.
       -5    1    3    3    0  502  0.77609278816E+03  0.52653979618E+03 -0.45812352341E+03  0.10437736467E+04  0.46999998093E+01 0.  1.
</event>
<event>
 5   0  0.3652331E-05  0.2713432E+04  0.7818609E-02  0.8330660E-01
        2   -1    0    0  501    0  0.00000000000E+00  0.00000000000E+00  0.16011402509E+04  0.16011402509E+04  0.25500000920E-02 0. -1.
       -2   -1    0    0    0  501  0.00000000000E+00  0.00000000000E+00 -0.11496043292E+04  0.11496043292E+04  0.25500000920E-02 0.  1.
    10030    2    1    2    0    0  0.00000000000E+00  0.00000000000E+00  0.45153592169E+03  0.27507445801E+04  0.27134316015E+04 0.  0.
        1    1    3    3  502    0  0.34089355141E+02  0.12845973481E+04 -0.21533071292E+03  0.13029657505E+04  0.50400001928E-02 0.  1.
       -1    1    3    3    0  502 -0.34089355141E+02 -0.12845973481E+04  0.66686663461E+03  0.14477788296E+04  0.50400001928E-02 0. -1.
</event>
<event>
 5   0  0.1438701E-05  0.1440522E+04  0.7818609E-02  0.8924998E-01
        1   -1    0    0  501    0  0.00000000000E+00  0.00000000000E+00  0.34038781844E+03  0.34038781848E+03  0.50400001928E-02 0. -1.
       -1   -1    0    0    0  501  0.00000000000E+00  0.00000000000E+00 -0.15240724214E+04  0.15240724214E+04  0.50400001928E-02 0.  1.
    10030    2    1    2    0    0  0.00000000000E+00  0.00000000000E+00 -0.11836846029E+04  0.18644602399E+04  0.14405216926E+04 0.  0.
        4    1    3    3  502    0 -0.84780031862E+01  0.59619464189E+03 -0.68885959935E+02  0.60022230542E+03  0.12699999809E+01 0. -1.
       -4    1    3    3    0  502  0.84780031862E+01 -0.59619464189E+03 -0.11147986430E+04  0.12642379345E+04  0.12699999809E+01 0.  1.
</event>
<event>
 5   0  0.1438701E-05  0.2472789E+04  0.7818609E-02  0.8412744E-01
        1   -1    0    0  501    0  0.00000000000E+00  0.00000000000E+00  0.16907042569E+04  0.16907042569E+04  0.50400001928E-02 0. -1.
       -1   -1    0    0    0  501  0.00000000000E+00  0.00000000000E+00 -0.90416250397E+03  0.90416250399E+03  0.50400001928E-02 0.  1.
    10030    2    1    2    0    0  0.00000000000E+00  0.00000000000E+00  0.78654175294E+03  0.25948667609E+04  0.24727890282E+04 0.  0.
        4    1    3    3  502    0 -0.95152024357E+03  0.68367628484E+02 -0.43207249360E+03  0.10472598336E+04  0.12699999809E+01 0.  1.
       -4    1    3    3    0  502  0.95152024357E+03 -0.68367628484E+02  0.12186142465E+04  0.15476069273E+04  0.12699999809E+01 0. -1.
</event>
<event>
 5   0  0.1495517E-05  0.2786047E+04  0.7818609E-02  0.8307613E-01
        1   -1    0    0  501    0  0.00000000000E+00  0.00000000000E+00  0.11591937411E+04  0.11591937411E+04  0.50400001928E-02 0. -1.
       -1   -1    0    0    0  501  0.00000000000E+00  0.00000000000E+00 -0.16740208395E+04  0.16740208395E+04  0.50400001928E-02 0.  1.
    10030    2    1    2    0    0  0.00000000000E+00  0.00000000000E+00 -0.51482709837E+03  0.28332145806E+04  0.27860470058E+04 0.  0.
        5    1    3    3  502    0 -0.10308477449E+03  0.11983073446E+04  0.45728305814E+03  0.12867388423E+04  0.46999998093E+01 0. -1.
       -5    1    3    3    0  502  0.10308477449E+03 -0.11983073446E+04 -0.97211015651E+03  0.15464757383E+04  0.46999998093E+01 0.  1.
</event>
<event>
 5   0  0.3676724E-05  0.2638812E+04  0.7818609E-02  0.8355136E-01
        2   -1    0    0  501    0  0.00000000000E+00  0.00000000000E+00  0.17760416289E+04  0.17760416289E+04  0.25500000920E-02 0.  1.
       -2   -1    0    0    0  501  0.00000000000E+00  0.00000000000E+00 -0.98017566819E+03  0.98017566819E+03  0.25500000920E-02 0. -1.
    10030    2    1    2    0    0  0.00000000000E+00  0.00000000000E+00  0.79586596066E+03  0.27562172970E+04  0.26388124528E+04 0.  0.
        4    1    3    3  502    0 -0.66899492881E+03  0.10255331487E+04 -0.11542024137E+03  0.12298763755E+04  0.12699999809E+01 0. -1.
       -4    1    3    3    0  502  0.66899492881E+03 -0.10255331487E+04  0.91128620204E+03  0.15263409216E+04  0.12699999809E+01 0.  1.
</event>
<event>
 5   0  0.1495517E-05  0.2103499E+04  0.7818609E-02  0.8559704E-01
        1   -1    0    0  501    0  0.00000000000E+00  0.00000000000E+00  0.14731933911E+04  0.14731933911E+04  0.50400001928E-02 0. -1.
       -1   -1    0    0    0  501  0.00000000000E+00  0.00000000000E+00 -0.75087014509E+03  0.75087014511E+03  0.50400001928E-02 0.  1.
    10030    2    1    2    0    0  0.00000000000E+00  0.00000000000E+00  0.72232324604E+03  0.22240635363E+04  0.21034989283E+04 0.  0.
        5    1    3    3  502    0 -0.61988758201E+03  0.80606253553E+03  0.64517931420E+03  0.12042739983E+04  0.46999998093E+01 0. -1.
       -5    1    3    3    0  502  0.61988758201E+03 -0.80606253553E+03  0.77143931844E+02  0.10197895380E+04  0.46999998093E+01 0.  1.
</event>
<event>
 5   0  0.3568647E-05  0.2710952E+04  0.7818609E-02  0.8331460E-01
        2   -1    0    0  501    0  0.00000000000E+00  0.00000000000E+00  0.17500308075E+04  0.17500308075E+04  0.25500000920E-02 0. -1.
       -2   -1    0    0    0  501  0.00000000000E+00  0.00000000000E+00 -0.10498758899E+04  0.10498758899E+04  0.25500000920E-02 0.  1.
    10030    2    1    2    0    0  0.00000000000E+00  0.00000000000E+00  0.70015491757E+03  0.27999066974E+04  0.27109519740E+04 0.  0.
        3    1    3    3  502    0  0.12599041811E+04 -0.98648276545E+02  0.85628771347E+03  0.15265381379E+04  0.10100000352E+00 0.  1.
       -3    1    3    3    0  502 -0.12599041811E+04  0.98648276545E+02 -0.15613279590E+03  0.12733685595E+04  0.10100000352E+00 0. -1.
</event>
<event>
 5   0  0.3568647E-05  0.2703248E+04  0.7818609E-02  0.8333952E-01
       -2   -1    0    0    0  501  0.00000000000E+00  0.00000000000E+00  0.18216887808E+04  0.18216887808E+04  0.25500000920E-02 0.  1.
        2   -1    0    0  501    0  0.00000000000E+00  0.00000000000E+00 -0.10028534637E+04  0.10028534637E+04  0.25500000920E-02 0. -1.
    10030    2    1    2    0    0  0.00000000000E+00  0.00000000000E+00  0.81883531717E+03  0.28245422445E+04  0.27032476051E+04 0.  0.
        3    1    3    3  502    0 -0.10484993866E+04 -0.81204442365E+03  0.13670903082E+03  0.13332128408E+04  0.10100000352E+00 0.  1.
       -3    1    3    3    0  502  0.10484993866E+04  0.81204442365E+03  0.68212628635E+03  0.14913294037E+04  0.10100000352E+00 0. -1.
</event>
<event>
 5   0  0.1228050E-05  0.2746910E+04  0.7818609E-02  0.8319943E-01
       -3   -1    0    0    0  501  0.00000000000E+00  0.00000000000E+00  0.10197294079E+04  0.10197294129E+04  0.10100000352E+00 0.  1.
        3   -1    0    0  501    0  0.00000000000E+00  0.00000000000E+00 -0.18498812121E+04  0.18498812148E+04  0.10100000352E+00 0. -1.
    10030    2    1    2    0    0  0.00000000000E+00  0.00000000000E+00 -0.83015180419E+03  0.28696106277E+04  0.27469097431E+04 0.  0.
        4    1    3    3  502    0  0.67401084422E+03 -0.11644213454E+04 -0.12668492605E+03  0.13513764728E+04  0.12699999809E+01 0. -1.
       -4    1    3    3    0  502 -0.67401084422E+03  0.11644213454E+04 -0.70346687815E+03  0.15182341550E+04  0.12699999809E+01 0.  1.
</event>
<event>
 5   0  0.1495517E-05  0.1405516E+04  0.7818609E-02  0.8949835E-01
        1   -1    0    0  501    0  0.00000000000E+00  0.00000000000E+00  0.28821529767E+03  0.28821529771E+03  0.50400001928E-02 0. -1.
       -1   -1    0    0    0  501  0.00000000000E+00  0.00000000000E+00 -0.17135411723E+04  0.17135411723E+04  0.50400001928E-02 0.  1.
    10030    2    1    2    0    0  0.00000000000E+00  0.00000000000E+00 -0.14253258747E+04  0.20017564700E+04  0.14055159609E+04 0.  0.
        5    1    3    3  502    0  0.38294471568E+03 -0.93980917880E+02 -0.15411197202E+04  0.15907706152E+04  0.46999998093E+01 0.  1.
       -5    1    3    3    0  502 -0.38294471568E+03  0.93980917880E+02  0.11579384557E+03  0.41098585482E+03  0.46999998093E+01 0. -1.
</event>
<event>
 5   0  0.3568647E-05  0.1682871E+04  0.7818609E-02  0.8771194E-01
       -2   -1    0    0    0  501  0.00000000000E+00  0.00000000000E+00  0.58152864838E+03  0.58152864839E+03  0.25500000920E-02 0. -1.
        2   -1    0    0  501    0  0.00000000000E+00  0.00000000000E+00 -0.12175043816E+04  0.12175043816E+04  0.25500000920E-02 0.  1.
    10030    2    1    2    0    0  0.00000000000E+00  0.00000000000E+00 -0.63597573321E+03  0.17990330300E+04  0.16828709724E+04 0.  0.
        3    1    3    3  502    0  0.15692989395E+03 -0.41220903602E+03 -0.10840182899E+04  0.11703157455E+04  0.10100000352E+00 0.  1.
       -3    1    3    3    0  502 -0.15692989395E+03  0.41220903602E+03  0.44804255673E+03  0.62871728450E+03  0.10100000352E+00 0. -1.
</event>
<event>
 5   0  0.1228050E-05  0.2497801E+04  0.7818609E-02  0.8403769E-01
       -3   -1    0    0    0  501  0.00000000000E+00  0.00000000000E+00  0.12572702291E+04  0.12572702331E+04  0.10100000352E+00 0.  1.
        3   -1    0    0  501    0  0.00000000000E+00  0.00000000000E+00 -0.12405865655E+04  0.12405865696E+04  0.10100000352E+00 0. -1.
    10030    2    1    2    0    0  0.00000000000E+00  0.00000000000E+00  0.16683663609E+02  0.24978568027E+04  0.24978010854E+04 0.  0.
        3    1    3    3  502    0  0.63559150821E+03 -0.14943553486E+03  0.10729993251E+04  0.12560394525E+04  0.10100000352E+00 0.  1.
       -3    1    3    3    0  502 -0.63559150821E+03  0.14943553486E+03 -0.10563156615E+04  0.12418173502E+04  0.10100000352E+00 0. -1.
</event>
<event>
 5   0  0.3514294E-05  0.2713561E+04  0.7818609E-02  0.8330618E-01
        2   -1    0    0  501    0  0.00000000000E+00  0.00000000000E+00  0.19902326148E+04  0.19902326148E+04  0.25500000920E-02 0.  1.
       -2   -1    0    0    0  501  0.00000000000E+00  0.00000000000E+00 -0.92494364879E+03  0.92494364879E+03  0.25500000920E-02 0. -1.
    10030    2    1    2    0    0  0.00000000000E+00  0.00000000000E+00  0.10652889661E+04  0.29151762636E+04  0.27135607727E+04 0.  0.
        2    1    3    3  502    0 -0.12147490202E+04 -0.12900172965E+02  0.11817483320E+04  0.16947892839E+04  0.25500000920E-02 0.  1.
       -2    1    3    3    0  502  0.12147490202E+04  0.12900172965E+02 -0.11645936597E+03  0.12203869798E+04  0.25500000920E-02 0. -1.
</event>
<event>
 5   0  0.3652331E-05  0.1457718E+04  0.7818609E-02  0.8913067E-01
       -2   -1    0    0    0  501  0.00000000000E+00  0.00000000000E+00  0.70784847600E+03  0.70784847601E+03  0.25500000920E-02 0. -1.
        2   -1    0    0  501    0  0.00000000000E+00  0.00000000000E+00 -0.75049290496E+03  0.75049290496E+03  0.25500000920E-02 0.  1.
    10030    2    1    2    0    0  0.00000000000E+00  0.00000000000E+00 -0.42644428955E+02  0.14583413810E+04  0.14577177491E+04 0.  0.
        1    1    3    3  502    0 -0.67558954134E+03  0.66750190439E+02 -0.28668735201E+03  0.73693042692E+03  0.50400001928E-02 0.  1.
       -1    1    3    3    0  502  0.67558954134E+03 -0.66750190439E+02  0.24404292306E+03  0.72141095405E+03  0.50400001928E-02 0. -1.
</event>
<event>
 5   0  0.1484379E-05  0.2585238E+04  0.7818609E-02  0.8373233E-01
       -1   -1    0    0    0  501  0.00000000000E+00  0.00000000000E+00  0.12070880710E+04  0.12070880710E+04  0.50400001928E-02 0. -1.
        1   -1    0    0  501    0  0.00000000000E+00  0.00000000000E+00 -0.13842102070E+04  0.13842102070E+04  0.50400001928E-02 0.  1.
    10030    2    1    2    0    0  0.00000000000E+00  0.00000000000E+00 -0.17712213599E+03  0.25912982780E+04  0.25852378062E+04 0.  0.
        1    1    3    3  502    0 -0.18501385610E+03 -0.10785519814E+04 -0.77818493726E+03  0.13427867664E+04  0.50400001928E-02 0.  1.
       -1    1    3    3    0  502  0.18501385610E+03  0.10785519814E+04  0.60106280126E+03  0.12485115116E+04  0.50400001928E-02 0. -1.
</event>
<event>
 5   0  0.3676724E-05  0.2591655E+04  0.7818609E-02  0.8371041E-01
       -2   -1    0    0    0  501  0.00000000000E+00  0.00000000000E+00  0.64849949029E+03  0.64849949030E+03  0.25500000920E-02 0.  1.
        2   -1    0    0  501    0  0.00000000000E+00  0.00000000000E+00 -0.25893144803E+04  0.25893144803E+04  0.25500000920E-02 0. -1.
    10030    2    1    2    0    0  0.00000000000E+00  0.00000000000E+00 -0.19408149900E+04  0.32378139706E+04  0.25916551628E+04 0.  0.
        4    1    3    3  502    0 -0.41853956212E+02 -0.12788845531E+04 -0.71476889078E+03  0.14656717347E+04  0.12699999809E+01 0.  1.
       -4    1    3    3    0  502  0.41853956212E+02  0.12788845531E+04 -0.12260460992E+04  0.17721422359E+04  0.12699999809E+01 0. -1.
</event>
<event>
 5   0  0.3676724E-05  0.2719037E+04  0.7818609E-02  0.8328854E-01
        2   -1    0    0  501    0  0.00000000000E+00  0.00000000000E+00  0.10331832291E+04  0.10331832291E+04  0.25500000920E-02 0.  1.
       -2   -1    0    0    0  501  0.00000000000E+00  0.00000000000E+00 -0.17889285225E+04  0.17889285225E+04  0.25500000920E-02 0. -1.
    10030    2    1    2    0    0  0.00000000000E+00  0.00000000000E+00 -0.75574529341E+03  0.28221117517E+04  0.27190372911E+04 0.  0.
        4    1    3    3  502    0  0.10320615605E+04 -0.23697886888E+03 -0.12628253526E+04  0.16480411200E+04  0.12699999809E+01 0. -1.
       -4    1    3    3    0  502 -0.10320615605E+04  0.23697886888E+03  0.50708005922E+03  0.11740706317E+04  0.12699999809E+01 0.  1.
</event>
<event>
 5   0  0.3497949E-05  0.2698540E+04  0.7818609E-02  0.8335479E-01
        2   -1    0    0  501    0  0.00000000000E+00  0.00000000000E+00  0.82998754599E+03  0.82998754599E+03  0.25500000920E-02 0. -1.
       -2   -1    0    0    0  501  0.00000000000E+00  0.00000000000E+00 -0.21934427815E+04  0.21934427815E+04  0.25500000920E-02 0.  1.
    10030    2    1    2    0    0  0.00000000000E+00  0.00000000000E+00 -0.13634552355E+04  0.30234303275E+04  0.26985404881E+04 0.  0.
        5    1    3    3  502    0  0.10448123246E+04 -0.35182808527E+03  0.18980138078E+03  0.11186878248E+04  0.46999998093E+01 0. -1.
       -5    1    3    3    0  502 -0.10448123246E+04  0.35182808527E+03 -0.15532566163E+04  0.19047425026E+04  0.46999998093E+01 0.  1.
</event>
<event>
 5   0  0.1438701E-05  0.2625042E+04  0.7818609E-02  0.8359744E-01
        1   -1    0    0  501    0  0.00000000000E+00  0.00000000000E+00  0.97588417383E+03  0.97588417385E+03  0.50400001928E-02 0. -1.
       -1   -1    0    0    0  501  0.00000000000E+00  0.00000000000E+00 -0.17652832742E+04  0.17652832742E+04  0.50400001928E-02 0.  1.
    10030    2    1    2    0    0  0.00000000000E+00  0.00000000000E+00 -0.78939910040E+03  0.27411674481E+04  0.26250424832E+04 0.  0.
        4    1    3    3  502    0 -0.19374459438E+03 -0.11879240969E+03  0.95518144882E+03  0.98184612721E+03  0.12699999809E+01 0. -1.
       -4    1    3    3    0  502  0.19374459438E+03  0.11879240969E+03 -0.17445805492E+04  0.17593213209E+04  0.12699999809E+01 0.  1.
</event>
<event>
 5   0  0.1474012E-05  0.1582938E+04  0.7818609E-02  0.8831099E-01
       -1   -1    0    0    0  501  0.00000000000E+00  0.00000000000E+00  0.91672752008E+03  0.91672752010E+03  0.50400001928E-02 0. -1.
        1   -1    0    0  501    0  0.00000000000E+00  0.00000000000E+00 -0.68332575895E+03  0.68332575897E+03  0.50400001928E-02 0.  1.
    10030    2    1    2    0    0  0.00000000000E+00  0.00000000000E+00  0.23340176113E+03  0.16000532791E+04  0.15829384428E+04 0.  0.
        2    1    3    3  502    0 -0.76471425461E+03  0.18481957258E+03  0.29294196525E+02  0.78727651786E+03  0.25500000920E-02 0.  1.
       -2    1    3    3    0  502  0.76471425461E+03 -0.18481957258E+03  0.20410756460E+03  0.81277676120E+03  0.25500000920E-02 0. -1.
</event>
<event>
 5   0  0.3568647E-05  0.2561189E+04  0.7818609E-02  0.8381505E-01
       -2   -1    0    0    0  501  0.00000000000E+00  0.00000000000E+00  0.60067415513E+03  0.60067415514E+03  0.25500000920E-02 0. -1.
        2   -1    0    0  501    0  0.00000000000E+00  0.00000000000E+00 -0.27301371310E+04  0.27301371310E+04  0.25500000920E-02 0.  1.
    10030    2    1    2    0    0  0.00000000000E+00  0.00000000000E+00 -0.21294629759E+04  0.33308112862E+04  0.25611894226E+04 0.  0.
        3    1    3    3  502    0 -0.73344619887E+03 -0.92397169485E+03 -0.41675683671E+03  0.12511407957E+04  0.10100000352E+00 0. -1.
       -3    1    3    3    0  502  0.73344619887E+03  0.92397169485E+03 -0.17127061392E+04  0.20796704905E+04  0.10100000352E+00 0.  1.
</event>
<event>
 5   0  0.3676724E-05  0.2763805E+04  0.7818609E-02  0.8314594E-01
        2   -1    0    0  501    0  0.00000000000E+00  0.00000000000E+00  0.16956562449E+04  0.16956562449E+04  0.25500000920E-02 0.  1.
       -2   -1    0    0    0  501  0.00000000000E+00  0.00000000000E+00 -0.11262041146E+04  0.11262041146E+04  0.25500000920E-02 0. -1.
    10030    2    1    2    0    0  0.00000000000E+00  0.00000000000E+00  0.56945213028E+03  0.28218603595E+04  0.27638053766E+04 0.  0.
        4    1    3    3  502    0  0.34176849612E+03 -0.12320121194E+04  0.82013986398E+03  0.15189768190E+04  0.12699999809E+01 0.  1.
       -4    1    3    3    0  502 -0.34176849612E+03  0.12320121194E+04 -0.25068773370E+03  0.13028835405E+04  0.12699999809E+01 0. -1.
</event>
<event>
 5   0  0.3676724E-05  0.2600419E+04  0.7818609E-02  0.8368059E-01
       -2   -1    0    0    0  501  0.00000000000E+00  0.00000000000E+00  0.75436248336E+03  0.75436248337E+03  0.25500000920E-02 0.  1.
        2   -1    0    0  501    0  0.00000000000E+00  0.00000000000E+00 -0.22410240237E+04  0.22410240237E+04  0.25500000920E-02 0. -1.
    10030    2    1    2    0    0  0.00000000000E+00  0.00000000000E+00 -0.14866615404E+04  0.29953865071E+04  0.26004187723E+04 0.  0.
        4    1    3    3  502    0  0.11509912236E+04 -0.54432148240E+03 -0.43971279047E+03  0.13470024588E+04  0.12699999809E+01 0.  1.
       -4    1    3    3    0  502 -0.11509912236E+04  0.54432148240E+03 -0.10469487499E+04  0.16483840483E+04  0.12699999809E+01 0. -1.
</event>
<event>
 5   0  0.1449521E-05  0.2705394E+04  0.7818609E-02  0.8333257E-01
        1   -1    0    0  501    0  0.00000000000E+00  0.00000000000E+00  0.18035196914E+04  0.18035196914E+04  0.50400001928E-02 0. -1.
       -1   -1    0    0    0  501  0.00000000000E+00  0.00000000000E+00 -0.10145657988E+04  0.10145657988E+04  0.50400001928E-02 0.  1.
    10030    2    1    2    0    0  0.00000000000E+00  0.00000000000E+00  0.78895389267E+03  0.28180854902E+04  0.27053941645E+04 0.  0.
        3    1    3    3  502    0 -0.11002076519E+04 -0.16016939728E+03 -0.40812312232E+03  0.11843460670E+04  0.10100000352E+00 0.  1.
       -3    1    3    3    0  502  0.11002076519E+04  0.16016939728E+03  0.11970770150E+04  0.16337394233E+04  0.10100000352E+00 0. -1.
</event>
<event>
 5   0  0.1484379E-05  0.2622347E+04  0.7818609E-02  0.8360650E-01
        1   -1    0    0  501    0  0.00000000000E+00  0.00000000000E+00  0.13528179546E+04  0.13528179546E+04  0.50400001928E-02 0.  1.
       -1   -1    0    0    0  501  0.00000000000E+00  0.00000000000E+00 -0.12708109099E+04  0.12708109099E+04  0.50400001928E-02 0. -1.
    10030    2    1    2    0    0  0.00000000000E+00  0.00000000000E+00  0.82007044723E+02  0.26236288645E+04  0.26223468999E+04 0.  0.
        1    1    3    3  502    0  0.94737083654E+03 -0.90098424973E+03 -0.58502102187E+02  0.13087041744E+04  0.50400001928E-02 0.  1.
       -1    1    3    3    0  502 -0.94737083654E+03  0.90098424973E+03  0.14050914691E+03  0.13149246901E+04  0.50400001928E-02 0. -1.
</event>
<event>
 5   0  0.1474012E-05  0.2692026E+04  0.7818609E-02  0.8337597E-01
        1   -1    0    0  501    0  0.00000000000E+00  0.00000000000E+00  0.20233200844E+04  0.20233200844E+04  0.50400001928E-02 0.  1.
       -1   -1    0    0    0  501  0.00000000000E+00  0.00000000000E+00 -0.89543478216E+03  0.89543478218E+03  0.50400001928E-02 0. -1.
    10030    2    1    2    0    0  0.00000000000E+00  0.00000000000E+00  0.11278853022E+04  0.29187548665E+04  0.26920261358E+04 0.  0.
        2    1    3    3  502    0  0.80166444675E+03 -0.10674442320E+04  0.75063083150E+03  0.15315187622E+04  0.25500000920E-02 0. -1.
       -2    1    3    3    0  502 -0.80166444675E+03  0.10674442320E+04  0.37725447070E+03  0.13872361044E+04  0.25500000920E-02 0.  1.
</event>
<event>
 5   0  0.3652331E-05  0.2650699E+04  0.7818609E-02  0.8351181E-01
       -2   -1    0    0    0  501  0.00000000000E+00  0.00000000000E+00  0.99808336256E+03  0.99808336256E+03  0.25500000920E-02 0. -1.
        2   -1    0    0  501    0  0.00000000000E+00  0.00000000000E+00 -0.17599238476E+04  0.17599238476E+04  0.25500000920E-02 0.  1.
    10030    2    1    2    0    0  0.00000000000E+00  0.00000000000E+00 -0.76184048500E+03  0.27580072101E+04  0.26506985582E+04 0.  0.
        1    1    3    3  502    0 -0.12019375391E+02 -0.63707665135E+03 -0.15900940040E+04  0.17130119867E+04  0.50400001928E-02 0.  1.
       -1    1    3    3    0  502  0.12019375391E+02  0.63707665135E+03  0.82825351902E+03  0.10449952234E+04  0.50400001928E-02 0. -1.
</event>
<event>
 5   0  0.3676724E-05  0.2611962E+04  0.7818609E-02  0.8364149E-01
       -2   -1    0    0    0  501  0.00000000000E+00  0.00000000000E+00  0.18806142451E+04  0.18806142451E+04  0.25500000920E-02 0.  1.
        2   -1    0    0  501    0  0.00000000000E+00  0.00000000000E+00 -0.90693013432E+03  0.90693013432E+03  0.25500000920E-02 0. -1.
    10030    2    1    2    0    0  0.00000000000E+00  0.00000000000E+00  0.97368411076E+03  0.27875443794E+04  0.26119615081E+04 0.  0.
        4    1    3    3  502    0 -0.11076718858E+04  0.68654428098E+03  0.39563315857E+03  0.13619130903E+04  0.12699999809E+01 0.  1.
       -4    1    3    3    0  502  0.11076718858E+04 -0.68654428098E+03  0.57805095219E+03  0.14256312891E+04  0.12699999809E+01 0. -1.
</event>
<event>
 5   0  0.1495517E-05  0.1591405E+04  0.7818609E-02  0.8825846E-01
       -1   -1    0    0    0  501  0.00000000000E+00  0.00000000000E+00  0.95809366771E+03  0.95809366772E+03  0.50400001928E-02 0.  1.
        1   -1    0    0  501    0  0.00000000000E+00  0.00000000000E+00 -0.66083575471E+03  0.66083575473E+03  0.50400001928E-02 0. -1.
    10030    2    1    2    0    0  0.00000000000E+00  0.00000000000E+00  0.29725791299E+03  0.16189294225E+04  0.15914051049E+04 0.  0.
        5    1    3    3  502    0  0.12719905865E+03  0.30754564623E+03 -0.58661368412E+03  0.67446395711E+03  0.46999998093E+01 0. -1.
       -5    1    3    3    0  502 -0.12719905865E+03 -0.30754564623E+03  0.88387159712E+03  0.94446546534E+03  0.46999998093E+01 0.  1.
</event>
<event>
 5   0  0.3652331E-05  0.2716434E+04  0.7818609E-02  0.8329692E-01
        2   -1    0    0  501    0  0.00000000000E+00  0.00000000000E+00  0.15211592190E+04  0.15211592190E+04  0.25500000920E-02 0. -1.
       -2   -1    0    0    0  501  0.00000000000E+00  0.00000000000E+00 -0.12127289851E+04  0.12127289851E+04  0.25500000920E-02 0.  1.
    10030    2    1    2    0    0  0.00000000000E+00  0.00000000000E+00  0.30843023387E+03  0.27338882041E+04  0.27164343363E+04 0.  0.
        1    1    3    3  502    0 -0.10037856331E+04  0.26164855956E+03 -0.72817843869E+03  0.12673947312E+04  0.50400001928E-02 0.  1.
       -1    1    3    3    0  502  0.10037856331E+04 -0.26164855956E+03  0.10366086726E+04  0.14664934729E+04  0.50400001928E-02 0. -1.
</event>
<event>
 5   0  0.1449521E-05  0.2653050E+04  0.7818609E-02  0.8350402E-01
        1   -1    0    0  501    0  0.00000000000E+00  0.00000000000E+00  0.13387583789E+04  0.13387583789E+04  0.50400001928E-02 0.  1.
       -1   -1    0    0    0  501  0.00000000000E+00  0.00000000000E+00 -0.13144029380E+04  0.13144029381E+04  0.50400001928E-02 0. -1.
    10030    2    1    2    0    0  0.00000000000E+00  0.00000000000E+00  0.24355440880E+02  0.26531613170E+04  0.26530495258E+04 0.  0.
        3    1    3    3  502    0 -0.53210083196E+03 -0.44460359315E+03 -0.11187387499E+04  0.13161990925E+04  0.10100000352E+00 0. -1.
       -3    1    3    3    0  502  0.53210083196E+03  0.44460359315E+03  0.11430941908E+04  0.13369622245E+04  0.10100000352E+00 0.  1.
</event>
<event>
 5   0  0.1495517E-05  0.2778134E+04  0.7818609E-02  0.8310089E-01
        1   -1    0    0  501    0  0.00000000000E+00  0.00000000000E+00  0.80266586919E+03  0.80266586920E+03  0.50400001928E-02 0. -1.
       -1   -1    0    0    0  501  0.00000000000E+00  0.00000000000E+00 -0.24038742451E+04  0.24038742451E+04  0.50400001928E-02 0.  1.
    10030    2    1    2    0    0  0.00000000000E+00  0.00000000000E+00 -0.16012083759E+04  0.32065401143E+04  0.27781344895E+04 0.  0.
        5    1    3    3  502    0  0.82983060371E+03  0.10498158356E+04 -0.37066647442E+03  0.13885776337E+04  0.46999998093E+01 0.  1.
       -5    1    3    3    0  502 -0.82983060371E+03 -0.10498158356E+04 -0.12305419015E+04  0.18179624806E+04  0.46999998093E+01 0. -1.
</event>
<event>
 5   0  0.1495517E-05  0.2611805E+04  0.7818609E-02  0.8364202E-01
       -1   -1    0    0    0  501  0.00000000000E+00  0.00000000000E+00  0.13812514248E+04  0.13812514248E+04  0.50400001928E-02 0. -1.
        1   -1    0    0  501    0  0.00000000000E+00  0.00000000000E+00 -0.12346640317E+04  0.12346640317E+04  0.50400001928E-02 0.  1.
    10030    2    1    2    0    0  0.00000000000E+00  0.00000000000E+00  0.14658739303E+03  0.26159154565E+04  0.26118050869E+04 0.  0.
        5    1    3    3  502    0 -0.51249846992E+03  0.95916184630E+03  0.79742060871E+03  0.13485354449E+04  0.46999998093E+01 0. -1.
       -5    1    3    3    0  502  0.51249846992E+03 -0.95916184630E+03 -0.65083321568E+03  0.12673800116E+04  0.46999998093E+01 0.  1.
</event>
<event>
 5   0  0.3497949E-05  0.2507311E+04  0.7818609E-02  0.8400385E-01
        2   -1    0    0  501    0  0.00000000000E+00  0.00000000000E+00  0.14154443864E+04  0.14154443864E+04  0.25500000920E-02 0. -1.
       -2   -1    0    0    0  501  0.00000000000E+00  0.00000000000E+00 -0.11103598372E+04  0.11103598372E+04  0.25500000920E-02 0.  1.
    10030    2    1    2    0    0  0.00000000000E+00  0.00000000000E+00  0.30508454919E+03  0.25258042237E+04  0.25073113876E+04 0.  0.
        5    1    3    3  502    0  0.37324656484E+03 -0.85120975480E+03 -0.69494708570E+03  0.11605363358E+04  0.46999998093E+01 0.  1.
       -5    1    3    3    0  502 -0.37324656484E+03  0.85120975480E+03  0.10000316349E+04  0.13652678879E+04  0.46999998093E+01 0. -1.
</event>
<event>
 5   0  0.3497949E-05  0.2686811E+04  0.7818609E-02  0.8339297E-01
        2   -1    0    0  501    0  0.00000000000E+00  0.00000000000E+00  0.19233728755E+04  0.19233728755E+04  0.25500000920E-02 0.  1.
       -2   -1    0    0    0  501  0.00000000000E+00  0.00000000000E+00 -0.93831986713E+03  0.93831986714E+03  0.25500000920E-02 0. -1.
    10030    2    1    2    0    0  0.00000000000E+00  0.00000000000E+00  0.98505300838E+03  0.28616927426E+04  0.26868114791E+04 0.  0.
        5    1    3    3  502    0  0.12583844545E+04 -0.29700063649E+03  0.88092055257E+03  0.15645395244E+04  0.46999998093E+01 0. -1.
       -5    1    3    3    0  502 -0.12583844545E+04  0.29700063649E+03  0.10413245581E+03  0.12971532183E+04  0.46999998093E+01 0.  1.
</event>
<event>
 5   0  0.3514294E-05  0.2741397E+04  0.7818609E-02  0.8321697E-01
        2   -1    0    0  501    0  0.00000000000E+00  0.00000000000E+00  0.30004440204E+04  0.30004440204E+04  0.25500000920E-02 0. -1.
       -2   -1    0    0    0  501  0.00000000000E+00  0.00000000000E+00 -0.62617888704E+03  0.62617888704E+03  0.25500000920E-02 0.  1.
    10030    2    1    2    0    0  0.00000000000E+00  0.00000000000E+00  0.23742651334E+04  0.36266229075E+04  0.27413972330E+04 0.  0.
        2    1    3    3  502    0 -0.14694746646E+03 -0.11539284394E+04  0.21462839311E+04  0.24412454023E+04  0.25500000920E-02 0. -1.
       -2    1    3    3    0  502  0.14694746646E+03  0.11539284394E+04  0.22798120225E+03  0.11853775052E+04  0.25500000920E-02 0.  1.
</event>
<event>
 5   0  0.1484379E-05  0.2739337E+04  0.7818609E-02  0.8322353E-01
        1   -1    0    0  501    0  0.00000000000E+00  0.00000000000E+00  0.22560382499E+04  0.22560382499E+04  0.50400001928E-02 0. -1.
       -1   -1    0    0    0  501  0.00000000000E+00  0.00000000000E+00 -0.83154275025E+03  0.83154275027E+03  0.50400001928E-02 0.  1.
    10030    2    1    2    0    0  0.00000000000E+00  0.00000000000E+00  0.14244954996E+04  0.30875810002E+04  0.27393373294E+04 0.  0.
        1    1    3    3  502    0  0.86793202448E+03  0.66478554213E+03  0.16422104543E+04  0.19728408431E+04  0.50400001928E-02 0. -1.
       -1    1    3    3    0  502 -0.86793202448E+03 -0.66478554213E+03 -0.21771495467E+03  0.11147401570E+04  0.50400001928E-02 0.  1.
</event>
<event>
 5   0  0.3497949E-05  0.1666747E+04  0.7818609E-02  0.8780561E-01
        2   -1    0    0  501    0  0.00000000000E+00  0.00000000000E+00  0.91608904057E+03  0.91608904057E+03  0.25500000920E-02 0. -1.
       -2   -1    0    0    0  501  0.00000000000E+00  0.00000000000E+00 -0.75812617203E+03  0.75812617204E+03  0.25500000920E-02 0.  1.
    10030    2    1    2    0    0  0.00000000000E+00  0.00000000000E+00  0.15796286853E+03  0.16742152126E+04  0.16667466245E+04 0.  0.
        5    1    3    3  502    0  0.49550206588E+03 -0.38398151184E+03  0.63055479449E+03  0.88914877134E+03  0.46999998093E+01 0.  1.
       -5    1    3    3    0  502 -0.49550206588E+03  0.38398151184E+03 -0.47259192596E+03  0.78506644127E+03  0.46999998093E+01 0. -1.
</event>
<event>
 5   0  0.1495517E-05  0.2735240E+04  0.7818609E-02  0.8323661E-01
        1   -1    0    0  501    0  0.00000000000E+00  0.00000000000E+00  0.21526794827E+04  0.21526794827E+04  0.50400001928E-02 0. -1.
       -1   -1    0    0    0  501  0.00000000000E+00  0.00000000000E+00 -0.86886351111E+03  0.86886351113E+03  0.50400001928E-02 0.  1.
    10030    2    1    2    0    0  0.00000000000E+00  0.00000000000E+00  0.12838159716E+04  0.30215429938E+04  0.27352401384E+04 0.  0.
        5    1    3    3  502    0  0.14978104185E+03 -0.13153348054E+04  0.26272614425E+03  0.13496618568E+04  0.46999998093E+01 0.  1.
       -5    1    3    3    0  502 -0.14978104185E+03  0.13153348054E+04  0.10210898273E+04  0.16718811370E+04  0.46999998093E+01 0. -1.
</event>
<event>
 5   0  0.3568647E-05  0.2086635E+04  0.7818609E-02  0.8567154E-01
        2   -1    0    0  501    0  0.00000000000E+00  0.00000000000E+00  0.18171775704E+04  0.18171775704E+04  0.25500000920E-02 0.  1.
       -2   -1    0    0    0  501  0.00000000000E+00  0.00000000000E+00 -0.59901232676E+03  0.59901232677E+03  0.25500000920E-02 0. -1.
    10030    2    1    2    0    0  0.00000000000E+00  0.00000000000E+00  0.12181652437E+04  0.24161898972E+04  0.20866353439E+04 0.  0.
        3    1    3    3  502    0 -0.61137948719E+03  0.24073098634E+03  0.15474933551E+04  0.16812114619E+04  0.10100000352E+00 0.  1.
       -3    1    3    3    0  502  0.61137948719E+03 -0.24073098634E+03 -0.32932811149E+03  0.73497843530E+03  0.10100000352E+00 0. -1.
</event>
<event>
 5   0  0.3497949E-05  0.2689118E+04  0.7818609E-02  0.8338544E-01
       -2   -1    0    0    0  501  0.00000000000E+00  0.00000000000E+00  0.13404765568E+04  0.13404765569E+04  0.25500000920E-02 0.  1.
        2   -1    0    0  501    0  0.00000000000E+00  0.00000000000E+00 -0.13486540768E+04  0.13486540768E+04  0.25500000920E-02 0. -1.
    10030    2    1    2    0    0  0.00000000000E+00  0.00000000000E+00 -0.81775199307E+01  0.26891306336E+04  0.26891181999E+04 0.  0.
        5    1    3    3  502    0  0.10456063552E+04 -0.84260162326E+03  0.63342535934E+02  0.13443602614E+04  0.46999998093E+01 0.  1.
       -5    1    3    3    0  502 -0.10456063552E+04  0.84260162326E+03 -0.71520055865E+02  0.13447703722E+04  0.46999998093E+01 0. -1.
</event>
<event>
 5   0  0.1438701E-05  0.2215912E+04  0.7818609E-02  0.8511834E-01
        1   -1    0    0  501    0  0.00000000000E+00  0.00000000000E+00  0.11745936191E+04  0.11745936191E+04  0.50400001928E-02 0. -1.
       -1   -1    0    0    0  501  0.00000000000E+00  0.00000000000E+00 -0.10450986172E+04  0.10450986172E+04  0.50400001928E-02 0.  1.
    10030    2    1    2    0    0  0.00000000000E+00  0.00000000000E+00  0.12949500193E+03  0.22196922363E+04  0.22159117014E+04 0.  0.
        4    1    3    3  502    0 -0.79568461743E+03 -0.37836810120E+03 -0.60817843081E+03  0.10705881781E+04  0.12699999809E+01 0.  1.
       -4    1    3    3    0  502  0.79568461743E+03  0.37836810120E+03  0.73767343275E+03  0.11491040583E+04  0.12699999809E+01 0. -1.
</event>
<event>
 5   0  0.3568647E-05  0.2692142E+04  0.7818609E-02  0.8337559E-01
        2   -1    0    0  501    0  0.00000000000E+00  0.00000000000E+00  0.18909060552E+04  0.18909060552E+04  0.25500000920E-02 0.  1.
       -2   -1    0    0    0  501  0.00000000000E+00  0.00000000000E+00 -0.95822142725E+03  0.95822142725E+03  0.25500000920E-02 0. -1.
    10030    2    1    2    0    0  0.00000000000E+00  0.00000000000E+00  0.93268462797E+03  0.28491274825E+04  0.26921416746E+04 0.  0.
        3    1    3    3  502    0 -0.82713086811E+03  0.17352146736E+03 -0.64243980028E+03  0.10615950639E+04  0.10100000352E+00 0. -1.
       -3    1    3    3    0  502  0.82713086811E+03 -0.17352146736E+03  0.15751244283E+04  0.17875324185E+04  0.10100000352E+00 0.  1.
</event>
<event>
 5   0  0.3514294E-05  0.2643497E+04  0.7818609E-02  0.8353575E-01
       -2   -1    0    0    0  501  0.00000000000E+00  0.00000000000E+00  0.55296035311E+03  0.55296035311E+03  0.25500000920E-02 0. -1.
        2   -1    0    0  501    0  0.00000000000E+00  0.00000000000E+00 -0.31593919474E+04  0.31593919474E+04  0.25500000920E-02 0.  1.
    10030    2    1    2    0    0  0.00000000000E+00  0.00000000000E+00 -0.26064315943E+04  0.37123523005E+04  0.26434965382E+04 0.  0.
        2    1    3    3  502    0  0.46271216299E+03 -0.12242169671E+04 -0.15629559521E+04  0.20385389465E+04  0.25500000920E-02 0.  1.
       -2    1    3    3    0  502 -0.46271216299E+03  0.12242169671E+04 -0.10434756422E+04  0.16738133540E+04  0.25500000920E-02 0. -1.
</event>
<event>
 5   0  0.3676724E-05  0.2717268E+04  0.7818609E-02  0.8329424E-01
       -2   -1    0    0    0  501  0.00000000000E+00  0.00000000000E+00  0.14530333645E+04  0.14530333645E+04  0.25500000920E-02 0. -1.
        2   -1    0    0  501    0  0.00000000000E+00  0.00000000000E+00 -0.12703674716E+04  0.12703674716E+04  0.25500000920E-02 0.  1.
    10030    2    1    2    0    0  0.00000000000E+00  0.00000000000E+00  0.18266589296E+03  0.27234008361E+04  0.27172679819E+04 0.  0.
        4    1    3    3  502    0 -0.81783736679E+02 -0.44025013567E+03 -0.11942842328E+04  0.12754705811E+04  0.12699999809E+01 0.  1.
       -4    1    3    3    0  502  0.81783736679E+02  0.44025013567E+03  0.13769501258E+04  0.14479302550E+04  0.12699999809E+01 0. -1.
</event>
<event>
 5   0  0.3568647E-05  0.2866583E+04  0.7818609E-02  0.8282890E-01
       -2   -1    0    0    0  501  0.00000000000E+00  0.00000000000E+00  0.13153513301E+04  0.13153513301E+04  0.25500000920E-02 0.  1.
        2   -1    0    0  501    0  0.00000000000E+00  0.00000000000E+00 -0.15618067382E+04  0.15618067382E+04  0.25500000920E-02 0. -1.
    10030    2    1    2    0    0  0.00000000000E+00  0.00000000000E+00 -0.24645540814E+03  0.28771580683E+04  0.28665830324E+04 0.  0.
        3    1    3    3  502    0  0.64302934833E+03 -0.11867259427E+02  0.11623945648E+04  0.13284535028E+04  0.10100000352E+00 0.  1.
       -3    1    3    3    0  502 -0.64302934833E+03  0.11867259427E+02 -0.14088499729E+04  0.15487045655E+04  0.10100000352E+00 0. -1.
</event>
<event>
 5   0  0.3652331E-05  0.2724246E+04  0.7818609E-02  0.8327181E-01
       -2   -1    0    0    0  501  0.00000000000E+00  0.00000000000E+00  0.11682125979E+04  0.11682125979E+04  0.25500000920E-02 0. -1.
        2   -1    0    0  501    0  0.00000000000E+00  0.00000000000E+00 -0.15882202077E+04  0.15882202077E+04  0.25500000920E-02 0.  1.
    10030    2    1    2    0    0  0.00000000000E+00  0.00000000000E+00 -0.42000760978E+03  0.27564328056E+04  0.27242458441E+04 0.  0.
        1    1    3    3  502    0 -0.37910590348E+03  0.12542754250E+04 -0.58648971990E+03  0.14355829197E+04  0.50400001928E-02 0.  1.
       -1    1    3    3    0  502  0.37910590348E+03 -0.12542754250E+04  0.16648211012E+03  0.13208498858E+04  0.50400001928E-02 0. -1.
</event>
<event>
 5   0  0.3652331E-05  0.2842745E+04  0.7818609E-02  0.8290119E-01
        2   -1    0    0  501    0  0.00000000000E+00  0.00000000000E+00  0.14272325199E+04  0.14272325199E+04  0.25500000920E-02 0. -1.
       -2   -1    0    0    0  501  0.00000000000E+00  0.00000000000E+00 -0.14155366215E+04  0.14155366215E+04  0.25500000920E-02 0.  1.
    10030    2    1    2    0    0  0.00000000000E+00  0.00000000000E+00  0.11695898403E+02  0.28427691414E+04  0.28427450813E+04 0.  0.
        1    1    3    3  502    0  0.12325904867E+04  0.19964676490E+03  0.68494261645E+03  0.14241785444E+04  0.50400001928E-02 0. -1.
       -1    1    3    3    0  502 -0.12325904867E+04 -0.19964676490E+03 -0.67324671805E+03  0.14185905970E+04  0.50400001928E-02 0.  1.
</event>
<event>
 5   0  0.1484379E-05  0.2647307E+04  0.7818609E-02  0.8352307E-01
       -1   -1    0    0    0  501  0.00000000000E+00  0.00000000000E+00  0.13352699529E+04  0.13352699529E+04  0.50400001928E-02 0. -1.
        1   -1    0    0  501    0  0.00000000000E+00  0.00000000000E+00 -0.13121384809E+04  0.13121384809E+04  0.50400001928E-02 0.  1.
    10030    2    1    2    0    0  0.00000000000E+00  0.00000000000E+00  0.23131472007E+02  0.26474084338E+04  0.26473073774E+04 0.  0.
        1    1    3    3  502    0 -0.93775908066E+02 -0.12417671832E+04  0.46022462259E+03  0.13276243300E+04  0.50400001928E-02 0.  1.
       -1    1    3    3    0  502  0.93775908066E+02  0.12417671832E+04 -0.43709315059E+03  0.13197841038E+04  0.50400001928E-02 0. -1.
</event>
<event>
 5   0  0.1474012E-05  0.1683967E+04  0.7818609E-02  0.8770562E-01
        1   -1    0    0  501    0  0.00000000000E+00  0.00000000000E+00  0.13296261200E+04  0.13296261200E+04  0.50400001928E-02 0. -1.
       -1   -1    0    0    0  501  0.00000000000E+00  0.00000000000E+00 -0.53318460813E+03  0.53318460816E+03  0.50400001928E-02 0.  1.
    10030    2    1    2    0    0  0.00000000000E+00  0.00000000000E+00  0.79644151189E+03  0.18628107282E+04  0.16839669614E+04 0.  0.
        2    1    3    3  502    0 -0.57051024532E+03 -0.28040307670E+03  0.10089698705E+04  0.11925300939E+04  0.25500000920E-02 0. -1.
       -2    1    3    3    0  502  0.57051024532E+03  0.28040307670E+03 -0.21252835859E+03  0.67028063424E+03  0.25500000920E-02 0.  1.
</event>
<event>
 5   0  0.3652331E-05  0.2153906E+04  0.7818609E-02  0.8537862E-01
        2   -1    0    0  501    0  0.00000000000E+00  0.00000000000E+00  0.17072722985E+04  0.17072722985E+04  0.25500000920E-02 0. -1.
       -2   -1    0    0    0  501  0.00000000000E+00  0.00000000000E+00 -0.67934578143E+03  0.67934578144E+03  0.25500000920E-02 0.  1.
    10030    2    1    2    0    0  0.00000000000E+00  0.00000000000E+00  0.10279265170E+04  0.23866180799E+04  0.21539064360E+04 0.  0.
        1    1    3    3  502    0 -0.22350993410E+03 -0.34199287022E+03  0.16180712770E+04  0.16688530406E+04  0.50400001928E-02 0. -1.
       -1    1    3    3    0  502  0.22350993410E+03  0.34199287022E+03 -0.59014475992E+03  0.71776503927E+03  0.50400001928E-02 0.  1.
</event>
<event>
 5   0  0.1449521E-05  0.2225125E+04  0.7818609E-02  0.8508043E-01
        1   -1    0    0  501    0  0.00000000000E+00  0.00000000000E+00  0.10296904248E+04  0.10296904248E+04  0.50400001928E-02 0.  1.
       -1   -1    0    0    0  501  0.00000000000E+00  0.00000000000E+00 -0.12021045237E+04  0.12021045237E+04  0.50400001928E-02 0. -1.
    10030    2    1    2    0    0  0.00000000000E+00  0.00000000000E+00 -0.17241409885E+03  0.22317949485E+04  0.22251251809E+04 0.  0.
        3    1    3    3  502    0 -0.28654702721E+02 -0.94851895715E+03 -0.66871134209E+03  0.11608980030E+04  0.10100000352E+00 0. -1.
       -3    1    3    3    0  502  0.28654702721E+02  0.94851895715E+03  0.49629724324E+03  0.10708969455E+04  0.10100000352E+00 0.  1.
</event>
<event>
 5   0  0.3497949E-05  0.2708111E+04  0.7818609E-02  0.8332378E-01
        2   -1    0    0  501    0  0.00000000000E+00  0.00000000000E+00  0.15810526415E+04  0.15810526415E+04  0.25500000920E-02 0. -1.
       -2   -1    0    0    0  501  0.00000000000E+00  0.00000000000E+00 -0.11596491573E+04  0.11596491573E+04  0.25500000920E-02 0.  1.
    10030    2    1    2    0    0  0.00000000000E+00  0.00000000000E+00  0.42140348423E+03  0.27407017988E+04  0.27081110490E+04 0.  0.
        5    1    3    3  502    0 -0.50714092228E+03  0.75320631766E+03 -0.80584275448E+03  0.12140495488E+04  0.46999998093E+01 0.  1.
       -5    1    3    3    0  502  0.50714092228E+03 -0.75320631766E+03  0.12272462387E+04  0.15266522500E+04  0.46999998093E+01 0. -1.
</event>
<event>
 5   0  0.1449521E-05  0.2675441E+04  0.7818609E-02  0.8343018E-01
        1   -1    0    0  501    0  0.00000000000E+00  0.00000000000E+00  0.14976352050E+04  0.14976352050E+04  0.50400001928E-02 0.  1.
       -1   -1    0    0    0  501  0.00000000000E+00  0.00000000000E+00 -0.11948813024E+04  0.11948813024E+04  0.50400001928E-02 0. -1.
    10030    2    1    2    0    0  0.00000000000E+00  0.00000000000E+00  0.30275390255E+03  0.26925165074E+04  0.26754411257E+04 0.  0.
        3    1    3    3  502    0 -0.28548380047E+03 -0.28953386906E+03  0.14339381808E+04  0.14904729378E+04  0.10100000352E+00 0.  1.
       -3    1    3    3    0  502  0.28548380047E+03  0.28953386906E+03 -0.11311842783E+04  0.12020435696E+04  0.10100000352E+00 0. -1.
</event>
<event>
 5   0  0.3514294E-05  0.2605195E+04  0.7818609E-02  0.8366439E-01
       -2   -1    0    0    0  501  0.00000000000E+00  0.00000000000E+00  0.80508759360E+03  0.80508759360E+03  0.25500000920E-02 0. -1.
        2   -1    0    0  501    0  0.00000000000E+00  0.00000000000E+00 -0.21075466665E+04  0.21075466665E+04  0.25500000920E-02 0.  1.
    10030    2    1    2    0    0  0.00000000000E+00  0.00000000000E+00 -0.13024590729E+04  0.29126342601E+04  0.26051945602E+04 0.  0.
        2    1    3    3  502    0 -0.61920037732E+03 -0.41556999907E+03  0.54282015653E+03  0.92236720114E+03  0.25500000920E-02 0. -1.
       -2    1    3    3    0  502  0.61920037732E+03  0.41556999907E+03 -0.18452792294E+04  0.19902670590E+04  0.25500000920E-02 0.  1.
</event>
<event>
 5   0  0.1438701E-05  0.2721643E+04  0.7818609E-02  0.8328017E-01
       -1   -1    0    0    0  501  0.00000000000E+00  0.00000000000E+00  0.64060531163E+03  0.64060531165E+03  0.50400001928E-02 0. -1.
        1   -1    0    0  501    0  0.00000000000E+00  0.00000000000E+00 -0.28907581878E+04  0.28907581878E+04  0.50400001928E-02 0.  1.
    10030    2    1    2    0    0  0.00000000000E+00  0.00000000000E+00 -0.22501528762E+04  0.35313634995E+04  0.27216429228E+04 0.  0.
        4    1    3    3  502    0  0.42502648329E+03 -0.61618070676E+03  0.34947424445E+03  0.82611139401E+03  0.12699999809E+01 0. -1.
       -4    1    3    3    0  502 -0.42502648329E+03  0.61618070676E+03 -0.25996271207E+04  0.27052521055E+04  0.12699999809E+01 0.  1.
</event>
<event>
 5   0  0.1495517E-05  0.2706883E+04  0.7818609E-02  0.8332775E-01
       -1   -1    0    0    0  501  0.00000000000E+00  0.00000000000E+00  0.83190978191E+03  0.83190978193E+03  0.50400001928E-02 0.  1.
        1   -1    0    0  501    0  0.00000000000E+00  0.00000000000E+00 -0.22019258720E+04  0.22019258720E+04  0.50400001928E-02 0. -1.
    10030    2    1    2    0    0  0.00000000000E+00  0.00000000000E+00 -0.13700160901E+04  0.30338356539E+04  0.27068828360E+04 0.  0.
        5    1    3    3  502    0 -0.17204447973E+03  0.84272842116E+02  0.81662750433E+03  0.83881093564E+03  0.46999998093E+01 0.  1.
       -5    1    3    3    0  502  0.17204447973E+03 -0.84272842116E+02 -0.21866435944E+04  0.21950247183E+04  0.46999998093E+01 0. -1.
</event>
<event>
 5   0  0.1484379E-05  0.1535958E+04  0.7818609E-02  0.8860888E-01
       -1   -1    0    0    0  501  0.00000000000E+00  0.00000000000E+00  0.36395776153E+03  0.36395776156E+03  0.50400001928E-02 0.  1.
        1   -1    0    0  501    0  0.00000000000E+00  0.00000000000E+00 -0.16204939948E+04  0.16204939949E+04  0.50400001928E-02 0. -1.
    10030    2    1    2    0    0  0.00000000000E+00  0.00000000000E+00 -0.12565362333E+04  0.19844517564E+04  0.15359575085E+04 0.  0.
        1    1    3    3  502    0 -0.58340044439E+03 -0.85177481142E+02  0.75465734156E+01  0.58963398190E+03  0.50400001928E-02 0.  1.
       -1    1    3    3    0  502  0.58340044439E+03  0.85177481142E+02 -0.12640828067E+04  0.13948177745E+04  0.50400001928E-02 0. -1.
</event>
<event>
 5   0  0.1474012E-05  0.2653393E+04  0.7818609E-02  0.8350288E-01
       -1   -1    0    0    0  501  0.00000000000E+00  0.00000000000E+00  0.12176861194E+04  0.12176861194E+04  0.50400001928E-02 0. -1.
        1   -1    0    0  501    0  0.00000000000E+00  0.00000000000E+00 -0.14454653955E+04  0.14454653955E+04  0.50400001928E-02 0.  1.
    10030    2    1    2    0    0  0.00000000000E+00  0.00000000000E+00 -0.22777927606E+03  0.26631515149E+04  0.26533926571E+04 0.  0.
        2    1    3    3  502    0  0.48870708513E+03 -0.11427312615E+04 -0.57976680824E+03  0.13714222191E+04  0.25500000920E-02 0.  1.
       -2    1    3    3    0  502 -0.48870708513E+03  0.11427312615E+04  0.35198753218E+03  0.12917292959E+04  0.25500000920E-02 0. -1.
</event>
<event>
 5   0  0.3568647E-05  0.2668172E+04  0.7818609E-02  0.8345407E-01
       -2   -1    0    0    0  501  0.00000000000E+00  0.00000000000E+00  0.13303948696E+04  0.13303948696E+04  0.25500000920E-02 0.  1.
        2   -1    0    0  501    0  0.00000000000E+00  0.00000000000E+00 -0.13377872869E+04  0.13377872869E+04  0.25500000920E-02 0. -1.
    10030    2    1    2    0    0  0.00000000000E+00  0.00000000000E+00 -0.73924173681E+01  0.26681821565E+04  0.26681719159E+04 0.  0.
        3    1    3    3  502    0  0.15205533698E+03  0.57937353581E+03 -0.11957539763E+04  0.13373937720E+04  0.10100000352E+00 0. -1.
       -3    1    3    3    0  502 -0.15205533698E+03 -0.57937353581E+03  0.11883615589E+04  0.13307883845E+04  0.10100000352E+00 0.  1.
</event>
<event>
 5   0  0.3652331E-05  0.2717929E+04  0.7818609E-02  0.8329211E-01
        2   -1    0    0  501    0  0.00000000000E+00  0.00000000000E+00  0.17988695101E+04  0.17988695102E+04  0.25500000920E-02 0.  1.
       -2   -1    0    0    0  501  0.00000000000E+00  0.00000000000E+00 -0.10266364450E+04  0.10266364450E+04  0.25500000920E-02 0. -1.
    10030    2    1    2    0    0  0.00000000000E+00  0.00000000000E+00  0.77223306517E+03  0.28255059551E+04  0.27179293581E+04 0.  0.
        1    1    3    3  502    0  0.10931520057E+04 -0.79935253218E+03  0.50391167757E+03  0.14449473199E+04  0.50400001928E-02 0.  1.
       -1    1    3    3    0  502 -0.10931520057E+04  0.79935253218E+03  0.26832138760E+03  0.13805586353E+04  0.50400001928E-02 0. -1.
</event>
<event>
 5   0  0.1474012E-05  0.2717012E+04  0.7818609E-02  0.8329506E-01
       -1   -1    0    0    0  501  0.00000000000E+00  0.00000000000E+00  0.83975136889E+03  0.83975136890E+03  0.50400001928E-02 0. -1.
        1   -1    0    0  501    0  0.00000000000E+00  0.00000000000E+00 -0.21977200873E+04  0.21977200874E+04  0.50400001928E-02 0.  1.
    10030    2    1    2    0    0  0.00000000000E+00  0.00000000000E+00 -0.13579687185E+04  0.30374714563E+04  0.27170119262E+04 0.  0.
        2    1    3    3  502    0 -0.23361180255E+03 -0.11213513646E+04 -0.14955707853E+04  0.18838087299E+04  0.25500000920E-02 0.  1.
       -2    1    3    3    0  502  0.23361180255E+03  0.11213513646E+04  0.13760206679E+03  0.11536627263E+04  0.25500000920E-02 0. -1.
</event>
<event>
 5   0  0.1438701E-05  0.2710938E+04  0.7818609E-02  0.8331465E-01
       -1   -1    0    0    0  501  0.00000000000E+00  0.00000000000E+00  0.13626147873E+04  0.13626147873E+04  0.50400001928E-02 0. -1.
        1   -1    0    0  501    0  0.00000000000E+00  0.00000000000E+00 -0.13483602467E+04  0.13483602467E+04  0.50400001928E-02 0.  1.
    10030    2    1    2    0    0  0.00000000000E+00  0.00000000000E+00  0.14254540603E+02  0.27109750340E+04  0.27109375580E+04 0.  0.
        4    1    3    3  502    0  0.45414362422E+03 -0.33202551150E+03  0.12403542055E+04  0.13619719306E+04  0.12699999809E+01 0. -1.
       -4    1    3    3    0  502 -0.45414362422E+03  0.33202551150E+03 -0.12260996649E+04  0.13490031034E+04  0.12699999809E+01 0.  1.
</event>
<event>
 5   0  0.1449521E-05  0.2755606E+04  0.7818609E-02  0.8317185E-01
        1   -1    0    0  501    0  0.00000000000E+00  0.00000000000E+00  0.14159898424E+04  0.14159898424E+04  0.50400001928E-02 0. -1.
       -1   -1    0    0    0  501  0.00000000000E+00  0.00000000000E+00 -0.13406456402E+04  0.13406456402E+04  0.50400001928E-02 0.  1.
    10030    2    1    2    0    0  0.00000000000E+00  0.00000000000E+00  0.75344202244E+02  0.27566354826E+04  0.27556056386E+04 0.  0.
        3    1    3    3  502    0 -0.76024865756E+03 -0.57548311629E+03  0.10326199722E+04  0.14055115992E+04  0.10100000352E+00 0. -1.
       -3    1    3    3    0  502  0.76024865756E+03  0.57548311629E+03 -0.95727576992E+03  0.13511238834E+04  0.10100000352E+00 0.  1.
</event>
<event>
 5   0  0.1438701E-05  0.2602424E+04  0.7818609E-02  0.8367378E-01
       -1   -1    0    0    0  501  0.00000000000E+00  0.00000000000E+00  0.17126522850E+04  0.17126522850E+04  0.50400001928E-02 0. -1.
        1   -1    0    0  501    0  0.00000000000E+00  0.00000000000E+00 -0.98861411608E+03  0.98861411609E+03  0.50400001928E-02 0.  1.
    10030    2    1    2    0    0  0.00000000000E+00  0.00000000000E+00  0.72403816894E+03  0.27012664011E+04  0.26024236588E+04 0.  0.
        4    1    3    3  502    0  0.32377390597E+03  0.33739650042E+03  0.16224224359E+04  0.16884673862E+04  0.12699999809E+01 0.  1.
       -4    1    3    3    0  502 -0.32377390597E+03 -0.33739650042E+03 -0.89838426696E+03  0.10127990150E+04  0.12699999809E+01 0. -1.
</event>
<event>
 5   0  0.3514294E-05  0.2628864E+04  0.7818609E-02  0.8358462E-01
       -2   -1    0    0    0  501  0.00000000000E+00  0.00000000000E+00  0.81264943961E+03  0.81264943961E+03  0.25500000920E-02 0. -1.
        2   -1    0    0  501    0  0.00000000000E+00  0.00000000000E+00 -0.21260474857E+04  0.21260474857E+04  0.25500000920E-02 0.  1.
    10030    2    1    2    0    0  0.00000000000E+00  0.00000000000E+00 -0.13133980461E+04  0.29386969253E+04  0.26288638594E+04 0.  0.
        2    1    3    3  502    0  0.44902262564E+02  0.20219655464E+02 -0.21250159331E+04  0.21255864517E+04  0.25500000920E-02 0.  1.
       -2    1    3    3    0  502 -0.44902262564E+02 -0.20219655464E+02  0.81161788706E+03  0.81311047358E+03  0.25500000920E-02 0. -1.
</event>
<event>
 5   0  0.3652331E-05  0.2488061E+04  0.7818609E-02  0.8407251E-01
       -2   -1    0    0    0  501  0.00000000000E+00  0.00000000000E+00  0.11733368726E+04  0.11733368727E+04  0.25500000920E-02 0.  1.
        2   -1    0    0  501    0  0.00000000000E+00  0.00000000000E+00 -0.13189838815E+04  0.13189838815E+04  0.25500000920E-02 0. -1.
    10030    2    1    2    0    0  0.00000000000E+00  0.00000000000E+00 -0.14564700884E+03  0.24923207541E+04  0.24880614322E+04 0.  0.
        1    1    3    3  502    0  0.38363564612E+03  0.11079222655E+04  0.34375422225E+03  0.12218162794E+04  0.50400001928E-02 0.  1.
       -1    1    3    3    0  502 -0.38363564612E+03 -0.11079222655E+04 -0.48940123109E+03  0.12705044747E+04  0.50400001928E-02 0. -1.
</event>
<event>
 5   0  0.1484379E-05  0.2724992E+04  0.7818609E-02  0.8326941E-01
        1   -1    0    0  501    0  0.00000000000E+00  0.00000000000E+00  0.27145120848E+04  0.27145120848E+04  0.50400001928E-02 0. -1.
       -1   -1    0    0    0  501  0.00000000000E+00  0.00000000000E+00 -0.68387811571E+03  0.68387811573E+03  0.50400001928E-02 0.  1.
    10030    2    1    2    0    0  0.00000000000E+00  0.00000000000E+00  0.20306339691E+04  0.33983902005E+04  0.27249920438E+04 0.  0.
        1    1    3    3  502    0  0.57545080949E+03 -0.65556038585E+03  0.23206240233E+04  0.24791528616E+04  0.50400001928E-02 0. -1.
       -1    1    3    3    0  502 -0.57545080949E+03  0.65556038585E+03 -0.28999005425E+03  0.91923733890E+03  0.50400001928E-02 0.  1.
</event>
<event>
 5   0  0.3514294E-05  0.2741584E+04  0.7818609E-02  0.8321637E-01
       -2   -1    0    0    0  501  0.00000000000E+00  0.00000000000E+00  0.12338569626E+04  0.12338569626E+04  0.25500000920E-02 0. -1.
        2   -1    0    0  501    0  0.00000000000E+00  0.00000000000E+00 -0.15229237929E+04  0.15229237929E+04  0.25500000920E-02 0.  1.
    10030    2    1    2    0    0  0.00000000000E+00  0.00000000000E+00 -0.28906683027E+03  0.27567807555E+04  0.27415835755E+04 0.  0.
        2    1    3    3  502    0 -0.88932236296E+03  0.10052322235E+04  0.13573014308E+03  0.13490028763E+04  0.25500000920E-02 0. -1.
       -2    1    3    3    0  502  0.88932236296E+03 -0.10052322235E+04 -0.42479697335E+03  0.14077778792E+04  0.25500000920E-02 0.  1.
</event>
<event>
 5   0  0.1449521E-05  0.2684563E+04  0.7818609E-02  0.8340031E-01
       -1   -1    0    0    0  501  0.00000000000E+00  0.00000000000E+00  0.17223755409E+04  0.17223755409E+04  0.50400001928E-02 0. -1.
        1   -1    0    0  501    0  0.00000000000E+00  0.00000000000E+00 -0.10460668562E+04  0.10460668562E+04  0.50400001928E-02 0.  1.
    10030    2    1    2    0    0  0.00000000000E+00  0.00000000000E+00  0.67630868474E+03  0.27684423971E+04  0.26845632548E+04 0.  0.
        3    1    3    3  502    0  0.10364400348E+04 -0.22283681482E+03 -0.51089024406E+03  0.11768062897E+04  0.10100000352E+00 0.  1.
       -3    1    3    3    0  502 -0.10364400348E+04  0.22283681482E+03  0.11871989288E+04  0.15916361074E+04  0.10100000352E+00 0. -1.
</event>
<event>
 5   0  0.3652331E-05  0.2669221E+04  0.7818609E-02  0.8345061E-01
       -2   -1    0    0    0  501  0.00000000000E+00  0.00000000000E+00  0.25027367686E+04  0.25027367686E+04  0.25500000920E-02 0.  1.
        2   -1    0    0  501    0  0.00000000000E+00  0.00000000000E+00 -0.71169521198E+03  0.71169521198E+03  0.25500000920E-02 0. -1.
    10030    2    1    2    0    0  0.00000000000E+00  0.00000000000E+00  0.17910415566E+04  0.32144319806E+04  0.26692214408E+04 0.  0.
        1    1    3    3  502    0 -0.65378255881E+03 -0.85750908087E+03  0.18425551108E+04  0.21348917524E+04  0.50400001928E-02 0.  1.
       -1    1    3    3    0  502  0.65378255881E+03  0.85750908087E+03 -0.51513554201E+02  0.10795402282E+04  0.50400001928E-02 0. -1.
</event>
<event>
 5   0  0.1449521E-05  0.2767253E+04  0.7818609E-02  0.8313508E-01
        1   -1    0    0  501    0  0.00000000000E+00  0.00000000000E+00  0.15704255835E+04  0.15704255835E+04  0.50400001928E-02 0.  1.
       -1   -1    0    0    0  501  0.00000000000E+00  0.00000000000E+00 -0.12190467593E+04  0.12190467593E+04  0.50400001928E-02 0. -1.
    10030    2    1    2    0    0  0.00000000000E+00  0.00000000000E+00  0.35137882422E+03  0.27894723428E+04  0.27672529471E+04 0.  0.
        3    1    3    3  502    0  0.17871009932E+03 -0.13503710481E+04 -0.69124679958E+02  0.13638979062E+04  0.10100000352E+00 0. -1.
       -3    1    3    3    0  502 -0.17871009932E+03  0.13503710481E+04  0.42050350418E+03  0.14255744366E+04  0.10100000352E+00 0.  1.
</event>
<event>
 5   0  0.3497949E-05  0.2809602E+04  0.7818609E-02  0.8300294E-01
        2   -1    0    0  501    0  0.00000000000E+00  0.00000000000E+00  0.17807110371E+04  0.17807110371E+04  0.25500000920E-02 0. -1.
       -2   -1    0    0    0  501  0.00000000000E+00  0.00000000000E+00 -0.11082456677E+04  0.11082456677E+04  0.25500000920E-02 0.  1.
    10030    2    1    2    0    0  0.00000000000E+00  0.00000000000E+00  0.67246536932E+03  0.28889567048E+04  0.28096016033E+04 0.  0.
        5    1    3    3  502    0  0.84158986918E+03  0.62097242011E+02  0.14910355032E+04  0.17132829705E+04  0.46999998093E+01 0. -1.
       -5    1    3    3    0  502 -0.84158986918E+03 -0.62097242011E+02 -0.81857013387E+03  0.11756737343E+04  0.46999998093E+01 0.  1.
</event>
<event>
 5   0  0.3652331E-05  0.2667368E+04  0.7818609E-02  0.8345671E-01
        2   -1    0    0  501    0  0.00000000000E+00  0.00000000000E+00  0.17720969413E+04  0.17720969413E+04  0.25500000920E-02 0. -1.
       -2   -1    0    0    0  501  0.00000000000E+00  0.00000000000E+00 -0.10037335211E+04  0.10037335211E+04  0.25500000920E-02 0.  1.
    10030    2    1    2    0    0  0.00000000000E+00  0.00000000000E+00  0.76836342025E+03  0.27758304624E+04  0.26673680680E+04 0.  0.
        1    1    3    3  502    0 -0.34914893916E+03  0.10794778911E+04  0.11137861699E+04  0.15898733067E+04  0.50400001928E-02 0. -1.
       -1    1    3    3    0  502  0.34914893916E+03 -0.10794778911E+04 -0.34542274961E+03  0.11859571557E+04  0.50400001928E-02 0.  1.
</event>
<event>
 5   0  0.1474012E-05  0.1561687E+04  0.7818609E-02  0.8844437E-01
       -1   -1    0    0    0  501  0.00000000000E+00  0.00000000000E+00  0.53845984113E+03  0.53845984115E+03  0.50400001928E-02 0. -1.
        1   -1    0    0  501    0  0.00000000000E+00  0.00000000000E+00 -0.11323336944E+04  0.11323336944E+04  0.50400001928E-02 0.  1.
    10030    2    1    2    0    0  0.00000000000E+00  0.00000000000E+00 -0.59387385329E+03  0.16707935356E+04  0.15616865514E+04 0.  0.
        2    1    3    3  502    0 -0.12910601611E+03 -0.59226161203E+03 -0.82353874850E+03  0.10225743253E+04  0.25500000920E-02 0.  1.
       -2    1    3    3    0  502  0.12910601611E+03  0.59226161203E+03  0.22966489521E+03  0.64821921028E+03  0.25500000920E-02 0. -1.
</event>
<event>
 5   0  0.3514294E-05  0.2772288E+04  0.7818609E-02  0.8311924E-01
        2   -1    0    0  501    0  0.00000000000E+00  0.00000000000E+00  0.22836619758E+04  0.22836619758E+04  0.25500000920E-02 0.  1.
       -2   -1    0    0    0  501  0.00000000000E+00  0.00000000000E+00 -0.84136562161E+03  0.84136562161E+03  0.25500000920E-02 0. -1.
    10030    2    1    2    0    0  0.00000000000E+00  0.00000000000E+00  0.14422963542E+04  0.31250275974E+04  0.27722876314E+04 0.  0.
        2    1    3    3  502    0 -0.94030533817E+03 -0.10108662073E+04  0.58139768439E+03  0.14980146479E+04  0.25500000920E-02 0.  1.
       -2    1    3    3    0  502  0.94030533817E+03  0.10108662073E+04  0.86089866977E+03  0.16270129494E+04  0.25500000920E-02 0. -1.
</event>
<event>
 5   0  0.3652331E-05  0.2826405E+04  0.7818609E-02  0.8295117E-01
       -2   -1    0    0    0  501  0.00000000000E+00  0.00000000000E+00  0.13792703101E+04  0.13792703101E+04  0.25500000920E-02 0.  1.
        2   -1    0    0  501    0  0.00000000000E+00  0.00000000000E+00 -0.14479699222E+04  0.14479699222E+04  0.25500000920E-02 0. -1.
    10030    2    1    2    0    0  0.00000000000E+00  0.00000000000E+00 -0.68699612068E+02  0.28272402323E+04  0.28264054370E+04 0.  0.
        1    1    3    3  502    0 -0.37386876898E+03  0.13570938826E+03  0.13221285303E+04  0.13806588084E+04  0.50400001928E-02 0.  1.
       -1    1    3    3    0  502  0.37386876898E+03 -0.13570938826E+03 -0.13908281424E+04  0.14465814239E+04  0.50400001928E-02 0. -1.
</event>
<event>
 5   0  0.1474012E-05  0.2651969E+04  0.7818609E-02  0.8350760E-01
        1   -1    0    0  501    0  0.00000000000E+00  0.00000000000E+00  0.11707034123E+04  0.11707034123E+04  0.50400001928E-02 0. -1.
       -1   -1    0    0    0  501  0.00000000000E+00  0.00000000000E+00 -0.15018624842E+04  0.15018624842E+04  0.50400001928E-02 0.  1.
    10030    2    1    2    0    0  0.00000000000E+00  0.00000000000E+00 -0.33115907189E+03  0.26725658965E+04  0.26519694832E+04 0.  0.
        2    1    3    3  502    0 -0.12101328374E+03  0.88349412359E+03 -0.11545417192E+04  0.14588257821E+04  0.25500000920E-02 0.  1.
       -2    1    3    3    0  502  0.12101328374E+03 -0.88349412359E+03  0.82338264730E+03  0.12137401143E+04  0.25500000920E-02 0. -1.
</event>
<event>
 5   0  0.1438701E-05  0.1784392E+04  0.7818609E-02  0.8714644E-01
        1   -1    0    0  501    0  0.00000000000E+00  0.00000000000E+00  0.92080146143E+03  0.92080146145E+03  0.50400001928E-02 0.  1.
       -1   -1    0    0    0  501  0.00000000000E+00  0.00000000000E+00 -0.86447877750E+03  0.86447877751E+03  0.50400001928E-02 0. -1.
    10030    2    1    2    0    0  0.00000000000E+00  0.00000000000E+00  0.56322683937E+02  0.17852802390E+04  0.17843915733E+04 0.  0.
        4    1    3    3  502    0  0.83329244781E+03 -0.30307942788E+03  0.12709570219E+03  0.89576133741E+03  0.12699999809E+01 0. -1.
       -4    1    3    3    0  502 -0.83329244781E+03  0.30307942788E+03 -0.70773018255E+02  0.88951890154E+03  0.12699999809E+01 0.  1.
</event>
<event>
 5   0  0.3497949E-05  0.2668303E+04  0.7818609E-02  0.8345363E-01
        2   -1    0    0  501    0  0.00000000000E+00  0.00000000000E+00  0.10774606224E+04  0.10774606224E+04  0.25500000920E-02 0. -1.
       -2   -1    0    0    0  501  0.00000000000E+00  0.00000000000E+00 -0.16519954831E+04  0.16519954831E+04  0.25500000920E-02 0.  1.
    10030    2    1    2    0    0  0.00000000000E+00  0.00000000000E+00 -0.57453486066E+03  0.27294561055E+04  0.26683028925E+04 0.  0.
        5    1    3    3  502    0  0.17628133101E+03  0.66964676587E+02 -0.16382861434E+04  0.16491097457E+04  0.46999998093E+01 0.  1.
       -5    1    3    3    0  502 -0.17628133101E+03 -0.66964676587E+02  0.10637512828E+04  0.10803463598E+04  0.46999998093E+01 0. -1.
</event>
<event>
 5   0  0.1449521E-05  0.2715658E+04  0.7818609E-02  0.8329942E-01
        1   -1    0    0  501    0  0.00000000000E+00  0.00000000000E+00  0.11511100133E+04  0.11511100133E+04  0.50400001928E-02 0.  1.
       -1   -1    0    0    0  501  0.00000000000E+00  0.00000000000E+00 -0.16016712227E+04  0.16016712227E+04  0.50400001928E-02 0. -1.
    10030    2    1    2    0    0  0.00000000000E+00  0.00000000000E+00 -0.45056120937E+03  0.27527812360E+04  0.27156581394E+04 0.  0.
        3    1    3    3  502    0 -0.84087474765E+03  0.55109991533E+02  0.85397682950E+03  0.11997432592E+04  0.10100000352E+00 0.  1.
       -3    1    3    3    0  502  0.84087474765E+03 -0.55109991533E+02 -0.13045380389E+04  0.15530379768E+04  0.10100000352E+00 0. -1.
</event>
<event>
 5   0  0.1449521E-05  0.2780164E+04  0.7818609E-02  0.8309453E-01
       -1   -1    0    0    0  501  0.00000000000E+00  0.00000000000E+00  0.12522751940E+04  0.12522751941E+04  0.50400001928E-02 0. -1.
        1   -1    0    0  501    0  0.00000000000E+00  0.00000000000E+00 -0.15430539279E+04  0.15430539279E+04  0.50400001928E-02 0.  1.
    10030    2    1    2    0    0  0.00000000000E+00  0.00000000000E+00 -0.29077873382E+03  0.27953291219E+04  0.27801641369E+04 0.  0.
        3    1    3    3  502    0 -0.71534462997E+03 -0.11799720258E+04  0.23683232803E+02  0.13800771091E+04  0.10100000352E+00 0. -1.
       -3    1    3    3    0  502  0.71534462997E+03  0.11799720258E+04 -0.31446196662E+03  0.14152520129E+04  0.10100000352E+00 0.  1.
</event>
<event>
 5   0  0.3568647E-05  0.2721122E+04  0.7818609E-02  0.8328184E-01
       -2   -1    0    0    0  501  0.00000000000E+00  0.00000000000E+00  0.90488166435E+03  0.90488166435E+03  0.25500000920E-02 0. -1.
        2   -1    0    0  501    0  0.00000000000E+00  0.00000000000E+00 -0.20457108504E+04  0.20457108504E+04  0.25500000920E-02 0.  1.
    10030    2    1    2    0    0  0.00000000000E+00  0.00000000000E+00 -0.11408291860E+04  0.29505925147E+04  0.27211220032E+04 0.  0.
        3    1    3    3  502    0  0.90216439620E+03  0.95827122799E+03 -0.19645159729E+03  0.13307056716E+04  0.10100000352E+00 0. -1.
       -3    1    3    3    0  502 -0.90216439620E+03 -0.95827122799E+03 -0.94437758872E+03  0.16198868431E+04  0.10100000352E+00 0.  1.
</event>
<event>
 5   0  0.3497949E-05  0.2728264E+04  0.7818609E-02  0.8325892E-01
       -2   -1    0    0    0  501  0.00000000000E+00  0.00000000000E+00  0.85985327937E+03  0.85985327938E+03  0.25500000920E-02 0.  1.
        2   -1    0    0  501    0  0.00000000000E+00  0.00000000000E+00 -0.21641556885E+04  0.21641556885E+04  0.25500000920E-02 0. -1.
    10030    2    1    2    0    0  0.00000000000E+00  0.00000000000E+00 -0.13043024091E+04  0.30240089679E+04  0.27282641850E+04 0.  0.
        5    1    3    3  502    0 -0.20407657734E+03 -0.63868830675E+02  0.84115154330E+03  0.86791963092E+03  0.46999998093E+01 0.  1.
       -5    1    3    3    0  502  0.20407657734E+03  0.63868830675E+02 -0.21454539524E+04  0.21560893369E+04  0.46999998093E+01 0. -1.
</event>
<event>
 5   0  0.1495517E-05  0.1733740E+04  0.7818609E-02  0.8742352E-01
        1   -1    0    0  501    0  0.00000000000E+00  0.00000000000E+00  0.11652810274E+04  0.11652810274E+04  0.50400001928E-02 0.  1.
       -1   -1    0    0    0  501  0.00000000000E+00  0.00000000000E+00 -0.64487765336E+03  0.64487765338E+03  0.50400001928E-02 0. -1.
    10030    2    1    2    0    0  0.00000000000E+00  0.00000000000E+00  0.52040337400E+03  0.18101586807E+04  0.17337401125E+04 0.  0.
        5    1    3    3  502    0  0.37245271716E+03 -0.62243376506E+03  0.75577755259E+03  0.10475526800E+04  0.46999998093E+01 0.  1.
       -5    1    3    3    0  502 -0.37245271716E+03  0.62243376506E+03 -0.23537417859E+03  0.76260600073E+03  0.46999998093E+01 0. -1.
</event>
<event>
 5   0  0.1474012E-05  0.2450589E+04  0.7818609E-02  0.8420803E-01
        1   -1    0    0  501    0  0.00000000000E+00  0.00000000000E+00  0.11924969021E+04  0.11924969021E+04  0.50400001928E-02 0.  1.
       -1   -1    0    0    0  501  0.00000000000E+00  0.00000000000E+00 -0.12589946228E+04  0.12589946228E+04  0.50400001928E-02 0. -1.
    10030    2    1    2    0    0  0.00000000000E+00  0.00000000000E+00 -0.66497720716E+02  0.24514915250E+04  0.24505894699E+04 0.  0.
        2    1    3    3  502    0  0.63766648151E+03  0.10418445565E+04  0.63163823082E+02  0.12231305286E+04  0.25500000920E-02 0.  1.
       -2    1    3    3    0  502 -0.63766648151E+03 -0.10418445565E+04 -0.12966154380E+03  0.12283609964E+04  0.25500000920E-02 0. -1.
</event>
<event>
 5   0  0.3676724E-05  0.2676458E+04  0.7818609E-02  0.8342684E-01
       -2   -1    0    0    0  501  0.00000000000E+00  0.00000000000E+00  0.11366803614E+04  0.11366803614E+04  0.25500000920E-02 0.  1.
        2   -1    0    0  501    0  0.00000000000E+00  0.00000000000E+00 -0.15755144735E+04  0.15755144735E+04  0.25500000920E-02 0. -1.
    10030    2    1    2    0    0  0.00000000000E+00  0.00000000000E+00 -0.43883411207E+03  0.27121948349E+04  0.26764576299E+04 0.  0.
        4    1    3    3  502    0  0.14898144563E+03  0.55694957086E+03 -0.14432122237E+04  0.15541079213E+04  0.12699999809E+01 0. -1.
       -4    1    3    3    0  502 -0.14898144563E+03 -0.55694957086E+03  0.10043781116E+04  0.11580869136E+04  0.12699999809E+01 0.  1.
</event>
<event>
 5   0  0.3497949E-05  0.2736977E+04  0.7818609E-02  0.8323106E-01
        2   -1    0    0  501    0  0.00000000000E+00  0.00000000000E+00  0.14593858177E+04  0.14593858178E+04  0.25500000920E-02 0.  1.
       -2   -1    0    0    0  501  0.00000000000E+00  0.00000000000E+00 -0.12832526308E+04  0.12832526309E+04  0.25500000920E-02 0. -1.
    10030    2    1    2    0    0  0.00000000000E+00  0.00000000000E+00  0.17613318690E+03  0.27426384486E+04  0.27369769382E+04 0.  0.
        5    1    3    3  502    0 -0.77587158408E+03  0.80639501588E+03  0.87740721360E+03  0.14220109511E+04  0.46999998093E+01 0.  1.
       -5    1    3    3    0  502  0.77587158408E+03 -0.80639501588E+03 -0.70127402670E+03  0.13206274975E+04  0.46999998093E+01 0. -1.
</event>
<event>
 5   0  0.1484379E-05  0.2593339E+04  0.7818609E-02  0.8370467E-01
       -1   -1    0    0    0  501  0.00000000000E+00  0.00000000000E+00  0.95535903596E+03  0.95535903597E+03  0.50400001928E-02 0.  1.
        1   -1    0    0  501    0  0.00000000000E+00  0.00000000000E+00 -0.17599162288E+04  0.17599162289E+04  0.50400001928E-02 0. -1.
    10030    2    1    2    0    0  0.00000000000E+00  0.00000000000E+00 -0.80455719288E+03  0.27152752648E+04  0.25933390614E+04 0.  0.
        1    1    3    3  502    0  0.12924531027E+04  0.93793388146E+02 -0.45048298528E+03  0.13719209680E+04  0.50400001928E-02 0. -1.
       -1    1    3    3    0  502 -0.12924531027E+04 -0.93793388146E+02 -0.35407420760E+03  0.13433542968E+04  0.50400001928E-02 0.  1.
</event>
<event>
 5   0  0.3514294E-05  0.2762998E+04  0.7818609E-02  0.8314849E-01
        2   -1    0    0  501    0  0.00000000000E+00  0.00000000000E+00  0.21268168472E+04  0.21268168472E+04  0.25500000920E-02 0.  1.
       -2   -1    0    0    0  501  0.00000000000E+00  0.00000000000E+00 -0.89736920853E+03  0.89736920853E+03  0.25500000920E-02 0. -1.
    10030    2    1    2    0    0  0.00000000000E+00  0.00000000000E+00  0.12294476387E+04  0.30241860558E+04  0.27629983358E+04 0.  0.
        2    1    3    3  502    0 -0.21307793838E+03  0.95827390831E+03 -0.44919638122E+03  0.10795686546E+04  0.25500000920E-02 0. -1.
       -2    1    3    3    0  502  0.21307793838E+03 -0.95827390831E+03  0.16786440199E+04  0.19446174011E+04  0.25500000920E-02 0.  1.
</event>
<event>
 5   0  0.1474012E-05  0.2679659E+04  0.7818609E-02  0.8341635E-01
        1   -1    0    0  501    0  0.00000000000E+00  0.00000000000E+00  0.19610339533E+04  0.19610339533E+04  0.50400001928E-02 0.  1.
       -1   -1    0    0    0  501  0.00000000000E+00  0.00000000000E+00 -0.91540650762E+03  0.91540650763E+03  0.50400001928E-02 0. -1.
    10030    2    1    2    0    0  0.00000000000E+00  0.00000000000E+00  0.10456274456E+04  0.28764404609E+04  0.26796591145E+04 0.  0.
        2    1    3    3  502    0  0.11010034861E+04  0.26957353239E+03 -0.24397124739E+03  0.11594828741E+04  0.25500000920E-02 0. -1.
       -2    1    3    3    0  502 -0.11010034861E+04 -0.26957353239E+03  0.12895986930E+04  0.17169575868E+04  0.25500000920E-02 0.  1.
</event>
<event>
 5   0  0.3652331E-05  0.2685722E+04  0.7818609E-02  0.8339653E-01
        2   -1    0    0  501    0  0.00000000000E+00  0.00000000000E+00  0.16074789963E+04  0.16074789963E+04  0.25500000920E-02 0. -1.
       -2   -1    0    0    0  501  0.00000000000E+00  0.00000000000E+00 -0.11218035405E+04  0.11218035405E+04  0.25500000920E-02 0.  1.
    10030    2    1    2    0    0  0.00000000000E+00  0.00000000000E+00  0.48567545578E+03  0.27292825368E+04  0.26857219732E+04 0.  0.
        1    1    3    3  502    0 -0.56823394118E+03 -0.30990016065E+03  0.14385041607E+04  0.15774099473E+04  0.50400001928E-02 0. -1.
       -1    1    3    3    0  502  0.56823394118E+03  0.30990016065E+03 -0.95282870490E+03  0.11518725895E+04  0.50400001928E-02 0.  1.
</event>
<event>
 5   0  0.1449521E-05  0.2823807E+04  0.7818609E-02  0.8295915E-01
        1   -1    0    0  501    0  0.00000000000E+00  0.00000000000E+00  0.10469906088E+04  0.10469906088E+04  0.50400001928E-02 0.  1.
       -1   -1    0    0    0  501  0.00000000000E+00  0.00000000000E+00 -0.19040008190E+04  0.19040008190E+04  0.50400001928E-02 0. -1.
    10030    2    1    2    0    0  0.00000000000E+00  0.00000000000E+00 -0.85701021020E+03  0.29509914278E+04  0.28238066341E+04 0.  0.
        3    1    3    3  502    0  0.11690181324E+04  0.28011299590E+03 -0.12024025492E+04  0.17002466247E+04  0.10100000352E+00 0. -1.
       -3    1    3    3    0  502 -0.11690181324E+04 -0.28011299590E+03  0.34539233898E+03  0.12507448031E+04  0.10100000352E+00 0.  1.
</event>
<event>
 5   0  0.1449521E-05  0.2716626E+04  0.7818609E-02  0.8329631E-01
       -1   -1    0    0    0  501  0.00000000000E+00  0.00000000000E+00  0.13619029130E+04  0.13619029130E+04  0.50400001928E-02 0. -1.
        1   -1    0    0  501    0  0.00000000000E+00  0.00000000000E+00 -0.13547323875E+04  0.13547323875E+04  0.50400001928E-02 0.  1.
    10030    2    1    2    0    0  0.00000000000E+00  0.00000000000E+00  0.71705254822E+01  0.27166353005E+04  0.27166258372E+04 0.  0.
        3    1    3    3  502    0 -0.80103725372E+03 -0.10072807351E+04  0.43802758153E+03  0.13594643554E+04  0.10100000352E+00 0. -1.
       -3    1    3    3    0  502  0.80103725372E+03  0.10072807351E+04 -0.43085705605E+03  0.13571709451E+04  0.10100000352E+00 0.  1.
</event>
<event>
 5   0  0.3676724E-05  0.2670963E+04  0.7818609E-02  0.8344488E-01
        2   -1    0    0  501    0  0.00000000000E+00  0.00000000000E+00  0.12918096386E+04  0.12918096386E+04  0.25500000920E-02 0. -1.
       -2   -1    0    0    0  501  0.00000000000E+00  0.00000000000E+00 -0.13806298295E+04  0.13806298295E+04  0.25500000920E-02 0.  1.
    10030    2    1    2    0    0  0.00000000000E+00  0.00000000000E+00 -0.88820190853E+02  0.26724394681E+04  0.26709630631E+04 0.  0.
        4    1    3    3  502    0  0.21852470860E+03 -0.82957897468E+03  0.97965699245E+03  0.13021842263E+04  0.12699999809E+01 0. -1.
       -4    1    3    3    0  502 -0.21852470860E+03  0.82957897468E+03 -0.10684771833E+04  0.13702552418E+04  0.12699999809E+01 0.  1.
</event>
<event>
 5   0  0.3652331E-05  0.2659162E+04  0.7818609E-02  0.8348378E-01
        2   -1    0    0  501    0  0.00000000000E+00  0.00000000000E+00  0.19968468832E+04  0.19968468832E+04  0.25500000920E-02 0.  1.
       -2   -1    0    0    0  501  0.00000000000E+00  0.00000000000E+00 -0.88528882540E+03  0.88528882540E+03  0.25500000920E-02 0. -1.
    10030    2    1    2    0    0  0.00000000000E+00  0.00000000000E+00  0.11115580578E+04  0.28821357086E+04  0.26591624484E+04 0.  0.
        1    1    3    3  502    0 -0.10436631587E+04 -0.48082518467E+03 -0.16915488210E+03  0.11614813908E+04  0.50400001928E-02 0. -1.
       -1    1    3    3    0  502  0.10436631587E+04  0.48082518467E+03  0.12807129399E+04  0.17206543178E+04  0.50400001928E-02 0.  1.
</event>
<event>
 5   0  0.1228050E-05  0.2631773E+04  0.7818609E-02  0.8357488E-01
       -4   -1    0    0    0  501  0.00000000000E+00  0.00000000000E+00  0.12732293220E+04  0.12732299554E+04  0.12699999809E+01 0.  1.
        4   -1    0    0  501    0  0.00000000000E+00  0.00000000000E+00 -0.13599720092E+04  0.13599726021E+04  0.12699999809E+01 0. -1.
    10030    2    1    2    0    0  0.00000000000E+00  0.00000000000E+00 -0.86742687135E+02  0.26332025576E+04  0.26317734354E+04 0.  0.
        4    1    3    3  502    0 -0.82382701153E+03  0.74107593708E+03  0.66671239376E+03  0.12932097735E+04  0.12699999809E+01 0.  1.
       -4    1    3    3    0  502  0.82382701153E+03 -0.74107593708E+03 -0.75345508089E+03  0.13399927840E+04  0.12699999809E+01 0. -1.
</event>
<event>
 5   0  0.1438701E-05  0.2498958E+04  0.7818609E-02  0.8403357E-01
        1   -1    0    0  501    0  0.00000000000E+00  0.00000000000E+00  0.78898831598E+03  0.78898831600E+03  0.50400001928E-02 0.  1.
       -1   -1    0    0    0  501  0.00000000000E+00  0.00000000000E+00 -0.19787329575E+04  0.19787329575E+04  0.50400001928E-02 0. -1.
    10030    2    1    2    0    0  0.00000000000E+00  0.00000000000E+00 -0.11897446415E+04  0.27677212735E+04  0.24989575298E+04 0.  0.
        4    1    3    3  502    0  0.34338037233E+03 -0.48810033970E+03  0.62093526213E+03  0.86122832883E+03  0.12699999809E+01 0.  1.
       -4    1    3    3    0  502 -0.34338037233E+03  0.48810033970E+03 -0.18106799037E+04  0.19064929447E+04  0.12699999809E+01 0. -1.
</event>
<event>
 5   0  0.1629484E-05  0.1389534E+04  0.7818609E-02  0.8961429E-01
        1   -1    0    0  501    0  0.00000000000E+00  0.00000000000E+00  0.51511223526E+03  0.51511223528E+03  0.50400001928E-02 0.  1.
       -1   -1    0    0    0  501  0.00000000000E+00  0.00000000000E+00 -0.93707975806E+03  0.93707975807E+03  0.50400001928E-02 0. -1.
    10030    2    1    2    0    0  0.00000000000E+00  0.00000000000E+00 -0.42196752280E+03  0.14521919934E+04  0.13895340929E+04 0.  0.
        5    1    3    3  502    0 -0.43385341566E+03 -0.32943143897E+03  0.23965036333E+03  0.59515396823E+03  0.46999998093E+01 0.  1.
       -5    1    3    3    0  502  0.43385341566E+03  0.32943143897E+03 -0.66161788613E+03  0.85703802512E+03  0.46999998093E+01 0. -1.
</event>
<event>
 5   0  0.3514294E-05  0.2608539E+04  0.7818609E-02  0.8365306E-01
       -2   -1    0    0    0  501  0.00000000000E+00  0.00000000000E+00  0.78880425457E+03  0.78880425457E+03  0.25500000920E-02 0. -1.
        2   -1    0    0  501    0  0.00000000000E+00  0.00000000000E+00 -0.21565792479E+04  0.21565792479E+04  0.25500000920E-02 0.  1.
    10030    2    1    2    0    0  0.00000000000E+00  0.00000000000E+00 -0.13677749934E+04  0.29453835025E+04  0.26085389674E+04 0.  0.
        2    1    3    3  502    0 -0.12444829629E+04 -0.25051291365E+03 -0.34585577215E+03  0.13157168312E+04  0.25500000920E-02 0. -1.
       -2    1    3    3    0  502  0.12444829629E+04  0.25051291365E+03 -0.10219192212E+04  0.16296666713E+04  0.25500000920E-02 0.  1.
</event>
<event>
 5   0  0.1438701E-05  0.2634106E+04  0.7818609E-02  0.8356707E-01
        1   -1    0    0  501    0  0.00000000000E+00  0.00000000000E+00  0.15628378240E+04  0.15628378240E+04  0.50400001928E-02 0.  1.
       -1   -1    0    0    0  501  0.00000000000E+00  0.00000000000E+00 -0.11099226466E+04  0.11099226466E+04  0.50400001928E-02 0. -1.
    10030    2    1    2    0    0  0.00000000000E+00  0.00000000000E+00  0.45291517738E+03  0.26727604705E+04  0.26341063712E+04 0.  0.
        4    1    3    3  502    0 -0.12449672491E+04  0.10214805882E+03 -0.19710040199E+03  0.12646058116E+04  0.12699999809E+01 0. -1.
       -4    1    3    3    0  502  0.12449672491E+04 -0.10214805882E+03  0.65001557937E+03  0.14081546590E+04  0.12699999809E+01 0.  1.
</event>
<event>
 5   0  0.3497949E-05  0.2688852E+04  0.7818609E-02  0.8338631E-01
        2   -1    0    0  501    0  0.00000000000E+00  0.00000000000E+00  0.13402114691E+04  0.13402114691E+04  0.25500000920E-02 0.  1.
       -2   -1    0    0    0  501  0.00000000000E+00  0.00000000000E+00 -0.13486535997E+04  0.13486535997E+04  0.25500000920E-02 0. -1.
    10030    2    1    2    0    0  0.00000000000E+00  0.00000000000E+00 -0.84421305331E+01  0.26888650688E+04  0.26888518161E+04 0.  0.
        5    1    3    3  502    0  0.10519946978E+04 -0.55048713693E+03 -0.63488255987E+03  0.13464125991E+04  0.46999998093E+01 0. -1.
       -5    1    3    3    0  502 -0.10519946978E+04  0.55048713693E+03  0.62644042934E+03  0.13424524698E+04  0.46999998093E+01 0.  1.
</event>
<event>
 5   0  0.1495517E-05  0.2714533E+04  0.7818609E-02  0.8330305E-01
       -1   -1    0    0    0  501  0.00000000000E+00  0.00000000000E+00  0.13048829502E+04  0.13048829502E+04  0.50400001928E-02 0.  1.
        1   -1    0    0  501    0  0.00000000000E+00  0.00000000000E+00 -0.14117526437E+04  0.14117526437E+04  0.50400001928E-02 0. -1.
    10030    2    1    2    0    0  0.00000000000E+00  0.00000000000E+00 -0.10686969350E+03  0.27166355940E+04  0.27145327073E+04 0.  0.
        5    1    3    3  502    0  0.85248361164E+03 -0.62251284061E+03 -0.90726593709E+03  0.13919066475E+04  0.46999998093E+01 0.  1.
       -5    1    3    3    0  502 -0.85248361164E+03  0.62251284061E+03  0.80039624359E+03  0.13247289465E+04  0.46999998093E+01 0. -1.
</event>
<event>
 5   0  0.1484379E-05  0.2674623E+04  0.7818609E-02  0.8343286E-01
        1   -1    0    0  501    0  0.00000000000E+00  0.00000000000E+00  0.17710161937E+04  0.17710161937E+04  0.50400001928E-02 0.  1.
       -1   -1    0    0    0  501  0.00000000000E+00  0.00000000000E+00 -0.10098172029E+04  0.10098172029E+04  0.50400001928E-02 0. -1.
    10030    2    1    2    0    0  0.00000000000E+00  0.00000000000E+00  0.76119899072E+03  0.27808333966E+04  0.26746234270E+04 0.  0.
        1    1    3    3  502    0  0.13162304297E+03  0.12988970677E+04  0.79362578550E+02  0.13079589584E+04  0.50400001928E-02 0.  1.
       -1    1    3    3    0  502 -0.13162304297E+03 -0.12988970677E+04  0.68183641217E+03  0.14728744382E+04  0.50400001928E-02 0. -1.
</event>
<event>
 5   0  0.3514294E-05  0.2788237E+04  0.7818609E-02  0.8306930E-01
       -2   -1    0    0    0  501  0.00000000000E+00  0.00000000000E+00  0.75515634384E+03  0.75515634384E+03  0.25500000920E-02 0.  1.
        2   -1    0    0  501    0  0.00000000000E+00  0.00000000000E+00 -0.25737273830E+04  0.25737273830E+04  0.25500000920E-02 0. -1.
    10030    2    1    2    0    0  0.00000000000E+00  0.00000000000E+00 -0.18185710392E+04  0.33288837269E+04  0.27882371209E+04 0.  0.
        2    1    3    3  502    0  0.35711615917E+03  0.12469005424E+04 -0.29902296205E+03  0.13310550874E+04  0.25500000920E-02 0.  1.
       -2    1    3    3    0  502 -0.35711615917E+03 -0.12469005424E+04 -0.15195480771E+04  0.19978286395E+04  0.25500000920E-02 0. -1.
</event>
<event>
 5   0  0.1495517E-05  0.2615816E+04  0.7818609E-02  0.8362849E-01
       -1   -1    0    0    0  501  0.00000000000E+00  0.00000000000E+00  0.10976225283E+04  0.10976225283E+04  0.50400001928E-02 0.  1.
        1   -1    0    0  501    0  0.00000000000E+00  0.00000000000E+00 -0.15584800979E+04  0.15584800980E+04  0.50400001928E-02 0. -1.
    10030    2    1    2    0    0  0.00000000000E+00  0.00000000000E+00 -0.46085756964E+03  0.26561026263E+04  0.26158156399E+04 0.  0.
        5    1    3    3  502    0  0.55626186944E+03 -0.11110371068E+04 -0.64509318862E+03  0.13999992972E+04  0.46999998093E+01 0. -1.
       -5    1    3    3    0  502 -0.55626186944E+03  0.11110371068E+04  0.18423561898E+03  0.12561033291E+04  0.46999998093E+01 0.  1.
</event>
<event>
 5   0  0.3652331E-05  0.2710997E+04  0.7818609E-02  0.8331446E-01
        2   -1    0    0  501    0  0.00000000000E+00  0.00000000000E+00  0.17782460190E+04  0.17782460190E+04  0.25500000920E-02 0.  1.
       -2   -1    0    0    0  501  0.00000000000E+00  0.00000000000E+00 -0.10332515788E+04  0.10332515788E+04  0.25500000920E-02 0. -1.
    10030    2    1    2    0    0  0.00000000000E+00  0.00000000000E+00  0.74499444025E+03  0.28114975978E+04  0.27109965007E+04 0.  0.
        1    1    3    3  502    0  0.39935497500E+03 -0.45505136182E+03 -0.88523570455E+03  0.10724730256E+04  0.50400001928E-02 0. -1.
       -1    1    3    3    0  502 -0.39935497500E+03  0.45505136182E+03  0.16302301448E+04  0.17390245723E+04  0.50400001928E-02 0.  1.
</event>
<event>
 5   0  0.1484379E-05  0.2966568E+04  0.7818609E-02  0.8253342E-01
       -1   -1    0    0    0  501  0.00000000000E+00  0.00000000000E+00  0.17168443330E+04  0.17168443331E+04  0.50400001928E-02 0. -1.
        1   -1    0    0  501    0  0.00000000000E+00  0.00000000000E+00 -0.12814973896E+04  0.12814973896E+04  0.50400001928E-02 0.  1.
    10030    2    1    2    0    0  0.00000000000E+00  0.00000000000E+00  0.43534694348E+03  0.29983417226E+04  0.29665680718E+04 0.  0.
        1    1    3    3  502    0 -0.17729867101E+03  0.14596956642E+04  0.20687872870E+02  0.14705693588E+04  0.50400001928E-02 0.  1.
       -1    1    3    3    0  502  0.17729867101E+03 -0.14596956642E+04  0.41465907061E+03  0.15277723638E+04  0.50400001928E-02 0. -1.
</event>
<event>
 5   0  0.1474012E-05  0.2138302E+04  0.7818609E-02  0.8544556E-01
        1   -1    0    0  501    0  0.00000000000E+00  0.00000000000E+00  0.95122794788E+03  0.95122794789E+03  0.50400001928E-02 0. -1.
       -1   -1    0    0    0  501  0.00000000000E+00  0.00000000000E+00 -0.12016927334E+04  0.12016927334E+04  0.50400001928E-02 0.  1.
    10030    2    1    2    0    0  0.00000000000E+00  0.00000000000E+00 -0.25046478553E+03  0.21529206813E+04  0.21383018616E+04 0.  0.
        2    1    3    3  502    0 -0.52575424141E+01 -0.72321105838E+03  0.66756553821E+03  0.98422844123E+03  0.25500000920E-02 0. -1.
       -2    1    3    3    0  502  0.52575424141E+01  0.72321105838E+03 -0.91803032374E+03  0.11686922401E+04  0.25500000920E-02 0.  1.
</event>
<event>
 5   0  0.3676724E-05  0.2201167E+04  0.7818609E-02  0.8517943E-01
       -2   -1    0    0    0  501  0.00000000000E+00  0.00000000000E+00  0.65721759351E+03  0.65721759352E+03  0.25500000920E-02 0. -1.
        2   -1    0    0  501    0  0.00000000000E+00  0.00000000000E+00 -0.18430482564E+04  0.18430482564E+04  0.25500000920E-02 0.  1.
    10030    2    1    2    0    0  0.00000000000E+00  0.00000000000E+00 -0.11858306629E+04  0.25002658499E+04  0.22011667268E+04 0.  0.
        4    1    3    3  502    0 -0.70677671546E+03  0.12445352628E+03  0.35488970131E+03  0.80060621951E+03  0.12699999809E+01 0. -1.
       -4    1    3    3    0  502  0.70677671546E+03 -0.12445352628E+03 -0.15407203642E+04  0.16996596304E+04  0.12699999809E+01 0.  1.
</event>
<event>
 5   0  0.3514294E-05  0.2367614E+04  0.7818609E-02  0.8451729E-01
        2   -1    0    0  501    0  0.00000000000E+00  0.00000000000E+00  0.17534582437E+04  0.17534582437E+04  0.25500000920E-02 0. -1.
       -2   -1    0    0    0  501  0.00000000000E+00  0.00000000000E+00 -0.79921981426E+03  0.79921981426E+03  0.25500000920E-02 0.  1.
    10030    2    1    2    0    0  0.00000000000E+00  0.00000000000E+00  0.95423842942E+03  0.25526780579E+04  0.23676136271E+04 0.  0.
        2    1    3    3  502    0 -0.76522192657E+03 -0.69722502723E+03  0.10962067903E+04  0.15077654535E+04  0.25500000920E-02 0. -1.
       -2    1    3    3    0  502  0.76522192657E+03  0.69722502723E+03 -0.14196836090E+03  0.10449126045E+04  0.25500000920E-02 0.  1.
</event>
<event>
 5   0  0.3676724E-05  0.2534542E+04  0.7818609E-02  0.8390782E-01
        2   -1    0    0  501    0  0.00000000000E+00  0.00000000000E+00  0.12578377104E+04  0.12578377104E+04  0.25500000920E-02 0. -1.
       -2   -1    0    0    0  501  0.00000000000E+00  0.00000000000E+00 -0.12767753943E+04  0.12767753943E+04  0.25500000920E-02 0.  1.
    10030    2    1    2    0    0  0.00000000000E+00  0.00000000000E+00 -0.18937683939E+02  0.25346131048E+04  0.25345423561E+04 0.  0.
        4    1    3    3  502    0  0.51971346583E+03 -0.10104562425E+03  0.11419373985E+04  0.12587036743E+04  0.12699999809E+01 0. -1.
       -4    1    3    3    0  502 -0.51971346583E+03  0.10104562425E+03 -0.11608750824E+04  0.12759094304E+04  0.12699999809E+01 0.  1.
</event>
<event>
 5   0  0.1474012E-05  0.2429618E+04  0.7818609E-02  0.8428497E-01
       -1   -1    0    0    0  501  0.00000000000E+00  0.00000000000E+00  0.11357306547E+04  0.11357306547E+04  0.50400001928E-02 0. -1.
        1   -1    0    0  501    0  0.00000000000E+00  0.00000000000E+00 -0.12993936563E+04  0.12993936563E+04  0.50400001928E-02 0.  1.
    10030    2    1    2    0    0  0.00000000000E+00  0.00000000000E+00 -0.16366300166E+03  0.24351243110E+04  0.24296182482E+04 0.  0.
        2    1    3    3  502    0  0.98046861714E+03 -0.26039021790E+03  0.58799392297E+03  0.11725436573E+04  0.25500000920E-02 0. -1.
       -2    1    3    3    0  502 -0.98046861714E+03  0.26039021790E+03 -0.75165692462E+03  0.12625806537E+04  0.25500000920E-02 0.  1.
</event>
<event>
 5   0  0.3652331E-05  0.2695942E+04  0.7818609E-02  0.8336323E-01
       -2   -1    0    0    0  501  0.00000000000E+00  0.00000000000E+00  0.12155525708E+04  0.12155525708E+04  0.25500000920E-02 0. -1.
        2   -1    0    0  501    0  0.00000000000E+00  0.00000000000E+00 -0.14948149845E+04  0.14948149845E+04  0.25500000920E-02 0.  1.
    10030    2    1    2    0    0  0.00000000000E+00  0.00000000000E+00 -0.27926241378E+03  0.27103675553E+04  0.26959422822E+04 0.  0.
        1    1    3    3  502    0 -0.11164025843E+04 -0.48043401821E+03  0.44645862881E+03  0.12947960779E+04  0.50400001928E-02 0. -1.
       -1    1    3    3    0  502  0.11164025843E+04  0.48043401821E+03 -0.72572104259E+03  0.14155714774E+04  0.50400001928E-02 0.  1.
</event>
<event>
 5   0  0.1438701E-05  0.2710061E+04  0.7818609E-02  0.8331748E-01
        1   -1    0    0  501    0  0.00000000000E+00  0.00000000000E+00  0.26321566921E+04  0.26321566922E+04  0.50400001928E-02 0. -1.
       -1   -1    0    0    0  501  0.00000000000E+00  0.00000000000E+00 -0.69756770692E+03  0.69756770693E+03  0.50400001928E-02 0.  1.
    10030    2    1    2    0    0  0.00000000000E+00  0.00000000000E+00  0.19345889852E+04  0.33297243991E+04  0.27100608908E+04 0.  0.
        4    1    3    3  502    0  0.82674608004E+03 -0.36055693389E+03  0.22097509589E+04  0.23867365370E+04  0.12699999809E+01 0. -1.
       -4    1    3    3    0  502 -0.82674608004E+03  0.36055693389E+03 -0.27516197370E+03  0.94298786213E+03  0.12699999809E+01 0.  1.
</event>
<event>
 5   0  0.1474012E-05  0.1836030E+04  0.7818609E-02  0.8687370E-01
       -1   -1    0    0    0  501  0.00000000000E+00  0.00000000000E+00  0.40368821449E+03  0.40368821452E+03  0.50400001928E-02 0. -1.
        1   -1    0    0  501    0  0.00000000000E+00  0.00000000000E+00 -0.20876304397E+04  0.20876304397E+04  0.50400001928E-02 0.  1.
    10030    2    1    2    0    0  0.00000000000E+00  0.00000000000E+00 -0.16839422252E+04  0.24913186542E+04  0.18360302882E+04 0.  0.
        2    1    3    3  502    0  0.39350623475E+03  0.80021220402E+03 -0.11379042091E+04  0.14456876279E+04  0.25500000920E-02 0. -1.
       -2    1    3    3    0  502 -0.39350623475E+03 -0.80021220402E+03 -0.54603801612E+03  0.10456310264E+04  0.25500000920E-02 0.  1.
</event>
<event>
 5   0  0.1484379E-05  0.2672605E+04  0.7818609E-02  0.8343949E-01
        1   -1    0    0  501    0  0.00000000000E+00  0.00000000000E+00  0.94449582940E+03  0.94449582941E+03  0.50400001928E-02 0. -1.
       -1   -1    0    0    0  501  0.00000000000E+00  0.00000000000E+00 -0.18906435927E+04  0.18906435927E+04  0.50400001928E-02 0.  1.
    10030    2    1    2    0    0  0.00000000000E+00  0.00000000000E+00 -0.94614776326E+03  0.28351394221E+04  0.26726054615E+04 0.  0.
        1    1    3    3  502    0 -0.84140399846E+03 -0.60969948413E+03  0.41826992956E+03  0.11201088713E+04  0.50400001928E-02 0. -1.
       -1    1    3    3    0  502  0.84140399846E+03  0.60969948413E+03 -0.13644176928E+04  0.17150305508E+04  0.50400001928E-02 0.  1.
</event>
<event>
 5   0  0.3652331E-05  0.2453214E+04  0.7818609E-02  0.8419846E-01
       -2   -1    0    0    0  501  0.00000000000E+00  0.00000000000E+00  0.11286651300E+04  0.11286651300E+04  0.25500000920E-02 0. -1.
        2   -1    0    0  501    0  0.00000000000E+00  0.00000000000E+00 -0.13330476963E+04  0.13330476964E+04  0.25500000920E-02 0.  1.
    10030    2    1    2    0    0  0.00000000000E+00  0.00000000000E+00 -0.20438256631E+03  0.24617128264E+04  0.24532137710E+04 0.  0.
        1    1    3    3  502    0 -0.10294494817E+02  0.11546010022E+04  0.31319331161E+03  0.11963692998E+04  0.50400001928E-02 0.  1.
       -1    1    3    3    0  502  0.10294494817E+02 -0.11546010022E+04 -0.51757587792E+03  0.12653435266E+04  0.50400001928E-02 0. -1.
</event>
<event>
 5   0  0.1449521E-05  0.2709970E+04  0.7818609E-02  0.8331777E-01
        1   -1    0    0  501    0  0.00000000000E+00  0.00000000000E+00  0.15952061688E+04  0.15952061688E+04  0.50400001928E-02 0. -1.
       -1   -1    0    0    0  501  0.00000000000E+00  0.00000000000E+00 -0.11509383957E+04  0.11509383957E+04  0.50400001928E-02 0.  1.
    10030    2    1    2    0    0  0.00000000000E+00  0.00000000000E+00  0.44426777308E+03  0.27461445645E+04  0.27099697628E+04 0.  0.
        3    1    3    3  502    0  0.76859796330E+03  0.94663878554E+03  0.82088171474E+03  0.14699369440E+04  0.10100000352E+00 0.  1.
       -3    1    3    3    0  502 -0.76859796330E+03 -0.94663878554E+03 -0.37661394166E+03  0.12762076205E+04  0.10100000352E+00 0. -1.
</event>
<event>
 5   0  0.1495517E-05  0.2716958E+04  0.7818609E-02  0.8329524E-01
        1   -1    0    0  501    0  0.00000000000E+00  0.00000000000E+00  0.19317735354E+04  0.19317735354E+04  0.50400001928E-02 0.  1.
       -1   -1    0    0    0  501  0.00000000000E+00  0.00000000000E+00 -0.95532172493E+03  0.95532172494E+03  0.50400001928E-02 0. -1.
    10030    2    1    2    0    0  0.00000000000E+00  0.00000000000E+00  0.97645181051E+03  0.28870952604E+04  0.27169580240E+04 0.  0.
        5    1    3    3  502    0 -0.35654428998E+03  0.14393589607E+03  0.18727358953E+04  0.19118062655E+04  0.46999998093E+01 0.  1.
       -5    1    3    3    0  502  0.35654428998E+03 -0.14393589607E+03 -0.89628408484E+03  0.97528899493E+03  0.46999998093E+01 0. -1.
</event>
<event>
 5   0  0.1449521E-05  0.2905489E+04  0.7818609E-02  0.8271246E-01
       -1   -1    0    0    0  501  0.00000000000E+00  0.00000000000E+00  0.96816403124E+03  0.96816403125E+03  0.50400001928E-02 0. -1.
        1   -1    0    0  501    0  0.00000000000E+00  0.00000000000E+00 -0.21798653375E+04  0.21798653376E+04  0.50400001928E-02 0.  1.
    10030    2    1    2    0    0  0.00000000000E+00  0.00000000000E+00 -0.12117013063E+04  0.31480293688E+04  0.29054894340E+04 0.  0.
        3    1    3    3  502    0  0.79068786946E+03 -0.56741352894E+03  0.56275882669E+03  0.11242076885E+04  0.10100000352E+00 0. -1.
       -3    1    3    3    0  502 -0.79068786946E+03  0.56741352894E+03 -0.17744601330E+04  0.20238216803E+04  0.10100000352E+00 0.  1.
</event>
<event>
 5   0  0.3514294E-05  0.2785633E+04  0.7818609E-02  0.8307743E-01
        2   -1    0    0  501    0  0.00000000000E+00  0.00000000000E+00  0.17183898032E+04  0.17183898032E+04  0.25500000920E-02 0.  1.
       -2   -1    0    0    0  501  0.00000000000E+00  0.00000000000E+00 -0.11289278691E+04  0.11289278691E+04  0.25500000920E-02 0. -1.
    10030    2    1    2    0    0  0.00000000000E+00  0.00000000000E+00  0.58946193410E+03  0.28473176724E+04  0.27856332414E+04 0.  0.
        2    1    3    3  502    0 -0.41024578592E+03  0.18861561468E+03  0.16415040823E+04  0.17024726451E+04  0.25500000920E-02 0.  1.
       -2    1    3    3    0  502  0.41024578592E+03 -0.18861561468E+03 -0.10520421482E+04  0.11448450273E+04  0.25500000920E-02 0. -1.
</event>
<event>
 5   0  0.3514294E-05  0.2562119E+04  0.7818609E-02  0.8381184E-01
        2   -1    0    0  501    0  0.00000000000E+00  0.00000000000E+00  0.82336117059E+03  0.82336117059E+03  0.25500000920E-02 0.  1.
       -2   -1    0    0    0  501  0.00000000000E+00  0.00000000000E+00 -0.19931878701E+04  0.19931878701E+04  0.25500000920E-02 0. -1.
    10030    2    1    2    0    0  0.00000000000E+00  0.00000000000E+00 -0.11698266995E+04  0.28165490406E+04  0.25621190432E+04 0.  0.
        2    1    3    3  502    0  0.21938349983E+03 -0.67219592604E+03 -0.17592345716E+04  0.18960176057E+04  0.25500000920E-02 0. -1.
       -2    1    3    3    0  502 -0.21938349983E+03  0.67219592604E+03  0.58940787217E+03  0.92053143497E+03  0.25500000920E-02 0.  1.
</event>
<event>
 5   0  0.3676724E-05  0.2685889E+04  0.7818609E-02  0.8339598E-01
        2   -1    0    0  501    0  0.00000000000E+00  0.00000000000E+00  0.18152188614E+04  0.18152188614E+04  0.25500000920E-02 0. -1.
       -2   -1    0    0    0  501  0.00000000000E+00  0.00000000000E+00 -0.99354381871E+03  0.99354381871E+03  0.25500000920E-02 0.  1.
    10030    2    1    2    0    0  0.00000000000E+00  0.00000000000E+00  0.82167504272E+03  0.28087626801E+04  0.26858886644E+04 0.  0.
        4    1    3    3  502    0  0.42658348201E+03  0.96677794987E+03  0.12775252918E+04  0.16579220596E+04  0.12699999809E+01 0. -1.
       -4    1    3    3    0  502 -0.42658348201E+03 -0.96677794987E+03 -0.45585024909E+03  0.11508406206E+04  0.12699999809E+01 0.  1.
</event>
<event>
 5   0  0.1228050E-05  0.2629360E+04  0.7818609E-02  0.8358296E-01
        3   -1    0    0  501    0  0.00000000000E+00  0.00000000000E+00  0.12848661233E+04  0.12848661272E+04  0.10100000352E+00 0.  1.
       -3   -1    0    0    0  501  0.00000000000E+00  0.00000000000E+00 -0.13451853795E+04  0.13451853833E+04  0.10100000352E+00 0. -1.
    10030    2    1    2    0    0  0.00000000000E+00  0.00000000000E+00 -0.60319256244E+02  0.26300515105E+04  0.26293597196E+04 0.  0.
        4    1    3    3  502    0 -0.11172322928E+04  0.23674612586E+03  0.62126036127E+03  0.13000856793E+04  0.12699999809E+01 0.  1.
       -4    1    3    3    0  502  0.11172322928E+04 -0.23674612586E+03 -0.68157961751E+03  0.13299658312E+04  0.12699999809E+01 0. -1.
</event>
<event>
 5   0  0.1449521E-05  0.2672986E+04  0.7818609E-02  0.8343823E-01
       -1   -1    0    0    0  501  0.00000000000E+00  0.00000000000E+00  0.12289585164E+04  0.12289585164E+04  0.50400001928E-02 0.  1.
        1   -1    0    0  501    0  0.00000000000E+00  0.00000000000E+00 -0.14534372212E+04  0.14534372212E+04  0.50400001928E-02 0. -1.
    10030    2    1    2    0    0  0.00000000000E+00  0.00000000000E+00 -0.22447870486E+03  0.26823957376E+04  0.26729863831E+04 0.  0.
        3    1    3    3  502    0  0.48708288291E+03  0.88712847336E+03 -0.98821955902E+03  0.14145050619E+04  0.10100000352E+00 0. -1.
       -3    1    3    3    0  502 -0.48708288291E+03 -0.88712847336E+03  0.76374085417E+03  0.12678906757E+04  0.10100000352E+00 0.  1.
</event>
<event>
 5   0  0.1438701E-05  0.2657489E+04  0.7818609E-02  0.8348932E-01
       -1   -1    0    0    0  501  0.00000000000E+00  0.00000000000E+00  0.11376988353E+04  0.11376988353E+04  0.50400001928E-02 0. -1.
        1   -1    0    0  501    0  0.00000000000E+00  0.00000000000E+00 -0.15518709984E+04  0.15518709984E+04  0.50400001928E-02 0.  1.
    10030    2    1    2    0    0  0.00000000000E+00  0.00000000000E+00 -0.41417216310E+03  0.26895698338E+04  0.26574889106E+04 0.  0.
        4    1    3    3  502    0  0.10903215679E+04 -0.73063137247E+03 -0.41679971271E+03  0.13770791325E+04  0.12699999809E+01 0. -1.
       -4    1    3    3    0  502 -0.10903215679E+04  0.73063137247E+03  0.26275496145E+01  0.13124907012E+04  0.12699999809E+01 0.  1.
</event>
<event>
 5   0  0.3497949E-05  0.1469940E+04  0.7818609E-02  0.8904692E-01
        2   -1    0    0  501    0  0.00000000000E+00  0.00000000000E+00  0.15271966519E+04  0.15271966519E+04  0.25500000920E-02 0.  1.
       -2   -1    0    0    0  501  0.00000000000E+00  0.00000000000E+00 -0.35370734065E+03  0.35370734066E+03  0.25500000920E-02 0. -1.
    10030    2    1    2    0    0  0.00000000000E+00  0.00000000000E+00  0.11734893113E+04  0.18809039926E+04  0.14699396809E+04 0.  0.
        5    1    3    3  502    0 -0.68200054892E+03  0.14351786515E+02  0.93676940983E+03  0.11588311955E+04  0.46999998093E+01 0. -1.
       -5    1    3    3    0  502  0.68200054892E+03 -0.14351786515E+02  0.23671990143E+03  0.72207279705E+03  0.46999998093E+01 0.  1.
</event>
<event>
 5   0  0.1449521E-05  0.2663241E+04  0.7818609E-02  0.8347031E-01
       -1   -1    0    0    0  501  0.00000000000E+00  0.00000000000E+00  0.21694542987E+04  0.21694542987E+04  0.50400001928E-02 0.  1.
        1   -1    0    0  501    0  0.00000000000E+00  0.00000000000E+00 -0.81735463066E+03  0.81735463067E+03  0.50400001928E-02 0. -1.
    10030    2    1    2    0    0  0.00000000000E+00  0.00000000000E+00  0.13520996681E+04  0.29868089294E+04  0.26632412711E+04 0.  0.
        3    1    3    3  502    0  0.13209692623E+04 -0.16803484608E+03  0.68080864382E+03  0.14955587321E+04  0.10100000352E+00 0. -1.
       -3    1    3    3    0  502 -0.13209692623E+04  0.16803484608E+03  0.67129102424E+03  0.14912501973E+04  0.10100000352E+00 0.  1.
</event>
<event>
 5   0  0.1474012E-05  0.2785532E+04  0.7818609E-02  0.8307774E-01
        1   -1    0    0  501    0  0.00000000000E+00  0.00000000000E+00  0.15104615045E+04  0.15104615045E+04  0.50400001928E-02 0. -1.
       -1   -1    0    0    0  501  0.00000000000E+00  0.00000000000E+00 -0.12842415741E+04  0.12842415742E+04  0.50400001928E-02 0.  1.
    10030    2    1    2    0    0  0.00000000000E+00  0.00000000000E+00  0.22621993032E+03  0.27947030786E+04  0.27855322365E+04 0.  0.
        2    1    3    3  502    0 -0.52531786483E+03  0.97698888390E+03 -0.73188097620E+03  0.13289529343E+04  0.25500000920E-02 0.  1.
       -2    1    3    3    0  502  0.52531786483E+03 -0.97698888390E+03  0.95810090652E+03  0.14657501443E+04  0.25500000920E-02 0. -1.
</event>
<event>
 5   0  0.3568647E-05  0.2798571E+04  0.7818609E-02  0.8303712E-01
       -2   -1    0    0    0  501  0.00000000000E+00  0.00000000000E+00  0.10751296034E+04  0.10751296034E+04  0.25500000920E-02 0.  1.
        2   -1    0    0  501    0  0.00000000000E+00  0.00000000000E+00 -0.18211751612E+04  0.18211751612E+04  0.25500000920E-02 0. -1.
    10030    2    1    2    0    0  0.00000000000E+00  0.00000000000E+00 -0.74604555775E+03  0.28963047646E+04  0.27985705843E+04 0.  0.
        3    1    3    3  502    0  0.73558888025E+03 -0.11347143957E+04 -0.83659389670E+00  0.13522826888E+04  0.10100000352E+00 0.  1.
       -3    1    3    3    0  502 -0.73558888025E+03  0.11347143957E+04 -0.74520896386E+03  0.15440220758E+04  0.10100000352E+00 0. -1.
</event>
<event>
 5   0  0.1449521E-05  0.2672057E+04  0.7818609E-02  0.8344129E-01
        1   -1    0    0  501    0  0.00000000000E+00  0.00000000000E+00  0.11726214837E+04  0.11726214837E+04  0.50400001928E-02 0.  1.
       -1   -1    0    0    0  501  0.00000000000E+00  0.00000000000E+00 -0.15222071001E+04  0.15222071002E+04  0.50400001928E-02 0. -1.
    10030    2    1    2    0    0  0.00000000000E+00  0.00000000000E+00 -0.34958561645E+03  0.26948285839E+04  0.26720574457E+04 0.  0.
        3    1    3    3  502    0 -0.36933865617E+03 -0.12209980393E+04  0.22573833263E+03  0.12954555415E+04  0.10100000352E+00 0.  1.
       -3    1    3    3    0  502  0.36933865617E+03  0.12209980393E+04 -0.57532394909E+03  0.13993730423E+04  0.10100000352E+00 0. -1.
</event>
<event>
 5   0  0.1449521E-05  0.2475611E+04  0.7818609E-02  0.8411726E-01
        1   -1    0    0  501    0  0.00000000000E+00  0.00000000000E+00  0.12658153635E+04  0.12658153636E+04  0.50400001928E-02 0. -1.
       -1   -1    0    0    0  501  0.00000000000E+00  0.00000000000E+00 -0.12104151607E+04  0.12104151607E+04  0.50400001928E-02 0.  1.
    10030    2    1    2    0    0  0.00000000000E+00  0.00000000000E+00  0.55400202860E+02  0.24762305243E+04  0.24756107179E+04 0.  0.
        3    1    3    3  502    0 -0.73233074290E+03  0.43928976331E+03 -0.86855898998E+03  0.12180634394E+04  0.10100000352E+00 0.  1.
       -3    1    3    3    0  502  0.73233074290E+03 -0.43928976331E+03  0.92395919284E+03  0.12581670848E+04  0.10100000352E+00 0. -1.
</event>
<event>
 5   0  0.1449521E-05  0.3022572E+04  0.7818609E-02  0.8237314E-01
        1   -1    0    0  501    0  0.00000000000E+00  0.00000000000E+00  0.11943060231E+04  0.11943060232E+04  0.50400001928E-02 0. -1.
       -1   -1    0    0    0  501  0.00000000000E+00  0.00000000000E+00 -0.19123956219E+04  0.19123956219E+04  0.50400001928E-02 0.  1.
    10030    2    1    2    0    0  0.00000000000E+00  0.00000000000E+00 -0.71808959877E+03  0.31067016451E+04  0.30225721562E+04 0.  0.
        3    1    3    3  502    0  0.11879201497E+04  0.93353021148E+03 -0.32124256147E+03  0.15446131332E+04  0.10100000352E+00 0. -1.
       -3    1    3    3    0  502 -0.11879201497E+04 -0.93353021148E+03 -0.39684703730E+03  0.15620885119E+04  0.10100000352E+00 0.  1.
</event>
<event>
 5   0  0.1228050E-05  0.2730207E+04  0.7818609E-02  0.8325270E-01
       -4   -1    0    0    0  501  0.00000000000E+00  0.00000000000E+00  0.98089525041E+03  0.98089607256E+03  0.12699999809E+01 0.  1.
        4   -1    0    0  501    0  0.00000000000E+00  0.00000000000E+00 -0.18998008563E+04  0.18998012808E+04  0.12699999809E+01 0. -1.
    10030    2    1    2    0    0  0.00000000000E+00  0.00000000000E+00 -0.91890560591E+03  0.28806973534E+04  0.27302069023E+04 0.  0.
        4    1    3    3  502    0 -0.71311020996E+03 -0.10883704262E+04 -0.23866302944E+02  0.13014021552E+04  0.12699999809E+01 0.  1.
       -4    1    3    3    0  502  0.71311020996E+03  0.10883704262E+04 -0.89503930297E+03  0.15792951982E+04  0.12699999809E+01 0. -1.
</event>
<event>
 5   0  0.1438701E-05  0.2701916E+04  0.7818609E-02  0.8334383E-01
       -1   -1    0    0    0  501  0.00000000000E+00  0.00000000000E+00  0.74364009399E+03  0.74364009400E+03  0.50400001928E-02 0.  1.
        1   -1    0    0  501    0  0.00000000000E+00  0.00000000000E+00 -0.24542625163E+04  0.24542625163E+04  0.50400001928E-02 0. -1.
    10030    2    1    2    0    0  0.00000000000E+00  0.00000000000E+00 -0.17106224223E+04  0.31979026103E+04  0.27019163631E+04 0.  0.
        4    1    3    3  502    0 -0.70666234138E+03 -0.62102045252E+02 -0.22160844033E+04  0.23268562534E+04  0.12699999809E+01 0. -1.
       -4    1    3    3    0  502  0.70666234138E+03  0.62102045252E+02  0.50546198096E+03  0.87104635689E+03  0.12699999809E+01 0.  1.
</event>
<event>
 5   0  0.1438701E-05  0.2736013E+04  0.7818609E-02  0.8323414E-01
        1   -1    0    0  501    0  0.00000000000E+00  0.00000000000E+00  0.19385663680E+04  0.19385663680E+04  0.50400001928E-02 0.  1.
       -1   -1    0    0    0  501  0.00000000000E+00  0.00000000000E+00 -0.96537446235E+03  0.96537446236E+03  0.50400001928E-02 0. -1.
    10030    2    1    2    0    0  0.00000000000E+00  0.00000000000E+00  0.97319190562E+03  0.29039408303E+04  0.27360134979E+04 0.  0.
        4    1    3    3  502    0  0.11774423948E+04  0.20704922652E+02 -0.25229416284E+03  0.12043476426E+04  0.12699999809E+01 0. -1.
       -4    1    3    3    0  502 -0.11774423948E+04 -0.20704922652E+02  0.12254860685E+04  0.16995931877E+04  0.12699999809E+01 0.  1.
</event>
<event>
 5   0  0.3568647E-05  0.2666586E+04  0.7818609E-02  0.8345929E-01
       -2   -1    0    0    0  501  0.00000000000E+00  0.00000000000E+00  0.65279082019E+03  0.65279082019E+03  0.25500000920E-02 0.  1.
        2   -1    0    0  501    0  0.00000000000E+00  0.00000000000E+00 -0.27231845235E+04  0.27231845235E+04  0.25500000920E-02 0. -1.
    10030    2    1    2    0    0  0.00000000000E+00  0.00000000000E+00 -0.20703937033E+04  0.33759753437E+04  0.26665857261E+04 0.  0.
        3    1    3    3  502    0  0.95560966954E+03  0.84295186078E+02  0.13707666613E+03  0.96906426078E+03  0.10100000352E+00 0.  1.
       -3    1    3    3    0  502 -0.95560966954E+03 -0.84295186078E+02 -0.22074703694E+04  0.24069110829E+04  0.10100000352E+00 0. -1.
</event>
<event>
 5   0  0.3676724E-05  0.2627762E+04  0.7818609E-02  0.8358832E-01
        2   -1    0    0  501    0  0.00000000000E+00  0.00000000000E+00  0.12730342871E+04  0.12730342871E+04  0.25500000920E-02 0.  1.
       -2   -1    0    0    0  501  0.00000000000E+00  0.00000000000E+00 -0.13560379132E+04  0.13560379132E+04  0.25500000920E-02 0. -1.
    10030    2    1    2    0    0  0.00000000000E+00  0.00000000000E+00 -0.83003626124E+02  0.26290722003E+04  0.26277616012E+04 0.  0.
        4    1    3    3  502    0 -0.28106769419E+03  0.32741878433E+03 -0.12831199716E+04  0.13537357879E+04  0.12699999809E+01 0. -1.
       -4    1    3    3    0  502  0.28106769419E+03 -0.32741878433E+03  0.12001163455E+04  0.12753364124E+04  0.12699999809E+01 0.  1.
</event>
<event>
 5   0  0.3676724E-05  0.2633469E+04  0.7818609E-02  0.8356921E-01
        2   -1    0    0  501    0  0.00000000000E+00  0.00000000000E+00  0.20490037601E+04  0.20490037601E+04  0.25500000920E-02 0. -1.
       -2   -1    0    0    0  501  0.00000000000E+00  0.00000000000E+00 -0.84616242227E+03  0.84616242227E+03  0.25500000920E-02 0.  1.
    10030    2    1    2    0    0  0.00000000000E+00  0.00000000000E+00  0.12028413378E+04  0.28951661823E+04  0.26334691833E+04 0.  0.
        4    1    3    3  502    0  0.98040132634E+03  0.40699517399E+03  0.14579141348E+04  0.18034264803E+04  0.12699999809E+01 0. -1.
       -4    1    3    3    0  502 -0.98040132634E+03 -0.40699517399E+03 -0.25507279704E+03  0.10917397020E+04  0.12699999809E+01 0.  1.
</event>
<event>
 5   0  0.1495517E-05  0.2706500E+04  0.7818609E-02  0.8332899E-01
        1   -1    0    0  501    0  0.00000000000E+00  0.00000000000E+00  0.12428535203E+04  0.12428535203E+04  0.50400001928E-02 0.  1.
       -1   -1    0    0    0  501  0.00000000000E+00  0.00000000000E+00 -0.14734522257E+04  0.14734522257E+04  0.50400001928E-02 0. -1.
    10030    2    1    2    0    0  0.00000000000E+00  0.00000000000E+00 -0.23059870538E+03  0.27163057460E+04  0.27064997955E+04 0.  0.
        5    1    3    3  502    0  0.10840364947E+04 -0.20803682010E+03  0.67038355975E+03  0.12914529212E+04  0.46999998093E+01 0.  1.
       -5    1    3    3    0  502 -0.10840364947E+04  0.20803682010E+03 -0.90098226513E+03  0.14248528248E+04  0.46999998093E+01 0. -1.
</event>
<event>
 5   0  0.1449521E-05  0.2699433E+04  0.7818609E-02  0.8335189E-01
        1   -1    0    0  501    0  0.00000000000E+00  0.00000000000E+00  0.11311217107E+04  0.11311217107E+04  0.50400001928E-02 0.  1.
       -1   -1    0    0    0  501  0.00000000000E+00  0.00000000000E+00 -0.16105553285E+04  0.16105553285E+04  0.50400001928E-02 0. -1.
    10030    2    1    2    0    0  0.00000000000E+00  0.00000000000E+00 -0.47943361780E+03  0.27416770392E+04  0.26994326058E+04 0.  0.
        3    1    3    3  502    0  0.10047792883E+04 -0.70993232393E+03 -0.80351544601E+03  0.14694292786E+04  0.10100000352E+00 0. -1.
       -3    1    3    3    0  502 -0.10047792883E+04  0.70993232393E+03  0.32408182822E+03  0.12722477606E+04  0.10100000352E+00 0.  1.
</event>
<event>
 5   0  0.3676724E-05  0.2657701E+04  0.7818609E-02  0.8348861E-01
        2   -1    0    0  501    0  0.00000000000E+00  0.00000000000E+00  0.10393673479E+04  0.10393673479E+04  0.25500000920E-02 0. -1.
       -2   -1    0    0    0  501  0.00000000000E+00  0.00000000000E+00 -0.16989604409E+04  0.16989604409E+04  0.25500000920E-02 0.  1.
    10030    2    1    2    0    0  0.00000000000E+00  0.00000000000E+00 -0.65959309296E+03  0.27383277888E+04  0.26577012681E+04 0.  0.
        4    1    3    3  502    0 -0.39882502026E+03 -0.12528486338E+04 -0.52839061376E+03  0.14170001234E+04  0.12699999809E+01 0. -1.
       -4    1    3    3    0  502  0.39882502026E+03  0.12528486338E+04 -0.13120247920E+03  0.13213276654E+04  0.12699999809E+01 0.  1.
</event>
<event>
 5   0  0.3497949E-05  0.2310313E+04  0.7818609E-02  0.8473866E-01
       -2   -1    0    0    0  501  0.00000000000E+00  0.00000000000E+00  0.52906723110E+03  0.52906723110E+03  0.25500000920E-02 0.  1.
        2   -1    0    0  501    0  0.00000000000E+00  0.00000000000E+00 -0.25221499835E+04  0.25221499835E+04  0.25500000920E-02 0. -1.
    10030    2    1    2    0    0  0.00000000000E+00  0.00000000000E+00 -0.19930827524E+04  0.30512172146E+04  0.23103133192E+04 0.  0.
        5    1    3    3  502    0  0.11019483109E+04  0.23905653196E+03 -0.13278401031E+04  0.17420159399E+04  0.46999998093E+01 0. -1.
       -5    1    3    3    0  502 -0.11019483109E+04 -0.23905653196E+03 -0.66524264925E+03  0.13092012747E+04  0.46999998093E+01 0.  1.
</event>
<event>
 5   0  0.1495517E-05  0.2763803E+04  0.7818609E-02  0.8314595E-01
        1   -1    0    0  501    0  0.00000000000E+00  0.00000000000E+00  0.10911957665E+04  0.10911957665E+04  0.50400001928E-02 0.  1.
       -1   -1    0    0    0  501  0.00000000000E+00  0.00000000000E+00 -0.17500540759E+04  0.17500540759E+04  0.50400001928E-02 0. -1.
    10030    2    1    2    0    0  0.00000000000E+00  0.00000000000E+00 -0.65885830944E+03  0.28412498424E+04  0.27638028865E+04 0.  0.
        5    1    3    3  502    0  0.33669225859E+03 -0.11485723965E+04  0.38061275232E+03  0.12559730826E+04  0.46999998093E+01 0. -1.
       -5    1    3    3    0  502 -0.33669225859E+03  0.11485723965E+04 -0.10394710618E+04  0.15852767598E+04  0.46999998093E+01 0.  1.
</event>
<event>
 5   0  0.1449521E-05  0.2668212E+04  0.7818609E-02  0.8345393E-01
        1   -1    0    0  501    0  0.00000000000E+00  0.00000000000E+00  0.28342744349E+04  0.28342744349E+04  0.50400001928E-02 0. -1.
       -1   -1    0    0    0  501  0.00000000000E+00  0.00000000000E+00 -0.62797004722E+03  0.62797004724E+03  0.50400001928E-02 0.  1.
    10030    2    1    2    0    0  0.00000000000E+00  0.00000000000E+00  0.22063043877E+04  0.34622444822E+04  0.26682124734E+04 0.  0.
        3    1    3    3  502    0 -0.90182940144E+03  0.13203356118E+01  0.23788492651E+04  0.25440561804E+04  0.10100000352E+00 0. -1.
       -3    1    3    3    0  502  0.90182940144E+03 -0.13203356118E+01 -0.17254487743E+03  0.91818830178E+03  0.10100000352E+00 0.  1.
</event>
<event>
 5   0  0.3514294E-05  0.2091075E+04  0.7818609E-02  0.8565185E-01
        2   -1    0    0  501    0  0.00000000000E+00  0.00000000000E+00  0.11823029513E+04  0.11823029513E+04  0.25500000920E-02 0.  1.
       -2   -1    0    0    0  501  0.00000000000E+00  0.00000000000E+00 -0.92459273249E+03  0.92459273250E+03  0.25500000920E-02 0. -1.
    10030    2    1    2    0    0  0.00000000000E+00  0.00000000000E+00  0.25771021878E+03  0.21068956838E+04  0.20910750502E+04 0.  0.
        2    1    3    3  502    0 -0.23392880841E+02 -0.83358687452E+03  0.76428844858E+03  0.11311724612E+04  0.25500000920E-02 0.  1.
       -2    1    3    3    0  502  0.23392880841E+02  0.83358687452E+03 -0.50657822980E+03  0.97572322262E+03  0.25500000920E-02 0. -1.
</event>
<event>
 5   0  0.3497949E-05  0.2683683E+04  0.7818609E-02  0.8340319E-01
       -2   -1    0    0    0  501  0.00000000000E+00  0.00000000000E+00  0.12151657880E+04  0.12151657880E+04  0.25500000920E-02 0.  1.
        2   -1    0    0  501    0  0.00000000000E+00  0.00000000000E+00 -0.14817229207E+04  0.14817229207E+04  0.25500000920E-02 0. -1.
    10030    2    1    2    0    0  0.00000000000E+00  0.00000000000E+00 -0.26655713276E+03  0.26968887087E+04  0.26836832902E+04 0.  0.
        5    1    3    3  502    0 -0.69015302414E+03 -0.71370895987E+03 -0.10403970118E+04  0.14381028156E+04  0.46999998093E+01 0. -1.
       -5    1    3    3    0  502  0.69015302414E+03  0.71370895987E+03  0.77383987905E+03  0.12587858930E+04  0.46999998093E+01 0.  1.
</event>
<event>
 5   0  0.3652331E-05  0.2586718E+04  0.7818609E-02  0.8372727E-01
       -2   -1    0    0    0  501  0.00000000000E+00  0.00000000000E+00  0.17458810549E+04  0.17458810549E+04  0.25500000920E-02 0. -1.
        2   -1    0    0  501    0  0.00000000000E+00  0.00000000000E+00 -0.95812793014E+03  0.95812793014E+03  0.25500000920E-02 0.  1.
    10030    2    1    2    0    0  0.00000000000E+00  0.00000000000E+00  0.78775312477E+03  0.27040089851E+04  0.25867179216E+04 0.  0.
        1    1    3    3  502    0  0.30938661372E+03  0.80724486164E+03 -0.61172715473E+03  0.10590441234E+04  0.50400001928E-02 0.  1.
       -1    1    3    3    0  502 -0.30938661372E+03 -0.80724486164E+03  0.13994802795E+04  0.16449648617E+04  0.50400001928E-02 0. -1.
</event>
<event>
 5   0  0.3676724E-05  0.2711448E+04  0.7818609E-02  0.8331300E-01
        2   -1    0    0  501    0  0.00000000000E+00  0.00000000000E+00  0.10711961759E+04  0.10711961759E+04  0.25500000920E-02 0.  1.
       -2   -1    0    0    0  501  0.00000000000E+00  0.00000000000E+00 -0.17158277110E+04  0.17158277110E+04  0.25500000920E-02 0. -1.
    10030    2    1    2    0    0  0.00000000000E+00  0.00000000000E+00 -0.64463153511E+03  0.27870238869E+04  0.27114483823E+04 0.  0.
        4    1    3    3  502    0  0.44453062272E+03  0.87453352837E+00  0.99415538893E+03  0.10890155139E+04  0.12699999809E+01 0.  1.
       -4    1    3    3    0  502 -0.44453062272E+03 -0.87453352837E+00 -0.16387869240E+04  0.16980083730E+04  0.12699999809E+01 0. -1.
</event>
<event>
 5   0  0.3497949E-05  0.2695080E+04  0.7818609E-02  0.8336603E-01
        2   -1    0    0  501    0  0.00000000000E+00  0.00000000000E+00  0.28338764423E+04  0.28338764423E+04  0.25500000920E-02 0.  1.
       -2   -1    0    0    0  501  0.00000000000E+00  0.00000000000E+00 -0.64077050694E+03  0.64077050694E+03  0.25500000920E-02 0. -1.
    10030    2    1    2    0    0  0.00000000000E+00  0.00000000000E+00  0.21931059353E+04  0.34746469492E+04  0.26950802916E+04 0.  0.
        5    1    3    3  502    0  0.86316324675E+03  0.93806845700E+03  0.53336945069E+03  0.13818568238E+04  0.46999998093E+01 0. -1.
       -5    1    3    3    0  502 -0.86316324675E+03 -0.93806845700E+03  0.16597364847E+04  0.20927901254E+04  0.46999998093E+01 0.  1.
</event>
<event>
 5   0  0.3568647E-05  0.2641322E+04  0.7818609E-02  0.8354299E-01
       -2   -1    0    0    0  501  0.00000000000E+00  0.00000000000E+00  0.97263437876E+03  0.97263437876E+03  0.25500000920E-02 0.  1.
        2   -1    0    0  501    0  0.00000000000E+00  0.00000000000E+00 -0.17932178558E+04  0.17932178558E+04  0.25500000920E-02 0. -1.
    10030    2    1    2    0    0  0.00000000000E+00  0.00000000000E+00 -0.82058347709E+03  0.27658522346E+04  0.26413218927E+04 0.  0.
        3    1    3    3  502    0 -0.32906086430E+02  0.70742624605E+03  0.75698860929E+03  0.10366129793E+04  0.10100000352E+00 0.  1.
       -3    1    3    3    0  502  0.32906086430E+02 -0.70742624605E+03 -0.15775720864E+04  0.17292392553E+04  0.10100000352E+00 0. -1.
</event>
<event>
 5   0  0.1438701E-05  0.2842389E+04  0.7818609E-02  0.8290228E-01
       -1   -1    0    0    0  501  0.00000000000E+00  0.00000000000E+00  0.12984548945E+04  0.12984548945E+04  0.50400001928E-02 0. -1.
        1   -1    0    0  501    0  0.00000000000E+00  0.00000000000E+00 -0.15555358592E+04  0.15555358592E+04  0.50400001928E-02 0.  1.
    10030    2    1    2    0    0  0.00000000000E+00  0.00000000000E+00 -0.25708096474E+03  0.28539907537E+04  0.28423885378E+04 0.  0.
        4    1    3    3  502    0 -0.10934719257E+04  0.16665901916E+03 -0.10245593298E+04  0.15077067069E+04  0.12699999809E+01 0.  1.
       -4    1    3    3    0  502  0.10934719257E+04 -0.16665901916E+03  0.76747836504E+03  0.13462840468E+04  0.12699999809E+01 0. -1.
</event>
<event>
 5   0  0.3497949E-05  0.2674425E+04  0.7818609E-02  0.8343351E-01
        2   -1    0    0  501    0  0.00000000000E+00  0.00000000000E+00  0.22115812127E+04  0.22115812127E+04  0.25500000920E-02 0. -1.
       -2   -1    0    0    0  501  0.00000000000E+00  0.00000000000E+00 -0.80853321888E+03  0.80853321888E+03  0.25500000920E-02 0.  1.
    10030    2    1    2    0    0  0.00000000000E+00  0.00000000000E+00  0.14030479938E+04  0.30201144316E+04  0.26744247058E+04 0.  0.
        5    1    3    3  502    0  0.10596685046E+04 -0.76058670909E+03  0.10340808800E+04  0.16645524438E+04  0.46999998093E+01 0.  1.
       -5    1    3    3    0  502 -0.10596685046E+04  0.76058670909E+03  0.36896711383E+03  0.13555619878E+04  0.46999998093E+01 0. -1.
</event>
<event>
 5   0  0.1495517E-05  0.2739444E+04  0.7818609E-02  0.8322319E-01
        1   -1    0    0  501    0  0.00000000000E+00  0.00000000000E+00  0.18197010489E+04  0.18197010489E+04  0.50400001928E-02 0.  1.
       -1   -1    0    0    0  501  0.00000000000E+00  0.00000000000E+00 -0.10310145447E+04  0.10310145447E+04  0.50400001928E-02 0. -1.
    10030    2    1    2    0    0  0.00000000000E+00  0.00000000000E+00  0.78868650417E+03  0.28507155936E+04  0.27394439206E+04 0.  0.
        5    1    3    3  502    0  0.22162935685E+03  0.66829010325E+03 -0.82827698712E+03  0.10871044528E+04  0.46999998093E+01 0. -1.
       -5    1    3    3    0  502 -0.22162935685E+03 -0.66829010325E+03  0.16169634913E+04  0.17636111408E+04  0.46999998093E+01 0.  1.
</event>
<event>
 5   0  0.1495517E-05  0.1860098E+04  0.7818609E-02  0.8674977E-01
        1   -1    0    0  501    0  0.00000000000E+00  0.00000000000E+00  0.12173333903E+04  0.12173333903E+04  0.50400001928E-02 0. -1.
       -1   -1    0    0    0  501  0.00000000000E+00  0.00000000000E+00 -0.71056217324E+03  0.71056217325E+03  0.50400001928E-02 0.  1.
    10030    2    1    2    0    0  0.00000000000E+00  0.00000000000E+00  0.50677121704E+03  0.19278955635E+04  0.18600979107E+04 0.  0.
        5    1    3    3  502    0 -0.71186532836E+03  0.59725454336E+03  0.29357701649E+03  0.97451259094E+03  0.46999998093E+01 0. -1.
       -5    1    3    3    0  502  0.71186532836E+03 -0.59725454336E+03  0.21319420054E+03  0.95338297260E+03  0.46999998093E+01 0.  1.
</event>
<event>
 5   0  0.1495517E-05  0.2708672E+04  0.7818609E-02  0.8332197E-01
        1   -1    0    0  501    0  0.00000000000E+00  0.00000000000E+00  0.20609045622E+04  0.20609045622E+04  0.50400001928E-02 0. -1.
       -1   -1    0    0    0  501  0.00000000000E+00  0.00000000000E+00 -0.89000996576E+03  0.89000996577E+03  0.50400001928E-02 0.  1.
    10030    2    1    2    0    0  0.00000000000E+00  0.00000000000E+00  0.11708945964E+04  0.29509145279E+04  0.27086717031E+04 0.  0.
        5    1    3    3  502    0 -0.11600008542E+04 -0.61109726607E+03  0.21574324217E+03  0.13287622386E+04  0.46999998093E+01 0. -1.
       -5    1    3    3    0  502  0.11600008542E+04  0.61109726607E+03  0.95515135423E+03  0.16221522893E+04  0.46999998093E+01 0.  1.
</event>
<event>
 5   0  0.1484379E-05  0.2701913E+04  0.7818609E-02  0.8334385E-01
        1   -1    0    0  501    0  0.00000000000E+00  0.00000000000E+00  0.14737259231E+04  0.14737259231E+04  0.50400001928E-02 0.  1.
       -1   -1    0    0    0  501  0.00000000000E+00  0.00000000000E+00 -0.12384142749E+04  0.12384142749E+04  0.50400001928E-02 0. -1.
    10030    2    1    2    0    0  0.00000000000E+00  0.00000000000E+00  0.23531164821E+03  0.27121401981E+04  0.27019128191E+04 0.  0.
        1    1    3    3  502    0  0.11708583757E+04 -0.67368055905E+03  0.13584592424E+03  0.13576483148E+04  0.50400001928E-02 0. -1.
       -1    1    3    3    0  502 -0.11708583757E+04  0.67368055905E+03  0.99465723975E+02  0.13544918833E+04  0.50400001928E-02 0.  1.
</event>
<event>
 5   0  0.3568647E-05  0.2748540E+04  0.7818609E-02  0.8319425E-01
        2   -1    0    0  501    0  0.00000000000E+00  0.00000000000E+00  0.22802276572E+04  0.22802276572E+04  0.25500000920E-02 0.  1.
       -2   -1    0    0    0  501  0.00000000000E+00  0.00000000000E+00 -0.82825857533E+03  0.82825857534E+03  0.25500000920E-02 0. -1.
    10030    2    1    2    0    0  0.00000000000E+00  0.00000000000E+00  0.14519690818E+04  0.31084862325E+04  0.27485400567E+04 0.  0.
        3    1    3    3  502    0  0.68692696781E+03 -0.26095398171E+03  0.20393842088E+04  0.21677300572E+04  0.10100000352E+00 0.  1.
       -3    1    3    3    0  502 -0.68692696781E+03  0.26095398171E+03 -0.58741512699E+03  0.94075617526E+03  0.10100000352E+00 0. -1.
</event>
<event>
 5   0  0.3497949E-05  0.2595914E+04  0.7818609E-02  0.8369591E-01
        2   -1    0    0  501    0  0.00000000000E+00  0.00000000000E+00  0.20566058372E+04  0.20566058372E+04  0.25500000920E-02 0. -1.
       -2   -1    0    0    0  501  0.00000000000E+00  0.00000000000E+00 -0.81916125424E+03  0.81916125424E+03  0.25500000920E-02 0.  1.
    10030    2    1    2    0    0  0.00000000000E+00  0.00000000000E+00  0.12374445830E+04  0.28757670915E+04  0.25959135711E+04 0.  0.
        5    1    3    3  502    0 -0.12610133449E+04 -0.17741277845E+03  0.89686700852E+03  0.15575694113E+04  0.46999998093E+01 0. -1.
       -5    1    3    3    0  502  0.12610133449E+04  0.17741277845E+03  0.34057757447E+03  0.13181976802E+04  0.46999998093E+01 0.  1.
</event>
<event>
 5   0  0.1438701E-05  0.2456825E+04  0.7818609E-02  0.8418530E-01
       -1   -1    0    0    0  501  0.00000000000E+00  0.00000000000E+00  0.72974647938E+03  0.72974647940E+03  0.50400001928E-02 0.  1.
        1   -1    0    0  501    0  0.00000000000E+00  0.00000000000E+00 -0.20678374827E+04  0.20678374827E+04  0.50400001928E-02 0. -1.
    10030    2    1    2    0    0  0.00000000000E+00  0.00000000000E+00 -0.13380910033E+04  0.27975839621E+04  0.24568248802E+04 0.  0.
        4    1    3    3  502    0  0.11314782117E+04  0.10412713708E+03 -0.13749122854E+03  0.11445483193E+04  0.12699999809E+01 0.  1.
       -4    1    3    3    0  502 -0.11314782117E+04 -0.10412713708E+03 -0.12005997747E+04  0.16530356428E+04  0.12699999809E+01 0. -1.
</event>
<event>
 5   0  0.3514294E-05  0.2416428E+04  0.7818609E-02  0.8433378E-01
       -2   -1    0    0    0  501  0.00000000000E+00  0.00000000000E+00  0.86104280840E+03  0.86104280840E+03  0.25500000920E-02 0.  1.
        2   -1    0    0  501    0  0.00000000000E+00  0.00000000000E+00 -0.16953647920E+04  0.16953647920E+04  0.25500000920E-02 0. -1.
    10030    2    1    2    0    0  0.00000000000E+00  0.00000000000E+00 -0.83432198356E+03  0.25564076004E+04  0.24164284899E+04 0.  0.
        2    1    3    3  502    0 -0.11666294573E+04  0.13312483182E+02 -0.84998272155E+02  0.11697975120E+04  0.25500000920E-02 0.  1.
       -2    1    3    3    0  502  0.11666294573E+04 -0.13312483182E+02 -0.74932371140E+03  0.13866100884E+04  0.25500000920E-02 0. -1.
</event>
<event>
 5   0  0.3514294E-05  0.2127260E+04  0.7818609E-02  0.8549329E-01
       -2   -1    0    0    0  501  0.00000000000E+00  0.00000000000E+00  0.62578645588E+03  0.62578645588E+03  0.25500000920E-02 0.  1.
        2   -1    0    0  501    0  0.00000000000E+00  0.00000000000E+00 -0.18078196685E+04  0.18078196685E+04  0.25500000920E-02 0. -1.
    10030    2    1    2    0    0  0.00000000000E+00  0.00000000000E+00 -0.11820332127E+04  0.24336061244E+04  0.21272602692E+04 0.  0.
        2    1    3    3  502    0  0.76912159319E+03 -0.69534861572E+03 -0.31968767774E+03  0.10850151768E+04  0.25500000920E-02 0.  1.
       -2    1    3    3    0  502 -0.76912159319E+03  0.69534861572E+03 -0.86234553491E+03  0.13485909477E+04  0.25500000920E-02 0. -1.
</event>
<event>
 5   0  0.1484379E-05  0.2405552E+04  0.7818609E-02  0.8437428E-01
        1   -1    0    0  501    0  0.00000000000E+00  0.00000000000E+00  0.85205031026E+03  0.85205031027E+03  0.50400001928E-02 0.  1.
       -1   -1    0    0    0  501  0.00000000000E+00  0.00000000000E+00 -0.16978699780E+04  0.16978699780E+04  0.50400001928E-02 0. -1.
    10030    2    1    2    0    0  0.00000000000E+00  0.00000000000E+00 -0.84581966777E+03  0.25499202883E+04  0.24055524451E+04 0.  0.
        1    1    3    3  502    0  0.41052367335E+02  0.82427046095E+03  0.50456556542E+03  0.96731251387E+03  0.50400001928E-02 0.  1.
       -1    1    3    3    0  502 -0.41052367335E+02 -0.82427046095E+03 -0.13503852332E+04  0.15826077744E+04  0.50400001928E-02 0. -1.
</event>
<event>
 5   0  0.3497949E-05  0.2627641E+04  0.7818609E-02  0.8358872E-01
        2   -1    0    0  501    0  0.00000000000E+00  0.00000000000E+00  0.31728931785E+04  0.31728931785E+04  0.25500000920E-02 0. -1.
       -2   -1    0    0    0  501  0.00000000000E+00  0.00000000000E+00 -0.54402215307E+03  0.54402215307E+03  0.25500000920E-02 0.  1.
    10030    2    1    2    0    0  0.00000000000E+00  0.00000000000E+00  0.26288710254E+04  0.37169153315E+04  0.26276409027E+04 0.  0.
        5    1    3    3  502    0 -0.35909674950E+03  0.77881628434E+03 -0.93442792993E+02  0.86270442552E+03  0.46999998093E+01 0.  1.
       -5    1    3    3    0  502  0.35909674950E+03 -0.77881628434E+03  0.27223138184E+04  0.28542109060E+04  0.46999998093E+01 0. -1.
</event>
<event>
 5   0  0.1449521E-05  0.2746936E+04  0.7818609E-02  0.8319934E-01
        1   -1    0    0  501    0  0.00000000000E+00  0.00000000000E+00  0.16142352152E+04  0.16142352152E+04  0.50400001928E-02 0.  1.
       -1   -1    0    0    0  501  0.00000000000E+00  0.00000000000E+00 -0.11686122248E+04  0.11686122248E+04  0.50400001928E-02 0. -1.
    10030    2    1    2    0    0  0.00000000000E+00  0.00000000000E+00  0.44562299038E+03  0.27828474401E+04  0.27469364800E+04 0.  0.
        3    1    3    3  502    0 -0.80857277629E+03 -0.98320976999E+03  0.74523081578E+03  0.14750797827E+04  0.10100000352E+00 0.  1.
       -3    1    3    3    0  502  0.80857277629E+03  0.98320976999E+03 -0.29960782540E+03  0.13077676573E+04  0.10100000352E+00 0. -1.
</event>
<event>
 5   0  0.3676724E-05  0.2703033E+04  0.7818609E-02  0.8334021E-01
        2   -1    0    0  501    0  0.00000000000E+00  0.00000000000E+00  0.14556772242E+04  0.14556772242E+04  0.25500000920E-02 0.  1.
       -2   -1    0    0    0  501  0.00000000000E+00  0.00000000000E+00 -0.12548093408E+04  0.12548093408E+04  0.25500000920E-02 0. -1.
    10030    2    1    2    0    0  0.00000000000E+00  0.00000000000E+00  0.20086788346E+03  0.27104865650E+04  0.27030333909E+04 0.  0.
        4    1    3    3  502    0  0.88441778098E+03  0.96991274093E+03  0.42330036092E+03  0.13791701653E+04  0.12699999809E+01 0. -1.
       -4    1    3    3    0  502 -0.88441778098E+03 -0.96991274093E+03 -0.22243247746E+03  0.13313163998E+04  0.12699999809E+01 0.  1.
</event>
<event>
 5   0  0.1228050E-05  0.2758575E+04  0.7818609E-02  0.8316246E-01
       -3   -1    0    0    0  501  0.00000000000E+00  0.00000000000E+00  0.92164040513E+03  0.92164041067E+03  0.10100000352E+00 0. -1.
        3   -1    0    0  501    0  0.00000000000E+00  0.00000000000E+00 -0.20641827330E+04  0.20641827355E+04  0.10100000352E+00 0.  1.
    10030    2    1    2    0    0  0.00000000000E+00  0.00000000000E+00 -0.11425423279E+04  0.29858231462E+04  0.27585751556E+04 0.  0.
        5    1    3    3  502    0 -0.91952817673E+03  0.91892406996E+03 -0.10701745322E+04  0.16838198044E+04  0.46999998093E+01 0.  1.
       -5    1    3    3    0  502  0.91952817673E+03 -0.91892406996E+03 -0.72367795647E+02  0.13020033418E+04  0.46999998093E+01 0. -1.
</event>
<event>
 5   0  0.3497949E-05  0.2760827E+04  0.7818609E-02  0.8315534E-01
       -2   -1    0    0    0  501  0.00000000000E+00  0.00000000000E+00  0.84032921619E+03  0.84032921620E+03  0.25500000920E-02 0.  1.
        2   -1    0    0  501    0  0.00000000000E+00  0.00000000000E+00 -0.22676122467E+04  0.22676122467E+04  0.25500000920E-02 0. -1.
    10030    2    1    2    0    0  0.00000000000E+00  0.00000000000E+00 -0.14272830306E+04  0.31079414629E+04  0.27608265588E+04 0.  0.
        5    1    3    3  502    0  0.75964272403E+03 -0.85004594090E+03  0.16260900994E+03  0.11515636977E+04  0.46999998093E+01 0.  1.
       -5    1    3    3    0  502 -0.75964272403E+03  0.85004594090E+03 -0.15898920405E+04  0.19563777652E+04  0.46999998093E+01 0. -1.
</event>
<event>
 5   0  0.1484379E-05  0.2007224E+04  0.7818609E-02  0.8603251E-01
       -1   -1    0    0    0  501  0.00000000000E+00  0.00000000000E+00  0.44169308667E+03  0.44169308670E+03  0.50400001928E-02 0.  1.
        1   -1    0    0  501    0  0.00000000000E+00  0.00000000000E+00 -0.22804005413E+04  0.22804005413E+04  0.50400001928E-02 0. -1.
    10030    2    1    2    0    0  0.00000000000E+00  0.00000000000E+00 -0.18387074546E+04  0.27220936280E+04  0.20072241070E+04 0.  0.
        1    1    3    3  502    0 -0.69288668956E+03  0.32643737828E+03 -0.17988489385E+04  0.19551242493E+04  0.50400001928E-02 0. -1.
       -1    1    3    3    0  502  0.69288668956E+03 -0.32643737828E+03 -0.39858516074E+02  0.76696937868E+03  0.50400001928E-02 0.  1.
</event>
<event>
 5   0  0.1484379E-05  0.1790112E+04  0.7818609E-02  0.8711575E-01
       -1   -1    0    0    0  501  0.00000000000E+00  0.00000000000E+00  0.51101019216E+03  0.51101019219E+03  0.50400001928E-02 0. -1.
        1   -1    0    0  501    0  0.00000000000E+00  0.00000000000E+00 -0.15677293126E+04  0.15677293126E+04  0.50400001928E-02 0.  1.
    10030    2    1    2    0    0  0.00000000000E+00  0.00000000000E+00 -0.10567191204E+04  0.20787395048E+04  0.17901124627E+04 0.  0.
        1    1    3    3  502    0 -0.74436238624E+03  0.40282988878E+03 -0.86647289550E+03  0.12112483478E+04  0.50400001928E-02 0.  1.
       -1    1    3    3    0  502  0.74436238624E+03 -0.40282988878E+03 -0.19024622492E+03  0.86749115699E+03  0.50400001928E-02 0. -1.
</event>
<event>
 5   0  0.1449521E-05  0.2800620E+04  0.7818609E-02  0.8303076E-01
        1   -1    0    0  501    0  0.00000000000E+00  0.00000000000E+00  0.14067903010E+04  0.14067903010E+04  0.50400001928E-02 0.  1.
       -1   -1    0    0    0  501  0.00000000000E+00  0.00000000000E+00 -0.13938595609E+04  0.13938595609E+04  0.50400001928E-02 0. -1.
    10030    2    1    2    0    0  0.00000000000E+00  0.00000000000E+00  0.12930740137E+02  0.28006498619E+04  0.28006200108E+04 0.  0.
        3    1    3    3  502    0  0.33500122831E+03 -0.61937001555E+03 -0.12039289015E+04  0.13947364802E+04  0.10100000352E+00 0. -1.
       -3    1    3    3    0  502 -0.33500122831E+03  0.61937001555E+03  0.12168596416E+04  0.14059133817E+04  0.10100000352E+00 0.  1.
</event>
<event>
 5   0  0.3676724E-05  0.2676075E+04  0.7818609E-02  0.8342810E-01
       -2   -1    0    0    0  501  0.00000000000E+00  0.00000000000E+00  0.89252359306E+03  0.89252359306E+03  0.25500000920E-02 0. -1.
        2   -1    0    0  501    0  0.00000000000E+00  0.00000000000E+00 -0.20059346137E+04  0.20059346137E+04  0.25500000920E-02 0.  1.
    10030    2    1    2    0    0  0.00000000000E+00  0.00000000000E+00 -0.11134110207E+04  0.28984582068E+04  0.26760747141E+04 0.  0.
        4    1    3    3  502    0 -0.34650379043E+03  0.65250463729E+03 -0.17649891827E+04  0.19133780615E+04  0.12699999809E+01 0.  1.
       -4    1    3    3    0  502  0.34650379043E+03 -0.65250463729E+03  0.65157816201E+03  0.98508014526E+03  0.12699999809E+01 0. -1.
</event>
<event>
 5   0  0.3652331E-05  0.2654430E+04  0.7818609E-02  0.8349944E-01
        2   -1    0    0  501    0  0.00000000000E+00  0.00000000000E+00  0.18169001663E+04  0.18169001663E+04  0.25500000920E-02 0.  1.
       -2   -1    0    0    0  501  0.00000000000E+00  0.00000000000E+00 -0.96950845820E+03  0.96950845820E+03  0.25500000920E-02 0. -1.
    10030    2    1    2    0    0  0.00000000000E+00  0.00000000000E+00  0.84739170814E+03  0.27864086245E+04  0.26544303185E+04 0.  0.
        1    1    3    3  502    0 -0.12895911726E+04 -0.70263075660E+02  0.74470735070E+03  0.14908290749E+04  0.50400001928E-02 0.  1.
       -1    1    3    3    0  502  0.12895911726E+04  0.70263075660E+02  0.10268435745E+03  0.12955795497E+04  0.50400001928E-02 0. -1.
</event>
<event>
 5   0  0.3497949E-05  0.2679372E+04  0.7818609E-02  0.8341729E-01
       -2   -1    0    0    0  501  0.00000000000E+00  0.00000000000E+00  0.88943720788E+03  0.88943720788E+03  0.25500000920E-02 0.  1.
        2   -1    0    0  501    0  0.00000000000E+00  0.00000000000E+00 -0.20178583062E+04  0.20178583062E+04  0.25500000920E-02 0. -1.
    10030    2    1    2    0    0  0.00000000000E+00  0.00000000000E+00 -0.11284210983E+04  0.29072955141E+04  0.26793717605E+04 0.  0.
        5    1    3    3  502    0 -0.15045114426E+03  0.13114948458E+04 -0.81183844755E+03  0.15497606371E+04  0.46999998093E+01 0. -1.
       -5    1    3    3    0  502  0.15045114426E+03 -0.13114948458E+04 -0.31658265075E+03  0.13575348770E+04  0.46999998093E+01 0.  1.
</event>
<event>
 5   0  0.1474012E-05  0.2791269E+04  0.7818609E-02  0.8305984E-01
       -1   -1    0    0    0  501  0.00000000000E+00  0.00000000000E+00  0.18260889441E+04  0.18260889441E+04  0.50400001928E-02 0.  1.
        1   -1    0    0  501    0  0.00000000000E+00  0.00000000000E+00 -0.10666487818E+04  0.10666487818E+04  0.50400001928E-02 0. -1.
    10030    2    1    2    0    0  0.00000000000E+00  0.00000000000E+00  0.75944016235E+03  0.28927377259E+04  0.27912689212E+04 0.  0.
        2    1    3    3  502    0  0.63517567758E+01  0.89287010521E+03 -0.73190387274E+03  0.11545304884E+04  0.25500000920E-02 0. -1.
       -2    1    3    3    0  502 -0.63517567758E+01 -0.89287010521E+03  0.14913440351E+04  0.17382072375E+04  0.25500000920E-02 0.  1.
</event>
<event>
 5   0  0.1495517E-05  0.2639667E+04  0.7818609E-02  0.8354851E-01
        1   -1    0    0  501    0  0.00000000000E+00  0.00000000000E+00  0.15824783140E+04  0.15824783140E+04  0.50400001928E-02 0.  1.
       -1   -1    0    0    0  501  0.00000000000E+00  0.00000000000E+00 -0.11007802609E+04  0.11007802609E+04  0.50400001928E-02 0. -1.
    10030    2    1    2    0    0  0.00000000000E+00  0.00000000000E+00  0.48169805310E+03  0.26832585750E+04  0.26396673211E+04 0.  0.
        5    1    3    3  502    0 -0.29943784734E+03  0.97736211614E+03  0.10895249686E+04  0.14939834262E+04  0.46999998093E+01 0.  1.
       -5    1    3    3    0  502  0.29943784734E+03 -0.97736211614E+03 -0.60782691547E+03  0.11892751488E+04  0.46999998093E+01 0. -1.
</event>
<event>
 5   0  0.3676724E-05  0.2647591E+04  0.7818609E-02  0.8352213E-01
       -2   -1    0    0    0  501  0.00000000000E+00  0.00000000000E+00  0.81175589136E+03  0.81175589137E+03  0.25500000920E-02 0. -1.
        2   -1    0    0  501    0  0.00000000000E+00  0.00000000000E+00 -0.21588192758E+04  0.21588192758E+04  0.25500000920E-02 0.  1.
    10030    2    1    2    0    0  0.00000000000E+00  0.00000000000E+00 -0.13470633844E+04  0.29705751671E+04  0.26475908033E+04 0.  0.
        4    1    3    3  502    0 -0.10469021871E+04 -0.80972955730E+03 -0.70459500750E+03  0.14993738303E+04  0.12699999809E+01 0. -1.
       -4    1    3    3    0  502  0.10469021871E+04  0.80972955730E+03 -0.64246837689E+03  0.14712013369E+04  0.12699999809E+01 0.  1.
</event>
<event>
 5   0  0.1449521E-05  0.2689902E+04  0.7818609E-02  0.8338289E-01
       -1   -1    0    0    0  501  0.00000000000E+00  0.00000000000E+00  0.14982702699E+04  0.14982702699E+04  0.50400001928E-02 0.  1.
        1   -1    0    0  501    0  0.00000000000E+00  0.00000000000E+00 -0.12073209366E+04  0.12073209366E+04  0.50400001928E-02 0. -1.
    10030    2    1    2    0    0  0.00000000000E+00  0.00000000000E+00  0.29094933335E+03  0.27055912065E+04  0.26899019056E+04 0.  0.
        3    1    3    3  502    0 -0.81769298762E+03  0.49002882126E+03 -0.80881778234E+03  0.12501745010E+04  0.10100000352E+00 0. -1.
       -3    1    3    3    0  502  0.81769298762E+03 -0.49002882126E+03  0.10997671157E+04  0.14554167055E+04  0.10100000352E+00 0.  1.
</event>
<event>
 5   0  0.3676724E-05  0.2696084E+04  0.7818609E-02  0.8336277E-01
       -2   -1    0    0    0  501  0.00000000000E+00  0.00000000000E+00  0.15096452139E+04  0.15096452139E+04  0.25500000920E-02 0.  1.
        2   -1    0    0  501    0  0.00000000000E+00  0.00000000000E+00 -0.12037375914E+04  0.12037375914E+04  0.25500000920E-02 0. -1.
    10030    2    1    2    0    0  0.00000000000E+00  0.00000000000E+00  0.30590762250E+03  0.27133828053E+04  0.26960835994E+04 0.  0.
        4    1    3    3  502    0  0.50012083877E+03 -0.93556686788E+03  0.99004115335E+03  0.14510648903E+04  0.12699999809E+01 0.  1.
       -4    1    3    3    0  502 -0.50012083877E+03  0.93556686788E+03 -0.68413353085E+03  0.12623179150E+04  0.12699999809E+01 0. -1.
</event>
<event>
 5   0  0.1449521E-05  0.2672072E+04  0.7818609E-02  0.8344124E-01
        1   -1    0    0  501    0  0.00000000000E+00  0.00000000000E+00  0.11349119700E+04  0.11349119700E+04  0.50400001928E-02 0. -1.
       -1   -1    0    0    0  501  0.00000000000E+00  0.00000000000E+00 -0.15728019126E+04  0.15728019126E+04  0.50400001928E-02 0.  1.
    10030    2    1    2    0    0  0.00000000000E+00  0.00000000000E+00 -0.43788994261E+03  0.27077138826E+04  0.26720716435E+04 0.  0.
        3    1    3    3  502    0 -0.10916089865E+03 -0.13314816415E+04 -0.20350216138E+03  0.13513595389E+04  0.10100000352E+00 0.  1.
       -3    1    3    3    0  502  0.10916089865E+03  0.13314816415E+04 -0.23438778124E+03  0.13563543437E+04  0.10100000352E+00 0. -1.
</event>
<event>
 5   0  0.1484379E-05  0.2776692E+04  0.7818609E-02  0.8310541E-01
        1   -1    0    0  501    0  0.00000000000E+00  0.00000000000E+00  0.14140880969E+04  0.14140880969E+04  0.50400001928E-02 0.  1.
       -1   -1    0    0    0  501  0.00000000000E+00  0.00000000000E+00 -0.13630723505E+04  0.13630723505E+04  0.50400001928E-02 0. -1.
    10030    2    1    2    0    0  0.00000000000E+00  0.00000000000E+00  0.51015746411E+02  0.27771604474E+04  0.27766918346E+04 0.  0.
        1    1    3    3  502    0 -0.11723442209E+04 -0.74351082196E+03  0.80386330570E+01  0.13882593181E+04  0.50400001928E-02 0.  1.
       -1    1    3    3    0  502  0.11723442209E+04  0.74351082196E+03  0.42977113354E+02  0.13889011293E+04  0.50400001928E-02 0. -1.
</event>
<event>
 5   0  0.3676724E-05  0.2476587E+04  0.7818609E-02  0.8411374E-01
        2   -1    0    0  501    0  0.00000000000E+00  0.00000000000E+00  0.15764231704E+04  0.15764231704E+04  0.25500000920E-02 0. -1.
       -2   -1    0    0    0  501  0.00000000000E+00  0.00000000000E+00 -0.97269011691E+03  0.97269011691E+03  0.25500000920E-02 0.  1.
    10030    2    1    2    0    0  0.00000000000E+00  0.00000000000E+00  0.60373305350E+03  0.25491132873E+04  0.24765873600E+04 0.  0.
        4    1    3    3  502    0  0.49499963981E+03 -0.46868559572E+03 -0.76217623208E+03  0.10225483131E+04  0.12699999809E+01 0.  1.
       -4    1    3    3    0  502 -0.49499963981E+03  0.46868559572E+03  0.13659092856E+04  0.15265649742E+04  0.12699999809E+01 0. -1.
</event>
<event>
 5   0  0.3652331E-05  0.2259646E+04  0.7818609E-02  0.8494004E-01
        2   -1    0    0  501    0  0.00000000000E+00  0.00000000000E+00  0.15742284124E+04  0.15742284124E+04  0.25500000920E-02 0. -1.
       -2   -1    0    0    0  501  0.00000000000E+00  0.00000000000E+00 -0.81087315599E+03  0.81087315599E+03  0.25500000920E-02 0.  1.
    10030    2    1    2    0    0  0.00000000000E+00  0.00000000000E+00  0.76335525643E+03  0.23851015684E+04  0.22596456014E+04 0.  0.
        1    1    3    3  502    0 -0.33754897174E+03  0.12777977052E+03  0.15117413218E+04  0.15542293274E+04  0.50400001928E-02 0. -1.
       -1    1    3    3    0  502  0.33754897174E+03 -0.12777977052E+03 -0.74838606535E+03  0.83087224103E+03  0.50400001928E-02 0.  1.
</event>
<event>
 5   0  0.3514294E-05  0.2286218E+04  0.7818609E-02  0.8483375E-01
        2   -1    0    0  501    0  0.00000000000E+00  0.00000000000E+00  0.13990759176E+04  0.13990759176E+04  0.25500000920E-02 0. -1.
       -2   -1    0    0    0  501  0.00000000000E+00  0.00000000000E+00 -0.93397194414E+03  0.93397194415E+03  0.25500000920E-02 0.  1.
    10030    2    1    2    0    0  0.00000000000E+00  0.00000000000E+00  0.46510397350E+03  0.23330478618E+04  0.22862175354E+04 0.  0.
        2    1    3    3  502    0  0.48518034112E+03 -0.65264268366E+02 -0.82158267549E+03  0.95637726908E+03  0.25500000920E-02 0.  1.
       -2    1    3    3    0  502 -0.48518034112E+03  0.65264268366E+02  0.12866866490E+04  0.13766705927E+04  0.25500000920E-02 0. -1.
</event>
<event>
 5   0  0.3676724E-05  0.1351910E+04  0.7818609E-02  0.8989384E-01
        2   -1    0    0  501    0  0.00000000000E+00  0.00000000000E+00  0.67790913319E+03  0.67790913320E+03  0.25500000920E-02 0.  1.
       -2   -1    0    0    0  501  0.00000000000E+00  0.00000000000E+00 -0.67400637610E+03  0.67400637611E+03  0.25500000920E-02 0. -1.
    10030    2    1    2    0    0  0.00000000000E+00  0.00000000000E+00  0.39027570877E+01  0.13519155093E+04  0.13519098760E+04 0.  0.
        4    1    3    3  502    0  0.58856481952E+03 -0.29496444438E+03 -0.15134927680E+03  0.67551520095E+03  0.12699999809E+01 0.  1.
       -4    1    3    3    0  502 -0.58856481952E+03  0.29496444438E+03  0.15525203388E+03  0.67640030836E+03  0.12699999809E+01 0. -1.
</event>
<event>
 5   0  0.1484379E-05  0.2496919E+04  0.7818609E-02  0.8404084E-01
       -1   -1    0    0    0  501  0.00000000000E+00  0.00000000000E+00  0.90340542042E+03  0.90340542043E+03  0.50400001928E-02 0.  1.
        1   -1    0    0  501    0  0.00000000000E+00  0.00000000000E+00 -0.17253058593E+04  0.17253058593E+04  0.50400001928E-02 0. -1.
    10030    2    1    2    0    0  0.00000000000E+00  0.00000000000E+00 -0.82190043891E+03  0.26287112798E+04  0.24969186332E+04 0.  0.
        1    1    3    3  502    0  0.17792942909E+03 -0.53515094743E+03  0.76166440220E+03  0.94772257537E+03  0.50400001928E-02 0.  1.
       -1    1    3    3    0  502 -0.17792942909E+03  0.53515094743E+03 -0.15835648411E+04  0.16809887044E+04  0.50400001928E-02 0. -1.
</event>
<event>
 5   0  0.1449521E-05  0.2764600E+04  0.7818609E-02  0.8314344E-01
       -1   -1    0    0    0  501  0.00000000000E+00  0.00000000000E+00  0.87320513696E+03  0.87320513697E+03  0.50400001928E-02 0.  1.
        1   -1    0    0  501    0  0.00000000000E+00  0.00000000000E+00 -0.21882072518E+04  0.21882072518E+04  0.50400001928E-02 0. -1.
    10030    2    1    2    0    0  0.00000000000E+00  0.00000000000E+00 -0.13150021149E+04  0.30614123888E+04  0.27646003784E+04 0.  0.
        3    1    3    3  502    0 -0.61713739551E+03 -0.41887435237E+02  0.71139710607E+03  0.94270831910E+03  0.10100000352E+00 0.  1.
       -3    1    3    3    0  502  0.61713739551E+03  0.41887435237E+02 -0.20263992209E+04  0.21187040697E+04  0.10100000352E+00 0. -1.
</event>
<event>
 5   0  0.3514294E-05  0.2697120E+04  0.7818609E-02  0.8335940E-01
        2   -1    0    0  501    0  0.00000000000E+00  0.00000000000E+00  0.10484519986E+04  0.10484519986E+04  0.25500000920E-02 0.  1.
       -2   -1    0    0    0  501  0.00000000000E+00  0.00000000000E+00 -0.17345706679E+04  0.17345706679E+04  0.25500000920E-02 0. -1.
    10030    2    1    2    0    0  0.00000000000E+00  0.00000000000E+00 -0.68611866936E+03  0.27830226665E+04  0.26971200073E+04 0.  0.
        2    1    3    3  502    0 -0.12514265080E+04  0.41513815189E+03 -0.63528621030E+03  0.14635561346E+04  0.25500000920E-02 0. -1.
       -2    1    3    3    0  502  0.12514265080E+04 -0.41513815189E+03 -0.50832459060E+02  0.13194665320E+04  0.25500000920E-02 0.  1.
</event>
<event>
 5   0  0.1474012E-05  0.2425470E+04  0.7818609E-02  0.8430029E-01
        1   -1    0    0  501    0  0.00000000000E+00  0.00000000000E+00  0.25734970102E+04  0.25734970102E+04  0.50400001928E-02 0.  1.
       -1   -1    0    0    0  501  0.00000000000E+00  0.00000000000E+00 -0.57148940105E+03  0.57148940107E+03  0.50400001928E-02 0. -1.
    10030    2    1    2    0    0  0.00000000000E+00  0.00000000000E+00  0.20020076092E+04  0.31449864113E+04  0.24254700699E+04 0.  0.
        2    1    3    3  502    0  0.31286654364E+02  0.11474008859E+04  0.49345404922E+03  0.12494016754E+04  0.25500000920E-02 0. -1.
       -2    1    3    3    0  502 -0.31286654364E+02 -0.11474008859E+04  0.15085535600E+04  0.18955847359E+04  0.25500000920E-02 0.  1.
</event>
<event>
 5   0  0.1438701E-05  0.2021454E+04  0.7818609E-02  0.8596655E-01
       -1   -1    0    0    0  501  0.00000000000E+00  0.00000000000E+00  0.49746623184E+03  0.49746623186E+03  0.50400001928E-02 0. -1.
        1   -1    0    0  501    0  0.00000000000E+00  0.00000000000E+00 -0.20535451628E+04  0.20535451628E+04  0.50400001928E-02 0.  1.
    10030    2    1    2    0    0  0.00000000000E+00  0.00000000000E+00 -0.15560789310E+04  0.25510113947E+04  0.20214543023E+04 0.  0.
        4    1    3    3  502    0  0.11880576340E+03 -0.70757398630E+03 -0.16764262367E+04  0.18235082384E+04  0.12699999809E+01 0.  1.
       -4    1    3    3    0  502 -0.11880576340E+03  0.70757398630E+03  0.12034730573E+03  0.72750315628E+03  0.12699999809E+01 0. -1.
</event>
<event>
 5   0  0.1438701E-05  0.2541174E+04  0.7818609E-02  0.8388462E-01
       -1   -1    0    0    0  501  0.00000000000E+00  0.00000000000E+00  0.84935999635E+03  0.84935999636E+03  0.50400001928E-02 0. -1.
        1   -1    0    0  501    0  0.00000000000E+00  0.00000000000E+00 -0.19007152050E+04  0.19007152050E+04  0.50400001928E-02 0.  1.
    10030    2    1    2    0    0  0.00000000000E+00  0.00000000000E+00 -0.10513552086E+04  0.27500752014E+04  0.25411741063E+04 0.  0.
        4    1    3    3  502    0  0.25476747054E+03 -0.11327965029E+04  0.32740402688E+02  0.11615541003E+04  0.12699999809E+01 0. -1.
       -4    1    3    3    0  502 -0.25476747054E+03  0.11327965029E+04 -0.10840956113E+04  0.15885211010E+04  0.12699999809E+01 0.  1.
</event>
<event>
 5   0  0.3514294E-05  0.2651784E+04  0.7818609E-02  0.8350821E-01
       -2   -1    0    0    0  501  0.00000000000E+00  0.00000000000E+00  0.10514641269E+04  0.10514641269E+04  0.25500000920E-02 0.  1.
        2   -1    0    0  501    0  0.00000000000E+00  0.00000000000E+00 -0.16719441517E+04  0.16719441517E+04  0.25500000920E-02 0. -1.
    10030    2    1    2    0    0  0.00000000000E+00  0.00000000000E+00 -0.62048002478E+03  0.27234082786E+04  0.26517837752E+04 0.  0.
        2    1    3    3  502    0 -0.99098716355E+03 -0.31880817089E+03 -0.11535740763E+04  0.15538427712E+04  0.25500000920E-02 0. -1.
       -2    1    3    3    0  502  0.99098716355E+03  0.31880817089E+03  0.53309405155E+03  0.11695655073E+04  0.25500000920E-02 0.  1.
</event>
<event>
 5   0  0.1484379E-05  0.2756771E+04  0.7818609E-02  0.8316816E-01
        1   -1    0    0  501    0  0.00000000000E+00  0.00000000000E+00  0.15711037955E+04  0.15711037955E+04  0.50400001928E-02 0. -1.
       -1   -1    0    0    0  501  0.00000000000E+00  0.00000000000E+00 -0.12093069995E+04  0.12093069996E+04  0.50400001928E-02 0.  1.
    10030    2    1    2    0    0  0.00000000000E+00  0.00000000000E+00  0.36179679598E+03  0.27804107951E+04  0.27567711671E+04 0.  0.
        1    1    3    3  502    0  0.23459987501E+03 -0.13496083189E+04  0.26395022612E+02  0.13701008769E+04  0.50400001928E-02 0.  1.
       -1    1    3    3    0  502 -0.23459987501E+03  0.13496083189E+04  0.33540177337E+03  0.14103099182E+04  0.50400001928E-02 0. -1.
</event>
<event>
 5   0  0.3514294E-05  0.2015715E+04  0.7818609E-02  0.8599309E-01
        2   -1    0    0  501    0  0.00000000000E+00  0.00000000000E+00  0.26625046930E+04  0.26625046930E+04  0.25500000920E-02 0. -1.
       -2   -1    0    0    0  501  0.00000000000E+00  0.00000000000E+00 -0.38151153551E+03  0.38151153552E+03  0.25500000920E-02 0.  1.
    10030    2    1    2    0    0  0.00000000000E+00  0.00000000000E+00  0.22809931575E+04  0.30440162286E+04  0.20157145172E+04 0.  0.
        2    1    3    3  502    0 -0.20155092505E+03  0.12540410257E+03  0.26196866171E+04  0.26304195362E+04  0.25500000920E-02 0. -1.
       -2    1    3    3    0  502  0.20155092505E+03 -0.12540410257E+03 -0.33869345962E+03  0.41359669235E+03  0.25500000920E-02 0.  1.
</event>
<event>
 5   0  0.3514294E-05  0.2716445E+04  0.7818609E-02  0.8329689E-01
       -2   -1    0    0    0  501  0.00000000000E+00  0.00000000000E+00  0.90533097609E+03  0.90533097609E+03  0.25500000920E-02 0. -1.
        2   -1    0    0  501    0  0.00000000000E+00  0.00000000000E+00 -0.20376734183E+04  0.20376734183E+04  0.25500000920E-02 0.  1.
    10030    2    1    2    0    0  0.00000000000E+00  0.00000000000E+00 -0.11323424422E+04  0.29430043944E+04  0.27164453720E+04 0.  0.
        2    1    3    3  502    0  0.76408993103E+03  0.10521012307E+04 -0.99135461915E+03  0.16350946160E+04  0.25500000920E-02 0.  1.
       -2    1    3    3    0  502 -0.76408993103E+03 -0.10521012307E+04 -0.14098782306E+03  0.13079097784E+04  0.25500000920E-02 0. -1.
</event>
<event>
 5   0  0.3514294E-05  0.2698193E+04  0.7818609E-02  0.8335591E-01
        2   -1    0    0  501    0  0.00000000000E+00  0.00000000000E+00  0.21451682375E+04  0.21451682375E+04  0.25500000920E-02 0. -1.
       -2   -1    0    0    0  501  0.00000000000E+00  0.00000000000E+00 -0.84844699233E+03  0.84844699234E+03  0.25500000920E-02 0.  1.
    10030    2    1    2    0    0  0.00000000000E+00  0.00000000000E+00  0.12967212451E+04  0.29936152298E+04  0.26981931281E+04 0.  0.
        2    1    3    3  502    0  0.42184883795E+03 -0.10447470181E+04  0.14716348273E+04  0.18534189593E+04  0.25500000920E-02 0. -1.
       -2    1    3    3    0  502 -0.42184883795E+03  0.10447470181E+04 -0.17491358214E+03  0.11401962705E+04  0.25500000920E-02 0.  1.
</event>
<event>
 5   0  0.3652331E-05  0.2639257E+04  0.7818609E-02  0.8354987E-01
       -2   -1    0    0    0  501  0.00000000000E+00  0.00000000000E+00  0.90339966941E+03  0.90339966942E+03  0.25500000920E-02 0.  1.
        2   -1    0    0  501    0  0.00000000000E+00  0.00000000000E+00 -0.19276293980E+04  0.19276293980E+04  0.25500000920E-02 0. -1.
    10030    2    1    2    0    0  0.00000000000E+00  0.00000000000E+00 -0.10242297286E+04  0.28310290674E+04  0.26392572902E+04 0.  0.
        1    1    3    3  502    0  0.12914269368E+04  0.18203579628E+03 -0.72798163886E+03  0.14936123429E+04  0.50400001928E-02 0. -1.
       -1    1    3    3    0  502 -0.12914269368E+04 -0.18203579628E+03 -0.29624808971E+03  0.13374167245E+04  0.50400001928E-02 0.  1.
</event>
<event>
 5   0  0.1474012E-05  0.2705654E+04  0.7818609E-02  0.8333173E-01
       -1   -1    0    0    0  501  0.00000000000E+00  0.00000000000E+00  0.10723498871E+04  0.10723498871E+04  0.50400001928E-02 0. -1.
        1   -1    0    0  501    0  0.00000000000E+00  0.00000000000E+00 -0.17066634751E+04  0.17066634751E+04  0.50400001928E-02 0.  1.
    10030    2    1    2    0    0  0.00000000000E+00  0.00000000000E+00 -0.63431358802E+03  0.27790133622E+04  0.27056536251E+04 0.  0.
        2    1    3    3  502    0  0.40100631221E+03  0.11697795622E+04  0.24630656734E+03  0.12608954008E+04  0.25500000920E-02 0.  1.
       -2    1    3    3    0  502 -0.40100631221E+03 -0.11697795622E+04 -0.88062015536E+03  0.15181179614E+04  0.25500000920E-02 0. -1.
</event>
<event>
 5   0  0.3676724E-05  0.2722309E+04  0.7818609E-02  0.8327803E-01
       -2   -1    0    0    0  501  0.00000000000E+00  0.00000000000E+00  0.91338513064E+03  0.91338513065E+03  0.25500000920E-02 0. -1.
        2   -1    0    0  501    0  0.00000000000E+00  0.00000000000E+00 -0.20284342589E+04  0.20284342589E+04  0.25500000920E-02 0.  1.
    10030    2    1    2    0    0  0.00000000000E+00  0.00000000000E+00 -0.11150491282E+04  0.29418193895E+04  0.27223090865E+04 0.  0.
        4    1    3    3  502    0 -0.12279851391E+03 -0.11510895727E+04  0.21620731970E+03  0.11776391202E+04  0.12699999809E+01 0. -1.
       -4    1    3    3    0  502  0.12279851391E+03  0.11510895727E+04 -0.13312564480E+04  0.17641802693E+04  0.12699999809E+01 0.  1.
</event>
<event>
 5   0  0.3497949E-05  0.2836241E+04  0.7818609E-02  0.8292105E-01
       -2   -1    0    0    0  501  0.00000000000E+00  0.00000000000E+00  0.14523733589E+04  0.14523733589E+04  0.25500000920E-02 0. -1.
        2   -1    0    0  501    0  0.00000000000E+00  0.00000000000E+00 -0.13846751692E+04  0.13846751692E+04  0.25500000920E-02 0.  1.
    10030    2    1    2    0    0  0.00000000000E+00  0.00000000000E+00  0.67698189731E+02  0.28370485282E+04  0.28362406996E+04 0.  0.
        5    1    3    3  502    0  0.74685615524E+03 -0.11065571619E+04  0.51229523613E+03  0.14299410366E+04  0.46999998093E+01 0. -1.
       -5    1    3    3    0  502 -0.74685615524E+03  0.11065571619E+04 -0.44459704640E+03  0.14071074916E+04  0.46999998093E+01 0.  1.
</event>
<event>
 5   0  0.1449521E-05  0.2657438E+04  0.7818609E-02  0.8348949E-01
       -1   -1    0    0    0  501  0.00000000000E+00  0.00000000000E+00  0.11163424047E+04  0.11163424047E+04  0.50400001928E-02 0.  1.
        1   -1    0    0  501    0  0.00000000000E+00  0.00000000000E+00 -0.15814983217E+04  0.15814983217E+04  0.50400001928E-02 0. -1.
    10030    2    1    2    0    0  0.00000000000E+00  0.00000000000E+00 -0.46515591701E+03  0.26978407264E+04  0.26574375924E+04 0.  0.
        3    1    3    3  502    0  0.44942982883E+03 -0.49712706481E+03 -0.13973539444E+04  0.15497485428E+04  0.10100000352E+00 0. -1.
       -3    1    3    3    0  502 -0.44942982883E+03  0.49712706481E+03  0.93219802739E+03  0.11480921836E+04  0.10100000352E+00 0.  1.
</event>
<event>
 5   0  0.3497949E-05  0.1328202E+04  0.7818609E-02  0.9007495E-01
        2   -1    0    0  501    0  0.00000000000E+00  0.00000000000E+00  0.26296303643E+04  0.26296303643E+04  0.25500000920E-02 0.  1.
       -2   -1    0    0    0  501  0.00000000000E+00  0.00000000000E+00 -0.16771571479E+03  0.16771571481E+03  0.25500000920E-02 0. -1.
    10030    2    1    2    0    0  0.00000000000E+00  0.00000000000E+00  0.24619146496E+04  0.27973460792E+04  0.13282022982E+04 0.  0.
        5    1    3    3  502    0  0.10968187365E+03 -0.59165533280E+03  0.63928495584E+03  0.87794845577E+03  0.46999998093E+01 0. -1.
       -5    1    3    3    0  502 -0.10968187365E+03  0.59165533280E+03  0.18226296937E+04  0.19193976234E+04  0.46999998093E+01 0.  1.
</event>
<event>
 5   0  0.1495517E-05  0.2739087E+04  0.7818609E-02  0.8322433E-01
       -1   -1    0    0    0  501  0.00000000000E+00  0.00000000000E+00  0.18903188286E+04  0.18903188286E+04  0.50400001928E-02 0. -1.
        1   -1    0    0  501    0  0.00000000000E+00  0.00000000000E+00 -0.99223952867E+03  0.99223952869E+03  0.50400001928E-02 0.  1.
    10030    2    1    2    0    0  0.00000000000E+00  0.00000000000E+00  0.89807929990E+03  0.28825583573E+04  0.27390867555E+04 0.  0.
        5    1    3    3  502    0  0.13366481005E+04 -0.21237274569E+03  0.66952918854E+03  0.15099740899E+04  0.46999998093E+01 0.  1.
       -5    1    3    3    0  502 -0.13366481005E+04  0.21237274569E+03  0.22855011136E+03  0.13725842674E+04  0.46999998093E+01 0. -1.
</event>
<event>
 5   0  0.3497949E-05  0.2777155E+04  0.7818609E-02  0.8310396E-01
        2   -1    0    0  501    0  0.00000000000E+00  0.00000000000E+00  0.17478111028E+04  0.17478111028E+04  0.25500000920E-02 0. -1.
       -2   -1    0    0    0  501  0.00000000000E+00  0.00000000000E+00 -0.11031787496E+04  0.11031787496E+04  0.25500000920E-02 0.  1.
    10030    2    1    2    0    0  0.00000000000E+00  0.00000000000E+00  0.64463235324E+03  0.28509898524E+04  0.27771554273E+04 0.  0.
        5    1    3    3  502    0  0.24516580820E+03 -0.46758146437E+02 -0.10799546997E+04  0.11084298991E+04  0.46999998093E+01 0.  1.
       -5    1    3    3    0  502 -0.24516580820E+03  0.46758146437E+02  0.17245870529E+04  0.17425599533E+04  0.46999998093E+01 0. -1.
</event>
<event>
 5   0  0.3514294E-05  0.2671615E+04  0.7818609E-02  0.8344274E-01
        2   -1    0    0  501    0  0.00000000000E+00  0.00000000000E+00  0.16418990096E+04  0.16418990096E+04  0.25500000920E-02 0.  1.
       -2   -1    0    0    0  501  0.00000000000E+00  0.00000000000E+00 -0.10867791610E+04  0.10867791610E+04  0.25500000920E-02 0. -1.
    10030    2    1    2    0    0  0.00000000000E+00  0.00000000000E+00  0.55511984864E+03  0.27286781707E+04  0.26716149634E+04 0.  0.
        2    1    3    3  502    0  0.98449050369E+03  0.52183022074E+03  0.10300827702E+04  0.15174316606E+04  0.25500000920E-02 0. -1.
       -2    1    3    3    0  502 -0.98449050369E+03 -0.52183022074E+03 -0.47496292159E+03  0.12112465100E+04  0.25500000920E-02 0.  1.
</event>
<event>
 5   0  0.1484379E-05  0.2665471E+04  0.7818609E-02  0.8346296E-01
       -1   -1    0    0    0  501  0.00000000000E+00  0.00000000000E+00  0.12188789137E+04  0.12188789138E+04  0.50400001928E-02 0.  1.
        1   -1    0    0  501    0  0.00000000000E+00  0.00000000000E+00 -0.14572278095E+04  0.14572278096E+04  0.50400001928E-02 0. -1.
    10030    2    1    2    0    0  0.00000000000E+00  0.00000000000E+00 -0.23834889580E+03  0.26761067233E+04  0.26654712526E+04 0.  0.
        1    1    3    3  502    0  0.33494560802E+03  0.53938069625E+03  0.10572792544E+04  0.12332718750E+04  0.50400001928E-02 0.  1.
       -1    1    3    3    0  502 -0.33494560802E+03 -0.53938069625E+03 -0.12956281502E+04  0.14428348483E+04  0.50400001928E-02 0. -1.
</event>
<event>
 5   0  0.1449521E-05  0.2695320E+04  0.7818609E-02  0.8336525E-01
        1   -1    0    0  501    0  0.00000000000E+00  0.00000000000E+00  0.18833812924E+04  0.18833812924E+04  0.50400001928E-02 0. -1.
       -1   -1    0    0    0  501  0.00000000000E+00  0.00000000000E+00 -0.96432268159E+03  0.96432268161E+03  0.50400001928E-02 0.  1.
    10030    2    1    2    0    0  0.00000000000E+00  0.00000000000E+00  0.91905861077E+03  0.28477039740E+04  0.26953198685E+04 0.  0.
        3    1    3    3  502    0  0.12207380398E+04 -0.26693795014E+03 -0.73713033989E+02  0.12517551089E+04  0.10100000352E+00 0. -1.
       -3    1    3    3    0  502 -0.12207380398E+04  0.26693795014E+03  0.99277164476E+03  0.15959488651E+04  0.10100000352E+00 0.  1.
</event>
<event>
 5   0  0.3676724E-05  0.2863331E+04  0.7818609E-02  0.8283872E-01
       -2   -1    0    0    0  501  0.00000000000E+00  0.00000000000E+00  0.11270849132E+04  0.11270849132E+04  0.25500000920E-02 0.  1.
        2   -1    0    0  501    0  0.00000000000E+00  0.00000000000E+00 -0.18185548934E+04  0.18185548934E+04  0.25500000920E-02 0. -1.
    10030    2    1    2    0    0  0.00000000000E+00  0.00000000000E+00 -0.69146998019E+03  0.29456398066E+04  0.28633307767E+04 0.  0.
        4    1    3    3  502    0 -0.54214797223E+03 -0.47870872044E+03 -0.16167994540E+04  0.17711941029E+04  0.12699999809E+01 0. -1.
       -4    1    3    3    0  502  0.54214797223E+03  0.47870872044E+03  0.92532947386E+03  0.11744457037E+04  0.12699999809E+01 0.  1.
</event>
<event>
 5   0  0.3676724E-05  0.2306316E+04  0.7818609E-02  0.8475435E-01
       -2   -1    0    0    0  501  0.00000000000E+00  0.00000000000E+00  0.16755010408E+04  0.16755010408E+04  0.25500000920E-02 0.  1.
        2   -1    0    0  501    0  0.00000000000E+00  0.00000000000E+00 -0.79365742201E+03  0.79365742201E+03  0.25500000920E-02 0. -1.
    10030    2    1    2    0    0  0.00000000000E+00  0.00000000000E+00  0.88184361883E+03  0.24691584629E+04  0.23063164021E+04 0.  0.
        4    1    3    3  502    0  0.10851462779E+04  0.76915776374E+02  0.85043946904E+03  0.13808357558E+04  0.12699999809E+01 0.  1.
       -4    1    3    3    0  502 -0.10851462779E+04 -0.76915776374E+02  0.31404149787E+02  0.10883227070E+04  0.12699999809E+01 0. -1.
</event>
<event>
 5   0  0.3652331E-05  0.1539922E+04  0.7818609E-02  0.8858331E-01
       -2   -1    0    0    0  501  0.00000000000E+00  0.00000000000E+00  0.34185618061E+03  0.34185618062E+03  0.25500000920E-02 0.  1.
        2   -1    0    0  501    0  0.00000000000E+00  0.00000000000E+00 -0.17341803634E+04  0.17341803634E+04  0.25500000920E-02 0. -1.
    10030    2    1    2    0    0  0.00000000000E+00  0.00000000000E+00 -0.13923241827E+04  0.20760365440E+04  0.15399224338E+04 0.  0.
        1    1    3    3  502    0 -0.69014423159E+03  0.17881987081E+02 -0.11557613212E+04  0.13462551977E+04  0.50400001928E-02 0. -1.
       -1    1    3    3    0  502  0.69014423159E+03 -0.17881987081E+02 -0.23656286158E+03  0.72978134627E+03  0.50400001928E-02 0.  1.
</event>
<event>
 5   0  0.3497949E-05  0.2712405E+04  0.7818609E-02  0.8330991E-01
        2   -1    0    0  501    0  0.00000000000E+00  0.00000000000E+00  0.23744927478E+04  0.23744927478E+04  0.25500000920E-02 0. -1.
       -2   -1    0    0    0  501  0.00000000000E+00  0.00000000000E+00 -0.77460147459E+03  0.77460147460E+03  0.25500000920E-02 0.  1.
    10030    2    1    2    0    0  0.00000000000E+00  0.00000000000E+00  0.15998912732E+04  0.31490942224E+04  0.27124052676E+04 0.  0.
        5    1    3    3  502    0 -0.90240850601E+03  0.96285470508E+03  0.43680554115E+03  0.13900544830E+04  0.46999998093E+01 0.  1.
       -5    1    3    3    0  502  0.90240850601E+03 -0.96285470508E+03  0.11630857321E+04  0.17590397394E+04  0.46999998093E+01 0. -1.
</event>
<event>
 5   0  0.1449521E-05  0.2697965E+04  0.7818609E-02  0.8335665E-01
        1   -1    0    0  501    0  0.00000000000E+00  0.00000000000E+00  0.21198911113E+04  0.21198911113E+04  0.50400001928E-02 0.  1.
       -1   -1    0    0    0  501  0.00000000000E+00  0.00000000000E+00 -0.85841866908E+03  0.85841866909E+03  0.50400001928E-02 0. -1.
    10030    2    1    2    0    0  0.00000000000E+00  0.00000000000E+00  0.12614724422E+04  0.29783097804E+04  0.26979652380E+04 0.  0.
        3    1    3    3  502    0 -0.12878315179E+04 -0.30186318175E+03  0.92305911132E+03  0.16129691666E+04  0.10100000352E+00 0. -1.
       -3    1    3    3    0  502  0.12878315179E+04  0.30186318175E+03  0.33841333091E+03  0.13653406138E+04  0.10100000352E+00 0.  1.
</event>
<event>
 5   0  0.1484379E-05  0.2564790E+04  0.7818609E-02  0.8380261E-01
       -1   -1    0    0    0  501  0.00000000000E+00  0.00000000000E+00  0.79427912240E+03  0.79427912242E+03  0.50400001928E-02 0.  1.
        1   -1    0    0  501    0  0.00000000000E+00  0.00000000000E+00 -0.20704770447E+04  0.20704770448E+04  0.50400001928E-02 0. -1.
    10030    2    1    2    0    0  0.00000000000E+00  0.00000000000E+00 -0.12761979223E+04  0.28647561672E+04  0.25647898082E+04 0.  0.
        1    1    3    3  502    0 -0.73118608418E+03  0.62821704645E+03 -0.15827336483E+04  0.18531960362E+04  0.50400001928E-02 0. -1.
       -1    1    3    3    0  502  0.73118608418E+03 -0.62821704645E+03  0.30653572598E+03  0.10115601309E+04  0.50400001928E-02 0.  1.
</event>
<event>
 5   0  0.3514294E-05  0.2679371E+04  0.7818609E-02  0.8341730E-01
        2   -1    0    0  501    0  0.00000000000E+00  0.00000000000E+00  0.30562561566E+04  0.30562561566E+04  0.25500000920E-02 0. -1.
       -2   -1    0    0    0  501  0.00000000000E+00  0.00000000000E+00 -0.58724029502E+03  0.58724029503E+03  0.25500000920E-02 0.  1.
    10030    2    1    2    0    0  0.00000000000E+00  0.00000000000E+00  0.24690158615E+04  0.36434964516E+04  0.26793706478E+04 0.  0.
        2    1    3    3  502    0 -0.44279804537E+03 -0.66032249540E+03  0.27007716268E+04  0.28153620171E+04  0.25500000920E-02 0. -1.
       -2    1    3    3    0  502  0.44279804537E+03  0.66032249540E+03 -0.23175576527E+03  0.82813443453E+03  0.25500000920E-02 0.  1.
</event>
<event>
 5   0  0.1495517E-05  0.2672541E+04  0.7818609E-02  0.8343970E-01
        1   -1    0    0  501    0  0.00000000000E+00  0.00000000000E+00  0.13221754464E+04  0.13221754464E+04  0.50400001928E-02 0. -1.
       -1   -1    0    0    0  501  0.00000000000E+00  0.00000000000E+00 -0.13505162215E+04  0.13505162215E+04  0.50400001928E-02 0.  1.
    10030    2    1    2    0    0  0.00000000000E+00  0.00000000000E+00 -0.28340775098E+02  0.26726916679E+04  0.26725414033E+04 0.  0.
        5    1    3    3  502    0 -0.66396426243E+03  0.88559573612E+03 -0.76285722152E+03  0.13442847838E+04  0.46999998093E+01 0.  1.
       -5    1    3    3    0  502  0.66396426243E+03 -0.88559573612E+03  0.73451644642E+03  0.13284068841E+04  0.46999998093E+01 0. -1.
</event>
<event>
 5   0  0.1484379E-05  0.2210538E+04  0.7818609E-02  0.8514055E-01
       -1   -1    0    0    0  501  0.00000000000E+00  0.00000000000E+00  0.13820396779E+04  0.13820396779E+04  0.50400001928E-02 0.  1.
        1   -1    0    0  501    0  0.00000000000E+00  0.00000000000E+00 -0.88392514396E+03  0.88392514397E+03  0.50400001928E-02 0. -1.
    10030    2    1    2    0    0  0.00000000000E+00  0.00000000000E+00  0.49811453394E+03  0.22659648219E+04  0.22105380533E+04 0.  0.
        1    1    3    3  502    0  0.70632657394E+03 -0.20977267057E+03 -0.59544300442E+03  0.94734057968E+03  0.50400001928E-02 0. -1.
       -1    1    3    3    0  502 -0.70632657394E+03  0.20977267057E+03  0.10935575384E+04  0.13186242422E+04  0.50400001928E-02 0.  1.
</event>
<event>
 5   0  0.1474012E-05  0.2555383E+04  0.7818609E-02  0.8383517E-01
       -1   -1    0    0    0  501  0.00000000000E+00  0.00000000000E+00  0.12040801913E+04  0.12040801913E+04  0.50400001928E-02 0.  1.
        1   -1    0    0  501    0  0.00000000000E+00  0.00000000000E+00 -0.13558028061E+04  0.13558028061E+04  0.50400001928E-02 0. -1.
    10030    2    1    2    0    0  0.00000000000E+00  0.00000000000E+00 -0.15172261479E+03  0.25598829974E+04  0.25553827910E+04 0.  0.
        2    1    3    3  502    0  0.12432767525E+04 -0.17882080363E+03  0.15860501520E+03  0.12660448309E+04  0.25500000920E-02 0. -1.
       -2    1    3    3    0  502 -0.12432767525E+04  0.17882080363E+03 -0.31032762999E+03  0.12938381665E+04  0.25500000920E-02 0.  1.
</event>
<event>
 5   0  0.3514294E-05  0.2749559E+04  0.7818609E-02  0.8319102E-01
       -2   -1    0    0    0  501  0.00000000000E+00  0.00000000000E+00  0.11378065419E+04  0.11378065419E+04  0.25500000920E-02 0. -1.
        2   -1    0    0  501    0  0.00000000000E+00  0.00000000000E+00 -0.16611070336E+04  0.16611070336E+04  0.25500000920E-02 0.  1.
    10030    2    1    2    0    0  0.00000000000E+00  0.00000000000E+00 -0.52330049167E+03  0.27989135756E+04  0.27495588371E+04 0.  0.
        2    1    3    3  502    0  0.63046241148E+03 -0.12008082698E+04 -0.32679137785E+02  0.13566470724E+04  0.25500000920E-02 0.  1.
       -2    1    3    3    0  502 -0.63046241148E+03  0.12008082698E+04 -0.49062135388E+03  0.14422665031E+04  0.25500000920E-02 0. -1.
</event>
<event>
 5   0  0.3568647E-05  0.2684104E+04  0.7818609E-02  0.8340181E-01
        2   -1    0    0  501    0  0.00000000000E+00  0.00000000000E+00  0.17518093446E+04  0.17518093446E+04  0.25500000920E-02 0. -1.
       -2   -1    0    0    0  501  0.00000000000E+00  0.00000000000E+00 -0.10281393066E+04  0.10281393066E+04  0.25500000920E-02 0.  1.
    10030    2    1    2    0    0  0.00000000000E+00  0.00000000000E+00  0.72367003803E+03  0.27799486512E+04  0.26841043533E+04 0.  0.
        3    1    3    3  502    0  0.65313609026E+02 -0.58857315345E+03 -0.88550322737E+03  0.10652700129E+04  0.10100000352E+00 0.  1.
       -3    1    3    3    0  502 -0.65313609026E+02  0.58857315345E+03  0.16091732654E+04  0.17146786383E+04  0.10100000352E+00 0. -1.
</event>
<event>
 5   0  0.1495517E-05  0.2736506E+04  0.7818609E-02  0.8323256E-01
       -1   -1    0    0    0  501  0.00000000000E+00  0.00000000000E+00  0.11762509992E+04  0.11762509992E+04  0.50400001928E-02 0.  1.
        1   -1    0    0  501    0  0.00000000000E+00  0.00000000000E+00 -0.15915962558E+04  0.15915962558E+04  0.50400001928E-02 0. -1.
    10030    2    1    2    0    0  0.00000000000E+00  0.00000000000E+00 -0.41534525659E+03  0.27678472550E+04  0.27365063027E+04 0.  0.
        5    1    3    3  502    0 -0.36427267455E+03 -0.53144314387E+03 -0.14285462300E+04  0.15671288453E+04  0.46999998093E+01 0. -1.
       -5    1    3    3    0  502  0.36427267455E+03  0.53144314387E+03  0.10132009734E+04  0.12007184096E+04  0.46999998093E+01 0.  1.
</event>
<event>
 5   0  0.1484379E-05  0.2658710E+04  0.7818609E-02  0.8348528E-01
        1   -1    0    0  501    0  0.00000000000E+00  0.00000000000E+00  0.79826590099E+03  0.79826590101E+03  0.50400001928E-02 0. -1.
       -1   -1    0    0    0  501  0.00000000000E+00  0.00000000000E+00 -0.22137791610E+04  0.22137791610E+04  0.50400001928E-02 0.  1.
    10030    2    1    2    0    0  0.00000000000E+00  0.00000000000E+00 -0.14155132600E+04  0.30120450621E+04  0.26587097748E+04 0.  0.
        1    1    3    3  502    0 -0.84679070339E+03  0.21610048013E+03 -0.18425954467E+04  0.20393410438E+04  0.50400001928E-02 0.  1.
       -1    1    3    3    0  502  0.84679070339E+03 -0.21610048013E+03  0.42708218666E+03  0.97270401821E+03  0.50400001928E-02 0. -1.
</event>
<event>
 5   0  0.1449521E-05  0.2456225E+04  0.7818609E-02  0.8418749E-01
        1   -1    0    0  501    0  0.00000000000E+00  0.00000000000E+00  0.21880348919E+04  0.21880348919E+04  0.50400001928E-02 0.  1.
       -1   -1    0    0    0  501  0.00000000000E+00  0.00000000000E+00 -0.68932207240E+03  0.68932207242E+03  0.50400001928E-02 0. -1.
    10030    2    1    2    0    0  0.00000000000E+00  0.00000000000E+00  0.14987128195E+04  0.28773569643E+04  0.24562253530E+04 0.  0.
        3    1    3    3  502    0 -0.22181429444E+03 -0.75648093982E+03  0.18525134313E+04  0.20132737064E+04  0.10100000352E+00 0.  1.
       -3    1    3    3    0  502  0.22181429444E+03  0.75648093982E+03 -0.35380061179E+03  0.86408325793E+03  0.10100000352E+00 0. -1.
</event>
<event>
 5   0  0.3497949E-05  0.2743719E+04  0.7818609E-02  0.8320957E-01
        2   -1    0    0  501    0  0.00000000000E+00  0.00000000000E+00  0.10535975775E+04  0.10535975775E+04  0.25500000920E-02 0.  1.
       -2   -1    0    0    0  501  0.00000000000E+00  0.00000000000E+00 -0.17862594534E+04  0.17862594534E+04  0.25500000920E-02 0. -1.
    10030    2    1    2    0    0  0.00000000000E+00  0.00000000000E+00 -0.73266187590E+03  0.28398570309E+04  0.27437191058E+04 0.  0.
        5    1    3    3  502    0 -0.50462799510E+02 -0.28479724103E+03 -0.17543338789E+04  0.17780228940E+04  0.46999998093E+01 0. -1.
       -5    1    3    3    0  502  0.50462799510E+02  0.28479724103E+03  0.10216720030E+04  0.10618341370E+04  0.46999998093E+01 0.  1.
</event>
<event>
 5   0  0.1228050E-05  0.2709467E+04  0.7818609E-02  0.8331940E-01
       -3   -1    0    0    0  501  0.00000000000E+00  0.00000000000E+00  0.83787371316E+03  0.83787371925E+03  0.10100000352E+00 0. -1.
        3   -1    0    0  501    0  0.00000000000E+00  0.00000000000E+00 -0.21904294403E+04  0.21904294426E+04  0.10100000352E+00 0.  1.
    10030    2    1    2    0    0  0.00000000000E+00  0.00000000000E+00 -0.13525557271E+04  0.30283031619E+04  0.27094672992E+04 0.  0.
        4    1    3    3  502    0 -0.69904675263E+03 -0.85054557299E+03 -0.15586093485E+04  0.19082344846E+04  0.12699999809E+01 0.  1.
       -4    1    3    3    0  502  0.69904675263E+03  0.85054557299E+03  0.20605362134E+03  0.11200686773E+04  0.12699999809E+01 0. -1.
</event>
<event>
 5   0  0.3514294E-05  0.2689703E+04  0.7818609E-02  0.8338354E-01
       -2   -1    0    0    0  501  0.00000000000E+00  0.00000000000E+00  0.13748686652E+04  0.13748686652E+04  0.25500000920E-02 0.  1.
        2   -1    0    0  501    0  0.00000000000E+00  0.00000000000E+00 -0.13154898330E+04  0.13154898330E+04  0.25500000920E-02 0. -1.
    10030    2    1    2    0    0  0.00000000000E+00  0.00000000000E+00  0.59378832155E+02  0.26903584982E+04  0.26897031440E+04 0.  0.
        2    1    3    3  502    0 -0.58040422954E+03  0.57516151496E+03 -0.10387215396E+04  0.13215983788E+04  0.25500000920E-02 0. -1.
       -2    1    3    3    0  502  0.58040422954E+03 -0.57516151496E+03  0.10981003718E+04  0.13687601194E+04  0.25500000920E-02 0.  1.
</event>
<event>
 5   0  0.3514294E-05  0.2822571E+04  0.7818609E-02  0.8296295E-01
        2   -1    0    0  501    0  0.00000000000E+00  0.00000000000E+00  0.22897575050E+04  0.22897575050E+04  0.25500000920E-02 0. -1.
       -2   -1    0    0    0  501  0.00000000000E+00  0.00000000000E+00 -0.86984155549E+03  0.86984155550E+03  0.25500000920E-02 0.  1.
    10030    2    1    2    0    0  0.00000000000E+00  0.00000000000E+00  0.14199159495E+04  0.31595990605E+04  0.28225706226E+04 0.  0.
        2    1    3    3  502    0  0.28774118023E+03  0.61487754880E+03 -0.67505693581E+03  0.95737727851E+03  0.25500000920E-02 0.  1.
       -2    1    3    3    0  502 -0.28774118023E+03 -0.61487754880E+03  0.20949728853E+04  0.22022217820E+04  0.25500000920E-02 0. -1.
</event>
<event>
 5   0  0.3497949E-05  0.2410224E+04  0.7818609E-02  0.8435686E-01
       -2   -1    0    0    0  501  0.00000000000E+00  0.00000000000E+00  0.12179433640E+04  0.12179433640E+04  0.25500000920E-02 0.  1.
        2   -1    0    0  501    0  0.00000000000E+00  0.00000000000E+00 -0.11924162439E+04  0.11924162439E+04  0.25500000920E-02 0. -1.
    10030    2    1    2    0    0  0.00000000000E+00  0.00000000000E+00  0.25527120092E+02  0.24103596079E+04  0.24102244306E+04 0.  0.
        5    1    3    3  502    0  0.55528700260E+03 -0.74248016021E+03 -0.75711915671E+03  0.11970262950E+04  0.46999998093E+01 0. -1.
       -5    1    3    3    0  502 -0.55528700260E+03  0.74248016021E+03  0.78264627681E+03  0.12133333129E+04  0.46999998093E+01 0.  1.
</event>
<event>
 5   0  0.3652331E-05  0.2669691E+04  0.7818609E-02  0.8344907E-01
       -2   -1    0    0    0  501  0.00000000000E+00  0.00000000000E+00  0.12182267532E+04  0.12182267532E+04  0.25500000920E-02 0. -1.
        2   -1    0    0  501    0  0.00000000000E+00  0.00000000000E+00 -0.14626279615E+04  0.14626279615E+04  0.25500000920E-02 0.  1.
    10030    2    1    2    0    0  0.00000000000E+00  0.00000000000E+00 -0.24440120833E+03  0.26808547147E+04  0.26696910029E+04 0.  0.
        1    1    3    3  502    0  0.12580868988E+04 -0.10735040293E+03  0.31262948254E+03  0.13007858960E+04  0.50400001928E-02 0. -1.
       -1    1    3    3    0  502 -0.12580868988E+04  0.10735040293E+03 -0.55703069087E+03  0.13800688187E+04  0.50400001928E-02 0.  1.
</event>
<event>
 5   0  0.3514294E-05  0.2666543E+04  0.7818609E-02  0.8345943E-01
       -2   -1    0    0    0  501  0.00000000000E+00  0.00000000000E+00  0.11411540463E+04  0.11411540463E+04  0.25500000920E-02 0. -1.
        2   -1    0    0  501    0  0.00000000000E+00  0.00000000000E+00 -0.15577324299E+04  0.15577324299E+04  0.25500000920E-02 0.  1.
    10030    2    1    2    0    0  0.00000000000E+00  0.00000000000E+00 -0.41657838356E+03  0.26988864762E+04  0.26665428296E+04 0.  0.
        2    1    3    3  502    0 -0.75089792062E+03  0.96562302954E+03  0.32855664558E+03  0.12665800376E+04  0.25500000920E-02 0. -1.
       -2    1    3    3    0  502  0.75089792062E+03 -0.96562302954E+03 -0.74513502914E+03  0.14323064386E+04  0.25500000920E-02 0.  1.
</event>
<event>
 5   0  0.3652331E-05  0.2849304E+04  0.7818609E-02  0.8288123E-01
       -2   -1    0    0    0  501  0.00000000000E+00  0.00000000000E+00  0.15142714111E+04  0.15142714111E+04  0.25500000920E-02 0.  1.
        2   -1    0    0  501    0  0.00000000000E+00  0.00000000000E+00 -0.13403366288E+04  0.13403366288E+04  0.25500000920E-02 0. -1.
    10030    2    1    2    0    0  0.00000000000E+00  0.00000000000E+00  0.17393478229E+03  0.28546080399E+04  0.28493040822E+04 0.  0.
        1    1    3    3  502    0 -0.26683809850E+03  0.13952197328E+04  0.19576403495E+03  0.14339331334E+04  0.50400001928E-02 0.  1.
       -1    1    3    3    0  502  0.26683809850E+03 -0.13952197328E+04 -0.21829252655E+02  0.14206749065E+04  0.50400001928E-02 0. -1.
</event>
<event>
 5   0  0.1438701E-05  0.2668798E+04  0.7818609E-02  0.8345200E-01
       -1   -1    0    0    0  501  0.00000000000E+00  0.00000000000E+00  0.12804392285E+04  0.12804392286E+04  0.50400001928E-02 0.  1.
        1   -1    0    0  501    0  0.00000000000E+00  0.00000000000E+00 -0.13906328797E+04  0.13906328797E+04  0.50400001928E-02 0. -1.
    10030    2    1    2    0    0  0.00000000000E+00  0.00000000000E+00 -0.11019365115E+03  0.26710721083E+04  0.26687981502E+04 0.  0.
        4    1    3    3  502    0 -0.65000979079E+03 -0.37832168328E+03 -0.11582969845E+04  0.13810479866E+04  0.12699999809E+01 0. -1.
       -4    1    3    3    0  502  0.65000979079E+03  0.37832168328E+03  0.10481033333E+04  0.12900241216E+04  0.12699999809E+01 0.  1.
</event>
<event>
 5   0  0.1438701E-05  0.2713213E+04  0.7818609E-02  0.8330731E-01
        1   -1    0    0  501    0  0.00000000000E+00  0.00000000000E+00  0.17491468698E+04  0.17491468698E+04  0.50400001928E-02 0.  1.
       -1   -1    0    0    0  501  0.00000000000E+00  0.00000000000E+00 -0.10521591517E+04  0.10521591517E+04  0.50400001928E-02 0. -1.
    10030    2    1    2    0    0  0.00000000000E+00  0.00000000000E+00  0.69698771809E+03  0.28013060215E+04  0.27132127722E+04 0.  0.
        4    1    3    3  502    0 -0.12415535427E+04 -0.50767795915E+02  0.91054619062E+03  0.15404962014E+04  0.12699999809E+01 0.  1.
       -4    1    3    3    0  502  0.12415535427E+04  0.50767795915E+02 -0.21355847254E+03  0.12608098201E+04  0.12699999809E+01 0. -1.
</event>
<event>
 5   0  0.1438701E-05  0.2766451E+04  0.7818609E-02  0.8313760E-01
       -1   -1    0    0    0  501  0.00000000000E+00  0.00000000000E+00  0.10021042539E+04  0.10021042539E+04  0.50400001928E-02 0.  1.
        1   -1    0    0  501    0  0.00000000000E+00  0.00000000000E+00 -0.19092949126E+04  0.19092949126E+04  0.50400001928E-02 0. -1.
    10030    2    1    2    0    0  0.00000000000E+00  0.00000000000E+00 -0.90719065872E+03  0.29113991665E+04  0.27664508337E+04 0.  0.
        4    1    3    3  502    0  0.12981507178E+04  0.53102648017E+02 -0.95311812244E+03  0.16113506588E+04  0.12699999809E+01 0.  1.
       -4    1    3    3    0  502 -0.12981507178E+04 -0.53102648017E+02  0.45927463721E+02  0.13000485077E+04  0.12699999809E+01 0. -1.
</event>
<event>
 5   0  0.3676724E-05  0.2171940E+04  0.7818609E-02  0.8530199E-01
       -2   -1    0    0    0  501  0.00000000000E+00  0.00000000000E+00  0.99286292894E+03  0.99286292894E+03  0.25500000920E-02 0.  1.
        2   -1    0    0  501    0  0.00000000000E+00  0.00000000000E+00 -0.11878084181E+04  0.11878084181E+04  0.25500000920E-02 0. -1.
    10030    2    1    2    0    0  0.00000000000E+00  0.00000000000E+00 -0.19494548918E+03  0.21806713471E+04  0.21719400959E+04 0.  0.
        4    1    3    3  502    0 -0.75860955721E+03 -0.14651721866E+03  0.66872912138E+03  0.10218395208E+04  0.12699999809E+01 0.  1.
       -4    1    3    3    0  502  0.75860955721E+03  0.14651721866E+03 -0.86367461055E+03  0.11588318262E+04  0.12699999809E+01 0. -1.
</event>
<event>
 5   0  0.1495517E-05  0.2629428E+04  0.7818609E-02  0.8358273E-01
        1   -1    0    0  501    0  0.00000000000E+00  0.00000000000E+00  0.21651721177E+04  0.21651721177E+04  0.50400001928E-02 0. -1.
       -1   -1    0    0    0  501  0.00000000000E+00  0.00000000000E+00 -0.79830760696E+03  0.79830760697E+03  0.50400001928E-02 0.  1.
    10030    2    1    2    0    0  0.00000000000E+00  0.00000000000E+00  0.13668645108E+04  0.29634797247E+04  0.26294283576E+04 0.  0.
        5    1    3    3  502    0 -0.68794715735E+03  0.84056847876E+02 -0.57568977088E+03  0.90098704057E+03  0.46999998093E+01 0.  1.
       -5    1    3    3    0  502  0.68794715735E+03 -0.84056847876E+02  0.19425542816E+04  0.20624926841E+04  0.46999998093E+01 0. -1.
</event>
<event>
 5   0  0.1474012E-05  0.2709703E+04  0.7818609E-02  0.8331863E-01
        1   -1    0    0  501    0  0.00000000000E+00  0.00000000000E+00  0.16044311318E+04  0.16044311318E+04  0.50400001928E-02 0. -1.
       -1   -1    0    0    0  501  0.00000000000E+00  0.00000000000E+00 -0.11440958212E+04  0.11440958212E+04  0.50400001928E-02 0.  1.
    10030    2    1    2    0    0  0.00000000000E+00  0.00000000000E+00  0.46033531056E+03  0.27485269530E+04  0.27097032703E+04 0.  0.
        2    1    3    3  502    0 -0.25548151970E+03 -0.10884222639E+04 -0.54610063064E+03  0.12442506701E+04  0.25500000920E-02 0.  1.
       -2    1    3    3    0  502  0.25548151970E+03  0.10884222639E+04  0.10064359412E+04  0.15042762828E+04  0.25500000920E-02 0. -1.
</event>
<event>
 5   0  0.1438701E-05  0.2713429E+04  0.7818609E-02  0.8330661E-01
       -1   -1    0    0    0  501  0.00000000000E+00  0.00000000000E+00  0.10272817520E+04  0.10272817520E+04  0.50400001928E-02 0.  1.
        1   -1    0    0  501    0  0.00000000000E+00  0.00000000000E+00 -0.17917913773E+04  0.17917913773E+04  0.50400001928E-02 0. -1.
    10030    2    1    2    0    0  0.00000000000E+00  0.00000000000E+00 -0.76450962529E+03  0.28190731292E+04  0.27134292585E+04 0.  0.
        4    1    3    3  502    0 -0.11617963603E+04 -0.69480194527E+03 -0.47606107142E+03  0.14349760564E+04  0.12699999809E+01 0. -1.
       -4    1    3    3    0  502  0.11617963603E+04  0.69480194527E+03 -0.28844855387E+03  0.13840970728E+04  0.12699999809E+01 0.  1.
</event>
<event>
 5   0  0.1438701E-05  0.2724092E+04  0.7818609E-02  0.8327230E-01
        1   -1    0    0  501    0  0.00000000000E+00  0.00000000000E+00  0.22954158925E+04  0.22954158925E+04  0.50400001928E-02 0. -1.
       -1   -1    0    0    0  501  0.00000000000E+00  0.00000000000E+00 -0.80820608464E+03  0.80820608465E+03  0.50400001928E-02 0.  1.
    10030    2    1    2    0    0  0.00000000000E+00  0.00000000000E+00  0.14872098079E+04  0.31036219772E+04  0.27240918422E+04 0.  0.
        4    1    3    3  502    0  0.46137657328E+03  0.44262637274E+03  0.21138190015E+04  0.22083973447E+04  0.12699999809E+01 0. -1.
       -4    1    3    3    0  502 -0.46137657328E+03 -0.44262637274E+03 -0.62660919358E+03  0.89522463248E+03  0.12699999809E+01 0.  1.
</event>
<event>
 5   0  0.3568647E-05  0.2758645E+04  0.7818609E-02  0.8316224E-01
        2   -1    0    0  501    0  0.00000000000E+00  0.00000000000E+00  0.27297228494E+04  0.27297228494E+04  0.25500000920E-02 0.  1.
       -2   -1    0    0    0  501  0.00000000000E+00  0.00000000000E+00 -0.69696851513E+03  0.69696851514E+03  0.25500000920E-02 0. -1.
    10030    2    1    2    0    0  0.00000000000E+00  0.00000000000E+00  0.20327543343E+04  0.34266913646E+04  0.27586452335E+04 0.  0.
        3    1    3    3  502    0 -0.25587347286E+03  0.79787818387E+03  0.23773554097E+04  0.25206942664E+04  0.10100000352E+00 0.  1.
       -3    1    3    3    0  502  0.25587347286E+03 -0.79787818387E+03 -0.34460107546E+03  0.90599709813E+03  0.10100000352E+00 0. -1.
</event>
<event>
 5   0  0.1474012E-05  0.2715737E+04  0.7818609E-02  0.8329917E-01
       -1   -1    0    0    0  501  0.00000000000E+00  0.00000000000E+00  0.73759730422E+03  0.73759730423E+03  0.50400001928E-02 0.  1.
        1   -1    0    0  501    0  0.00000000000E+00  0.00000000000E+00 -0.24997464364E+04  0.24997464364E+04  0.50400001928E-02 0. -1.
    10030    2    1    2    0    0  0.00000000000E+00  0.00000000000E+00 -0.17621491322E+04  0.32373437407E+04  0.27157365356E+04 0.  0.
        2    1    3    3  502    0 -0.16985950990E+03  0.13371062189E+04 -0.68483193846E+03  0.15118531931E+04  0.25500000920E-02 0. -1.
       -2    1    3    3    0  502  0.16985950990E+03 -0.13371062189E+04 -0.10773171937E+04  0.17254905475E+04  0.25500000920E-02 0.  1.
</event>
<event>
 5   0  0.3568647E-05  0.2667321E+04  0.7818609E-02  0.8345687E-01
        2   -1    0    0  501    0  0.00000000000E+00  0.00000000000E+00  0.18728625483E+04  0.18728625483E+04  0.25500000920E-02 0.  1.
       -2   -1    0    0    0  501  0.00000000000E+00  0.00000000000E+00 -0.94969626990E+03  0.94969626991E+03  0.25500000920E-02 0. -1.
    10030    2    1    2    0    0  0.00000000000E+00  0.00000000000E+00  0.92316627835E+03  0.28225588182E+04  0.26673211851E+04 0.  0.
        3    1    3    3  502    0  0.12012950576E+04  0.45943149093E+03  0.88256815459E+02  0.12891766310E+04  0.10100000352E+00 0. -1.
       -3    1    3    3    0  502 -0.12012950576E+04 -0.45943149093E+03  0.83490946289E+03  0.15333821871E+04  0.10100000352E+00 0.  1.
</event>
<event>
 5   0  0.1495517E-05  0.2505758E+04  0.7818609E-02  0.8400937E-01
       -1   -1    0    0    0  501  0.00000000000E+00  0.00000000000E+00  0.59222866338E+03  0.59222866341E+03  0.50400001928E-02 0.  1.
        1   -1    0    0  501    0  0.00000000000E+00  0.00000000000E+00 -0.26505055328E+04  0.26505055328E+04  0.50400001928E-02 0. -1.
    10030    2    1    2    0    0  0.00000000000E+00  0.00000000000E+00 -0.20582768694E+04  0.32427341962E+04  0.25057576491E+04 0.  0.
        5    1    3    3  502    0  0.10535716414E+04  0.60310777758E+03 -0.62831609598E+03  0.13669511335E+04  0.46999998093E+01 0.  1.
       -5    1    3    3    0  502 -0.10535716414E+04 -0.60310777758E+03 -0.14299607735E+04  0.18757830628E+04  0.46999998093E+01 0. -1.
</event>
<event>
 5   0  0.3568647E-05  0.2561410E+04  0.7818609E-02  0.8381429E-01
       -2   -1    0    0    0  501  0.00000000000E+00  0.00000000000E+00  0.12076214847E+04  0.12076214847E+04  0.25500000920E-02 0.  1.
        2   -1    0    0  501    0  0.00000000000E+00  0.00000000000E+00 -0.13582112538E+04  0.13582112538E+04  0.25500000920E-02 0. -1.
    10030    2    1    2    0    0  0.00000000000E+00  0.00000000000E+00 -0.15058976911E+03  0.25658327385E+04  0.25614098391E+04 0.  0.
        3    1    3    3  502    0 -0.52745050930E+03 -0.23303487966E+03 -0.12208147652E+04  0.13501473979E+04  0.10100000352E+00 0. -1.
       -3    1    3    3    0  502  0.52745050930E+03  0.23303487966E+03  0.10702249961E+04  0.12156853406E+04  0.10100000352E+00 0.  1.
</event>
<event>
 5   0  0.1449521E-05  0.1662797E+04  0.7818609E-02  0.8782872E-01
       -1   -1    0    0    0  501  0.00000000000E+00  0.00000000000E+00  0.37939905055E+03  0.37939905059E+03  0.50400001928E-02 0. -1.
        1   -1    0    0  501    0  0.00000000000E+00  0.00000000000E+00 -0.18218909074E+04  0.18218909075E+04  0.50400001928E-02 0.  1.
    10030    2    1    2    0    0  0.00000000000E+00  0.00000000000E+00 -0.14424918569E+04  0.22012899580E+04  0.16627972583E+04 0.  0.
        3    1    3    3  502    0 -0.67514386980E+03 -0.64659875927E+01 -0.13634997458E+04  0.15215099806E+04  0.10100000352E+00 0.  1.
       -3    1    3    3    0  502  0.67514386980E+03  0.64659875927E+01 -0.78992111049E+02  0.67977997744E+03  0.10100000352E+00 0. -1.
</event>
<event>
 5   0  0.1495517E-05  0.2544178E+04  0.7818609E-02  0.8387414E-01
       -1   -1    0    0    0  501  0.00000000000E+00  0.00000000000E+00  0.13001802675E+04  0.13001802675E+04  0.50400001928E-02 0. -1.
        1   -1    0    0  501    0  0.00000000000E+00  0.00000000000E+00 -0.12446042352E+04  0.12446042352E+04  0.50400001928E-02 0.  1.
    10030    2    1    2    0    0  0.00000000000E+00  0.00000000000E+00  0.55576032362E+02  0.25447845027E+04  0.25441775626E+04 0.  0.
        5    1    3    3  502    0 -0.10338325495E+04 -0.69913410646E+03 -0.21842012785E+03  0.12670152649E+04  0.46999998093E+01 0.  1.
       -5    1    3    3    0  502  0.10338325495E+04  0.69913410646E+03  0.27399616021E+03  0.12777692378E+04  0.46999998093E+01 0. -1.
</event>
<event>
 5   0  0.3497949E-05  0.2860268E+04  0.7818609E-02  0.8284798E-01
       -2   -1    0    0    0  501  0.00000000000E+00  0.00000000000E+00  0.13210739446E+04  0.13210739446E+04  0.25500000920E-02 0. -1.
        2   -1    0    0  501    0  0.00000000000E+00  0.00000000000E+00 -0.15481975935E+04  0.15481975935E+04  0.25500000920E-02 0.  1.
    10030    2    1    2    0    0  0.00000000000E+00  0.00000000000E+00 -0.22712364887E+03  0.28692715381E+04  0.28602681706E+04 0.  0.
        5    1    3    3  502    0 -0.13969277874E+03  0.77062500100E+03  0.10868185410E+04  0.13396169585E+04  0.46999998093E+01 0. -1.
       -5    1    3    3    0  502  0.13969277874E+03 -0.77062500100E+03 -0.13139421898E+04  0.15296545796E+04  0.46999998093E+01 0.  1.
</event>
<event>
 5   0  0.1449521E-05  0.2721099E+04  0.7818609E-02  0.8328191E-01
        1   -1    0    0  501    0  0.00000000000E+00  0.00000000000E+00  0.12016786555E+04  0.12016786556E+04  0.50400001928E-02 0.  1.
       -1   -1    0    0    0  501  0.00000000000E+00  0.00000000000E+00 -0.15404238928E+04  0.15404238928E+04  0.50400001928E-02 0. -1.
    10030    2    1    2    0    0  0.00000000000E+00  0.00000000000E+00 -0.33874523725E+03  0.27421025483E+04  0.27210986843E+04 0.  0.
        3    1    3    3  502    0  0.12717093203E+04  0.96061107732E+02  0.30822891174E+03  0.13120508390E+04  0.10100000352E+00 0.  1.
       -3    1    3    3    0  502 -0.12717093203E+04 -0.96061107732E+02 -0.64697414899E+03  0.14300517094E+04  0.10100000352E+00 0. -1.
</event>
<event>
 5   0  0.1474012E-05  0.2661793E+04  0.7818609E-02  0.8347509E-01
        1   -1    0    0  501    0  0.00000000000E+00  0.00000000000E+00  0.17570143624E+04  0.17570143624E+04  0.50400001928E-02 0. -1.
       -1   -1    0    0    0  501  0.00000000000E+00  0.00000000000E+00 -0.10081224765E+04  0.10081224766E+04  0.50400001928E-02 0.  1.
    10030    2    1    2    0    0  0.00000000000E+00  0.00000000000E+00  0.74889188581E+03  0.27651368389E+04  0.26617931327E+04 0.  0.
        2    1    3    3  502    0  0.12035670382E+04 -0.12390667842E+03  0.95037027762E+03  0.15385480640E+04  0.25500000920E-02 0. -1.
       -2    1    3    3    0  502 -0.12035670382E+04  0.12390667842E+03 -0.20147839181E+03  0.12265887750E+04  0.25500000920E-02 0.  1.
</event>
<event>
 5   0  0.3514294E-05  0.2640883E+04  0.7818609E-02  0.8354445E-01
        2   -1    0    0  501    0  0.00000000000E+00  0.00000000000E+00  0.16541352147E+04  0.16541352147E+04  0.25500000920E-02 0.  1.
       -2   -1    0    0    0  501  0.00000000000E+00  0.00000000000E+00 -0.10540652101E+04  0.10540652101E+04  0.25500000920E-02 0. -1.
    10030    2    1    2    0    0  0.00000000000E+00  0.00000000000E+00  0.60007000455E+03  0.27082004249E+04  0.26408834754E+04 0.  0.
        2    1    3    3  502    0 -0.51933270268E+03  0.52122453782E+03  0.14244255824E+04  0.16032372609E+04  0.25500000920E-02 0.  1.
       -2    1    3    3    0  502  0.51933270268E+03 -0.52122453782E+03 -0.82435557787E+03  0.11049631639E+04  0.25500000920E-02 0. -1.
</event>
<event>
 5   0  0.3514294E-05  0.2727610E+04  0.7818609E-02  0.8326102E-01
       -2   -1    0    0    0  501  0.00000000000E+00  0.00000000000E+00  0.13305488949E+04  0.13305488949E+04  0.25500000920E-02 0. -1.
        2   -1    0    0  501    0  0.00000000000E+00  0.00000000000E+00 -0.13978927464E+04  0.13978927464E+04  0.25500000920E-02 0.  1.
    10030    2    1    2    0    0  0.00000000000E+00  0.00000000000E+00 -0.67343851538E+02  0.27284416413E+04  0.27276104186E+04 0.  0.
        2    1    3    3  502    0  0.98817161993E+03 -0.93852342070E+03 -0.85217108969E+02  0.13654930675E+04  0.25500000920E-02 0. -1.
       -2    1    3    3    0  502 -0.98817161993E+03  0.93852342070E+03  0.17873257431E+02  0.13629485739E+04  0.25500000920E-02 0.  1.
</event>
<event>
 5   0  0.3676724E-05  0.2729660E+04  0.7818609E-02  0.8325445E-01
       -2   -1    0    0    0  501  0.00000000000E+00  0.00000000000E+00  0.14510633164E+04  0.14510633164E+04  0.25500000920E-02 0.  1.
        2   -1    0    0  501    0  0.00000000000E+00  0.00000000000E+00 -0.12837209048E+04  0.12837209048E+04  0.25500000920E-02 0. -1.
    10030    2    1    2    0    0  0.00000000000E+00  0.00000000000E+00  0.16734241164E+03  0.27347842212E+04  0.27296595491E+04 0.  0.
        4    1    3    3  502    0 -0.67661985213E+03 -0.48355051367E+03  0.11678873494E+04  0.14337356791E+04  0.12699999809E+01 0.  1.
       -4    1    3    3    0  502  0.67661985213E+03  0.48355051367E+03 -0.10005449378E+04  0.13010485421E+04  0.12699999809E+01 0. -1.
</event>
<event>
 5   0  0.3652331E-05  0.2582770E+04  0.7818609E-02  0.8374077E-01
       -2   -1    0    0    0  501  0.00000000000E+00  0.00000000000E+00  0.83877769096E+03  0.83877769096E+03  0.25500000920E-02 0.  1.
        2   -1    0    0  501    0  0.00000000000E+00  0.00000000000E+00 -0.19882214767E+04  0.19882214767E+04  0.25500000920E-02 0. -1.
    10030    2    1    2    0    0  0.00000000000E+00  0.00000000000E+00 -0.11494437858E+04  0.28269991677E+04  0.25827704655E+04 0.  0.
        1    1    3    3  502    0  0.27917412391E+03 -0.62280949615E+03  0.62523120966E+03  0.92560462700E+03  0.50400001928E-02 0.  1.
       -1    1    3    3    0  502 -0.27917412391E+03  0.62280949615E+03 -0.17746749954E+04  0.19013945407E+04  0.50400001928E-02 0. -1.
</event>
<event>
 5   0  0.1228050E-05  0.2596497E+04  0.7818609E-02  0.8369392E-01
       -4   -1    0    0    0  501  0.00000000000E+00  0.00000000000E+00  0.81527015238E+03  0.81527114156E+03  0.12699999809E+01 0. -1.
        4   -1    0    0  501    0  0.00000000000E+00  0.00000000000E+00 -0.20673473449E+04  0.20673477350E+04  0.12699999809E+01 0.  1.
    10030    2    1    2    0    0  0.00000000000E+00  0.00000000000E+00 -0.12520771925E+04  0.28826188765E+04  0.25964965418E+04 0.  0.
        2    1    3    3  502    0 -0.76942708923E+02 -0.73864122821E+03 -0.18082469998E+04  0.19548064499E+04  0.25500000920E-02 0.  1.
       -2    1    3    3    0  502  0.76942708923E+02  0.73864122821E+03  0.55616980727E+03  0.92781242662E+03  0.25500000920E-02 0. -1.
</event>
<event>
 5   0  0.3514294E-05  0.2812657E+04  0.7818609E-02  0.8299350E-01
        2   -1    0    0  501    0  0.00000000000E+00  0.00000000000E+00  0.26614610214E+04  0.26614610214E+04  0.25500000920E-02 0.  1.
       -2   -1    0    0    0  501  0.00000000000E+00  0.00000000000E+00 -0.74311072962E+03  0.74311072963E+03  0.25500000920E-02 0. -1.
    10030    2    1    2    0    0  0.00000000000E+00  0.00000000000E+00  0.19183502917E+04  0.34045717510E+04  0.28126572784E+04 0.  0.
        2    1    3    3  502    0 -0.90143632969E+02  0.45801546408E+03 -0.64659827857E+03  0.79749192708E+03  0.25500000920E-02 0. -1.
       -2    1    3    3    0  502  0.90143632969E+02 -0.45801546408E+03  0.25649485703E+04  0.26070798239E+04  0.25500000920E-02 0.  1.
</event>
<event>
 5   0  0.3568647E-05  0.2682341E+04  0.7818609E-02  0.8340757E-01
       -2   -1    0    0    0  501  0.00000000000E+00  0.00000000000E+00  0.11489205431E+04  0.11489205431E+04  0.25500000920E-02 0.  1.
        2   -1    0    0  501    0  0.00000000000E+00  0.00000000000E+00 -0.15655900602E+04  0.15655900602E+04  0.25500000920E-02 0. -1.
    10030    2    1    2    0    0  0.00000000000E+00  0.00000000000E+00 -0.41666951709E+03  0.27145106033E+04  0.26823412029E+04 0.  0.
        3    1    3    3  502    0  0.13359413716E+04  0.52837120840E+02 -0.10119981008E+03  0.13408103973E+04  0.10100000352E+00 0.  1.
       -3    1    3    3    0  502 -0.13359413716E+04 -0.52837120840E+02 -0.31546970701E+03  0.13737002060E+04  0.10100000352E+00 0. -1.
</event>
<event>
 5   0  0.1228050E-05  0.2722679E+04  0.7818609E-02  0.8327684E-01
       -3   -1    0    0    0  501  0.00000000000E+00  0.00000000000E+00  0.10724219662E+04  0.10724219710E+04  0.10100000352E+00 0.  1.
        3   -1    0    0  501    0  0.00000000000E+00  0.00000000000E+00 -0.17280935908E+04  0.17280935937E+04  0.10100000352E+00 0. -1.
    10030    2    1    2    0    0  0.00000000000E+00  0.00000000000E+00 -0.65567162454E+03  0.28005155647E+04  0.27226792226E+04 0.  0.
        3    1    3    3  502    0  0.10734746767E+03 -0.98989043095E+03 -0.12827285288E+04  0.16238223526E+04  0.10100000352E+00 0. -1.
       -3    1    3    3    0  502 -0.10734746767E+03  0.98989043095E+03  0.62705690424E+03  0.11766932121E+04  0.10100000352E+00 0.  1.
</event>
<event>
 5   0  0.1228050E-05  0.2776334E+04  0.7818609E-02  0.8310654E-01
       -3   -1    0    0    0  501  0.00000000000E+00  0.00000000000E+00  0.21037265450E+04  0.21037265475E+04  0.10100000352E+00 0.  1.
        3   -1    0    0  501    0  0.00000000000E+00  0.00000000000E+00 -0.91599702758E+03  0.91599703315E+03  0.10100000352E+00 0. -1.
    10030    2    1    2    0    0  0.00000000000E+00  0.00000000000E+00  0.11877295175E+04  0.30197235806E+04  0.27763337510E+04 0.  0.
        1    1    3    3  502    0 -0.29970581642E+03 -0.13422798830E+04  0.38902398946E+03  0.14292930159E+04  0.50400001928E-02 0.  1.
       -1    1    3    3    0  502  0.29970581642E+03  0.13422798830E+04  0.79870552801E+03  0.15904305648E+04  0.50400001928E-02 0. -1.
</event>
<event>
 5   0  0.1449521E-05  0.2708298E+04  0.7818609E-02  0.8332318E-01
        1   -1    0    0  501    0  0.00000000000E+00  0.00000000000E+00  0.77912872316E+03  0.77912872318E+03  0.50400001928E-02 0. -1.
       -1   -1    0    0    0  501  0.00000000000E+00  0.00000000000E+00 -0.23535513882E+04  0.23535513882E+04  0.50400001928E-02 0.  1.
    10030    2    1    2    0    0  0.00000000000E+00  0.00000000000E+00 -0.15744226650E+04  0.31326801113E+04  0.27082979806E+04 0.  0.
        3    1    3    3  502    0 -0.48895770113E+03  0.65783753019E+03 -0.20340263983E+04  0.21929644887E+04  0.10100000352E+00 0.  1.
       -3    1    3    3    0  502  0.48895770113E+03 -0.65783753019E+03  0.45960373326E+03  0.93971562265E+03  0.10100000352E+00 0. -1.
</event>
<event>
 5   0  0.3497949E-05  0.2190695E+04  0.7818609E-02  0.8522311E-01
       -2   -1    0    0    0  501  0.00000000000E+00  0.00000000000E+00  0.88606066100E+03  0.88606066100E+03  0.25500000920E-02 0. -1.
        2   -1    0    0  501    0  0.00000000000E+00  0.00000000000E+00 -0.13540676236E+04  0.13540676236E+04  0.25500000920E-02 0.  1.
    10030    2    1    2    0    0  0.00000000000E+00  0.00000000000E+00 -0.46800696256E+03  0.22401282846E+04  0.21906949158E+04 0.  0.
        5    1    3    3  502    0  0.94974697281E+03  0.12146749332E+03 -0.77797575406E+03  0.12337106744E+04  0.46999998093E+01 0.  1.
       -5    1    3    3    0  502 -0.94974697281E+03 -0.12146749332E+03  0.30996879149E+03  0.10064176101E+04  0.46999998093E+01 0. -1.
</event>
<event>
 5   0  0.1438701E-05  0.2487377E+04  0.7818609E-02  0.8407496E-01
       -1   -1    0    0    0  501  0.00000000000E+00  0.00000000000E+00  0.95334036144E+03  0.95334036145E+03  0.50400001928E-02 0. -1.
        1   -1    0    0  501    0  0.00000000000E+00  0.00000000000E+00 -0.16224643076E+04  0.16224643076E+04  0.50400001928E-02 0.  1.
    10030    2    1    2    0    0  0.00000000000E+00  0.00000000000E+00 -0.66912394618E+03  0.25758046691E+04  0.24873766980E+04 0.  0.
        4    1    3    3  502    0 -0.99476551249E+03  0.48999604260E+03 -0.91770166272E+03  0.14393861543E+04  0.12699999809E+01 0.  1.
       -4    1    3    3    0  502  0.99476551249E+03 -0.48999604260E+03  0.24857771654E+03  0.11364185147E+04  0.12699999809E+01 0. -1.
</event>
<event>
 5   0  0.3652331E-05  0.2675679E+04  0.7818609E-02  0.8342940E-01
        2   -1    0    0  501    0  0.00000000000E+00  0.00000000000E+00  0.16784717300E+04  0.16784717300E+04  0.25500000920E-02 0.  1.
       -2   -1    0    0    0  501  0.00000000000E+00  0.00000000000E+00 -0.10663360281E+04  0.10663360281E+04  0.25500000920E-02 0. -1.
    10030    2    1    2    0    0  0.00000000000E+00  0.00000000000E+00  0.61213570193E+03  0.27448077580E+04  0.26756792616E+04 0.  0.
        1    1    3    3  502    0 -0.43201783019E+03 -0.88595624110E+03  0.12340139439E+04  0.15793505882E+04  0.50400001928E-02 0.  1.
       -1    1    3    3    0  502  0.43201783019E+03  0.88595624110E+03 -0.62187824199E+03  0.11654571698E+04  0.50400001928E-02 0. -1.
</event>
<event>
 5   0  0.3514294E-05  0.2737638E+04  0.7818609E-02  0.8322895E-01
        2   -1    0    0  501    0  0.00000000000E+00  0.00000000000E+00  0.24192452826E+04  0.24192452826E+04  0.25500000920E-02 0. -1.
       -2   -1    0    0    0  501  0.00000000000E+00  0.00000000000E+00 -0.77448368424E+03  0.77448368425E+03  0.25500000920E-02 0.  1.
    10030    2    1    2    0    0  0.00000000000E+00  0.00000000000E+00  0.16447615983E+04  0.31937289668E+04  0.27376383980E+04 0.  0.
        2    1    3    3  502    0  0.35294901061E+03  0.61192452792E+03  0.21901621508E+04  0.23012681023E+04  0.25500000920E-02 0. -1.
       -2    1    3    3    0  502 -0.35294901061E+03 -0.61192452792E+03 -0.54540055249E+03  0.89246086448E+03  0.25500000920E-02 0.  1.
</event>
<event>
 5   0  0.1495517E-05  0.2702862E+04  0.7818609E-02  0.8334077E-01
       -1   -1    0    0    0  501  0.00000000000E+00  0.00000000000E+00  0.76629281543E+03  0.76629281545E+03  0.50400001928E-02 0. -1.
        1   -1    0    0  501    0  0.00000000000E+00  0.00000000000E+00 -0.23833792442E+04  0.23833792442E+04  0.50400001928E-02 0.  1.
    10030    2    1    2    0    0  0.00000000000E+00  0.00000000000E+00 -0.16170864288E+04  0.31496720597E+04  0.27028624762E+04 0.  0.
        5    1    3    3  502    0  0.69882062229E+03 -0.10111733005E+04 -0.15397242341E+03  0.12387700767E+04  0.46999998093E+01 0. -1.
       -5    1    3    3    0  502 -0.69882062229E+03  0.10111733005E+04 -0.14631140054E+04  0.19109019829E+04  0.46999998093E+01 0.  1.
</event>
<event>
 5   0  0.3676724E-05  0.2497442E+04  0.7818609E-02  0.8403897E-01
       -2   -1    0    0    0  501  0.00000000000E+00  0.00000000000E+00  0.85739130740E+03  0.85739130740E+03  0.25500000920E-02 0. -1.
        2   -1    0    0  501    0  0.00000000000E+00  0.00000000000E+00 -0.18186609017E+04  0.18186609017E+04  0.25500000920E-02 0.  1.
    10030    2    1    2    0    0  0.00000000000E+00  0.00000000000E+00 -0.96126959435E+03  0.26760522091E+04  0.24974419299E+04 0.  0.
        4    1    3    3  502    0 -0.87147524438E+03  0.19824813082E+03 -0.14150881946E+04  0.16736928136E+04  0.12699999809E+01 0.  1.
       -4    1    3    3    0  502  0.87147524438E+03 -0.19824813082E+03  0.45381860027E+03  0.10023593955E+04  0.12699999809E+01 0. -1.
</event>
<event>
 5   0  0.3497949E-05  0.2697485E+04  0.7818609E-02  0.8335821E-01
       -2   -1    0    0    0  501  0.00000000000E+00  0.00000000000E+00  0.10962461542E+04  0.10962461542E+04  0.25500000920E-02 0. -1.
        2   -1    0    0  501    0  0.00000000000E+00  0.00000000000E+00 -0.16593964251E+04  0.16593964251E+04  0.25500000920E-02 0.  1.
    10030    2    1    2    0    0  0.00000000000E+00  0.00000000000E+00 -0.56315027083E+03  0.27556425793E+04  0.26974854582E+04 0.  0.
        5    1    3    3  502    0  0.19396973862E+03  0.30098446728E+03 -0.16099441880E+04  0.16492902375E+04  0.46999998093E+01 0.  1.
       -5    1    3    3    0  502 -0.19396973862E+03 -0.30098446728E+03  0.10467939172E+04  0.11063523418E+04  0.46999998093E+01 0. -1.
</event>
<event>
 5   0  0.1438701E-05  0.2585063E+04  0.7818609E-02  0.8373293E-01
       -1   -1    0    0    0  501  0.00000000000E+00  0.00000000000E+00  0.98414107750E+03  0.98414107752E+03  0.50400001928E-02 0. -1.
        1   -1    0    0  501    0  0.00000000000E+00  0.00000000000E+00 -0.16975588691E+04  0.16975588691E+04  0.50400001928E-02 0.  1.
    10030    2    1    2    0    0  0.00000000000E+00  0.00000000000E+00 -0.71341779160E+03  0.26816999466E+04  0.25850627958E+04 0.  0.
        4    1    3    3  502    0 -0.35223395465E+03 -0.68569028278E+03  0.71957068075E+03  0.10545252487E+04  0.12699999809E+01 0. -1.
       -4    1    3    3    0  502  0.35223395465E+03  0.68569028278E+03 -0.14329884723E+04  0.16271746979E+04  0.12699999809E+01 0.  1.
</event>
<event>
 5   0  0.3568647E-05  0.1390463E+04  0.7818609E-02  0.8960751E-01
        2   -1    0    0  501    0  0.00000000000E+00  0.00000000000E+00  0.83195753556E+03  0.83195753556E+03  0.25500000920E-02 0.  1.
       -2   -1    0    0    0  501  0.00000000000E+00  0.00000000000E+00 -0.58097501741E+03  0.58097501742E+03  0.25500000920E-02 0. -1.
    10030    2    1    2    0    0  0.00000000000E+00  0.00000000000E+00  0.25098251815E+03  0.14129325530E+04  0.13904625759E+04 0.  0.
        3    1    3    3  502    0 -0.30996189177E+03 -0.42316632866E+03  0.58915477562E+03  0.78882791273E+03  0.10100000352E+00 0.  1.
       -3    1    3    3    0  502  0.30996189177E+03  0.42316632866E+03 -0.33817225747E+03  0.62410464025E+03  0.10100000352E+00 0. -1.
</event>
<event>
 5   0  0.1495517E-05  0.2668698E+04  0.7818609E-02  0.8345233E-01
        1   -1    0    0  501    0  0.00000000000E+00  0.00000000000E+00  0.21941100318E+04  0.21941100318E+04  0.50400001928E-02 0. -1.
       -1   -1    0    0    0  501  0.00000000000E+00  0.00000000000E+00 -0.81148504165E+03  0.81148504167E+03  0.50400001928E-02 0.  1.
    10030    2    1    2    0    0  0.00000000000E+00  0.00000000000E+00  0.13826249902E+04  0.30055950735E+04  0.26686981625E+04 0.  0.
        5    1    3    3  502    0 -0.18445084948E+03  0.11976864343E+04  0.13203864106E+04  0.17921822659E+04  0.46999998093E+01 0. -1.
       -5    1    3    3    0  502  0.18445084948E+03 -0.11976864343E+04  0.62238579601E+02  0.12134128076E+04  0.46999998093E+01 0.  1.
</event>
<event>
 5   0  0.1449521E-05  0.2482023E+04  0.7818609E-02  0.8409418E-01
       -1   -1    0    0    0  501  0.00000000000E+00  0.00000000000E+00  0.14963095294E+04  0.14963095294E+04  0.50400001928E-02 0. -1.
        1   -1    0    0  501    0  0.00000000000E+00  0.00000000000E+00 -0.10292723509E+04  0.10292723509E+04  0.50400001928E-02 0.  1.
    10030    2    1    2    0    0  0.00000000000E+00  0.00000000000E+00  0.46703717853E+03  0.25255818803E+04  0.24820233899E+04 0.  0.
        3    1    3    3  502    0  0.10529726504E+04 -0.24451078076E+03 -0.38674703329E+03  0.11480898059E+04  0.10100000352E+00 0.  1.
       -3    1    3    3    0  502 -0.10529726504E+04  0.24451078076E+03  0.85378421182E+03  0.13774920744E+04  0.10100000352E+00 0. -1.
</event>
<event>
 5   0  0.1449521E-05  0.2753588E+04  0.7818609E-02  0.8317824E-01
        1   -1    0    0  501    0  0.00000000000E+00  0.00000000000E+00  0.19463302479E+04  0.19463302479E+04  0.50400001928E-02 0. -1.
       -1   -1    0    0    0  501  0.00000000000E+00  0.00000000000E+00 -0.97391595845E+03  0.97391595846E+03  0.50400001928E-02 0.  1.
    10030    2    1    2    0    0  0.00000000000E+00  0.00000000000E+00  0.97241428949E+03  0.29202462064E+04  0.27535882691E+04 0.  0.
        3    1    3    3  502    0 -0.10554563070E+04 -0.53273723400E+03  0.12344329604E+04  0.17092752032E+04  0.10100000352E+00 0.  1.
       -3    1    3    3    0  502  0.10554563070E+04  0.53273723400E+03 -0.26201867095E+03  0.12109710032E+04  0.10100000352E+00 0. -1.
</event>
<event>
 5   0  0.1484379E-05  0.2686911E+04  0.7818609E-02  0.8339264E-01
        1   -1    0    0  501    0  0.00000000000E+00  0.00000000000E+00  0.15766451643E+04  0.15766451644E+04  0.50400001928E-02 0.  1.
       -1   -1    0    0    0  501  0.00000000000E+00  0.00000000000E+00 -0.11447551794E+04  0.11447551794E+04  0.50400001928E-02 0. -1.
    10030    2    1    2    0    0  0.00000000000E+00  0.00000000000E+00  0.43188998495E+03  0.27214003438E+04  0.26869110279E+04 0.  0.
        1    1    3    3  502    0  0.74473714772E+03 -0.10894543221E+04 -0.38936921749E+02  0.13202500608E+04  0.50400001928E-02 0. -1.
       -1    1    3    3    0  502 -0.74473714772E+03  0.10894543221E+04  0.47082690670E+03  0.14011502829E+04  0.50400001928E-02 0.  1.
</event>
<event>
 5   0  0.3568647E-05  0.2563264E+04  0.7818609E-02  0.8380788E-01
        2   -1    0    0  501    0  0.00000000000E+00  0.00000000000E+00  0.12731997193E+04  0.12731997193E+04  0.25500000920E-02 0. -1.
       -2   -1    0    0    0  501  0.00000000000E+00  0.00000000000E+00 -0.12901205952E+04  0.12901205952E+04  0.25500000920E-02 0.  1.
    10030    2    1    2    0    0  0.00000000000E+00  0.00000000000E+00 -0.16920875859E+02  0.25633203145E+04  0.25632644652E+04 0.  0.
        3    1    3    3  502    0 -0.51511155941E+03 -0.28213153024E+02 -0.11817060432E+04  0.12894049339E+04  0.10100000352E+00 0.  1.
       -3    1    3    3    0  502  0.51511155941E+03  0.28213153024E+02  0.11647851674E+04  0.12739153806E+04  0.10100000352E+00 0. -1.
</event>
<event>
 5   0  0.1228050E-05  0.1457882E+04  0.7818609E-02  0.8912954E-01
        3   -1    0    0  501    0  0.00000000000E+00  0.00000000000E+00  0.64389763726E+03  0.64389764519E+03  0.10100000352E+00 0.  1.
       -3   -1    0    0    0  501  0.00000000000E+00  0.00000000000E+00 -0.82521633399E+03  0.82521634017E+03  0.10100000352E+00 0. -1.
    10030    2    1    2    0    0  0.00000000000E+00  0.00000000000E+00 -0.18131869672E+03  0.14691139854E+04  0.14578818307E+04 0.  0.
        4    1    3    3  502    0  0.67466272544E+02  0.67573762731E+03  0.17629714546E+03  0.70160910434E+03  0.12699999809E+01 0.  1.
       -4    1    3    3    0  502 -0.67466272544E+02 -0.67573762731E+03 -0.35761584219E+03  0.76750488101E+03  0.12699999809E+01 0. -1.
</event>
<event>
 5   0  0.3568647E-05  0.2716310E+04  0.7818609E-02  0.8329732E-01
        2   -1    0    0  501    0  0.00000000000E+00  0.00000000000E+00  0.26324266461E+04  0.26324266461E+04  0.25500000920E-02 0. -1.
       -2   -1    0    0    0  501  0.00000000000E+00  0.00000000000E+00 -0.70071672514E+03  0.70071672515E+03  0.25500000920E-02 0.  1.
    10030    2    1    2    0    0  0.00000000000E+00  0.00000000000E+00  0.19317099210E+04  0.33331433713E+04  0.27163102758E+04 0.  0.
        3    1    3    3  502    0  0.78772949491E+03  0.10098189144E+04  0.15205372105E+04  0.19880355670E+04  0.10100000352E+00 0. -1.
       -3    1    3    3    0  502 -0.78772949491E+03 -0.10098189144E+04  0.41117271053E+03  0.13451078043E+04  0.10100000352E+00 0.  1.
</event>
<event>
 5   0  0.3497949E-05  0.1723953E+04  0.7818609E-02  0.8747820E-01
        2   -1    0    0  501    0  0.00000000000E+00  0.00000000000E+00  0.11909616993E+04  0.11909616993E+04  0.25500000920E-02 0. -1.
       -2   -1    0    0    0  501  0.00000000000E+00  0.00000000000E+00 -0.62386861538E+03  0.62386861538E+03  0.25500000920E-02 0.  1.
    10030    2    1    2    0    0  0.00000000000E+00  0.00000000000E+00  0.56709308395E+03  0.18148303147E+04  0.17239531622E+04 0.  0.
        5    1    3    3  502    0 -0.28747123279E+03  0.26886213820E+03 -0.52372478593E+03  0.65516127818E+03  0.46999998093E+01 0.  1.
       -5    1    3    3    0  502  0.28747123279E+03 -0.26886213820E+03  0.10908178699E+04  0.11596690365E+04  0.46999998093E+01 0. -1.
</event>
<event>
 5   0  0.1474012E-05  0.2628498E+04  0.7818609E-02  0.8358585E-01
        1   -1    0    0  501    0  0.00000000000E+00  0.00000000000E+00  0.11125935235E+04  0.11125935235E+04  0.50400001928E-02 0. -1.
       -1   -1    0    0    0  501  0.00000000000E+00  0.00000000000E+00 -0.15524539178E+04  0.15524539178E+04  0.50400001928E-02 0.  1.
    10030    2    1    2    0    0  0.00000000000E+00  0.00000000000E+00 -0.43986039427E+03  0.26650474413E+04  0.26284978025E+04 0.  0.
        2    1    3    3  502    0 -0.12033238787E+04  0.28211181472E+03  0.23313311070E+03  0.12577465883E+04  0.25500000920E-02 0.  1.
       -2    1    3    3    0  502  0.12033238787E+04 -0.28211181472E+03 -0.67299350497E+03  0.14073008530E+04  0.25500000920E-02 0. -1.
</event>
<event>
 5   0  0.1438701E-05  0.2727579E+04  0.7818609E-02  0.8326112E-01
        1   -1    0    0  501    0  0.00000000000E+00  0.00000000000E+00  0.10259847897E+04  0.10259847897E+04  0.50400001928E-02 0.  1.
       -1   -1    0    0    0  501  0.00000000000E+00  0.00000000000E+00 -0.18128157575E+04  0.18128157575E+04  0.50400001928E-02 0. -1.
    10030    2    1    2    0    0  0.00000000000E+00  0.00000000000E+00 -0.78683096783E+03  0.28388005472E+04  0.27275787018E+04 0.  0.
        4    1    3    3  502    0  0.75469995942E+03 -0.21278363553E+03 -0.15547427614E+04  0.17412856088E+04  0.12699999809E+01 0. -1.
       -4    1    3    3    0  502 -0.75469995942E+03  0.21278363553E+03  0.76791179359E+03  0.10975149384E+04  0.12699999809E+01 0.  1.
</event>
<event>
 5   0  0.3514294E-05  0.2455239E+04  0.7818609E-02  0.8419108E-01
       -2   -1    0    0    0  501  0.00000000000E+00  0.00000000000E+00  0.86421247030E+03  0.86421247031E+03  0.25500000920E-02 0. -1.
        2   -1    0    0  501    0  0.00000000000E+00  0.00000000000E+00 -0.17438418775E+04  0.17438418775E+04  0.25500000920E-02 0.  1.
    10030    2    1    2    0    0  0.00000000000E+00  0.00000000000E+00 -0.87962940715E+03  0.26080543478E+04  0.24552392118E+04 0.  0.
        2    1    3    3  502    0  0.47101661706E+03 -0.71571727256E+03  0.49407650513E+03  0.98904977667E+03  0.25500000920E-02 0. -1.
       -2    1    3    3    0  502 -0.47101661706E+03  0.71571727256E+03 -0.13737059123E+04  0.16190045711E+04  0.25500000920E-02 0.  1.
</event>
<event>
 5   0  0.3568647E-05  0.2720626E+04  0.7818609E-02  0.8328344E-01
        2   -1    0    0  501    0  0.00000000000E+00  0.00000000000E+00  0.14973530463E+04  0.14973530463E+04  0.25500000920E-02 0.  1.
       -2   -1    0    0    0  501  0.00000000000E+00  0.00000000000E+00 -0.12358148682E+04  0.12358148682E+04  0.25500000920E-02 0. -1.
    10030    2    1    2    0    0  0.00000000000E+00  0.00000000000E+00  0.26153817818E+03  0.27331679145E+04  0.27206257792E+04 0.  0.
        3    1    3    3  502    0 -0.12649134169E+04  0.20710570714E+03  0.58844853279E+03  0.14103795277E+04  0.10100000352E+00 0.  1.
       -3    1    3    3    0  502  0.12649134169E+04 -0.20710570714E+03 -0.32691035462E+03  0.13227883868E+04  0.10100000352E+00 0. -1.
</event>
<event>
 5   0  0.1484379E-05  0.2258575E+04  0.7818609E-02  0.8494436E-01
        1   -1    0    0  501    0  0.00000000000E+00  0.00000000000E+00  0.14040650916E+04  0.14040650916E+04  0.50400001928E-02 0.  1.
       -1   -1    0    0    0  501  0.00000000000E+00  0.00000000000E+00 -0.90828454776E+03  0.90828454777E+03  0.50400001928E-02 0. -1.
    10030    2    1    2    0    0  0.00000000000E+00  0.00000000000E+00  0.49578054380E+03  0.23123496393E+04  0.22585753268E+04 0.  0.
        1    1    3    3  502    0 -0.59152530326E+03 -0.77804396670E+03  0.82707667621E+03  0.12803555861E+04  0.50400001928E-02 0.  1.
       -1    1    3    3    0  502  0.59152530326E+03  0.77804396670E+03 -0.33129613242E+03  0.10319940532E+04  0.50400001928E-02 0. -1.
</event>
<event>
 5   0  0.3497949E-05  0.2644485E+04  0.7818609E-02  0.8353246E-01
       -2   -1    0    0    0  501  0.00000000000E+00  0.00000000000E+00  0.10442859449E+04  0.10442859449E+04  0.25500000920E-02 0. -1.
        2   -1    0    0  501    0  0.00000000000E+00  0.00000000000E+00 -0.16741821560E+04  0.16741821560E+04  0.25500000920E-02 0.  1.
    10030    2    1    2    0    0  0.00000000000E+00  0.00000000000E+00 -0.62989621117E+03  0.27184681009E+04  0.26444847473E+04 0.  0.
        5    1    3    3  502    0 -0.11826393098E+04  0.58524674827E+03 -0.22800468283E+03  0.13390883910E+04  0.46999998093E+01 0. -1.
       -5    1    3    3    0  502  0.11826393098E+04 -0.58524674827E+03 -0.40189152834E+03  0.13793797099E+04  0.46999998093E+01 0.  1.
</event>
<event>
 5   0  0.1438701E-05  0.2730327E+04  0.7818609E-02  0.8325232E-01
       -1   -1    0    0    0  501  0.00000000000E+00  0.00000000000E+00  0.18217514588E+04  0.18217514588E+04  0.50400001928E-02 0.  1.
        1   -1    0    0  501    0  0.00000000000E+00  0.00000000000E+00 -0.10230106859E+04  0.10230106859E+04  0.50400001928E-02 0. -1.
    10030    2    1    2    0    0  0.00000000000E+00  0.00000000000E+00  0.79874077295E+03  0.28447621447E+04  0.27303268737E+04 0.  0.
        4    1    3    3  502    0 -0.13560719736E+04  0.10749843561E+03  0.27974317978E+03  0.13887926306E+04  0.12699999809E+01 0.  1.
       -4    1    3    3    0  502  0.13560719736E+04 -0.10749843561E+03  0.51899759317E+03  0.14559695141E+04  0.12699999809E+01 0. -1.
</event>
<event>
 5   0  0.1495517E-05  0.1852947E+04  0.7818609E-02  0.8678639E-01
       -1   -1    0    0    0  501  0.00000000000E+00  0.00000000000E+00  0.10148038535E+04  0.10148038535E+04  0.50400001928E-02 0. -1.
        1   -1    0    0  501    0  0.00000000000E+00  0.00000000000E+00 -0.84583195057E+03  0.84583195058E+03  0.50400001928E-02 0.  1.
    10030    2    1    2    0    0  0.00000000000E+00  0.00000000000E+00  0.16897190291E+03  0.18606358041E+04  0.18529474065E+04 0.  0.
        5    1    3    3  502    0  0.11172599167E+03 -0.25826514871E+03 -0.80187011013E+03  0.84982430406E+03  0.46999998093E+01 0.  1.
       -5    1    3    3    0  502 -0.11172599167E+03  0.25826514871E+03  0.97084201305E+03  0.10108115000E+04  0.46999998093E+01 0. -1.
</event>
<event>
 5   0  0.3514294E-05  0.2735602E+04  0.7818609E-02  0.8323545E-01
        2   -1    0    0  501    0  0.00000000000E+00  0.00000000000E+00  0.20973925979E+04  0.20973925979E+04  0.25500000920E-02 0. -1.
       -2   -1    0    0    0  501  0.00000000000E+00  0.00000000000E+00 -0.89200287675E+03  0.89200287675E+03  0.25500000920E-02 0.  1.
    10030    2    1    2    0    0  0.00000000000E+00  0.00000000000E+00  0.12053897211E+04  0.29893954746E+04  0.27356024791E+04 0.  0.
        2    1    3    3  502    0 -0.23199898466E+03  0.36567278008E+03 -0.81510954423E+03  0.92300795233E+03  0.25500000920E-02 0.  1.
       -2    1    3    3    0  502  0.23199898466E+03 -0.36567278008E+03  0.20204992653E+04  0.20663875223E+04  0.25500000920E-02 0. -1.
</event>
<event>
 5   0  0.1484379E-05  0.2709924E+04  0.7818609E-02  0.8331792E-01
       -1   -1    0    0    0  501  0.00000000000E+00  0.00000000000E+00  0.10197627416E+04  0.10197627416E+04  0.50400001928E-02 0.  1.
        1   -1    0    0  501    0  0.00000000000E+00  0.00000000000E+00 -0.18003417108E+04  0.18003417108E+04  0.50400001928E-02 0. -1.
    10030    2    1    2    0    0  0.00000000000E+00  0.00000000000E+00 -0.78057896913E+03  0.28201044524E+04  0.27099235405E+04 0.  0.
        1    1    3    3  502    0 -0.10939415292E+04 -0.10777196305E+03 -0.12147106192E+04  0.16382444121E+04  0.50400001928E-02 0. -1.
       -1    1    3    3    0  502  0.10939415292E+04  0.10777196305E+03  0.43413165004E+03  0.11818600403E+04  0.50400001928E-02 0.  1.
</event>
<event>
 5   0  0.1474012E-05  0.2616692E+04  0.7818609E-02  0.8362553E-01
       -1   -1    0    0    0  501  0.00000000000E+00  0.00000000000E+00  0.63873226468E+03  0.63873226470E+03  0.50400001928E-02 0.  1.
        1   -1    0    0  501    0  0.00000000000E+00  0.00000000000E+00 -0.26799482922E+04  0.26799482922E+04  0.50400001928E-02 0. -1.
    10030    2    1    2    0    0  0.00000000000E+00  0.00000000000E+00 -0.20412160275E+04  0.33186805569E+04  0.26166921423E+04 0.  0.
        2    1    3    3  502    0  0.10897349508E+03  0.12858494618E+04 -0.74716236433E+03  0.14911524602E+04  0.25500000920E-02 0. -1.
       -2    1    3    3    0  502 -0.10897349508E+03 -0.12858494618E+04 -0.12940536632E+04  0.18275280967E+04  0.25500000920E-02 0.  1.
</event>
<event>
 5   0  0.3497949E-05  0.2745471E+04  0.7818609E-02  0.8320400E-01
        2   -1    0    0  501    0  0.00000000000E+00  0.00000000000E+00  0.15411101374E+04  0.15411101374E+04  0.25500000920E-02 0.  1.
       -2   -1    0    0    0  501  0.00000000000E+00  0.00000000000E+00 -0.12227569279E+04  0.12227569279E+04  0.25500000920E-02 0. -1.
    10030    2    1    2    0    0  0.00000000000E+00  0.00000000000E+00  0.31835320951E+03  0.27638670654E+04  0.27454712508E+04 0.  0.
        5    1    3    3  502    0  0.11092615740E+03  0.37268747928E+03  0.14845008401E+04  0.15345896532E+04  0.46999998093E+01 0.  1.
       -5    1    3    3    0  502 -0.11092615740E+03 -0.37268747928E+03 -0.11661476306E+04  0.12292774121E+04  0.46999998093E+01 0. -1.
</event>
<event>
 5   0  0.3676724E-05  0.2684410E+04  0.7818609E-02  0.8340081E-01
        2   -1    0    0  501    0  0.00000000000E+00  0.00000000000E+00  0.18624204171E+04  0.18624204171E+04  0.25500000920E-02 0. -1.
       -2   -1    0    0    0  501  0.00000000000E+00  0.00000000000E+00 -0.96729728418E+03  0.96729728418E+03  0.25500000920E-02 0.  1.
    10030    2    1    2    0    0  0.00000000000E+00  0.00000000000E+00  0.89512313291E+03  0.28297177013E+04  0.26844099623E+04 0.  0.
        4    1    3    3  502    0  0.11019318657E+04 -0.84523117413E+02  0.12504425455E+04  0.16688337743E+04  0.12699999809E+01 0.  1.
       -4    1    3    3    0  502 -0.11019318657E+04  0.84523117413E+02 -0.35531941255E+03  0.11608839269E+04  0.12699999809E+01 0. -1.
</event>
<event>
 5   0  0.1474012E-05  0.2766946E+04  0.7818609E-02  0.8313604E-01
       -1   -1    0    0    0  501  0.00000000000E+00  0.00000000000E+00  0.15299811529E+04  0.15299811529E+04  0.50400001928E-02 0. -1.
        1   -1    0    0  501    0  0.00000000000E+00  0.00000000000E+00 -0.12509940504E+04  0.12509940504E+04  0.50400001928E-02 0.  1.
    10030    2    1    2    0    0  0.00000000000E+00  0.00000000000E+00  0.27898710246E+03  0.27809752033E+04  0.27669458394E+04 0.  0.
        2    1    3    3  502    0 -0.40091522130E+03 -0.20540105459E+03 -0.11752194103E+04  0.12585957533E+04  0.25500000920E-02 0.  1.
       -2    1    3    3    0  502  0.40091522130E+03  0.20540105459E+03  0.14542065128E+04  0.15223794500E+04  0.25500000920E-02 0. -1.
</event>
<event>
 5   0  0.1449521E-05  0.2729812E+04  0.7818609E-02  0.8325396E-01
        1   -1    0    0  501    0  0.00000000000E+00  0.00000000000E+00  0.15698672764E+04  0.15698672764E+04  0.50400001928E-02 0.  1.
       -1   -1    0    0    0  501  0.00000000000E+00  0.00000000000E+00 -0.11867044245E+04  0.11867044245E+04  0.50400001928E-02 0. -1.
    10030    2    1    2    0    0  0.00000000000E+00  0.00000000000E+00  0.38316285193E+03  0.27565717009E+04  0.27298120395E+04 0.  0.
        3    1    3    3  502    0 -0.12541041438E+04  0.49101963474E+03 -0.32155287871E+02  0.13471864971E+04  0.10100000352E+00 0. -1.
       -3    1    3    3    0  502  0.12541041438E+04 -0.49101963474E+03  0.41531813980E+03  0.14093852038E+04  0.10100000352E+00 0.  1.
</event>
<event>
 5   0  0.1474012E-05  0.2710775E+04  0.7818609E-02  0.8331517E-01
       -1   -1    0    0    0  501  0.00000000000E+00  0.00000000000E+00  0.17895622985E+04  0.17895622985E+04  0.50400001928E-02 0.  1.
        1   -1    0    0  501    0  0.00000000000E+00  0.00000000000E+00 -0.10265499843E+04  0.10265499844E+04  0.50400001928E-02 0. -1.
    10030    2    1    2    0    0  0.00000000000E+00  0.00000000000E+00  0.76301231412E+03  0.28161122828E+04  0.27107749073E+04 0.  0.
        2    1    3    3  502    0  0.62247355490E+03 -0.94135643657E+03 -0.39829550443E+03  0.11967725666E+04  0.25500000920E-02 0. -1.
       -2    1    3    3    0  502 -0.62247355490E+03  0.94135643657E+03  0.11613078185E+04  0.16193397163E+04  0.25500000920E-02 0.  1.
</event>
<event>
 5   0  0.3568647E-05  0.2459435E+04  0.7818609E-02  0.8417581E-01
        2   -1    0    0  501    0  0.00000000000E+00  0.00000000000E+00  0.13793272269E+04  0.13793272269E+04  0.25500000920E-02 0. -1.
       -2   -1    0    0    0  501  0.00000000000E+00  0.00000000000E+00 -0.10963354844E+04  0.10963354844E+04  0.25500000920E-02 0.  1.
    10030    2    1    2    0    0  0.00000000000E+00  0.00000000000E+00  0.28299174246E+03  0.24756627113E+04  0.24594352062E+04 0.  0.
        3    1    3    3  502    0  0.43660822099E+03  0.10474745558E+04  0.61830437241E+03  0.12923350923E+04  0.10100000352E+00 0. -1.
       -3    1    3    3    0  502 -0.43660822099E+03 -0.10474745558E+04 -0.33531262996E+03  0.11833276189E+04  0.10100000352E+00 0.  1.
</event>
<event>
 5   0  0.1495517E-05  0.2006215E+04  0.7818609E-02  0.8603720E-01
       -1   -1    0    0    0  501  0.00000000000E+00  0.00000000000E+00  0.13809619064E+04  0.13809619064E+04  0.50400001928E-02 0.  1.
        1   -1    0    0  501    0  0.00000000000E+00  0.00000000000E+00 -0.72864041867E+03  0.72864041868E+03  0.50400001928E-02 0. -1.
    10030    2    1    2    0    0  0.00000000000E+00  0.00000000000E+00  0.65232148771E+03  0.21096023251E+04  0.20062150051E+04 0.  0.
        5    1    3    3  502    0 -0.73987744428E+03  0.45844597567E+03 -0.19814364025E+03  0.89267818240E+03  0.46999998093E+01 0. -1.
       -5    1    3    3    0  502  0.73987744428E+03 -0.45844597567E+03  0.85046512796E+03  0.12169241427E+04  0.46999998093E+01 0.  1.
</event>
<event>
 5   0  0.1438701E-05  0.2674352E+04  0.7818609E-02  0.8343375E-01
        1   -1    0    0  501    0  0.00000000000E+00  0.00000000000E+00  0.13090740577E+04  0.13090740577E+04  0.50400001928E-02 0. -1.
       -1   -1    0    0    0  501  0.00000000000E+00  0.00000000000E+00 -0.13658809832E+04  0.13658809832E+04  0.50400001928E-02 0.  1.
    10030    2    1    2    0    0  0.00000000000E+00  0.00000000000E+00 -0.56806925534E+02  0.26749550409E+04  0.26743517802E+04 0.  0.
        4    1    3    3  502    0 -0.53336915184E+03  0.11330766926E+04 -0.49722264878E+03  0.13474336417E+04  0.12699999809E+01 0.  1.
       -4    1    3    3    0  502  0.53336915184E+03 -0.11330766926E+04  0.44041572325E+03  0.13275213993E+04  0.12699999809E+01 0. -1.
</event>
<event>
 5   0  0.1449521E-05  0.1405890E+04  0.7818609E-02  0.8949566E-01
        1   -1    0    0  501    0  0.00000000000E+00  0.00000000000E+00  0.60198699216E+03  0.60198699218E+03  0.50400001928E-02 0.  1.
       -1   -1    0    0    0  501  0.00000000000E+00  0.00000000000E+00 -0.82083397660E+03  0.82083397662E+03  0.50400001928E-02 0. -1.
    10030    2    1    2    0    0  0.00000000000E+00  0.00000000000E+00 -0.21884698445E+03  0.14228209688E+04  0.14058895784E+04 0.  0.
        3    1    3    3  502    0 -0.12171973940E+03 -0.11620787493E+03 -0.80014678630E+03  0.81765203784E+03  0.10100000352E+00 0. -1.
       -3    1    3    3    0  502  0.12171973940E+03  0.11620787493E+03  0.58129980186E+03  0.60516893096E+03  0.10100000352E+00 0.  1.
</event>
<event>
 5   0  0.3652331E-05  0.3269622E+04  0.7818609E-02  0.8170668E-01
       -2   -1    0    0    0  501  0.00000000000E+00  0.00000000000E+00  0.16952552162E+04  0.16952552162E+04  0.25500000920E-02 0.  1.
        2   -1    0    0  501    0  0.00000000000E+00  0.00000000000E+00 -0.15765216459E+04  0.15765216459E+04  0.25500000920E-02 0. -1.
    10030    2    1    2    0    0  0.00000000000E+00  0.00000000000E+00  0.11873357029E+03  0.32717768620E+04  0.32696217173E+04 0.  0.
        1    1    3    3  502    0  0.41601103231E+03 -0.79260405365E+03  0.14282305194E+04  0.16855648256E+04  0.50400001928E-02 0.  1.
       -1    1    3    3    0  502 -0.41601103231E+03  0.79260405365E+03 -0.13094969491E+04  0.15862120364E+04  0.50400001928E-02 0. -1.
</event>
<event>
 5   0  0.1484379E-05  0.2650773E+04  0.7818609E-02  0.8351157E-01
       -1   -1    0    0    0  501  0.00000000000E+00  0.00000000000E+00  0.76876128471E+03  0.76876128472E+03  0.50400001928E-02 0.  1.
        1   -1    0    0  501    0  0.00000000000E+00  0.00000000000E+00 -0.22850384805E+04  0.22850384805E+04  0.50400001928E-02 0. -1.
    10030    2    1    2    0    0  0.00000000000E+00  0.00000000000E+00 -0.15162771958E+04  0.30537997652E+04  0.26507728065E+04 0.  0.
        1    1    3    3  502    0  0.48755189198E+03 -0.77237297994E+03  0.34829032311E+03  0.97753415117E+03  0.50400001928E-02 0.  1.
       -1    1    3    3    0  502 -0.48755189198E+03  0.77237297994E+03 -0.18645675189E+04  0.20762656140E+04  0.50400001928E-02 0. -1.
</event>
<event>
 5   0  0.3568647E-05  0.2601198E+04  0.7818609E-02  0.8367794E-01
        2   -1    0    0  501    0  0.00000000000E+00  0.00000000000E+00  0.19938483715E+04  0.19938483715E+04  0.25500000920E-02 0.  1.
       -2   -1    0    0    0  501  0.00000000000E+00  0.00000000000E+00 -0.84838854428E+03  0.84838854429E+03  0.25500000920E-02 0. -1.
    10030    2    1    2    0    0  0.00000000000E+00  0.00000000000E+00  0.11454598272E+04  0.28422369158E+04  0.26011982757E+04 0.  0.
        3    1    3    3  502    0 -0.42532483174E+03  0.11223060058E+04  0.11202476278E+04  0.16417754843E+04  0.10100000352E+00 0.  1.
       -3    1    3    3    0  502  0.42532483174E+03 -0.11223060058E+04  0.25212199441E+02  0.12004614315E+04  0.10100000352E+00 0. -1.
</event>
<event>
 5   0  0.3568647E-05  0.2723008E+04  0.7818609E-02  0.8327578E-01
       -2   -1    0    0    0  501  0.00000000000E+00  0.00000000000E+00  0.10786210893E+04  0.10786210893E+04  0.25500000920E-02 0.  1.
        2   -1    0    0  501    0  0.00000000000E+00  0.00000000000E+00 -0.17185773098E+04  0.17185773098E+04  0.25500000920E-02 0. -1.
    10030    2    1    2    0    0  0.00000000000E+00  0.00000000000E+00 -0.63995622055E+03  0.27971983991E+04  0.27230084319E+04 0.  0.
        3    1    3    3  502    0 -0.29913393226E+03 -0.76975258526E+03  0.79196177278E+03  0.11442043575E+04  0.10100000352E+00 0.  1.
       -3    1    3    3    0  502  0.29913393226E+03  0.76975258526E+03 -0.14319179933E+04  0.16529940417E+04  0.10100000352E+00 0. -1.
</event>
<event>
 5   0  0.3676724E-05  0.2718572E+04  0.7818609E-02  0.8329004E-01
        2   -1    0    0  501    0  0.00000000000E+00  0.00000000000E+00  0.16956274554E+04  0.16956274554E+04  0.25500000920E-02 0.  1.
       -2   -1    0    0    0  501  0.00000000000E+00  0.00000000000E+00 -0.10896608911E+04  0.10896608911E+04  0.25500000920E-02 0. -1.
    10030    2    1    2    0    0  0.00000000000E+00  0.00000000000E+00  0.60596656424E+03  0.27852883465E+04  0.27185723636E+04 0.  0.
        4    1    3    3  502    0  0.36082040511E+03  0.12754762701E+04 -0.54464404113E+01  0.13255422879E+04  0.12699999809E+01 0. -1.
       -4    1    3    3    0  502 -0.36082040511E+03 -0.12754762701E+04  0.61141300466E+03  0.14597460586E+04  0.12699999809E+01 0.  1.
</event>
<event>
 5   0  0.1449521E-05  0.2795484E+04  0.7818609E-02  0.8304672E-01
       -1   -1    0    0    0  501  0.00000000000E+00  0.00000000000E+00  0.10246312795E+04  0.10246312795E+04  0.50400001928E-02 0.  1.
        1   -1    0    0  501    0  0.00000000000E+00  0.00000000000E+00 -0.19067176319E+04  0.19067176319E+04  0.50400001928E-02 0. -1.
    10030    2    1    2    0    0  0.00000000000E+00  0.00000000000E+00 -0.88208635233E+03  0.29313489114E+04  0.27954838771E+04 0.  0.
        3    1    3    3  502    0 -0.35800726549E+03 -0.13107864426E+04 -0.78461380550E+03  0.15690599524E+04  0.10100000352E+00 0. -1.
       -3    1    3    3    0  502  0.35800726549E+03  0.13107864426E+04 -0.97472546836E+02  0.13622889590E+04  0.10100000352E+00 0.  1.
</event>
<event>
 5   0  0.3676724E-05  0.2679444E+04  0.7818609E-02  0.8341706E-01
        2   -1    0    0  501    0  0.00000000000E+00  0.00000000000E+00  0.12466244775E+04  0.12466244775E+04  0.25500000920E-02 0. -1.
       -2   -1    0    0    0  501  0.00000000000E+00  0.00000000000E+00 -0.14397717884E+04  0.14397717884E+04  0.25500000920E-02 0.  1.
    10030    2    1    2    0    0  0.00000000000E+00  0.00000000000E+00 -0.19314731092E+03  0.26863962659E+04  0.26794437881E+04 0.  0.
        4    1    3    3  502    0  0.12958806089E+04  0.10121161007E+03 -0.42191958710E+03  0.13665899507E+04  0.12699999809E+01 0.  1.
       -4    1    3    3    0  502 -0.12958806089E+04 -0.10121161007E+03  0.22877227617E+03  0.13198063152E+04  0.12699999809E+01 0. -1.
</event>
<event>
 5   0  0.1495517E-05  0.2500113E+04  0.7818609E-02  0.8402945E-01
        1   -1    0    0  501    0  0.00000000000E+00  0.00000000000E+00  0.10308792854E+04  0.10308792854E+04  0.50400001928E-02 0. -1.
       -1   -1    0    0    0  501  0.00000000000E+00  0.00000000000E+00 -0.15158338856E+04  0.15158338856E+04  0.50400001928E-02 0.  1.
    10030    2    1    2    0    0  0.00000000000E+00  0.00000000000E+00 -0.48495460013E+03  0.25467131710E+04  0.25001133997E+04 0.  0.
        5    1    3    3  502    0  0.12250479575E+04  0.15898765999E+03 -0.47599936972E+02  0.12362473127E+04  0.46999998093E+01 0.  1.
       -5    1    3    3    0  502 -0.12250479575E+04 -0.15898765999E+03 -0.43735466316E+03  0.13104658583E+04  0.46999998093E+01 0. -1.
</event>
<event>
 5   0  0.3652331E-05  0.2683510E+04  0.7818609E-02  0.8340375E-01
        2   -1    0    0  501    0  0.00000000000E+00  0.00000000000E+00  0.16175948064E+04  0.16175948064E+04  0.25500000920E-02 0. -1.
       -2   -1    0    0    0  501  0.00000000000E+00  0.00000000000E+00 -0.11129525876E+04  0.11129525876E+04  0.25500000920E-02 0.  1.
    10030    2    1    2    0    0  0.00000000000E+00  0.00000000000E+00  0.50464221882E+03  0.27305473939E+04  0.26835098848E+04 0.  0.
        1    1    3    3  502    0 -0.36733250898E+03 -0.60909308492E+03 -0.90532871358E+03  0.11513242975E+04  0.50400001928E-02 0.  1.
       -1    1    3    3    0  502  0.36733250898E+03  0.60909308492E+03  0.14099709324E+04  0.15792230965E+04  0.50400001928E-02 0. -1.
</event>
<event>
 5   0  0.1474012E-05  0.1751948E+04  0.7818609E-02  0.8732279E-01
       -1   -1    0    0    0  501  0.00000000000E+00  0.00000000000E+00  0.51966477572E+03  0.51966477574E+03  0.50400001928E-02 0. -1.
        1   -1    0    0  501    0  0.00000000000E+00  0.00000000000E+00 -0.14765880437E+04  0.14765880437E+04  0.50400001928E-02 0.  1.
    10030    2    1    2    0    0  0.00000000000E+00  0.00000000000E+00 -0.95692326796E+03  0.19962528194E+04  0.17519483949E+04 0.  0.
        2    1    3    3  502    0  0.74894316743E+03  0.24639745494E+03 -0.43522175977E+02  0.78963393648E+03  0.25500000920E-02 0.  1.
       -2    1    3    3    0  502 -0.74894316743E+03 -0.24639745494E+03 -0.91340109198E+03  0.12066188829E+04  0.25500000920E-02 0. -1.
</event>
<event>
 5   0  0.3497949E-05  0.2428246E+04  0.7818609E-02  0.8429004E-01
        2   -1    0    0  501    0  0.00000000000E+00  0.00000000000E+00  0.18269385226E+04  0.18269385226E+04  0.25500000920E-02 0. -1.
       -2   -1    0    0    0  501  0.00000000000E+00  0.00000000000E+00 -0.80686594361E+03  0.80686594362E+03  0.25500000920E-02 0.  1.
    10030    2    1    2    0    0  0.00000000000E+00  0.00000000000E+00  0.10200725790E+04  0.26338044662E+04  0.24282458483E+04 0.  0.
        5    1    3    3  502    0  0.23768745023E+03  0.23993074083E+02 -0.78111167097E+03  0.81684057448E+03  0.46999998093E+01 0.  1.
       -5    1    3    3    0  502 -0.23768745023E+03 -0.23993074083E+02  0.18011842500E+04  0.18169638918E+04  0.46999998093E+01 0. -1.
</event>
<event>
 5   0  0.1449521E-05  0.2695950E+04  0.7818609E-02  0.8336320E-01
        1   -1    0    0  501    0  0.00000000000E+00  0.00000000000E+00  0.62753403665E+03  0.62753403667E+03  0.50400001928E-02 0. -1.
       -1   -1    0    0    0  501  0.00000000000E+00  0.00000000000E+00 -0.28955179657E+04  0.28955179657E+04  0.50400001928E-02 0.  1.
    10030    2    1    2    0    0  0.00000000000E+00  0.00000000000E+00 -0.22679839291E+04  0.35230520024E+04  0.26959496117E+04 0.  0.
        3    1    3    3  502    0  0.32781195523E+03  0.84224222964E+03  0.17293539450E+03  0.92018439035E+03  0.10100000352E+00 0. -1.
       -3    1    3    3    0  502 -0.32781195523E+03 -0.84224222964E+03 -0.24409193236E+04  0.26028676120E+04  0.10100000352E+00 0.  1.
</event>
<event>
 5   0  0.1449521E-05  0.2630951E+04  0.7818609E-02  0.8357763E-01
       -1   -1    0    0    0  501  0.00000000000E+00  0.00000000000E+00  0.81812775775E+03  0.81812775776E+03  0.50400001928E-02 0.  1.
        1   -1    0    0  501    0  0.00000000000E+00  0.00000000000E+00 -0.21151656015E+04  0.21151656015E+04  0.50400001928E-02 0. -1.
    10030    2    1    2    0    0  0.00000000000E+00  0.00000000000E+00 -0.12970378437E+04  0.29332933592E+04  0.26309509238E+04 0.  0.
        3    1    3    3  502    0  0.61000311817E+02  0.65259291936E+03  0.62311144463E+03  0.90435968457E+03  0.10100000352E+00 0.  1.
       -3    1    3    3    0  502 -0.61000311817E+02 -0.65259291936E+03 -0.19201492883E+04  0.20289336747E+04  0.10100000352E+00 0. -1.
</event>
<event>
 5   0  0.1228050E-05  0.2757429E+04  0.7818609E-02  0.8316608E-01
        3   -1    0    0  501    0  0.00000000000E+00  0.00000000000E+00  0.14067203005E+04  0.14067203041E+04  0.10100000352E+00 0.  1.
       -3   -1    0    0    0  501  0.00000000000E+00  0.00000000000E+00 -0.13512664509E+04  0.13512664547E+04  0.10100000352E+00 0. -1.
    10030    2    1    2    0    0  0.00000000000E+00  0.00000000000E+00  0.55453849587E+02  0.27579867588E+04  0.27574292071E+04 0.  0.
        1    1    3    3  502    0 -0.11673860911E+04  0.41316182440E+01  0.76139184147E+03  0.13937449165E+04  0.50400001928E-02 0.  1.
       -1    1    3    3    0  502  0.11673860911E+04 -0.41316182440E+01 -0.70593799189E+03  0.13642418423E+04  0.50400001928E-02 0. -1.
</event>
<event>
 5   0  0.1484379E-05  0.2449965E+04  0.7818609E-02  0.8421031E-01
       -1   -1    0    0    0  501  0.00000000000E+00  0.00000000000E+00  0.80051934947E+03  0.80051934949E+03  0.50400001928E-02 0.  1.
        1   -1    0    0  501    0  0.00000000000E+00  0.00000000000E+00 -0.18745113871E+04  0.18745113871E+04  0.50400001928E-02 0. -1.
    10030    2    1    2    0    0  0.00000000000E+00  0.00000000000E+00 -0.10739920377E+04  0.26750307366E+04  0.24499654171E+04 0.  0.
        1    1    3    3  502    0 -0.38819281120E+03  0.97292748508E+02  0.72712826450E+03  0.82998497013E+03  0.50400001928E-02 0.  1.
       -1    1    3    3    0  502  0.38819281120E+03 -0.97292748508E+02 -0.18011203022E+04  0.18450457665E+04  0.50400001928E-02 0. -1.
</event>
<event>
 5   0  0.1474012E-05  0.2716970E+04  0.7818609E-02  0.8329520E-01
        1   -1    0    0  501    0  0.00000000000E+00  0.00000000000E+00  0.15940519127E+04  0.15940519127E+04  0.50400001928E-02 0.  1.
       -1   -1    0    0    0  501  0.00000000000E+00  0.00000000000E+00 -0.11577301956E+04  0.11577301956E+04  0.50400001928E-02 0. -1.
    10030    2    1    2    0    0  0.00000000000E+00  0.00000000000E+00  0.43632171715E+03  0.27517821083E+04  0.27169703957E+04 0.  0.
        2    1    3    3  502    0 -0.39408477964E+03  0.67652177861E+03 -0.90624256735E+03  0.11976059959E+04  0.25500000920E-02 0.  1.
       -2    1    3    3    0  502  0.39408477964E+03 -0.67652177861E+03  0.13425642845E+04  0.15541761124E+04  0.25500000920E-02 0. -1.
</event>
<event>
 5   0  0.1495517E-05  0.2626709E+04  0.7818609E-02  0.8359185E-01
        1   -1    0    0  501    0  0.00000000000E+00  0.00000000000E+00  0.21261288687E+04  0.21261288687E+04  0.50400001928E-02 0. -1.
       -1   -1    0    0    0  501  0.00000000000E+00  0.00000000000E+00 -0.81128653425E+03  0.81128653426E+03  0.50400001928E-02 0.  1.
    10030    2    1    2    0    0  0.00000000000E+00  0.00000000000E+00  0.13148423344E+04  0.29374154030E+04  0.26267087553E+04 0.  0.
        5    1    3    3  502    0  0.12376059358E+04  0.39440869306E+03  0.87441204858E+03  0.15658368977E+04  0.46999998093E+01 0.  1.
       -5    1    3    3    0  502 -0.12376059358E+04 -0.39440869306E+03  0.44043028586E+03  0.13715785053E+04  0.46999998093E+01 0. -1.
</event>
<event>
 5   0  0.3497949E-05  0.2519948E+04  0.7818609E-02  0.8395913E-01
        2   -1    0    0  501    0  0.00000000000E+00  0.00000000000E+00  0.83975096678E+03  0.83975096678E+03  0.25500000920E-02 0. -1.
       -2   -1    0    0    0  501  0.00000000000E+00  0.00000000000E+00 -0.18904829478E+04  0.18904829478E+04  0.25500000920E-02 0.  1.
    10030    2    1    2    0    0  0.00000000000E+00  0.00000000000E+00 -0.10507319810E+04  0.27302339146E+04  0.25199483194E+04 0.  0.
        5    1    3    3  502    0 -0.92770100417E+03  0.85257439248E+03 -0.52456594680E+03  0.13648090600E+04  0.46999998093E+01 0. -1.
       -5    1    3    3    0  502  0.92770100417E+03 -0.85257439248E+03 -0.52616603424E+03  0.13654248546E+04  0.46999998093E+01 0.  1.
</event>
<event>
 5   0  0.1495517E-05  0.2682531E+04  0.7818609E-02  0.8340695E-01
        1   -1    0    0  501    0  0.00000000000E+00  0.00000000000E+00  0.20367482756E+04  0.20367482756E+04  0.50400001928E-02 0.  1.
       -1   -1    0    0    0  501  0.00000000000E+00  0.00000000000E+00 -0.88326754042E+03  0.88326754044E+03  0.50400001928E-02 0. -1.
    10030    2    1    2    0    0  0.00000000000E+00  0.00000000000E+00  0.11534807352E+04  0.29200158161E+04  0.26825313716E+04 0.  0.
        5    1    3    3  502    0 -0.12520294344E+04 -0.47670809191E+03  0.50667386216E+03  0.14323298510E+04  0.46999998093E+01 0. -1.
       -5    1    3    3    0  502  0.12520294344E+04  0.47670809191E+03  0.64680687304E+03  0.14876859650E+04  0.46999998093E+01 0.  1.
</event>
<event>
 5   0  0.3652331E-05  0.2706831E+04  0.7818609E-02  0.8332792E-01
        2   -1    0    0  501    0  0.00000000000E+00  0.00000000000E+00  0.17504651150E+04  0.17504651150E+04  0.25500000920E-02 0. -1.
       -2   -1    0    0    0  501  0.00000000000E+00  0.00000000000E+00 -0.10464269286E+04  0.10464269286E+04  0.25500000920E-02 0.  1.
    10030    2    1    2    0    0  0.00000000000E+00  0.00000000000E+00  0.70403818639E+03  0.27968920435E+04  0.27068312351E+04 0.  0.
        1    1    3    3  502    0 -0.31966771286E+03  0.39702943251E+03  0.16474937384E+04  0.17245449936E+04  0.50400001928E-02 0. -1.
       -1    1    3    3    0  502  0.31966771286E+03 -0.39702943251E+03 -0.94345555199E+03  0.10723470499E+04  0.50400001928E-02 0.  1.
</event>
<event>
 5   0  0.1484379E-05  0.2696010E+04  0.7818609E-02  0.8336301E-01
       -1   -1    0    0    0  501  0.00000000000E+00  0.00000000000E+00  0.11288468081E+04  0.11288468081E+04  0.50400001928E-02 0.  1.
        1   -1    0    0  501    0  0.00000000000E+00  0.00000000000E+00 -0.16097108951E+04  0.16097108951E+04  0.50400001928E-02 0. -1.
    10030    2    1    2    0    0  0.00000000000E+00  0.00000000000E+00 -0.48086408699E+03  0.27385577032E+04  0.26960096483E+04 0.  0.
        1    1    3    3  502    0  0.12889471808E+04  0.24647645487E+03 -0.55348660107E+03  0.14242481859E+04  0.50400001928E-02 0.  1.
       -1    1    3    3    0  502 -0.12889471808E+04 -0.24647645487E+03  0.72622514079E+02  0.13143095173E+04  0.50400001928E-02 0. -1.
</event>
<event>
 5   0  0.3676724E-05  0.2939183E+04  0.7818609E-02  0.8261314E-01
        2   -1    0    0  501    0  0.00000000000E+00  0.00000000000E+00  0.88219631025E+03  0.88219631026E+03  0.25500000920E-02 0. -1.
       -2   -1    0    0    0  501  0.00000000000E+00  0.00000000000E+00 -0.24480928868E+04  0.24480928868E+04  0.25500000920E-02 0.  1.
    10030    2    1    2    0    0  0.00000000000E+00  0.00000000000E+00 -0.15658965766E+04  0.33302891971E+04  0.29391825475E+04 0.  0.
        4    1    3    3  502    0 -0.83622336903E+03 -0.85513239707E+03  0.18459757248E+03  0.12102061048E+04  0.12699999809E+01 0. -1.
       -4    1    3    3    0  502  0.83622336903E+03  0.85513239707E+03 -0.17504941490E+04  0.21200830923E+04  0.12699999809E+01 0.  1.
</event>
<event>
 5   0  0.3568647E-05  0.2683996E+04  0.7818609E-02  0.8340216E-01
       -2   -1    0    0    0  501  0.00000000000E+00  0.00000000000E+00  0.14553144463E+04  0.14553144463E+04  0.25500000920E-02 0. -1.
        2   -1    0    0  501    0  0.00000000000E+00  0.00000000000E+00 -0.12375047231E+04  0.12375047231E+04  0.25500000920E-02 0.  1.
    10030    2    1    2    0    0  0.00000000000E+00  0.00000000000E+00  0.21780972326E+03  0.26928191694E+04  0.26839959023E+04 0.  0.
        3    1    3    3  502    0  0.85392229984E+03 -0.76311970448E+03  0.81079276369E+03  0.14031820600E+04  0.10100000352E+00 0. -1.
       -3    1    3    3    0  502 -0.85392229984E+03  0.76311970448E+03 -0.59298304043E+03  0.12896371094E+04  0.10100000352E+00 0.  1.
</event>
<event>
 5   0  0.1449521E-05  0.2411278E+04  0.7818609E-02  0.8435293E-01
       -1   -1    0    0    0  501  0.00000000000E+00  0.00000000000E+00  0.59084689453E+03  0.59084689456E+03  0.50400001928E-02 0.  1.
        1   -1    0    0  501    0  0.00000000000E+00  0.00000000000E+00 -0.24601391830E+04  0.24601391830E+04  0.50400001928E-02 0. -1.
    10030    2    1    2    0    0  0.00000000000E+00  0.00000000000E+00 -0.18692922884E+04  0.30509860775E+04  0.24112781643E+04 0.  0.
        3    1    3    3  502    0 -0.88728205947E+03 -0.68615315617E+03 -0.14940882668E+04  0.18682546309E+04  0.10100000352E+00 0.  1.
       -3    1    3    3    0  502  0.88728205947E+03  0.68615315617E+03 -0.37520402168E+03  0.11827314466E+04  0.10100000352E+00 0. -1.
</event>
<event>
 5   0  0.1495517E-05  0.2641760E+04  0.7818609E-02  0.8354153E-01
       -1   -1    0    0    0  501  0.00000000000E+00  0.00000000000E+00  0.68678243258E+03  0.68678243260E+03  0.50400001928E-02 0.  1.
        1   -1    0    0  501    0  0.00000000000E+00  0.00000000000E+00 -0.25404315443E+04  0.25404315443E+04  0.50400001928E-02 0. -1.
    10030    2    1    2    0    0  0.00000000000E+00  0.00000000000E+00 -0.18536491117E+04  0.32272139769E+04  0.26417598345E+04 0.  0.
        5    1    3    3  502    0 -0.85966260859E+03  0.36321446850E+03  0.21507996293E+03  0.95771918180E+03  0.46999998093E+01 0.  1.
       -5    1    3    3    0  502  0.85966260859E+03 -0.36321446850E+03 -0.20687290746E+04  0.22694947951E+04  0.46999998093E+01 0. -1.
</event>
<event>
 5   0  0.1228050E-05  0.2741616E+04  0.7818609E-02  0.8321627E-01
        3   -1    0    0  501    0  0.00000000000E+00  0.00000000000E+00  0.17765053140E+04  0.17765053169E+04  0.10100000352E+00 0.  1.
       -3   -1    0    0    0  501  0.00000000000E+00  0.00000000000E+00 -0.10577586621E+04  0.10577586669E+04  0.10100000352E+00 0. -1.
    10030    2    1    2    0    0  0.00000000000E+00  0.00000000000E+00  0.71874665192E+03  0.28342639838E+04  0.27416155055E+04 0.  0.
        5    1    3    3  502    0  0.10372661565E+04  0.32265563679E+02  0.12852561717E+04  0.16519284679E+04  0.46999998093E+01 0.  1.
       -5    1    3    3    0  502 -0.10372661565E+04 -0.32265563679E+02 -0.56650951977E+03  0.11823355159E+04  0.46999998093E+01 0. -1.
</event>
<event>
 5   0  0.1438701E-05  0.1930013E+04  0.7818609E-02  0.8640059E-01
        1   -1    0    0  501    0  0.00000000000E+00  0.00000000000E+00  0.97359688278E+03  0.97359688280E+03  0.50400001928E-02 0. -1.
       -1   -1    0    0    0  501  0.00000000000E+00  0.00000000000E+00 -0.95649236434E+03  0.95649236436E+03  0.50400001928E-02 0.  1.
    10030    2    1    2    0    0  0.00000000000E+00  0.00000000000E+00  0.17104518439E+02  0.19300892472E+04  0.19300134552E+04 0.  0.
        4    1    3    3  502    0 -0.60846230292E+03  0.64212806241E+03  0.39415986620E+03  0.96846189168E+03  0.12699999809E+01 0. -1.
       -4    1    3    3    0  502  0.60846230292E+03 -0.64212806241E+03 -0.37705534777E+03  0.96162735547E+03  0.12699999809E+01 0.  1.
</event>
<event>
 5   0  0.3568647E-05  0.2637823E+04  0.7818609E-02  0.8355466E-01
       -2   -1    0    0    0  501  0.00000000000E+00  0.00000000000E+00  0.15760631520E+04  0.15760631520E+04  0.25500000920E-02 0. -1.
        2   -1    0    0  501    0  0.00000000000E+00  0.00000000000E+00 -0.11037169121E+04  0.11037169121E+04  0.25500000920E-02 0.  1.
    10030    2    1    2    0    0  0.00000000000E+00  0.00000000000E+00  0.47234623982E+03  0.26797800641E+04  0.26378230080E+04 0.  0.
        3    1    3    3  502    0 -0.88042746842E+03 -0.98199504548E+03  0.22825499970E+03  0.13384943599E+04  0.10100000352E+00 0.  1.
       -3    1    3    3    0  502  0.88042746842E+03  0.98199504548E+03  0.24409124013E+03  0.13412857042E+04  0.10100000352E+00 0. -1.
</event>
<event>
 5   0  0.3514294E-05  0.2689005E+04  0.7818609E-02  0.8338581E-01
        2   -1    0    0  501    0  0.00000000000E+00  0.00000000000E+00  0.18975395694E+04  0.18975395694E+04  0.25500000920E-02 0. -1.
       -2   -1    0    0    0  501  0.00000000000E+00  0.00000000000E+00 -0.95264811123E+03  0.95264811124E+03  0.25500000920E-02 0.  1.
    10030    2    1    2    0    0  0.00000000000E+00  0.00000000000E+00  0.94489145816E+03  0.28501876806E+04  0.26890053825E+04 0.  0.
        2    1    3    3  502    0 -0.51999486139E+03  0.12316070076E+04  0.62397288179E+03  0.14753279752E+04  0.25500000920E-02 0. -1.
       -2    1    3    3    0  502  0.51999486139E+03 -0.12316070076E+04  0.32091857637E+03  0.13748597055E+04  0.25500000920E-02 0.  1.
</event>
<event>
 5   0  0.3568647E-05  0.2589194E+04  0.7818609E-02  0.8371881E-01
       -2   -1    0    0    0  501  0.00000000000E+00  0.00000000000E+00  0.11690579364E+04  0.11690579364E+04  0.25500000920E-02 0.  1.
        2   -1    0    0  501    0  0.00000000000E+00  0.00000000000E+00 -0.14336170629E+04  0.14336170629E+04  0.25500000920E-02 0. -1.
    10030    2    1    2    0    0  0.00000000000E+00  0.00000000000E+00 -0.26455912650E+03  0.26026749993E+04  0.25891940098E+04 0.  0.
        3    1    3    3  502    0  0.75350367269E+03 -0.65482242218E+03 -0.96084134198E+03  0.13855599171E+04  0.10100000352E+00 0. -1.
       -3    1    3    3    0  502 -0.75350367269E+03  0.65482242218E+03  0.69628221548E+03  0.12171150821E+04  0.10100000352E+00 0.  1.
</event>
<event>
 5   0  0.3514294E-05  0.2736892E+04  0.7818609E-02  0.8323133E-01
       -2   -1    0    0    0  501  0.00000000000E+00  0.00000000000E+00  0.75058128471E+03  0.75058128472E+03  0.25500000920E-02 0.  1.
        2   -1    0    0  501    0  0.00000000000E+00  0.00000000000E+00 -0.24949258338E+04  0.24949258338E+04  0.25500000920E-02 0. -1.
    10030    2    1    2    0    0  0.00000000000E+00  0.00000000000E+00 -0.17443445491E+04  0.32455071185E+04  0.27368921335E+04 0.  0.
        2    1    3    3  502    0  0.10721975857E+04 -0.40769690182E+03 -0.17570482010E+04  0.20983428717E+04  0.25500000920E-02 0. -1.
       -2    1    3    3    0  502 -0.10721975857E+04  0.40769690182E+03  0.12703651902E+02  0.11471642469E+04  0.25500000920E-02 0.  1.
</event>
<event>
 5   0  0.3568647E-05  0.2803839E+04  0.7818609E-02  0.8302078E-01
       -2   -1    0    0    0  501  0.00000000000E+00  0.00000000000E+00  0.12605786088E+04  0.12605786088E+04  0.25500000920E-02 0. -1.
        2   -1    0    0  501    0  0.00000000000E+00  0.00000000000E+00 -0.15591077666E+04  0.15591077666E+04  0.25500000920E-02 0.  1.
    10030    2    1    2    0    0  0.00000000000E+00  0.00000000000E+00 -0.29852915783E+03  0.28196863754E+04  0.28038387253E+04 0.  0.
        3    1    3    3  502    0  0.42740864424E+03  0.12668732827E+04 -0.57322994162E+03  0.14547297480E+04  0.10100000352E+00 0.  1.
       -3    1    3    3    0  502 -0.42740864424E+03 -0.12668732827E+04  0.27470078379E+03  0.13649566273E+04  0.10100000352E+00 0. -1.
</event>
<event>
 5   0  0.3497949E-05  0.2723107E+04  0.7818609E-02  0.8327546E-01
        2   -1    0    0  501    0  0.00000000000E+00  0.00000000000E+00  0.23072842744E+04  0.23072842744E+04  0.25500000920E-02 0.  1.
       -2   -1    0    0    0  501  0.00000000000E+00  0.00000000000E+00 -0.80346776938E+03  0.80346776939E+03  0.25500000920E-02 0. -1.
    10030    2    1    2    0    0  0.00000000000E+00  0.00000000000E+00  0.15038165051E+04  0.31107520438E+04  0.27231074524E+04 0.  0.
        5    1    3    3  502    0 -0.92753540831E+02  0.13583682490E+04  0.75903676504E+03  0.15588221258E+04  0.46999998093E+01 0. -1.
       -5    1    3    3    0  502  0.92753540831E+02 -0.13583682490E+04  0.74477974001E+03  0.15519299180E+04  0.46999998093E+01 0.  1.
</event>
<event>
 5   0  0.3676724E-05  0.2683112E+04  0.7818609E-02  0.8340505E-01
       -2   -1    0    0    0  501  0.00000000000E+00  0.00000000000E+00  0.85823462200E+03  0.85823462201E+03  0.25500000920E-02 0. -1.
        2   -1    0    0  501    0  0.00000000000E+00  0.00000000000E+00 -0.20970632322E+04  0.20970632322E+04  0.25500000920E-02 0.  1.
    10030    2    1    2    0    0  0.00000000000E+00  0.00000000000E+00 -0.12388286102E+04  0.29552978542E+04  0.26831118280E+04 0.  0.
        4    1    3    3  502    0 -0.87386022558E+03  0.10098199768E+04 -0.47834954257E+03  0.14185161181E+04  0.12699999809E+01 0.  1.
       -4    1    3    3    0  502  0.87386022558E+03 -0.10098199768E+04 -0.76047906764E+03  0.15367817362E+04  0.12699999809E+01 0. -1.
</event>
<event>
 5   0  0.3676724E-05  0.2675585E+04  0.7818609E-02  0.8342970E-01
        2   -1    0    0  501    0  0.00000000000E+00  0.00000000000E+00  0.23859193896E+04  0.23859193896E+04  0.25500000920E-02 0.  1.
       -2   -1    0    0    0  501  0.00000000000E+00  0.00000000000E+00 -0.75010472508E+03  0.75010472509E+03  0.25500000920E-02 0. -1.
    10030    2    1    2    0    0  0.00000000000E+00  0.00000000000E+00  0.16358146646E+04  0.31360241147E+04  0.26755854745E+04 0.  0.
        4    1    3    3  502    0  0.44785365404E+03 -0.12192527661E+04  0.11932276895E+04  0.17637868734E+04  0.12699999809E+01 0.  1.
       -4    1    3    3    0  502 -0.44785365404E+03  0.12192527661E+04  0.44258697504E+03  0.13722372413E+04  0.12699999809E+01 0. -1.
</event>
<event>
 5   0  0.1484379E-05  0.2549074E+04  0.7818609E-02  0.8385708E-01
       -1   -1    0    0    0  501  0.00000000000E+00  0.00000000000E+00  0.12303226035E+04  0.12303226035E+04  0.50400001928E-02 0.  1.
        1   -1    0    0  501    0  0.00000000000E+00  0.00000000000E+00 -0.13203401897E+04  0.13203401897E+04  0.50400001928E-02 0. -1.
    10030    2    1    2    0    0  0.00000000000E+00  0.00000000000E+00 -0.90017586263E+02  0.25506627932E+04  0.25490738551E+04 0.  0.
        1    1    3    3  502    0  0.42562607005E+03 -0.72906667503E+03  0.91044168881E+03  0.12416117899E+04  0.50400001928E-02 0. -1.
       -1    1    3    3    0  502 -0.42562607005E+03  0.72906667503E+03 -0.10004592751E+04  0.13090510033E+04  0.50400001928E-02 0.  1.
</event>
<event>
 5   0  0.3514294E-05  0.2764254E+04  0.7818609E-02  0.8314453E-01
        2   -1    0    0  501    0  0.00000000000E+00  0.00000000000E+00  0.19349336575E+04  0.19349336575E+04  0.25500000920E-02 0. -1.
       -2   -1    0    0    0  501  0.00000000000E+00  0.00000000000E+00 -0.98725611243E+03  0.98725611243E+03  0.25500000920E-02 0.  1.
    10030    2    1    2    0    0  0.00000000000E+00  0.00000000000E+00  0.94767754509E+03  0.29221897700E+04  0.27642540263E+04 0.  0.
        2    1    3    3  502    0 -0.13469644841E+04 -0.27276735201E+03  0.31861718153E+03  0.14107559173E+04  0.25500000920E-02 0. -1.
       -2    1    3    3    0  502  0.13469644841E+04  0.27276735201E+03  0.62906036356E+03  0.15114338526E+04  0.25500000920E-02 0.  1.
</event>
<event>
 5   0  0.1495517E-05  0.2510286E+04  0.7818609E-02  0.8399330E-01
       -1   -1    0    0    0  501  0.00000000000E+00  0.00000000000E+00  0.75780910759E+03  0.75780910761E+03  0.50400001928E-02 0.  1.
        1   -1    0    0  501    0  0.00000000000E+00  0.00000000000E+00 -0.20788667888E+04  0.20788667888E+04  0.50400001928E-02 0. -1.
    10030    2    1    2    0    0  0.00000000000E+00  0.00000000000E+00 -0.13210576812E+04  0.28366758964E+04  0.25102861877E+04 0.  0.
        5    1    3    3  502    0  0.97462449402E+03 -0.44660130617E+02 -0.15527980099E+04  0.18338732730E+04  0.46999998093E+01 0. -1.
       -5    1    3    3    0  502 -0.97462449402E+03  0.44660130617E+02  0.23174032874E+03  0.10028026234E+04  0.46999998093E+01 0.  1.
</event>
<event>
 5   0  0.1438701E-05  0.1928612E+04  0.7818609E-02  0.8640744E-01
        1   -1    0    0  501    0  0.00000000000E+00  0.00000000000E+00  0.12335173291E+04  0.12335173291E+04  0.50400001928E-02 0. -1.
       -1   -1    0    0    0  501  0.00000000000E+00  0.00000000000E+00 -0.75384942101E+03  0.75384942102E+03  0.50400001928E-02 0.  1.
    10030    2    1    2    0    0  0.00000000000E+00  0.00000000000E+00  0.47966790812E+03  0.19873667502E+04  0.19286122725E+04 0.  0.
        4    1    3    3  502    0 -0.55576263339E+03 -0.57954408095E+02  0.10496860028E+04  0.11891480713E+04  0.12699999809E+01 0. -1.
       -4    1    3    3    0  502  0.55576263339E+03  0.57954408095E+02 -0.57001809469E+03  0.79821867885E+03  0.12699999809E+01 0.  1.
</event>
<event>
 5   0  0.1495517E-05  0.2234684E+04  0.7818609E-02  0.8504129E-01
        1   -1    0    0  501    0  0.00000000000E+00  0.00000000000E+00  0.11990027192E+04  0.11990027192E+04  0.50400001928E-02 0. -1.
       -1   -1    0    0    0  501  0.00000000000E+00  0.00000000000E+00 -0.10412430457E+04  0.10412430457E+04  0.50400001928E-02 0.  1.
    10030    2    1    2    0    0  0.00000000000E+00  0.00000000000E+00  0.15775967346E+03  0.22402457650E+04  0.22346840879E+04 0.  0.
        5    1    3    3  502    0 -0.19802717259E+03 -0.53172302047E+02 -0.10222112077E+04  0.10425832811E+04  0.46999998093E+01 0.  1.
       -5    1    3    3    0  502  0.19802717259E+03  0.53172302047E+02  0.11799708812E+04  0.11976624839E+04  0.46999998093E+01 0. -1.
</event>
<event>
 5   0  0.3652331E-05  0.2749245E+04  0.7818609E-02  0.8319201E-01
       -2   -1    0    0    0  501  0.00000000000E+00  0.00000000000E+00  0.10520199730E+04  0.10520199730E+04  0.25500000920E-02 0. -1.
        2   -1    0    0  501    0  0.00000000000E+00  0.00000000000E+00 -0.17961508945E+04  0.17961508945E+04  0.25500000920E-02 0.  1.
    10030    2    1    2    0    0  0.00000000000E+00  0.00000000000E+00 -0.74413092152E+03  0.28481708675E+04  0.27492447075E+04 0.  0.
        1    1    3    3  502    0  0.11489308772E+04  0.62800840595E+03 -0.80563382447E+03  0.15373622142E+04  0.50400001928E-02 0.  1.
       -1    1    3    3    0  502 -0.11489308772E+04 -0.62800840595E+03  0.61502902949E+02  0.13108086533E+04  0.50400001928E-02 0. -1.
</event>
<event>
 5   0  0.3568647E-05  0.1568690E+04  0.7818609E-02  0.8840017E-01
       -2   -1    0    0    0  501  0.00000000000E+00  0.00000000000E+00  0.54806725814E+03  0.54806725814E+03  0.25500000920E-02 0. -1.
        2   -1    0    0  501    0  0.00000000000E+00  0.00000000000E+00 -0.11224850609E+04  0.11224850609E+04  0.25500000920E-02 0.  1.
    10030    2    1    2    0    0  0.00000000000E+00  0.00000000000E+00 -0.57441780280E+03  0.16705523191E+04  0.15686902940E+04 0.  0.
        3    1    3    3  502    0 -0.87034794151E+02 -0.11936660914E+03 -0.11075360338E+04  0.11173448524E+04  0.10100000352E+00 0.  1.
       -3    1    3    3    0  502  0.87034794151E+02  0.11936660914E+03  0.53311823101E+03  0.55320746669E+03  0.10100000352E+00 0. -1.
</event>
<event>
 5   0  0.3497949E-05  0.2522374E+04  0.7818609E-02  0.8395058E-01
        2   -1    0    0  501    0  0.00000000000E+00  0.00000000000E+00  0.13054472255E+04  0.13054472255E+04  0.25500000920E-02 0. -1.
       -2   -1    0    0    0  501  0.00000000000E+00  0.00000000000E+00 -0.12184272313E+04  0.12184272313E+04  0.25500000920E-02 0.  1.
    10030    2    1    2    0    0  0.00000000000E+00  0.00000000000E+00  0.87019994200E+02  0.25238744568E+04  0.25223738411E+04 0.  0.
        5    1    3    3  502    0  0.27731268553E+01  0.60925332345E+03 -0.10613992080E+04  0.12238413586E+04  0.46999998093E+01 0.  1.
       -5    1    3    3    0  502 -0.27731268553E+01 -0.60925332345E+03  0.11484192022E+04  0.13000330982E+04  0.46999998093E+01 0. -1.
</event>
<event>
 5   0  0.1495517E-05  0.2815911E+04  0.7818609E-02  0.8298346E-01
        1   -1    0    0  501    0  0.00000000000E+00  0.00000000000E+00  0.11220607377E+04  0.11220607377E+04  0.50400001928E-02 0. -1.
       -1   -1    0    0    0  501  0.00000000000E+00  0.00000000000E+00 -0.17666950506E+04  0.17666950506E+04  0.50400001928E-02 0.  1.
    10030    2    1    2    0    0  0.00000000000E+00  0.00000000000E+00 -0.64463431283E+03  0.28887557883E+04  0.28159113280E+04 0.  0.
        5    1    3    3  502    0  0.20296069509E+03  0.10307664524E+04  0.63929171380E+03  0.12297920590E+04  0.46999998093E+01 0. -1.
       -5    1    3    3    0  502 -0.20296069509E+03 -0.10307664524E+04 -0.12839260266E+04  0.16589637293E+04  0.46999998093E+01 0.  1.
</event>
<event>
 5   0  0.3568647E-05  0.2207686E+04  0.7818609E-02  0.8515236E-01
       -2   -1    0    0    0  501  0.00000000000E+00  0.00000000000E+00  0.11371137039E+04  0.11371137039E+04  0.25500000920E-02 0.  1.
        2   -1    0    0  501    0  0.00000000000E+00  0.00000000000E+00 -0.10715454331E+04  0.10715454331E+04  0.25500000920E-02 0. -1.
    10030    2    1    2    0    0  0.00000000000E+00  0.00000000000E+00  0.65568270847E+02  0.22086591371E+04  0.22076856628E+04 0.  0.
        3    1    3    3  502    0 -0.59541050368E+03  0.82515065626E+03 -0.39528502646E+03  0.10916215167E+04  0.10100000352E+00 0. -1.
       -3    1    3    3    0  502  0.59541050368E+03 -0.82515065626E+03  0.46085329731E+03  0.11170376203E+04  0.10100000352E+00 0.  1.
</event>
<event>
 5   0  0.3676724E-05  0.2634171E+04  0.7818609E-02  0.8356686E-01
        2   -1    0    0  501    0  0.00000000000E+00  0.00000000000E+00  0.14833716550E+04  0.14833716550E+04  0.25500000920E-02 0.  1.
       -2   -1    0    0    0  501  0.00000000000E+00  0.00000000000E+00 -0.11694400901E+04  0.11694400901E+04  0.25500000920E-02 0. -1.
    10030    2    1    2    0    0  0.00000000000E+00  0.00000000000E+00  0.31393156489E+03  0.26528117451E+04  0.26341710513E+04 0.  0.
        4    1    3    3  502    0 -0.10640365806E+04 -0.77177148757E+03  0.73265697699E+02  0.13165008732E+04  0.12699999809E+01 0. -1.
       -4    1    3    3    0  502  0.10640365806E+04  0.77177148757E+03  0.24066586719E+03  0.13363108719E+04  0.12699999809E+01 0.  1.
</event>
<event>
 5   0  0.3497949E-05  0.2700543E+04  0.7818609E-02  0.8334829E-01
       -2   -1    0    0    0  501  0.00000000000E+00  0.00000000000E+00  0.69998511248E+03  0.69998511248E+03  0.25500000920E-02 0. -1.
        2   -1    0    0  501    0  0.00000000000E+00  0.00000000000E+00 -0.26046745670E+04  0.26046745670E+04  0.25500000920E-02 0.  1.
    10030    2    1    2    0    0  0.00000000000E+00  0.00000000000E+00 -0.19046894545E+04  0.33046596795E+04  0.27005432193E+04 0.  0.
        5    1    3    3  502    0 -0.16340967836E+03 -0.18556662592E+02  0.68767334743E+03  0.70708118026E+03  0.46999998093E+01 0. -1.
       -5    1    3    3    0  502  0.16340967836E+03  0.18556662592E+02 -0.25923628020E+04  0.25975784993E+04  0.46999998093E+01 0.  1.
</event>
<event>
 5   0  0.1495517E-05  0.2681980E+04  0.7818609E-02  0.8340876E-01
       -1   -1    0    0    0  501  0.00000000000E+00  0.00000000000E+00  0.90490955000E+03  0.90490955002E+03  0.50400001928E-02 0. -1.
        1   -1    0    0  501    0  0.00000000000E+00  0.00000000000E+00 -0.19872195290E+04  0.19872195290E+04  0.50400001928E-02 0.  1.
    10030    2    1    2    0    0  0.00000000000E+00  0.00000000000E+00 -0.10823099790E+04  0.28921290790E+04  0.26819798133E+04 0.  0.
        5    1    3    3  502    0 -0.13407679434E+04 -0.34554736978E+01 -0.56670136722E+03  0.14556246590E+04  0.46999998093E+01 0.  1.
       -5    1    3    3    0  502  0.13407679434E+04  0.34554736978E+01 -0.51560861177E+03  0.14365044200E+04  0.46999998093E+01 0. -1.
</event>
<event>
 5   0  0.3568647E-05  0.2646433E+04  0.7818609E-02  0.8352598E-01
       -2   -1    0    0    0  501  0.00000000000E+00  0.00000000000E+00  0.69944796806E+03  0.69944796806E+03  0.25500000920E-02 0. -1.
        2   -1    0    0  501    0  0.00000000000E+00  0.00000000000E+00 -0.25032631055E+04  0.25032631055E+04  0.25500000920E-02 0.  1.
    10030    2    1    2    0    0  0.00000000000E+00  0.00000000000E+00 -0.18038151374E+04  0.32027110736E+04  0.26464332923E+04 0.  0.
        3    1    3    3  502    0  0.14267878119E+03  0.84558160585E+03 -0.21214716974E+04  0.22882324313E+04  0.10100000352E+00 0.  1.
       -3    1    3    3    0  502 -0.14267878119E+03 -0.84558160585E+03  0.31765655998E+03  0.91447864221E+03  0.10100000352E+00 0. -1.
</event>
<event>
 5   0  0.3652331E-05  0.2448394E+04  0.7818609E-02  0.8421605E-01
        2   -1    0    0  501    0  0.00000000000E+00  0.00000000000E+00  0.24968956751E+04  0.24968956751E+04  0.25500000920E-02 0. -1.
       -2   -1    0    0    0  501  0.00000000000E+00  0.00000000000E+00 -0.60020841143E+03  0.60020841143E+03  0.25500000920E-02 0.  1.
    10030    2    1    2    0    0  0.00000000000E+00  0.00000000000E+00  0.18966872637E+04  0.30971040865E+04  0.24483935849E+04 0.  0.
        1    1    3    3  502    0 -0.14231864452E+03 -0.84286174152E+03 -0.16019690857E+03  0.86967439966E+03  0.50400001928E-02 0.  1.
       -1    1    3    3    0  502  0.14231864452E+03  0.84286174152E+03  0.20568841722E+04  0.22274296869E+04  0.50400001928E-02 0. -1.
</event>
<event>
 5   0  0.3676724E-05  0.2795510E+04  0.7818609E-02  0.8304664E-01
       -2   -1    0    0    0  501  0.00000000000E+00  0.00000000000E+00  0.13217364575E+04  0.13217364575E+04  0.25500000920E-02 0.  1.
        2   -1    0    0  501    0  0.00000000000E+00  0.00000000000E+00 -0.14781452093E+04  0.14781452093E+04  0.25500000920E-02 0. -1.
    10030    2    1    2    0    0  0.00000000000E+00  0.00000000000E+00 -0.15640875179E+03  0.27998816668E+04  0.27955095511E+04 0.  0.
        4    1    3    3  502    0  0.44822231235E+03 -0.11203025005E+04 -0.78481174871E+03  0.14394137792E+04  0.12699999809E+01 0. -1.
       -4    1    3    3    0  502 -0.44822231235E+03  0.11203025005E+04  0.62840299691E+03  0.13604678876E+04  0.12699999809E+01 0.  1.
</event>
<event>
 5   0  0.3652331E-05  0.2687443E+04  0.7818609E-02  0.8339091E-01
        2   -1    0    0  501    0  0.00000000000E+00  0.00000000000E+00  0.30896345167E+04  0.30896345167E+04  0.25500000920E-02 0. -1.
       -2   -1    0    0    0  501  0.00000000000E+00  0.00000000000E+00 -0.58440183151E+03  0.58440183152E+03  0.25500000920E-02 0.  1.
    10030    2    1    2    0    0  0.00000000000E+00  0.00000000000E+00  0.25052326852E+04  0.36740363482E+04  0.26874434471E+04 0.  0.
        1    1    3    3  502    0 -0.97592498315E+03  0.81757801961E+03  0.18401957614E+04  0.22376737544E+04  0.50400001928E-02 0. -1.
       -1    1    3    3    0  502  0.97592498315E+03 -0.81757801961E+03  0.66503692379E+03  0.14363625938E+04  0.50400001928E-02 0.  1.
</event>
<event>
 5   0  0.3568647E-05  0.2692174E+04  0.7818609E-02  0.8337549E-01
        2   -1    0    0  501    0  0.00000000000E+00  0.00000000000E+00  0.10938320272E+04  0.10938320272E+04  0.25500000920E-02 0.  1.
       -2   -1    0    0    0  501  0.00000000000E+00  0.00000000000E+00 -0.16565157327E+04  0.16565157327E+04  0.25500000920E-02 0. -1.
    10030    2    1    2    0    0  0.00000000000E+00  0.00000000000E+00 -0.56268370553E+03  0.27503477599E+04  0.26921738145E+04 0.  0.
        3    1    3    3  502    0 -0.58764098797E+03 -0.43379038828E+03 -0.14364617220E+04  0.16114956782E+04  0.10100000352E+00 0. -1.
       -3    1    3    3    0  502  0.58764098797E+03  0.43379038828E+03  0.87377801649E+03  0.11388520817E+04  0.10100000352E+00 0.  1.
</event>
<event>
 5   0  0.3514294E-05  0.2686670E+04  0.7818609E-02  0.8339343E-01
       -2   -1    0    0    0  501  0.00000000000E+00  0.00000000000E+00  0.99117763287E+03  0.99117763287E+03  0.25500000920E-02 0.  1.
        2   -1    0    0  501    0  0.00000000000E+00  0.00000000000E+00 -0.18206111637E+04  0.18206111637E+04  0.25500000920E-02 0. -1.
    10030    2    1    2    0    0  0.00000000000E+00  0.00000000000E+00 -0.82943353088E+03  0.28117887966E+04  0.26866701053E+04 0.  0.
        2    1    3    3  502    0  0.30617383375E+03  0.13279051292E+03 -0.17765347409E+04  0.18076093113E+04  0.25500000920E-02 0. -1.
       -2    1    3    3    0  502 -0.30617383375E+03 -0.13279051292E+03  0.94710120998E+03  0.10041794853E+04  0.25500000920E-02 0.  1.
</event>
<event>
 5   0  0.3652331E-05  0.2479032E+04  0.7818609E-02  0.8410494E-01
        2   -1    0    0  501    0  0.00000000000E+00  0.00000000000E+00  0.26781234623E+04  0.26781234623E+04  0.25500000920E-02 0. -1.
       -2   -1    0    0    0  501  0.00000000000E+00  0.00000000000E+00 -0.57368523576E+03  0.57368523576E+03  0.25500000920E-02 0.  1.
    10030    2    1    2    0    0  0.00000000000E+00  0.00000000000E+00  0.21044382265E+04  0.32518086981E+04  0.24790319803E+04 0.  0.
        1    1    3    3  502    0  0.73814706331E+03 -0.26300603328E+03 -0.20756071486E+03  0.81062612282E+03  0.50400001928E-02 0.  1.
       -1    1    3    3    0  502 -0.73814706331E+03  0.26300603328E+03  0.23119989414E+04  0.24411825752E+04  0.50400001928E-02 0. -1.
</event>
<event>
 5   0  0.3514294E-05  0.1986262E+04  0.7818609E-02  0.8613071E-01
        2   -1    0    0  501    0  0.00000000000E+00  0.00000000000E+00  0.10050251855E+04  0.10050251855E+04  0.25500000920E-02 0.  1.
       -2   -1    0    0    0  501  0.00000000000E+00  0.00000000000E+00 -0.98137767160E+03  0.98137767161E+03  0.25500000920E-02 0. -1.
    10030    2    1    2    0    0  0.00000000000E+00  0.00000000000E+00  0.23647513872E+02  0.19864028571E+04  0.19862620939E+04 0.  0.
        2    1    3    3  502    0  0.72921867181E+03  0.57343624547E+02  0.68363107782E+03  0.10011990877E+04  0.25500000920E-02 0.  1.
       -2    1    3    3    0  502 -0.72921867181E+03 -0.57343624547E+02 -0.65998356395E+03  0.98520376942E+03  0.25500000920E-02 0. -1.
</event>
<event>
 5   0  0.1484379E-05  0.2706474E+04  0.7818609E-02  0.8332907E-01
       -1   -1    0    0    0  501  0.00000000000E+00  0.00000000000E+00  0.98690655670E+03  0.98690655672E+03  0.50400001928E-02 0. -1.
        1   -1    0    0  501    0  0.00000000000E+00  0.00000000000E+00 -0.18555460104E+04  0.18555460104E+04  0.50400001928E-02 0.  1.
    10030    2    1    2    0    0  0.00000000000E+00  0.00000000000E+00 -0.86863945372E+03  0.28424525671E+04  0.27064741078E+04 0.  0.
        1    1    3    3  502    0  0.11980653622E+04 -0.51273050058E+03 -0.81733036450E+03  0.15382724411E+04  0.50400001928E-02 0.  1.
       -1    1    3    3    0  502 -0.11980653622E+04  0.51273050058E+03 -0.51309089227E+02  0.13041801260E+04  0.50400001928E-02 0. -1.
</event>
<event>
 5   0  0.1474012E-05  0.2756600E+04  0.7818609E-02  0.8316870E-01
        1   -1    0    0  501    0  0.00000000000E+00  0.00000000000E+00  0.10943629489E+04  0.10943629489E+04  0.50400001928E-02 0. -1.
       -1   -1    0    0    0  501  0.00000000000E+00  0.00000000000E+00 -0.17359062932E+04  0.17359062932E+04  0.50400001928E-02 0.  1.
    10030    2    1    2    0    0  0.00000000000E+00  0.00000000000E+00 -0.64154334432E+03  0.28302692422E+04  0.27566004644E+04 0.  0.
        2    1    3    3  502    0 -0.81883691621E+03 -0.41918290161E+03  0.73306154373E+03  0.11762599318E+04  0.25500000920E-02 0. -1.
       -2    1    3    3    0  502  0.81883691621E+03  0.41918290161E+03 -0.13746048881E+04  0.16540093103E+04  0.25500000920E-02 0.  1.
</event>
<event>
 5   0  0.1438701E-05  0.1914851E+04  0.7818609E-02  0.8647499E-01
       -1   -1    0    0    0  501  0.00000000000E+00  0.00000000000E+00  0.63667845680E+03  0.63667845682E+03  0.50400001928E-02 0. -1.
        1   -1    0    0  501    0  0.00000000000E+00  0.00000000000E+00 -0.14397593073E+04  0.14397593074E+04  0.50400001928E-02 0.  1.
    10030    2    1    2    0    0  0.00000000000E+00  0.00000000000E+00 -0.80308085055E+03  0.20764377642E+04  0.19148511524E+04 0.  0.
        4    1    3    3  502    0  0.85949988417E+03 -0.29285749909E+03 -0.72350136367E+02  0.91090159776E+03  0.12699999809E+01 0. -1.
       -4    1    3    3    0  502 -0.85949988417E+03  0.29285749909E+03 -0.73073071418E+03  0.11655361664E+04  0.12699999809E+01 0.  1.
</event>
<event>
 5   0  0.1495517E-05  0.2841470E+04  0.7818609E-02  0.8290508E-01
       -1   -1    0    0    0  501  0.00000000000E+00  0.00000000000E+00  0.11759571393E+04  0.11759571393E+04  0.50400001928E-02 0. -1.
        1   -1    0    0  501    0  0.00000000000E+00  0.00000000000E+00 -0.17164634016E+04  0.17164634016E+04  0.50400001928E-02 0.  1.
    10030    2    1    2    0    0  0.00000000000E+00  0.00000000000E+00 -0.54050626230E+03  0.28924205410E+04  0.28414696138E+04 0.  0.
        5    1    3    3  502    0  0.64954366747E+03 -0.15990755470E+03  0.10056122127E+04  0.12077894743E+04  0.46999998093E+01 0. -1.
       -5    1    3    3    0  502 -0.64954366747E+03  0.15990755470E+03 -0.15461184750E+04  0.16846310667E+04  0.46999998093E+01 0.  1.
</event>
<event>
 5   0  0.3568647E-05  0.2706100E+04  0.7818609E-02  0.8333028E-01
       -2   -1    0    0    0  501  0.00000000000E+00  0.00000000000E+00  0.96692865234E+03  0.96692865235E+03  0.25500000920E-02 0. -1.
        2   -1    0    0  501    0  0.00000000000E+00  0.00000000000E+00 -0.18933605923E+04  0.18933605923E+04  0.25500000920E-02 0.  1.
    10030    2    1    2    0    0  0.00000000000E+00  0.00000000000E+00 -0.92643193991E+03  0.28602892446E+04  0.27061002242E+04 0.  0.
        3    1    3    3  502    0  0.29629520429E+03 -0.62511247067E+02  0.93065194763E+03  0.97867847729E+03  0.10100000352E+00 0. -1.
       -3    1    3    3    0  502 -0.29629520429E+03  0.62511247067E+02 -0.18570838875E+04  0.18816107673E+04  0.10100000352E+00 0.  1.
</event>
<event>
 5   0  0.3568647E-05  0.1819128E+04  0.7818609E-02  0.8696193E-01
       -2   -1    0    0    0  501  0.00000000000E+00  0.00000000000E+00  0.60781419568E+03  0.60781419568E+03  0.25500000920E-02 0. -1.
        2   -1    0    0  501    0  0.00000000000E+00  0.00000000000E+00 -0.13611172710E+04  0.13611172710E+04  0.25500000920E-02 0.  1.
    10030    2    1    2    0    0  0.00000000000E+00  0.00000000000E+00 -0.75330307533E+03  0.19689314667E+04  0.18191277023E+04 0.  0.
        3    1    3    3  502    0  0.47466179912E+03  0.35752169048E+03 -0.11219657412E+04  0.12696191229E+04  0.10100000352E+00 0.  1.
       -3    1    3    3    0  502 -0.47466179912E+03 -0.35752169048E+03  0.36866266587E+03  0.69931234375E+03  0.10100000352E+00 0. -1.
</event>
<event>
 5   0  0.1449521E-05  0.2724775E+04  0.7818609E-02  0.8327011E-01
       -1   -1    0    0    0  501  0.00000000000E+00  0.00000000000E+00  0.13133787736E+04  0.13133787736E+04  0.50400001928E-02 0.  1.
        1   -1    0    0  501    0  0.00000000000E+00  0.00000000000E+00 -0.14132246613E+04  0.14132246613E+04  0.50400001928E-02 0. -1.
    10030    2    1    2    0    0  0.00000000000E+00  0.00000000000E+00 -0.99845887671E+02  0.27266034349E+04  0.27247746861E+04 0.  0.
        3    1    3    3  502    0  0.13213209782E+04 -0.31975832839E+03  0.39382381184E+02  0.13600314328E+04  0.10100000352E+00 0.  1.
       -3    1    3    3    0  502 -0.13213209782E+04  0.31975832839E+03 -0.13922826885E+03  0.13665720021E+04  0.10100000352E+00 0. -1.
</event>
<event>
 5   0  0.1438701E-05  0.2643384E+04  0.7818609E-02  0.8353612E-01
        1   -1    0    0  501    0  0.00000000000E+00  0.00000000000E+00  0.24842426941E+04  0.24842426941E+04  0.50400001928E-02 0. -1.
       -1   -1    0    0    0  501  0.00000000000E+00  0.00000000000E+00 -0.70317987633E+03  0.70317987634E+03  0.50400001928E-02 0.  1.
    10030    2    1    2    0    0  0.00000000000E+00  0.00000000000E+00  0.17810628177E+04  0.31874225704E+04  0.26433837939E+04 0.  0.
        4    1    3    3  502    0 -0.78954924912E+03 -0.10379185657E+04  0.11497244867E+04  0.17385427731E+04  0.12699999809E+01 0. -1.
       -4    1    3    3    0  502  0.78954924912E+03  0.10379185657E+04  0.63133833102E+03  0.14488797973E+04  0.12699999809E+01 0.  1.
</event>
<event>
 5   0  0.1495517E-05  0.2747192E+04  0.7818609E-02  0.8319853E-01
        1   -1    0    0  501    0  0.00000000000E+00  0.00000000000E+00  0.12933147535E+04  0.12933147535E+04  0.50400001928E-02 0. -1.
       -1   -1    0    0    0  501  0.00000000000E+00  0.00000000000E+00 -0.14588608724E+04  0.14588608725E+04  0.50400001928E-02 0.  1.
    10030    2    1    2    0    0  0.00000000000E+00  0.00000000000E+00 -0.16554611892E+03  0.27521756260E+04  0.27471922319E+04 0.  0.
        5    1    3    3  502    0  0.27430340842E+03 -0.58279071778E+03  0.11326287446E+04  0.13029801778E+04  0.46999998093E+01 0. -1.
       -5    1    3    3    0  502 -0.27430340842E+03  0.58279071778E+03 -0.12981748636E+04  0.14491954482E+04  0.46999998093E+01 0.  1.
</event>
<event>
 5   0  0.3676724E-05  0.2805953E+04  0.7818609E-02  0.8301422E-01
       -2   -1    0    0    0  501  0.00000000000E+00  0.00000000000E+00  0.14797451902E+04  0.14797451902E+04  0.25500000920E-02 0. -1.
        2   -1    0    0  501    0  0.00000000000E+00  0.00000000000E+00 -0.13301909633E+04  0.13301909633E+04  0.25500000920E-02 0.  1.
    10030    2    1    2    0    0  0.00000000000E+00  0.00000000000E+00  0.14955422690E+03  0.28099361535E+04  0.28059534422E+04 0.  0.
        4    1    3    3  502    0  0.44382487971E+03 -0.12820281976E+04  0.43272710389E+03  0.14240193758E+04  0.12699999809E+01 0. -1.
       -4    1    3    3    0  502 -0.44382487971E+03  0.12820281976E+04 -0.28317287699E+03  0.13859167776E+04  0.12699999809E+01 0.  1.
</event>
<event>
 5   0  0.3676724E-05  0.2716444E+04  0.7818609E-02  0.8329689E-01
       -2   -1    0    0    0  501  0.00000000000E+00  0.00000000000E+00  0.11652368599E+04  0.11652368599E+04  0.25500000920E-02 0. -1.
        2   -1    0    0  501    0  0.00000000000E+00  0.00000000000E+00 -0.15831692056E+04  0.15831692056E+04  0.25500000920E-02 0.  1.
    10030    2    1    2    0    0  0.00000000000E+00  0.00000000000E+00 -0.41793234565E+03  0.27484060655E+04  0.27164440829E+04 0.  0.
        4    1    3    3  502    0 -0.99254055340E+03  0.64797652928E+03 -0.87990913979E+03  0.14762289930E+04  0.12699999809E+01 0.  1.
       -4    1    3    3    0  502  0.99254055340E+03 -0.64797652928E+03  0.46197679414E+03  0.12721770725E+04  0.12699999809E+01 0. -1.
</event>
<event>
 5   0  0.3568647E-05  0.2758870E+04  0.7818609E-02  0.8316153E-01
        2   -1    0    0  501    0  0.00000000000E+00  0.00000000000E+00  0.20275430979E+04  0.20275430979E+04  0.25500000920E-02 0.  1.
       -2   -1    0    0    0  501  0.00000000000E+00  0.00000000000E+00 -0.93849569652E+03  0.93849569652E+03  0.25500000920E-02 0. -1.
    10030    2    1    2    0    0  0.00000000000E+00  0.00000000000E+00  0.10890474014E+04  0.29660387944E+04  0.27588696757E+04 0.  0.
        3    1    3    3  502    0 -0.92564700730E+03  0.88838784595E+03  0.10893155030E+04  0.16830518775E+04  0.10100000352E+00 0.  1.
       -3    1    3    3    0  502  0.92564700730E+03 -0.88838784595E+03 -0.26810164605E+00  0.12829869169E+04  0.10100000352E+00 0. -1.
</event>
<event>
 5   0  0.1484379E-05  0.2698653E+04  0.7818609E-02  0.8335442E-01
       -1   -1    0    0    0  501  0.00000000000E+00  0.00000000000E+00  0.14612418244E+04  0.14612418244E+04  0.50400001928E-02 0. -1.
        1   -1    0    0  501    0  0.00000000000E+00  0.00000000000E+00 -0.12459827408E+04  0.12459827408E+04  0.50400001928E-02 0.  1.
    10030    2    1    2    0    0  0.00000000000E+00  0.00000000000E+00  0.21525908365E+03  0.27072245652E+04  0.26986530665E+04 0.  0.
        1    1    3    3  502    0  0.26963731840E+03 -0.13186752296E+04  0.20318674235E+03  0.13612103059E+04  0.50400001928E-02 0. -1.
       -1    1    3    3    0  502 -0.26963731840E+03  0.13186752296E+04  0.12072341300E+02  0.13460142593E+04  0.50400001928E-02 0.  1.
</event>
<event>
 5   0  0.3676724E-05  0.1988264E+04  0.7818609E-02  0.8612127E-01
        2   -1    0    0  501    0  0.00000000000E+00  0.00000000000E+00  0.71464215455E+03  0.71464215455E+03  0.25500000920E-02 0.  1.
       -2   -1    0    0    0  501  0.00000000000E+00  0.00000000000E+00 -0.13829278322E+04  0.13829278322E+04  0.25500000920E-02 0. -1.
    10030    2    1    2    0    0  0.00000000000E+00  0.00000000000E+00 -0.66828567767E+03  0.20975699868E+04  0.19882640927E+04 0.  0.
        4    1    3    3  502    0  0.46494980734E+03 -0.35823075146E+03 -0.11806181079E+04  0.13184719656E+04  0.12699999809E+01 0. -1.
       -4    1    3    3    0  502 -0.46494980734E+03  0.35823075146E+03  0.51233243019E+03  0.77909802115E+03  0.12699999809E+01 0.  1.
</event>
<event>
 5   0  0.1438701E-05  0.2599421E+04  0.7818609E-02  0.8368398E-01
        1   -1    0    0  501    0  0.00000000000E+00  0.00000000000E+00  0.19723689026E+04  0.19723689026E+04  0.50400001928E-02 0. -1.
       -1   -1    0    0    0  501  0.00000000000E+00  0.00000000000E+00 -0.85645615117E+03  0.85645615118E+03  0.50400001928E-02 0.  1.
    10030    2    1    2    0    0  0.00000000000E+00  0.00000000000E+00  0.11159127514E+04  0.28288250538E+04  0.25994210733E+04 0.  0.
        4    1    3    3  502    0 -0.65027232165E+03  0.72887996413E+03 -0.37510514266E+03  0.10463391302E+04  0.12699999809E+01 0.  1.
       -4    1    3    3    0  502  0.65027232165E+03 -0.72887996413E+03  0.14910178941E+04  0.17824859236E+04  0.12699999809E+01 0. -1.
</event>
<event>
 5   0  0.3652331E-05  0.2684143E+04  0.7818609E-02  0.8340168E-01
        2   -1    0    0  501    0  0.00000000000E+00  0.00000000000E+00  0.19396520500E+04  0.19396520500E+04  0.25500000920E-02 0.  1.
       -2   -1    0    0    0  501  0.00000000000E+00  0.00000000000E+00 -0.92859740852E+03  0.92859740853E+03  0.25500000920E-02 0. -1.
    10030    2    1    2    0    0  0.00000000000E+00  0.00000000000E+00  0.10110546414E+04  0.28682494585E+04  0.26841429672E+04 0.  0.
        1    1    3    3  502    0  0.13272077479E+03  0.44096808858E+03 -0.84152752498E+03  0.95928944252E+03  0.50400001928E-02 0. -1.
       -1    1    3    3    0  502 -0.13272077479E+03 -0.44096808858E+03  0.18525821664E+04  0.19089600160E+04  0.50400001928E-02 0.  1.
</event>
<event>
 5   0  0.3497949E-05  0.2568495E+04  0.7818609E-02  0.8378982E-01
        2   -1    0    0  501    0  0.00000000000E+00  0.00000000000E+00  0.18146829866E+04  0.18146829866E+04  0.25500000920E-02 0.  1.
       -2   -1    0    0    0  501  0.00000000000E+00  0.00000000000E+00 -0.90885913375E+03  0.90885913375E+03  0.25500000920E-02 0. -1.
    10030    2    1    2    0    0  0.00000000000E+00  0.00000000000E+00  0.90582385286E+03  0.27235421204E+04  0.25684946621E+04 0.  0.
        5    1    3    3  502    0 -0.37687746301E+03 -0.55978732016E+03 -0.70568952103E+03  0.97643138828E+03  0.46999998093E+01 0. -1.
       -5    1    3    3    0  502  0.37687746301E+03  0.55978732016E+03  0.16115133739E+04  0.17471107321E+04  0.46999998093E+01 0.  1.
</event>
<event>
 5   0  0.1438701E-05  0.2659463E+04  0.7818609E-02  0.8348279E-01
       -1   -1    0    0    0  501  0.00000000000E+00  0.00000000000E+00  0.92283265938E+03  0.92283265939E+03  0.50400001928E-02 0.  1.
        1   -1    0    0  501    0  0.00000000000E+00  0.00000000000E+00 -0.19160422017E+04  0.19160422018E+04  0.50400001928E-02 0. -1.
    10030    2    1    2    0    0  0.00000000000E+00  0.00000000000E+00 -0.99320954237E+03  0.28388748611E+04  0.26594633448E+04 0.  0.
        4    1    3    3  502    0  0.14454762670E+02 -0.10556501573E+04 -0.13595855507E+04  0.17213601243E+04  0.12699999809E+01 0. -1.
       -4    1    3    3    0  502 -0.14454762670E+02  0.10556501573E+04  0.36637600834E+03  0.11175147369E+04  0.12699999809E+01 0.  1.
</event>
<event>
 5   0  0.1484379E-05  0.2740882E+04  0.7818609E-02  0.8321861E-01
       -1   -1    0    0    0  501  0.00000000000E+00  0.00000000000E+00  0.98744017557E+03  0.98744017559E+03  0.50400001928E-02 0. -1.
        1   -1    0    0  501    0  0.00000000000E+00  0.00000000000E+00 -0.19019968729E+04  0.19019968729E+04  0.50400001928E-02 0.  1.
    10030    2    1    2    0    0  0.00000000000E+00  0.00000000000E+00 -0.91455669729E+03  0.28894370485E+04  0.27408817020E+04 0.  0.
        1    1    3    3  502    0 -0.11823514389E+03  0.13638346406E+04 -0.38991135037E+03  0.14233957065E+04  0.50400001928E-02 0. -1.
       -1    1    3    3    0  502  0.11823514389E+03 -0.13638346406E+04 -0.52464534691E+03  0.14660413419E+04  0.50400001928E-02 0.  1.
</event>
<event>
 5   0  0.1438701E-05  0.2629488E+04  0.7818609E-02  0.8358253E-01
        1   -1    0    0  501    0  0.00000000000E+00  0.00000000000E+00  0.10187786200E+04  0.10187786200E+04  0.50400001928E-02 0.  1.
       -1   -1    0    0    0  501  0.00000000000E+00  0.00000000000E+00 -0.16966904266E+04  0.16966904266E+04  0.50400001928E-02 0. -1.
    10030    2    1    2    0    0  0.00000000000E+00  0.00000000000E+00 -0.67791180662E+03  0.27154690466E+04  0.26294881110E+04 0.  0.
        4    1    3    3  502    0 -0.27046423304E+03 -0.12486293267E+04 -0.18446039489E+02  0.12777198308E+04  0.12699999809E+01 0.  1.
       -4    1    3    3    0  502  0.27046423304E+03  0.12486293267E+04 -0.65946576714E+03  0.14377492158E+04  0.12699999809E+01 0. -1.
</event>
<event>
 5   0  0.3676724E-05  0.2573291E+04  0.7818609E-02  0.8377331E-01
       -2   -1    0    0    0  501  0.00000000000E+00  0.00000000000E+00  0.15565343521E+04  0.15565343522E+04  0.25500000920E-02 0.  1.
        2   -1    0    0  501    0  0.00000000000E+00  0.00000000000E+00 -0.10635525056E+04  0.10635525056E+04  0.25500000920E-02 0. -1.
    10030    2    1    2    0    0  0.00000000000E+00  0.00000000000E+00  0.49298184654E+03  0.26200868578E+04  0.25732905085E+04 0.  0.
        4    1    3    3  502    0 -0.12244357706E+03  0.31340675612E+03  0.15109436428E+04  0.15479562426E+04  0.12699999809E+01 0.  1.
       -4    1    3    3    0  502  0.12244357706E+03 -0.31340675612E+03 -0.10179617963E+04  0.10721306151E+04  0.12699999809E+01 0. -1.
</event>
<event>
 5   0  0.1484379E-05  0.2478169E+04  0.7818609E-02  0.8410804E-01
       -1   -1    0    0    0  501  0.00000000000E+00  0.00000000000E+00  0.12564713627E+04  0.12564713627E+04  0.50400001928E-02 0.  1.
        1   -1    0    0  501    0  0.00000000000E+00  0.00000000000E+00 -0.12219382838E+04  0.12219382838E+04  0.50400001928E-02 0. -1.
    10030    2    1    2    0    0  0.00000000000E+00  0.00000000000E+00  0.34533078878E+02  0.24784096465E+04  0.24781690504E+04 0.  0.
        1    1    3    3  502    0 -0.89783718020E+03 -0.70667553467E+03  0.49671744998E+03  0.12458852831E+04  0.50400001928E-02 0. -1.
       -1    1    3    3    0  502  0.89783718020E+03  0.70667553467E+03 -0.46218437110E+03  0.12325243634E+04  0.50400001928E-02 0.  1.
</event>
<event>
 5   0  0.3652331E-05  0.2764459E+04  0.7818609E-02  0.8314388E-01
        2   -1    0    0  501    0  0.00000000000E+00  0.00000000000E+00  0.19639072007E+04  0.19639072007E+04  0.25500000920E-02 0. -1.
       -2   -1    0    0    0  501  0.00000000000E+00  0.00000000000E+00 -0.97283567750E+03  0.97283567750E+03  0.25500000920E-02 0.  1.
    10030    2    1    2    0    0  0.00000000000E+00  0.00000000000E+00  0.99107152325E+03  0.29367428782E+04  0.27644594352E+04 0.  0.
        1    1    3    3  502    0 -0.36458408018E+03 -0.78879853555E+03  0.16374364442E+04  0.18537321247E+04  0.50400001928E-02 0. -1.
       -1    1    3    3    0  502  0.36458408018E+03  0.78879853555E+03 -0.64636492099E+03  0.10830107536E+04  0.50400001928E-02 0.  1.
</event>
<event>
 5   0  0.1228050E-05  0.1694347E+04  0.7818609E-02  0.8764595E-01
       -3   -1    0    0    0  501  0.00000000000E+00  0.00000000000E+00  0.62674650706E+03  0.62674651520E+03  0.10100000352E+00 0. -1.
        3   -1    0    0  501    0  0.00000000000E+00  0.00000000000E+00 -0.11451253896E+04  0.11451253941E+04  0.10100000352E+00 0.  1.
    10030    2    1    2    0    0  0.00000000000E+00  0.00000000000E+00 -0.51837888257E+03  0.17718719093E+04  0.16943474841E+04 0.  0.
        3    1    3    3  502    0 -0.21354811431E+03 -0.23560046202E+03 -0.10803519698E+04  0.11261752810E+04  0.10100000352E+00 0.  1.
       -3    1    3    3    0  502  0.21354811431E+03  0.23560046202E+03  0.56197308719E+03  0.64569662826E+03  0.10100000352E+00 0. -1.
</event>
<event>
 5   0  0.1495517E-05  0.2828085E+04  0.7818609E-02  0.8294602E-01
       -1   -1    0    0    0  501  0.00000000000E+00  0.00000000000E+00  0.11421093068E+04  0.11421093068E+04  0.50400001928E-02 0.  1.
        1   -1    0    0  501    0  0.00000000000E+00  0.00000000000E+00 -0.17507222234E+04  0.17507222234E+04  0.50400001928E-02 0. -1.
    10030    2    1    2    0    0  0.00000000000E+00  0.00000000000E+00 -0.60861291660E+03  0.28928315302E+04  0.28280849668E+04 0.  0.
        5    1    3    3  502    0  0.48061992977E+03 -0.86719437073E+03 -0.13355909755E+04  0.16633841821E+04  0.46999998093E+01 0. -1.
       -5    1    3    3    0  502 -0.48061992977E+03  0.86719437073E+03  0.72697805889E+03  0.12294473480E+04  0.46999998093E+01 0.  1.
</event>
<event>
 5   0  0.3568647E-05  0.2629819E+04  0.7818609E-02  0.8358142E-01
       -2   -1    0    0    0  501  0.00000000000E+00  0.00000000000E+00  0.18192303208E+04  0.18192303208E+04  0.25500000920E-02 0.  1.
        2   -1    0    0  501    0  0.00000000000E+00  0.00000000000E+00 -0.95039484379E+03  0.95039484379E+03  0.25500000920E-02 0. -1.
    10030    2    1    2    0    0  0.00000000000E+00  0.00000000000E+00  0.86883547696E+03  0.27696251645E+04  0.26298190938E+04 0.  0.
        3    1    3    3  502    0 -0.38793247601E+03 -0.51191193060E+03  0.16427766063E+04  0.17638765317E+04  0.10100000352E+00 0.  1.
       -3    1    3    3    0  502  0.38793247601E+03  0.51191193060E+03 -0.77394112933E+03  0.10057486329E+04  0.10100000352E+00 0. -1.
</event>
<event>
 5   0  0.1484379E-05  0.2377048E+04  0.7818609E-02  0.8448147E-01
       -1   -1    0    0    0  501  0.00000000000E+00  0.00000000000E+00  0.87784325030E+03  0.87784325031E+03  0.50400001928E-02 0.  1.
        1   -1    0    0  501    0  0.00000000000E+00  0.00000000000E+00 -0.16091593751E+04  0.16091593751E+04  0.50400001928E-02 0. -1.
    10030    2    1    2    0    0  0.00000000000E+00  0.00000000000E+00 -0.73131612483E+03  0.24870026255E+04  0.23770483345E+04 0.  0.
        1    1    3    3  502    0  0.39551136549E+03 -0.82218322517E+03 -0.11625837236E+04  0.14778414700E+04  0.50400001928E-02 0. -1.
       -1    1    3    3    0  502 -0.39551136549E+03  0.82218322517E+03  0.43126759875E+03  0.10091611555E+04  0.50400001928E-02 0.  1.
</event>
<event>
 5   0  0.1495517E-05  0.2550250E+04  0.7818609E-02  0.8385299E-01
        1   -1    0    0  501    0  0.00000000000E+00  0.00000000000E+00  0.12091188244E+04  0.12091188244E+04  0.50400001928E-02 0. -1.
       -1   -1    0    0    0  501  0.00000000000E+00  0.00000000000E+00 -0.13447341930E+04  0.13447341930E+04  0.50400001928E-02 0.  1.
    10030    2    1    2    0    0  0.00000000000E+00  0.00000000000E+00 -0.13561536857E+03  0.25538530174E+04  0.25502497341E+04 0.  0.
        5    1    3    3  502    0  0.35539827951E+03  0.12140186046E+04 -0.22857181697E+03  0.12854634476E+04  0.46999998093E+01 0. -1.
       -5    1    3    3    0  502 -0.35539827951E+03 -0.12140186046E+04  0.92956448403E+02  0.12683895698E+04  0.46999998093E+01 0.  1.
</event>
<event>
 5   0  0.3497949E-05  0.2683997E+04  0.7818609E-02  0.8340216E-01
        2   -1    0    0  501    0  0.00000000000E+00  0.00000000000E+00  0.15175088621E+04  0.15175088621E+04  0.25500000920E-02 0.  1.
       -2   -1    0    0    0  501  0.00000000000E+00  0.00000000000E+00 -0.11867873451E+04  0.11867873451E+04  0.25500000920E-02 0. -1.
    10030    2    1    2    0    0  0.00000000000E+00  0.00000000000E+00  0.33072151704E+03  0.27042962072E+04  0.26839972530E+04 0.  0.
        5    1    3    3  502    0 -0.41596959712E+03 -0.32524568572E+03 -0.10777133828E+04  0.12001265297E+04  0.46999998093E+01 0. -1.
       -5    1    3    3    0  502  0.41596959712E+03  0.32524568572E+03  0.14084348998E+04  0.15041696775E+04  0.46999998093E+01 0.  1.
</event>
<event>
 5   0  0.1484379E-05  0.2776262E+04  0.7818609E-02  0.8310676E-01
        1   -1    0    0  501    0  0.00000000000E+00  0.00000000000E+00  0.10941356490E+04  0.10941356490E+04  0.50400001928E-02 0.  1.
       -1   -1    0    0    0  501  0.00000000000E+00  0.00000000000E+00 -0.17611229918E+04  0.17611229918E+04  0.50400001928E-02 0. -1.
    10030    2    1    2    0    0  0.00000000000E+00  0.00000000000E+00 -0.66698734280E+03  0.28552586407E+04  0.27762618374E+04 0.  0.
        1    1    3    3  502    0 -0.41840218580E+03 -0.13235385565E+04 -0.34339827295E+03  0.14299430316E+04  0.50400001928E-02 0.  1.
       -1    1    3    3    0  502  0.41840218580E+03  0.13235385565E+04 -0.32358906985E+03  0.14253156092E+04  0.50400001928E-02 0. -1.
</event>
<event>
 5   0  0.1495517E-05  0.2709021E+04  0.7818609E-02  0.8332084E-01
        1   -1    0    0  501    0  0.00000000000E+00  0.00000000000E+00  0.13732612460E+04  0.13732612460E+04  0.50400001928E-02 0.  1.
       -1   -1    0    0    0  501  0.00000000000E+00  0.00000000000E+00 -0.13360161238E+04  0.13360161238E+04  0.50400001928E-02 0. -1.
    10030    2    1    2    0    0  0.00000000000E+00  0.00000000000E+00  0.37245122254E+02  0.27092773698E+04  0.27090213487E+04 0.  0.
        5    1    3    3  502    0 -0.10498017440E+04 -0.82824415946E+03  0.23452484670E+03  0.13576067483E+04  0.46999998093E+01 0. -1.
       -5    1    3    3    0  502  0.10498017440E+04  0.82824415946E+03 -0.19727972445E+03  0.13516706215E+04  0.46999998093E+01 0.  1.
</event>
<event>
 5   0  0.1449521E-05  0.2642756E+04  0.7818609E-02  0.8353821E-01
       -1   -1    0    0    0  501  0.00000000000E+00  0.00000000000E+00  0.15018959204E+04  0.15018959204E+04  0.50400001928E-02 0. -1.
        1   -1    0    0  501    0  0.00000000000E+00  0.00000000000E+00 -0.11625569599E+04  0.11625569599E+04  0.50400001928E-02 0.  1.
    10030    2    1    2    0    0  0.00000000000E+00  0.00000000000E+00  0.33933896052E+03  0.26644528803E+04  0.26427558005E+04 0.  0.
        3    1    3    3  502    0 -0.95665231141E+03  0.68212948807E+03  0.77924501640E+03  0.14098606630E+04  0.10100000352E+00 0.  1.
       -3    1    3    3    0  502  0.95665231141E+03 -0.68212948807E+03 -0.43990605588E+03  0.12545922173E+04  0.10100000352E+00 0. -1.
</event>
<event>
 5   0  0.3676724E-05  0.2172704E+04  0.7818609E-02  0.8529876E-01
       -2   -1    0    0    0  501  0.00000000000E+00  0.00000000000E+00  0.57392644470E+03  0.57392644470E+03  0.25500000920E-02 0. -1.
        2   -1    0    0  501    0  0.00000000000E+00  0.00000000000E+00 -0.20562920554E+04  0.20562920554E+04  0.25500000920E-02 0.  1.
    10030    2    1    2    0    0  0.00000000000E+00  0.00000000000E+00 -0.14823656107E+04  0.26302185001E+04  0.21727037429E+04 0.  0.
        4    1    3    3  502    0 -0.21204371641E+03  0.83394977126E+03 -0.15439348289E+04  0.17675324969E+04  0.12699999809E+01 0.  1.
       -4    1    3    3    0  502  0.21204371641E+03 -0.83394977126E+03  0.61569218203E+02  0.86268600324E+03  0.12699999809E+01 0. -1.
</event>
<event>
 5   0  0.1474012E-05  0.1808241E+04  0.7818609E-02  0.8701929E-01
       -1   -1    0    0    0  501  0.00000000000E+00  0.00000000000E+00  0.82893803575E+03  0.82893803577E+03  0.50400001928E-02 0.  1.
        1   -1    0    0  501    0  0.00000000000E+00  0.00000000000E+00 -0.98612204739E+03  0.98612204740E+03  0.50400001928E-02 0. -1.
    10030    2    1    2    0    0  0.00000000000E+00  0.00000000000E+00 -0.15718401164E+03  0.18150600832E+04  0.18082412151E+04 0.  0.
        2    1    3    3  502    0 -0.49304924525E+03 -0.75290837388E+03  0.81369175565E+01  0.90001932597E+03  0.25500000920E-02 0. -1.
       -2    1    3    3    0  502  0.49304924525E+03  0.75290837388E+03 -0.16532092919E+03  0.91504075720E+03  0.25500000920E-02 0.  1.
</event>
<event>
 5   0  0.1228050E-05  0.2702917E+04  0.7818609E-02  0.8334059E-01
       -3   -1    0    0    0  501  0.00000000000E+00  0.00000000000E+00  0.12936454224E+04  0.12936454264E+04  0.10100000352E+00 0.  1.
        3   -1    0    0  501    0  0.00000000000E+00  0.00000000000E+00 -0.14118555920E+04  0.14118555957E+04  0.10100000352E+00 0. -1.
    10030    2    1    2    0    0  0.00000000000E+00  0.00000000000E+00 -0.11821016960E+03  0.27055010220E+04  0.27029173380E+04 0.  0.
        4    1    3    3  502    0  0.83847927361E+03  0.75167498156E+03  0.68885490768E+03  0.13200702507E+04  0.12699999809E+01 0.  1.
       -4    1    3    3    0  502 -0.83847927361E+03 -0.75167498156E+03 -0.80706507728E+03  0.13854307713E+04  0.12699999809E+01 0. -1.
</event>
<event>
 5   0  0.3652331E-05  0.2768431E+04  0.7818609E-02  0.8313137E-01
       -2   -1    0    0    0  501  0.00000000000E+00  0.00000000000E+00  0.13508415316E+04  0.13508415316E+04  0.25500000920E-02 0.  1.
        2   -1    0    0  501    0  0.00000000000E+00  0.00000000000E+00 -0.14184136370E+04  0.14184136370E+04  0.25500000920E-02 0. -1.
    10030    2    1    2    0    0  0.00000000000E+00  0.00000000000E+00 -0.67572105385E+02  0.27692551686E+04  0.27684306383E+04 0.  0.
        1    1    3    3  502    0  0.11996623491E+04 -0.65039246059E+03  0.19834328136E+03  0.13789634375E+04  0.50400001928E-02 0. -1.
       -1    1    3    3    0  502 -0.11996623491E+04  0.65039246059E+03 -0.26591538675E+03  0.13902917311E+04  0.50400001928E-02 0.  1.
</event>
<event>
 5   0  0.3676724E-05  0.2684034E+04  0.7818609E-02  0.8340204E-01
       -2   -1    0    0    0  501  0.00000000000E+00  0.00000000000E+00  0.56583685436E+03  0.56583685436E+03  0.25500000920E-02 0.  1.
        2   -1    0    0  501    0  0.00000000000E+00  0.00000000000E+00 -0.31829128934E+04  0.31829128934E+04  0.25500000920E-02 0. -1.
    10030    2    1    2    0    0  0.00000000000E+00  0.00000000000E+00 -0.26170760391E+04  0.37487497478E+04  0.26840338443E+04 0.  0.
        4    1    3    3  502    0  0.21786059544E+03 -0.13189532664E+04 -0.14732453102E+04  0.19893602778E+04  0.12699999809E+01 0. -1.
       -4    1    3    3    0  502 -0.21786059544E+03  0.13189532664E+04 -0.11438307288E+04  0.17593894700E+04  0.12699999809E+01 0.  1.
</event>
<event>
 5   0  0.3676724E-05  0.2718491E+04  0.7818609E-02  0.8329030E-01
        2   -1    0    0  501    0  0.00000000000E+00  0.00000000000E+00  0.24338020067E+04  0.24338020067E+04  0.25500000920E-02 0.  1.
       -2   -1    0    0    0  501  0.00000000000E+00  0.00000000000E+00 -0.75912010661E+03  0.75912010661E+03  0.25500000920E-02 0. -1.
    10030    2    1    2    0    0  0.00000000000E+00  0.00000000000E+00  0.16746819001E+04  0.31929221133E+04  0.27184907863E+04 0.  0.
        4    1    3    3  502    0  0.30294980747E+02 -0.75498357074E+03 -0.48972564801E+03  0.90041701515E+03  0.12699999809E+01 0. -1.
       -4    1    3    3    0  502 -0.30294980747E+02  0.75498357074E+03  0.21644075481E+04  0.22925050981E+04  0.12699999809E+01 0.  1.
</event>
<event>
 5   0  0.3514294E-05  0.2685072E+04  0.7818609E-02  0.8339865E-01
        2   -1    0    0  501    0  0.00000000000E+00  0.00000000000E+00  0.15070475364E+04  0.15070475364E+04  0.25500000920E-02 0. -1.
       -2   -1    0    0    0  501  0.00000000000E+00  0.00000000000E+00 -0.11959831563E+04  0.11959831563E+04  0.25500000920E-02 0.  1.
    10030    2    1    2    0    0  0.00000000000E+00  0.00000000000E+00  0.31106438004E+03  0.27030306927E+04  0.26850724156E+04 0.  0.
        2    1    3    3  502    0  0.82308570693E+03  0.57767279519E+03 -0.73992673410E+03  0.12484660633E+04  0.25500000920E-02 0.  1.
       -2    1    3    3    0  502 -0.82308570693E+03 -0.57767279519E+03  0.10509911141E+04  0.14545646295E+04  0.25500000920E-02 0. -1.
</event>
<event>
 5   0  0.3568647E-05  0.2723422E+04  0.7818609E-02  0.8327445E-01
       -2   -1    0    0    0  501  0.00000000000E+00  0.00000000000E+00  0.11465237997E+04  0.11465237997E+04  0.25500000920E-02 0.  1.
        2   -1    0    0  501    0  0.00000000000E+00  0.00000000000E+00 -0.16172862918E+04  0.16172862918E+04  0.25500000920E-02 0. -1.
    10030    2    1    2    0    0  0.00000000000E+00  0.00000000000E+00 -0.47076249217E+03  0.27638100915E+04  0.27234222768E+04 0.  0.
        3    1    3    3  502    0  0.91173171976E+03  0.75275176770E+03  0.45018662080E+03  0.12651315965E+04  0.10100000352E+00 0.  1.
       -3    1    3    3    0  502 -0.91173171976E+03 -0.75275176770E+03 -0.92094911297E+03  0.14986784950E+04  0.10100000352E+00 0. -1.
</event>
<event>
 5   0  0.1449521E-05  0.2670591E+04  0.7818609E-02  0.8344611E-01
       -1   -1    0    0    0  501  0.00000000000E+00  0.00000000000E+00  0.11507224024E+04  0.11507224024E+04  0.50400001928E-02 0.  1.
        1   -1    0    0  501    0  0.00000000000E+00  0.00000000000E+00 -0.15494739405E+04  0.15494739405E+04  0.50400001928E-02 0. -1.
    10030    2    1    2    0    0  0.00000000000E+00  0.00000000000E+00 -0.39875153808E+03  0.27001963429E+04  0.26705912269E+04 0.  0.
        3    1    3    3  502    0 -0.56118316619E+03 -0.10285265741E+04 -0.84696082954E+03  0.14457303056E+04  0.10100000352E+00 0.  1.
       -3    1    3    3    0  502  0.56118316619E+03  0.10285265741E+04  0.44820929146E+03  0.12544660373E+04  0.10100000352E+00 0. -1.
</event>
<event>
 5   0  0.1438701E-05  0.2688342E+04  0.7818609E-02  0.8338798E-01
       -1   -1    0    0    0  501  0.00000000000E+00  0.00000000000E+00  0.83603533800E+03  0.83603533802E+03  0.50400001928E-02 0. -1.
        1   -1    0    0  501    0  0.00000000000E+00  0.00000000000E+00 -0.21611468392E+04  0.21611468392E+04  0.50400001928E-02 0.  1.
    10030    2    1    2    0    0  0.00000000000E+00  0.00000000000E+00 -0.13251115012E+04  0.29971821772E+04  0.26883415916E+04 0.  0.
        4    1    3    3  502    0  0.26698225631E+03  0.92289030775E+03  0.38554398228E+03  0.10352061729E+04  0.12699999809E+01 0. -1.
       -4    1    3    3    0  502 -0.26698225631E+03 -0.92289030775E+03 -0.17106554835E+04  0.19619760043E+04  0.12699999809E+01 0.  1.
</event>
<event>
 5   0  0.3568647E-05  0.2617289E+04  0.7818609E-02  0.8362352E-01
        2   -1    0    0  501    0  0.00000000000E+00  0.00000000000E+00  0.31141322008E+04  0.31141322008E+04  0.25500000920E-02 0.  1.
       -2   -1    0    0    0  501  0.00000000000E+00  0.00000000000E+00 -0.54992849802E+03  0.54992849802E+03  0.25500000920E-02 0. -1.
    10030    2    1    2    0    0  0.00000000000E+00  0.00000000000E+00  0.25642037028E+04  0.36640606988E+04  0.26172887069E+04 0.  0.
        3    1    3    3  502    0  0.54124114266E+02 -0.24081354959E+02 -0.54805044564E+03  0.55124280727E+03  0.10100000352E+00 0. -1.
       -3    1    3    3    0  502 -0.54124114266E+02  0.24081354959E+02  0.31122541484E+04  0.31128178916E+04  0.10100000352E+00 0.  1.
</event>
<event>
 5   0  0.3514294E-05  0.2710222E+04  0.7818609E-02  0.8331696E-01
        2   -1    0    0  501    0  0.00000000000E+00  0.00000000000E+00  0.19939267264E+04  0.19939267264E+04  0.25500000920E-02 0. -1.
       -2   -1    0    0    0  501  0.00000000000E+00  0.00000000000E+00 -0.92095951238E+03  0.92095951238E+03  0.25500000920E-02 0.  1.
    10030    2    1    2    0    0  0.00000000000E+00  0.00000000000E+00  0.10729672140E+04  0.29148862388E+04  0.27102219730E+04 0.  0.
        2    1    3    3  502    0  0.11448821471E+04  0.71955817493E+03  0.44145592132E+03  0.14224635069E+04  0.25500000920E-02 0.  1.
       -2    1    3    3    0  502 -0.11448821471E+04 -0.71955817493E+03  0.63151129272E+03  0.14924227319E+04  0.25500000920E-02 0. -1.
</event>
<event>
 5   0  0.1484379E-05  0.1588968E+04  0.7818609E-02  0.8827354E-01
       -1   -1    0    0    0  501  0.00000000000E+00  0.00000000000E+00  0.19061488098E+04  0.19061488098E+04  0.50400001928E-02 0.  1.
        1   -1    0    0  501    0  0.00000000000E+00  0.00000000000E+00 -0.33114138066E+03  0.33114138070E+03  0.50400001928E-02 0. -1.
    10030    2    1    2    0    0  0.00000000000E+00  0.00000000000E+00  0.15750074292E+04  0.22372901905E+04  0.15889679024E+04 0.  0.
        1    1    3    3  502    0 -0.22721222885E+03  0.51325988715E+03  0.15791832499E+04  0.16759716124E+04  0.50400001928E-02 0.  1.
       -1    1    3    3    0  502  0.22721222885E+03 -0.51325988715E+03 -0.41758207285E+01  0.56131857817E+03  0.50400001928E-02 0. -1.
</event>
<event>
 5   0  0.3652331E-05  0.2687994E+04  0.7818609E-02  0.8338911E-01
       -2   -1    0    0    0  501  0.00000000000E+00  0.00000000000E+00  0.14387198691E+04  0.14387198691E+04  0.25500000920E-02 0. -1.
        2   -1    0    0  501    0  0.00000000000E+00  0.00000000000E+00 -0.12555103437E+04  0.12555103437E+04  0.25500000920E-02 0.  1.
    10030    2    1    2    0    0  0.00000000000E+00  0.00000000000E+00  0.18320952549E+03  0.26942302128E+04  0.26879938075E+04 0.  0.
        1    1    3    3  502    0  0.97111134611E+03 -0.29500848894E+03 -0.79148442082E+03  0.12870644287E+04  0.50400001928E-02 0.  1.
       -1    1    3    3    0  502 -0.97111134611E+03  0.29500848894E+03  0.97469394631E+03  0.14071657842E+04  0.50400001928E-02 0. -1.
</event>
<event>
 5   0  0.1474012E-05  0.2837424E+04  0.7818609E-02  0.8291743E-01
        1   -1    0    0  501    0  0.00000000000E+00  0.00000000000E+00  0.87623035999E+03  0.87623036001E+03  0.50400001928E-02 0.  1.
       -1   -1    0    0    0  501  0.00000000000E+00  0.00000000000E+00 -0.22970493634E+04  0.22970493634E+04  0.50400001928E-02 0. -1.
    10030    2    1    2    0    0  0.00000000000E+00  0.00000000000E+00 -0.14208190034E+04  0.31732797234E+04  0.28374244593E+04 0.  0.
        2    1    3    3  502    0  0.12207155353E+04 -0.52917435038E+02  0.95898988206E+02  0.12256195531E+04  0.25500000920E-02 0.  1.
       -2    1    3    3    0  502 -0.12207155353E+04  0.52917435038E+02 -0.15167179916E+04  0.19476601703E+04  0.25500000920E-02 0. -1.
</event>
<event>
 5   0  0.3497949E-05  0.2731603E+04  0.7818609E-02  0.8324823E-01
       -2   -1    0    0    0  501  0.00000000000E+00  0.00000000000E+00  0.10081310186E+04  0.10081310186E+04  0.25500000920E-02 0.  1.
        2   -1    0    0  501    0  0.00000000000E+00  0.00000000000E+00 -0.18503685014E+04  0.18503685014E+04  0.25500000920E-02 0. -1.
    10030    2    1    2    0    0  0.00000000000E+00  0.00000000000E+00 -0.84223748288E+03  0.28584995200E+04  0.27316031059E+04 0.  0.
        5    1    3    3  502    0 -0.88517261903E+03  0.49998067529E+03  0.53332648706E+03  0.11480289513E+04  0.46999998093E+01 0.  1.
       -5    1    3    3    0  502  0.88517261903E+03 -0.49998067529E+03 -0.13755639699E+04  0.17104705687E+04  0.46999998093E+01 0. -1.
</event>
<event>
 5   0  0.1474012E-05  0.2685079E+04  0.7818609E-02  0.8339863E-01
        1   -1    0    0  501    0  0.00000000000E+00  0.00000000000E+00  0.24258437715E+04  0.24258437715E+04  0.50400001928E-02 0.  1.
       -1   -1    0    0    0  501  0.00000000000E+00  0.00000000000E+00 -0.74300410864E+03  0.74300410866E+03  0.50400001928E-02 0. -1.
    10030    2    1    2    0    0  0.00000000000E+00  0.00000000000E+00  0.16828396629E+04  0.31688478802E+04  0.26850786873E+04 0.  0.
        2    1    3    3  502    0 -0.30163087904E+03 -0.39188857847E+03 -0.63159716202E+03  0.80216757613E+03  0.25500000920E-02 0. -1.
       -2    1    3    3    0  502  0.30163087904E+03  0.39188857847E+03  0.23144368249E+04  0.23666803041E+04  0.25500000920E-02 0.  1.
</event>
<event>
 5   0  0.1449521E-05  0.2491000E+04  0.7818609E-02  0.8406199E-01
       -1   -1    0    0    0  501  0.00000000000E+00  0.00000000000E+00  0.72886790055E+03  0.72886790057E+03  0.50400001928E-02 0. -1.
        1   -1    0    0  501    0  0.00000000000E+00  0.00000000000E+00 -0.21283275690E+04  0.21283275690E+04  0.50400001928E-02 0.  1.
    10030    2    1    2    0    0  0.00000000000E+00  0.00000000000E+00 -0.13994596684E+04  0.28571954695E+04  0.24909995158E+04 0.  0.
        3    1    3    3  502    0  0.79075189916E+03 -0.45131666260E+03  0.27508788733E+03  0.95113019715E+03  0.10100000352E+00 0. -1.
       -3    1    3    3    0  502 -0.79075189916E+03  0.45131666260E+03 -0.16745475557E+04  0.19060652724E+04  0.10100000352E+00 0.  1.
</event>
<event>
 5   0  0.1495517E-05  0.1702626E+04  0.7818609E-02  0.8759868E-01
       -1   -1    0    0    0  501  0.00000000000E+00  0.00000000000E+00  0.67589998452E+03  0.67589998454E+03  0.50400001928E-02 0.  1.
        1   -1    0    0  501    0  0.00000000000E+00  0.00000000000E+00 -0.10722507121E+04  0.10722507121E+04  0.50400001928E-02 0. -1.
    10030    2    1    2    0    0  0.00000000000E+00  0.00000000000E+00 -0.39635072753E+03  0.17481506966E+04  0.17026264883E+04 0.  0.
        5    1    3    3  502    0  0.77062178163E+03 -0.27320418037E+03 -0.44160897927E+03  0.92926801035E+03  0.46999998093E+01 0. -1.
       -5    1    3    3    0  502 -0.77062178163E+03  0.27320418037E+03  0.45258251736E+02  0.81888268625E+03  0.46999998093E+01 0.  1.
</event>
<event>
 5   0  0.3652331E-05  0.2736072E+04  0.7818609E-02  0.8323395E-01
        2   -1    0    0  501    0  0.00000000000E+00  0.00000000000E+00  0.17254278851E+04  0.17254278851E+04  0.25500000920E-02 0.  1.
       -2   -1    0    0    0  501  0.00000000000E+00  0.00000000000E+00 -0.10846713338E+04  0.10846713338E+04  0.25500000920E-02 0. -1.
    10030    2    1    2    0    0  0.00000000000E+00  0.00000000000E+00  0.64075655127E+03  0.28100992189E+04  0.27360717574E+04 0.  0.
        1    1    3    3  502    0  0.79583785479E+02  0.31477014988E+03  0.16852845860E+04  0.17162744425E+04  0.50400001928E-02 0.  1.
       -1    1    3    3    0  502 -0.79583785479E+02 -0.31477014988E+03 -0.10445280347E+04  0.10938247764E+04  0.50400001928E-02 0. -1.
</event>
<event>
 5   0  0.1449521E-05  0.2706141E+04  0.7818609E-02  0.8333015E-01
       -1   -1    0    0    0  501  0.00000000000E+00  0.00000000000E+00  0.12112815884E+04  0.12112815884E+04  0.50400001928E-02 0. -1.
        1   -1    0    0  501    0  0.00000000000E+00  0.00000000000E+00 -0.15114566898E+04  0.15114566898E+04  0.50400001928E-02 0.  1.
    10030    2    1    2    0    0  0.00000000000E+00  0.00000000000E+00 -0.30017510140E+03  0.27227382782E+04  0.27061409129E+04 0.  0.
        3    1    3    3  502    0  0.28652232707E+03 -0.35777193409E+03 -0.14309642388E+04  0.15025825979E+04  0.10100000352E+00 0.  1.
       -3    1    3    3    0  502 -0.28652232707E+03  0.35777193409E+03  0.11307891374E+04  0.12201556803E+04  0.10100000352E+00 0. -1.
</event>
<event>
 5   0  0.3514294E-05  0.2555102E+04  0.7818609E-02  0.8383614E-01
        2   -1    0    0  501    0  0.00000000000E+00  0.00000000000E+00  0.23954352710E+04  0.23954352710E+04  0.25500000920E-02 0. -1.
       -2   -1    0    0    0  501  0.00000000000E+00  0.00000000000E+00 -0.68135268892E+03  0.68135268893E+03  0.25500000920E-02 0.  1.
    10030    2    1    2    0    0  0.00000000000E+00  0.00000000000E+00  0.17140825821E+04  0.30767879599E+04  0.25551017694E+04 0.  0.
        2    1    3    3  502    0  0.46197908179E+03 -0.48516901586E+02 -0.57605654051E+03  0.74001331043E+03  0.25500000920E-02 0.  1.
       -2    1    3    3    0  502 -0.46197908179E+03  0.48516901586E+02  0.22901391226E+04  0.23367746495E+04  0.25500000920E-02 0. -1.
</event>
<event>
 5   0  0.1438701E-05  0.2697156E+04  0.7818609E-02  0.8335928E-01
        1   -1    0    0  501    0  0.00000000000E+00  0.00000000000E+00  0.19107356639E+04  0.19107356639E+04  0.50400001928E-02 0. -1.
       -1   -1    0    0    0  501  0.00000000000E+00  0.00000000000E+00 -0.95181251560E+03  0.95181251562E+03  0.50400001928E-02 0.  1.
    10030    2    1    2    0    0  0.00000000000E+00  0.00000000000E+00  0.95892314827E+03  0.28625481795E+04  0.26971556269E+04 0.  0.
        4    1    3    3  502    0  0.12349829536E+04 -0.34942487261E+03  0.91882783251E+03  0.15784571062E+04  0.12699999809E+01 0. -1.
       -4    1    3    3    0  502 -0.12349829536E+04  0.34942487261E+03  0.40095315763E+02  0.12840910733E+04  0.12699999809E+01 0.  1.
</event>
<event>
 5   0  0.1495517E-05  0.2701699E+04  0.7818609E-02  0.8334454E-01
       -1   -1    0    0    0  501  0.00000000000E+00  0.00000000000E+00  0.16427567248E+04  0.16427567248E+04  0.50400001928E-02 0. -1.
        1   -1    0    0  501    0  0.00000000000E+00  0.00000000000E+00 -0.11108121772E+04  0.11108121773E+04  0.50400001928E-02 0.  1.
    10030    2    1    2    0    0  0.00000000000E+00  0.00000000000E+00  0.53194454754E+03  0.27535689020E+04  0.27016988538E+04 0.  0.
        5    1    3    3  502    0  0.10986451040E+04 -0.78596702992E+03  0.26330526472E+03  0.13762692284E+04  0.46999998093E+01 0.  1.
       -5    1    3    3    0  502 -0.10986451040E+04  0.78596702992E+03  0.26863928282E+03  0.13772996736E+04  0.46999998093E+01 0. -1.
</event>
<event>
 5   0  0.3497949E-05  0.2875304E+04  0.7818609E-02  0.8280263E-01
       -2   -1    0    0    0  501  0.00000000000E+00  0.00000000000E+00  0.15357276954E+04  0.15357276954E+04  0.25500000920E-02 0.  1.
        2   -1    0    0  501    0  0.00000000000E+00  0.00000000000E+00 -0.13458398603E+04  0.13458398603E+04  0.25500000920E-02 0. -1.
    10030    2    1    2    0    0  0.00000000000E+00  0.00000000000E+00  0.18988783505E+03  0.28815675557E+04  0.28753041906E+04 0.  0.
        5    1    3    3  502    0 -0.13312213189E+04  0.50309544378E+03  0.29926601344E+03  0.14542480745E+04  0.46999998093E+01 0. -1.
       -5    1    3    3    0  502  0.13312213189E+04 -0.50309544378E+03 -0.10937817839E+03  0.14273194812E+04  0.46999998093E+01 0.  1.
</event>
<event>
 5   0  0.1495517E-05  0.2328324E+04  0.7818609E-02  0.8466836E-01
       -1   -1    0    0    0  501  0.00000000000E+00  0.00000000000E+00  0.16837935935E+04  0.16837935935E+04  0.50400001928E-02 0.  1.
        1   -1    0    0  501    0  0.00000000000E+00  0.00000000000E+00 -0.80489288945E+03  0.80489288947E+03  0.50400001928E-02 0. -1.
    10030    2    1    2    0    0  0.00000000000E+00  0.00000000000E+00  0.87890070401E+03  0.24886864829E+04  0.23283242821E+04 0.  0.
        5    1    3    3  502    0  0.71981711455E+03 -0.31880044085E+03 -0.47721845011E+03  0.92061389225E+03  0.46999998093E+01 0. -1.
       -5    1    3    3    0  502 -0.71981711455E+03  0.31880044085E+03  0.13561191541E+04  0.15680725907E+04  0.46999998093E+01 0.  1.
</event>
<event>
 5   0  0.1474012E-05  0.2688244E+04  0.7818609E-02  0.8338829E-01
        1   -1    0    0  501    0  0.00000000000E+00  0.00000000000E+00  0.18836139530E+04  0.18836139530E+04  0.50400001928E-02 0.  1.
       -1   -1    0    0    0  501  0.00000000000E+00  0.00000000000E+00 -0.95914783855E+03  0.95914783856E+03  0.50400001928E-02 0. -1.
    10030    2    1    2    0    0  0.00000000000E+00  0.00000000000E+00  0.92446611443E+03  0.28427617915E+04  0.26882442238E+04 0.  0.
        2    1    3    3  502    0  0.70844815946E+03  0.11388893403E+04  0.36946057819E+03  0.13912112862E+04  0.25500000920E-02 0.  1.
       -2    1    3    3    0  502 -0.70844815946E+03 -0.11388893403E+04  0.55500553624E+03  0.14515505053E+04  0.25500000920E-02 0. -1.
</event>
<event>
 5   0  0.3652331E-05  0.2593824E+04  0.7818609E-02  0.8370302E-01
        2   -1    0    0  501    0  0.00000000000E+00  0.00000000000E+00  0.13561579450E+04  0.13561579450E+04  0.25500000920E-02 0.  1.
       -2   -1    0    0    0  501  0.00000000000E+00  0.00000000000E+00 -0.12402547252E+04  0.12402547252E+04  0.25500000920E-02 0. -1.
    10030    2    1    2    0    0  0.00000000000E+00  0.00000000000E+00  0.11590321978E+03  0.25964126702E+04  0.25938244346E+04 0.  0.
        1    1    3    3  502    0  0.27469162040E+03  0.86553459228E+03  0.98482139199E+03  0.13395815731E+04  0.50400001928E-02 0.  1.
       -1    1    3    3    0  502 -0.27469162040E+03 -0.86553459228E+03 -0.86891817221E+03  0.12568310972E+04  0.50400001928E-02 0. -1.
</event>
<event>
 5   0  0.1438701E-05  0.1389621E+04  0.7818609E-02  0.8961366E-01
       -1   -1    0    0    0  501  0.00000000000E+00  0.00000000000E+00  0.50940356039E+03  0.50940356042E+03  0.50400001928E-02 0. -1.
        1   -1    0    0  501    0  0.00000000000E+00  0.00000000000E+00 -0.94769964306E+03  0.94769964307E+03  0.50400001928E-02 0.  1.
    10030    2    1    2    0    0  0.00000000000E+00  0.00000000000E+00 -0.43829608267E+03  0.14571032035E+04  0.13896209158E+04 0.  0.
        4    1    3    3  502    0  0.17767701526E+03 -0.53740866517E+03 -0.64168425467E+03  0.85565033205E+03  0.12699999809E+01 0.  1.
       -4    1    3    3    0  502 -0.17767701526E+03  0.53740866517E+03  0.20338817200E+03  0.60145287144E+03  0.12699999809E+01 0. -1.
</event>
<event>
 5   0  0.3652331E-05  0.2716207E+04  0.7818609E-02  0.8329765E-01
        2   -1    0    0  501    0  0.00000000000E+00  0.00000000000E+00  0.17001573469E+04  0.17001573469E+04  0.25500000920E-02 0. -1.
       -2   -1    0    0    0  501  0.00000000000E+00  0.00000000000E+00 -0.10848676978E+04  0.10848676978E+04  0.25500000920E-02 0.  1.
    10030    2    1    2    0    0  0.00000000000E+00  0.00000000000E+00  0.61528964911E+03  0.27850250447E+04  0.27162074934E+04 0.  0.
        1    1    3    3  502    0 -0.87909514328E+03  0.95553049172E+03 -0.10068996038E+03  0.13022999884E+04  0.50400001928E-02 0.  1.
       -1    1    3    3    0  502  0.87909514328E+03 -0.95553049172E+03  0.71597960949E+03  0.14827250564E+04  0.50400001928E-02 0. -1.
</event>
<event>
 5   0  0.3652331E-05  0.2435640E+04  0.7818609E-02  0.8426280E-01
        2   -1    0    0  501    0  0.00000000000E+00  0.00000000000E+00  0.14039703839E+04  0.14039703839E+04  0.25500000920E-02 0.  1.
       -2   -1    0    0    0  501  0.00000000000E+00  0.00000000000E+00 -0.10563513500E+04  0.10563513500E+04  0.25500000920E-02 0. -1.
    10030    2    1    2    0    0  0.00000000000E+00  0.00000000000E+00  0.34761903383E+03  0.24603217339E+04  0.24356403761E+04 0.  0.
        1    1    3    3  502    0 -0.19959707545E+03  0.77796578785E+03  0.10985182486E+04  0.13608130298E+04  0.50400001928E-02 0.  1.
       -1    1    3    3    0  502  0.19959707545E+03 -0.77796578785E+03 -0.75089921476E+03  0.10995087041E+04  0.50400001928E-02 0. -1.
</event>
<event>
 5   0  0.1438701E-05  0.2297023E+04  0.7818609E-02  0.8479096E-01
       -1   -1    0    0    0  501  0.00000000000E+00  0.00000000000E+00  0.88187002323E+03  0.88187002324E+03  0.50400001928E-02 0. -1.
        1   -1    0    0  501    0  0.00000000000E+00  0.00000000000E+00 -0.14957749267E+04  0.14957749268E+04  0.50400001928E-02 0.  1.
    10030    2    1    2    0    0  0.00000000000E+00  0.00000000000E+00 -0.61390490352E+03  0.23776449500E+04  0.22970233516E+04 0.  0.
        4    1    3    3  502    0 -0.70394794320E+02 -0.11461209585E+04 -0.28315018986E+03  0.11826767612E+04  0.12699999809E+01 0.  1.
       -4    1    3    3    0  502  0.70394794320E+02  0.11461209585E+04 -0.33075471366E+03  0.11949681888E+04  0.12699999809E+01 0. -1.
</event>
<event>
 5   0  0.1449521E-05  0.2655479E+04  0.7818609E-02  0.8349597E-01
        1   -1    0    0  501    0  0.00000000000E+00  0.00000000000E+00  0.13572400221E+04  0.13572400221E+04  0.50400001928E-02 0. -1.
       -1   -1    0    0    0  501  0.00000000000E+00  0.00000000000E+00 -0.12988799511E+04  0.12988799512E+04  0.50400001928E-02 0.  1.
    10030    2    1    2    0    0  0.00000000000E+00  0.00000000000E+00  0.58360070916E+02  0.26561199732E+04  0.26554787543E+04 0.  0.
        3    1    3    3  502    0 -0.89687985022E+03 -0.67029360879E+03  0.74293825849E+03  0.13437426293E+04  0.10100000352E+00 0. -1.
       -3    1    3    3    0  502  0.89687985022E+03  0.67029360879E+03 -0.68457818757E+03  0.13123773439E+04  0.10100000352E+00 0.  1.
</event>
<event>
 5   0  0.3676724E-05  0.2662131E+04  0.7818609E-02  0.8347398E-01
        2   -1    0    0  501    0  0.00000000000E+00  0.00000000000E+00  0.18164835198E+04  0.18164835198E+04  0.25500000920E-02 0.  1.
       -2   -1    0    0    0  501  0.00000000000E+00  0.00000000000E+00 -0.97536577985E+03  0.97536577985E+03  0.25500000920E-02 0. -1.
    10030    2    1    2    0    0  0.00000000000E+00  0.00000000000E+00  0.84111773997E+03  0.27918492997E+04  0.26621313753E+04 0.  0.
        4    1    3    3  502    0  0.88729890198E+03  0.67602040333E+03 -0.34107359489E+03  0.11664629172E+04  0.12699999809E+01 0. -1.
       -4    1    3    3    0  502 -0.88729890198E+03 -0.67602040333E+03  0.11821913349E+04  0.16253863825E+04  0.12699999809E+01 0.  1.
</event>
<event>
 5   0  0.1438701E-05  0.2675419E+04  0.7818609E-02  0.8343025E-01
        1   -1    0    0  501    0  0.00000000000E+00  0.00000000000E+00  0.64874190021E+03  0.64874190023E+03  0.50400001928E-02 0.  1.
       -1   -1    0    0    0  501  0.00000000000E+00  0.00000000000E+00 -0.27583643188E+04  0.27583643188E+04  0.50400001928E-02 0. -1.
    10030    2    1    2    0    0  0.00000000000E+00  0.00000000000E+00 -0.21096224186E+04  0.34071062190E+04  0.26754188530E+04 0.  0.
        4    1    3    3  502    0 -0.61903727383E+03  0.10377464690E+04 -0.32398158788E+03  0.12510357959E+04  0.12699999809E+01 0.  1.
       -4    1    3    3    0  502  0.61903727383E+03 -0.10377464690E+04 -0.17856408307E+04  0.21560704231E+04  0.12699999809E+01 0. -1.
</event>
<event>
 5   0  0.1484379E-05  0.2700683E+04  0.7818609E-02  0.8334783E-01
        1   -1    0    0  501    0  0.00000000000E+00  0.00000000000E+00  0.15983703211E+04  0.15983703211E+04  0.50400001928E-02 0.  1.
       -1   -1    0    0    0  501  0.00000000000E+00  0.00000000000E+00 -0.11408007803E+04  0.11408007803E+04  0.50400001928E-02 0. -1.
    10030    2    1    2    0    0  0.00000000000E+00  0.00000000000E+00  0.45756954079E+03  0.27391711014E+04  0.27006829577E+04 0.  0.
        1    1    3    3  502    0  0.13009256389E+04  0.17441738209E+03 -0.92899481779E+02  0.13158492523E+04  0.50400001928E-02 0. -1.
       -1    1    3    3    0  502 -0.13009256389E+04 -0.17441738209E+03  0.55046902257E+03  0.14233218490E+04  0.50400001928E-02 0.  1.
</event>
<event>
 5   0  0.1495517E-05  0.2497054E+04  0.7818609E-02  0.8404036E-01
       -1   -1    0    0    0  501  0.00000000000E+00  0.00000000000E+00  0.58897946127E+03  0.58897946130E+03  0.50400001928E-02 0. -1.
        1   -1    0    0  501    0  0.00000000000E+00  0.00000000000E+00 -0.26466443764E+04  0.26466443764E+04  0.50400001928E-02 0.  1.
    10030    2    1    2    0    0  0.00000000000E+00  0.00000000000E+00 -0.20576649151E+04  0.32356238377E+04  0.24970536070E+04 0.  0.
        5    1    3    3  502    0  0.11696568629E+04 -0.11190677042E+03 -0.48187226245E+03  0.12699776650E+04  0.46999998093E+01 0. -1.
       -5    1    3    3    0  502 -0.11696568629E+04  0.11190677042E+03 -0.15757926526E+04  0.19656461727E+04  0.46999998093E+01 0.  1.
</event>
<event>
 5   0  0.3676724E-05  0.2647541E+04  0.7818609E-02  0.8352230E-01
        2   -1    0    0  501    0  0.00000000000E+00  0.00000000000E+00  0.24659279108E+04  0.24659279108E+04  0.25500000920E-02 0. -1.
       -2   -1    0    0    0  501  0.00000000000E+00  0.00000000000E+00 -0.71063256001E+03  0.71063256002E+03  0.25500000920E-02 0.  1.
    10030    2    1    2    0    0  0.00000000000E+00  0.00000000000E+00  0.17552953508E+04  0.31765604709E+04  0.26475412473E+04 0.  0.
        4    1    3    3  502    0 -0.41547710898E+03 -0.67802951924E+03  0.21474251808E+04  0.22899305179E+04  0.12699999809E+01 0. -1.
       -4    1    3    3    0  502  0.41547710898E+03  0.67802951924E+03 -0.39212982993E+03  0.88662995294E+03  0.12699999809E+01 0.  1.
</event>
<event>
 5   0  0.3514294E-05  0.2684828E+04  0.7818609E-02  0.8339945E-01
        2   -1    0    0  501    0  0.00000000000E+00  0.00000000000E+00  0.21990440722E+04  0.21990440722E+04  0.25500000920E-02 0. -1.
       -2   -1    0    0    0  501  0.00000000000E+00  0.00000000000E+00 -0.81948130280E+03  0.81948130281E+03  0.25500000920E-02 0.  1.
    10030    2    1    2    0    0  0.00000000000E+00  0.00000000000E+00  0.13795627694E+04  0.30185253750E+04  0.26848281146E+04 0.  0.
        2    1    3    3  502    0 -0.10550378111E+04 -0.61065334244E+03  0.57701178937E+02  0.12203817901E+04  0.25500000920E-02 0.  1.
       -2    1    3    3    0  502  0.10550378111E+04  0.61065334244E+03  0.13218615904E+04  0.17981435849E+04  0.25500000920E-02 0. -1.
</event>
<event>
 5   0  0.1495517E-05  0.2709207E+04  0.7818609E-02  0.8332024E-01
        1   -1    0    0  501    0  0.00000000000E+00  0.00000000000E+00  0.14758903591E+04  0.14758903591E+04  0.50400001928E-02 0.  1.
       -1   -1    0    0    0  501  0.00000000000E+00  0.00000000000E+00 -0.12432837566E+04  0.12432837566E+04  0.50400001928E-02 0. -1.
    10030    2    1    2    0    0  0.00000000000E+00  0.00000000000E+00  0.23260660251E+03  0.27191741157E+04  0.27092069024E+04 0.  0.
        5    1    3    3  502    0  0.34502172219E+02 -0.40915499372E+03  0.14119165435E+04  0.14704178401E+04  0.46999998093E+01 0.  1.
       -5    1    3    3    0  502 -0.34502172219E+02  0.40915499372E+03 -0.11793099410E+04  0.12487562756E+04  0.46999998093E+01 0. -1.
</event>
<event>
 5   0  0.1484379E-05  0.2664897E+04  0.7818609E-02  0.8346485E-01
        1   -1    0    0  501    0  0.00000000000E+00  0.00000000000E+00  0.19635706708E+04  0.19635706708E+04  0.50400001928E-02 0. -1.
       -1   -1    0    0    0  501  0.00000000000E+00  0.00000000000E+00 -0.90417865147E+03  0.90417865148E+03  0.50400001928E-02 0.  1.
    10030    2    1    2    0    0  0.00000000000E+00  0.00000000000E+00  0.10593920193E+04  0.28677493222E+04  0.26648967569E+04 0.  0.
        1    1    3    3  502    0  0.69247153954E+03 -0.56401350760E+03 -0.53440714067E+03  0.10407781040E+04  0.50400001928E-02 0.  1.
       -1    1    3    3    0  502 -0.69247153954E+03  0.56401350760E+03  0.15937991600E+04  0.18269712182E+04  0.50400001928E-02 0. -1.
</event>
<event>
 5   0  0.3568647E-05  0.2655584E+04  0.7818609E-02  0.8349562E-01
        2   -1    0    0  501    0  0.00000000000E+00  0.00000000000E+00  0.20242676895E+04  0.20242676895E+04  0.25500000920E-02 0. -1.
       -2   -1    0    0    0  501  0.00000000000E+00  0.00000000000E+00 -0.87094798460E+03  0.87094798461E+03  0.25500000920E-02 0.  1.
    10030    2    1    2    0    0  0.00000000000E+00  0.00000000000E+00  0.11533197049E+04  0.28952156741E+04  0.26555842027E+04 0.  0.
        3    1    3    3  502    0  0.41194373259E+03  0.74716265228E+03 -0.53253606407E+03  0.10057556053E+04  0.10100000352E+00 0.  1.
       -3    1    3    3    0  502 -0.41194373259E+03 -0.74716265228E+03  0.16858557689E+04  0.18894600688E+04  0.10100000352E+00 0. -1.
</event>
<event>
 5   0  0.3676724E-05  0.2515845E+04  0.7818609E-02  0.8397362E-01
       -2   -1    0    0    0  501  0.00000000000E+00  0.00000000000E+00  0.89027778906E+03  0.89027778906E+03  0.25500000920E-02 0.  1.
        2   -1    0    0  501    0  0.00000000000E+00  0.00000000000E+00 -0.17773883530E+04  0.17773883530E+04  0.25500000920E-02 0. -1.
    10030    2    1    2    0    0  0.00000000000E+00  0.00000000000E+00 -0.88711056389E+03  0.26676661420E+04  0.25158452839E+04 0.  0.
        4    1    3    3  502    0 -0.29338763495E+03  0.75407201361E+03  0.57772175377E+03  0.99421574305E+03  0.12699999809E+01 0.  1.
       -4    1    3    3    0  502  0.29338763495E+03 -0.75407201361E+03 -0.14648323177E+04  0.16734503990E+04  0.12699999809E+01 0. -1.
</event>
<event>
 5   0  0.3676724E-05  0.2739710E+04  0.7818609E-02  0.8322234E-01
       -2   -1    0    0    0  501  0.00000000000E+00  0.00000000000E+00  0.90715727801E+03  0.90715727801E+03  0.25500000920E-02 0. -1.
        2   -1    0    0  501    0  0.00000000000E+00  0.00000000000E+00 -0.20685530419E+04  0.20685530419E+04  0.25500000920E-02 0.  1.
    10030    2    1    2    0    0  0.00000000000E+00  0.00000000000E+00 -0.11613957639E+04  0.29757103200E+04  0.27397101649E+04 0.  0.
        4    1    3    3  502    0  0.35398492148E+03 -0.37699913447E+03 -0.19584566497E+04  0.20255833071E+04  0.12699999809E+01 0.  1.
       -4    1    3    3    0  502 -0.35398492148E+03  0.37699913447E+03  0.79706088581E+03  0.95012701289E+03  0.12699999809E+01 0. -1.
</event>
<event>
 5   0  0.1449521E-05  0.2738685E+04  0.7818609E-02  0.8322561E-01
        1   -1    0    0  501    0  0.00000000000E+00  0.00000000000E+00  0.92971964424E+03  0.92971964426E+03  0.50400001928E-02 0. -1.
       -1   -1    0    0    0  501  0.00000000000E+00  0.00000000000E+00 -0.20168427920E+04  0.20168427920E+04  0.50400001928E-02 0.  1.
    10030    2    1    2    0    0  0.00000000000E+00  0.00000000000E+00 -0.10871231478E+04  0.29465624363E+04  0.27386846208E+04 0.  0.
        3    1    3    3  502    0  0.19971767042E+03 -0.12865395900E+04 -0.10000634363E+04  0.16417058663E+04  0.10100000352E+00 0.  1.
       -3    1    3    3    0  502 -0.19971767042E+03  0.12865395900E+04 -0.87059711440E+02  0.13048565700E+04  0.10100000352E+00 0. -1.
</event>
<event>
 5   0  0.1449521E-05  0.2658733E+04  0.7818609E-02  0.8348520E-01
        1   -1    0    0  501    0  0.00000000000E+00  0.00000000000E+00  0.97708569486E+03  0.97708569487E+03  0.50400001928E-02 0. -1.
       -1   -1    0    0    0  501  0.00000000000E+00  0.00000000000E+00 -0.18086590342E+04  0.18086590342E+04  0.50400001928E-02 0.  1.
    10030    2    1    2    0    0  0.00000000000E+00  0.00000000000E+00 -0.83157333938E+03  0.27857447291E+04  0.26587326825E+04 0.  0.
        3    1    3    3  502    0  0.45266979994E+03  0.88191810008E+03  0.51226069353E+03  0.11158407195E+04  0.10100000352E+00 0. -1.
       -3    1    3    3    0  502 -0.45266979994E+03 -0.88191810008E+03 -0.13438340329E+04  0.16699040096E+04  0.10100000352E+00 0.  1.
</event>
<event>
 5   0  0.1484379E-05  0.2607764E+04  0.7818609E-02  0.8365569E-01
        1   -1    0    0  501    0  0.00000000000E+00  0.00000000000E+00  0.15987937190E+04  0.15987937190E+04  0.50400001928E-02 0.  1.
       -1   -1    0    0    0  501  0.00000000000E+00  0.00000000000E+00 -0.10633692844E+04  0.10633692844E+04  0.50400001928E-02 0. -1.
    10030    2    1    2    0    0  0.00000000000E+00  0.00000000000E+00  0.53542443463E+03  0.26621630034E+04  0.26077638949E+04 0.  0.
        1    1    3    3  502    0  0.84185061738E+03 -0.52550309435E+03  0.11310742203E+04  0.15047241794E+04  0.50400001928E-02 0.  1.
       -1    1    3    3    0  502 -0.84185061738E+03  0.52550309435E+03 -0.59564978566E+03  0.11574388240E+04  0.50400001928E-02 0. -1.
</event>
<event>
 5   0  0.1474012E-05  0.2660961E+04  0.7818609E-02  0.8347784E-01
       -1   -1    0    0    0  501  0.00000000000E+00  0.00000000000E+00  0.11917033733E+04  0.11917033733E+04  0.50400001928E-02 0. -1.
        1   -1    0    0  501    0  0.00000000000E+00  0.00000000000E+00 -0.14854189926E+04  0.14854189926E+04  0.50400001928E-02 0.  1.
    10030    2    1    2    0    0  0.00000000000E+00  0.00000000000E+00 -0.29371561926E+03  0.26771223659E+04  0.26609613483E+04 0.  0.
        2    1    3    3  502    0  0.27599861733E+03 -0.12857668322E+04 -0.35009270171E+03  0.13608587301E+04  0.25500000920E-02 0. -1.
       -2    1    3    3    0  502 -0.27599861733E+03  0.12857668322E+04  0.56377082451E+02  0.13162636358E+04  0.25500000920E-02 0.  1.
</event>
<event>
 5   0  0.3568647E-05  0.2702217E+04  0.7818609E-02  0.8334286E-01
        2   -1    0    0  501    0  0.00000000000E+00  0.00000000000E+00  0.13501761562E+04  0.13501761562E+04  0.25500000920E-02 0. -1.
       -2   -1    0    0    0  501  0.00000000000E+00  0.00000000000E+00 -0.13520415357E+04  0.13520415357E+04  0.25500000920E-02 0.  1.
    10030    2    1    2    0    0  0.00000000000E+00  0.00000000000E+00 -0.18653795236E+01  0.27022176918E+04  0.27022170480E+04 0.  0.
        3    1    3    3  502    0 -0.70457323405E+03  0.10756456624E+03 -0.11487572771E+04  0.13519012057E+04  0.10100000352E+00 0.  1.
       -3    1    3    3    0  502  0.70457323405E+03 -0.10756456624E+03  0.11468918975E+04  0.13503164862E+04  0.10100000352E+00 0. -1.
</event>
<event>
 5   0  0.3568647E-05  0.1611370E+04  0.7818609E-02  0.8813594E-01
       -2   -1    0    0    0  501  0.00000000000E+00  0.00000000000E+00  0.65755679203E+03  0.65755679204E+03  0.25500000920E-02 0.  1.
        2   -1    0    0  501    0  0.00000000000E+00  0.00000000000E+00 -0.98718164350E+03  0.98718164350E+03  0.25500000920E-02 0. -1.
    10030    2    1    2    0    0  0.00000000000E+00  0.00000000000E+00 -0.32962485146E+03  0.16447384355E+04  0.16113695972E+04 0.  0.
        3    1    3    3  502    0  0.27143423807E+03  0.41267504613E+02 -0.93796006123E+03  0.97731706176E+03  0.10100000352E+00 0. -1.
       -3    1    3    3    0  502 -0.27143423807E+03 -0.41267504613E+02  0.60833520977E+03  0.66742137378E+03  0.10100000352E+00 0.  1.
</event>
<event>
 5   0  0.1449521E-05  0.2633681E+04  0.7818609E-02  0.8356850E-01
        1   -1    0    0  501    0  0.00000000000E+00  0.00000000000E+00  0.10722995695E+04  0.10722995695E+04  0.50400001928E-02 0. -1.
       -1   -1    0    0    0  501  0.00000000000E+00  0.00000000000E+00 -0.16171496198E+04  0.16171496198E+04  0.50400001928E-02 0.  1.
    10030    2    1    2    0    0  0.00000000000E+00  0.00000000000E+00 -0.54485005028E+03  0.26894491893E+04  0.26336809534E+04 0.  0.
        3    1    3    3  502    0 -0.36468424856E+02  0.37113857333E+03 -0.15620987439E+04  0.16059969746E+04  0.10100000352E+00 0.  1.
       -3    1    3    3    0  502  0.36468424856E+02 -0.37113857333E+03  0.10172486936E+04  0.10834522147E+04  0.10100000352E+00 0. -1.
</event>
<event>
 5   0  0.3514294E-05  0.2677651E+04  0.7818609E-02  0.8342293E-01
        2   -1    0    0  501    0  0.00000000000E+00  0.00000000000E+00  0.22112450436E+04  0.22112450436E+04  0.25500000920E-02 0. -1.
       -2   -1    0    0    0  501  0.00000000000E+00  0.00000000000E+00 -0.81060842942E+03  0.81060842942E+03  0.25500000920E-02 0.  1.
    10030    2    1    2    0    0  0.00000000000E+00  0.00000000000E+00  0.14006366142E+04  0.30218534730E+04  0.26776511138E+04 0.  0.
        2    1    3    3  502    0  0.12571643347E+04 -0.30839253388E+03  0.31448456888E+03  0.13320918375E+04  0.25500000920E-02 0. -1.
       -2    1    3    3    0  502 -0.12571643347E+04  0.30839253388E+03  0.10861520453E+04  0.16897616355E+04  0.25500000920E-02 0.  1.
</event>
<event>
 5   0  0.3652331E-05  0.2604056E+04  0.7818609E-02  0.8366825E-01
       -2   -1    0    0    0  501  0.00000000000E+00  0.00000000000E+00  0.91915246690E+03  0.91915246690E+03  0.25500000920E-02 0.  1.
        2   -1    0    0  501    0  0.00000000000E+00  0.00000000000E+00 -0.18443912973E+04  0.18443912973E+04  0.25500000920E-02 0. -1.
    10030    2    1    2    0    0  0.00000000000E+00  0.00000000000E+00 -0.92523883041E+03  0.27635437642E+04  0.26040559217E+04 0.  0.
        1    1    3    3  502    0  0.22750695074E+03 -0.11487505159E+04  0.14134948389E+03  0.11795621378E+04  0.50400001928E-02 0.  1.
       -1    1    3    3    0  502 -0.22750695074E+03  0.11487505159E+04 -0.10665883143E+04  0.15839816264E+04  0.50400001928E-02 0. -1.
</event>
<event>
 5   0  0.3676724E-05  0.2754048E+04  0.7818609E-02  0.8317678E-01
        2   -1    0    0  501    0  0.00000000000E+00  0.00000000000E+00  0.22270747919E+04  0.22270747919E+04  0.25500000920E-02 0.  1.
       -2   -1    0    0    0  501  0.00000000000E+00  0.00000000000E+00 -0.85142833434E+03  0.85142833435E+03  0.25500000920E-02 0. -1.
    10030    2    1    2    0    0  0.00000000000E+00  0.00000000000E+00  0.13756464576E+04  0.30785031262E+04  0.27540476252E+04 0.  0.
        4    1    3    3  502    0 -0.98255533663E+03  0.68267359463E+03  0.14498508658E+04  0.18797679038E+04  0.12699999809E+01 0.  1.
       -4    1    3    3    0  502  0.98255533663E+03 -0.68267359463E+03 -0.74204408244E+02  0.11987352224E+04  0.12699999809E+01 0. -1.
</event>
<event>
 5   0  0.1495517E-05  0.2698642E+04  0.7818609E-02  0.8335446E-01
       -1   -1    0    0    0  501  0.00000000000E+00  0.00000000000E+00  0.15849561040E+04  0.15849561040E+04  0.50400001928E-02 0.  1.
        1   -1    0    0  501    0  0.00000000000E+00  0.00000000000E+00 -0.11487172984E+04  0.11487172984E+04  0.50400001928E-02 0. -1.
    10030    2    1    2    0    0  0.00000000000E+00  0.00000000000E+00  0.43623880559E+03  0.27336734024E+04  0.26986415056E+04 0.  0.
        5    1    3    3  502    0  0.18404978046E+03  0.79511561864E+03 -0.87033419089E+03  0.11931415937E+04  0.46999998093E+01 0. -1.
       -5    1    3    3    0  502 -0.18404978046E+03 -0.79511561864E+03  0.13065729965E+04  0.15405318088E+04  0.46999998093E+01 0.  1.
</event>
<event>
 5   0  0.3652331E-05  0.2675606E+04  0.7818609E-02  0.8342964E-01
       -2   -1    0    0    0  501  0.00000000000E+00  0.00000000000E+00  0.17288427807E+04  0.17288427807E+04  0.25500000920E-02 0.  1.
        2   -1    0    0  501    0  0.00000000000E+00  0.00000000000E+00 -0.10352107420E+04  0.10352107420E+04  0.25500000920E-02 0. -1.
    10030    2    1    2    0    0  0.00000000000E+00  0.00000000000E+00  0.69363203871E+03  0.27640535226E+04  0.26756058138E+04 0.  0.
        1    1    3    3  502    0 -0.98226989284E+03  0.89242729921E+03  0.17261186764E+03  0.13383106828E+04  0.50400001928E-02 0.  1.
       -1    1    3    3    0  502  0.98226989284E+03 -0.89242729921E+03  0.52102017107E+03  0.14257428399E+04  0.50400001928E-02 0. -1.
</event>
<event>
 5   0  0.3568647E-05  0.1462594E+04  0.7818609E-02  0.8909716E-01
        2   -1    0    0  501    0  0.00000000000E+00  0.00000000000E+00  0.25604859498E+04  0.25604859498E+04  0.25500000920E-02 0. -1.
       -2   -1    0    0    0  501  0.00000000000E+00  0.00000000000E+00 -0.20886476005E+03  0.20886476006E+03  0.25500000920E-02 0.  1.
    10030    2    1    2    0    0  0.00000000000E+00  0.00000000000E+00  0.23516211897E+04  0.27693507098E+04  0.14625939745E+04 0.  0.
        3    1    3    3  502    0 -0.20247149953E+03 -0.58932425242E+03  0.45109222257E+03  0.76927367437E+03  0.10100000352E+00 0.  1.
       -3    1    3    3    0  502  0.20247149953E+03  0.58932425242E+03  0.19005289671E+04  0.20000770355E+04  0.10100000352E+00 0. -1.
</event>
<event>
 5   0  0.1438701E-05  0.2792703E+04  0.7818609E-02  0.8305537E-01
       -1   -1    0    0    0  501  0.00000000000E+00  0.00000000000E+00  0.18094140177E+04  0.18094140177E+04  0.50400001928E-02 0.  1.
        1   -1    0    0  501    0  0.00000000000E+00  0.00000000000E+00 -0.10775848049E+04  0.10775848049E+04  0.50400001928E-02 0. -1.
    10030    2    1    2    0    0  0.00000000000E+00  0.00000000000E+00  0.73182921275E+03  0.28869988226E+04  0.27927026703E+04 0.  0.
        4    1    3    3  502    0 -0.12896324374E+04  0.17701084945E+03  0.88825844638E+03  0.15759090535E+04  0.12699999809E+01 0.  1.
       -4    1    3    3    0  502  0.12896324374E+04 -0.17701084945E+03 -0.15642923363E+03  0.13110897691E+04  0.12699999809E+01 0. -1.
</event>
<event>
 5   0  0.3497949E-05  0.2630054E+04  0.7818609E-02  0.8358064E-01
        2   -1    0    0  501    0  0.00000000000E+00  0.00000000000E+00  0.15042036502E+04  0.15042036502E+04  0.25500000920E-02 0.  1.
       -2   -1    0    0    0  501  0.00000000000E+00  0.00000000000E+00 -0.11496422810E+04  0.11496422810E+04  0.25500000920E-02 0. -1.
    10030    2    1    2    0    0  0.00000000000E+00  0.00000000000E+00  0.35456136924E+03  0.26538459312E+04  0.26300540796E+04 0.  0.
        5    1    3    3  502    0  0.44230868493E+02  0.22798082916E+03  0.14833397479E+04  0.15014161735E+04  0.46999998093E+01 0.  1.
       -5    1    3    3    0  502 -0.44230868493E+02 -0.22798082916E+03 -0.11287783787E+04  0.11524297577E+04  0.46999998093E+01 0. -1.
</event>
<event>
 5   0  0.3514294E-05  0.2589133E+04  0.7818609E-02  0.8371902E-01
       -2   -1    0    0    0  501  0.00000000000E+00  0.00000000000E+00  0.78513132037E+03  0.78513132037E+03  0.25500000920E-02 0. -1.
        2   -1    0    0  501    0  0.00000000000E+00  0.00000000000E+00 -0.21345503151E+04  0.21345503151E+04  0.25500000920E-02 0.  1.
    10030    2    1    2    0    0  0.00000000000E+00  0.00000000000E+00 -0.13494189947E+04  0.29196816355E+04  0.25891329107E+04 0.  0.
        2    1    3    3  502    0  0.12348998069E+04 -0.11296378004E+03 -0.10938682479E+04  0.16535676861E+04  0.25500000920E-02 0.  1.
       -2    1    3    3    0  502 -0.12348998069E+04  0.11296378004E+03 -0.25555074687E+03  0.12661139494E+04  0.25500000920E-02 0. -1.
</event>
<event>
 5   0  0.3514294E-05  0.1850556E+04  0.7818609E-02  0.8679867E-01
        2   -1    0    0  501    0  0.00000000000E+00  0.00000000000E+00  0.20219419060E+04  0.20219419060E+04  0.25500000920E-02 0. -1.
       -2   -1    0    0    0  501  0.00000000000E+00  0.00000000000E+00 -0.42342416503E+03  0.42342416504E+03  0.25500000920E-02 0.  1.
    10030    2    1    2    0    0  0.00000000000E+00  0.00000000000E+00  0.15985177409E+04  0.24453660710E+04  0.18505556607E+04 0.  0.
        2    1    3    3  502    0  0.75654482940E+03  0.49024079295E+03  0.10746826164E+04  0.14027255042E+04  0.25500000920E-02 0. -1.
       -2    1    3    3    0  502 -0.75654482940E+03 -0.49024079295E+03  0.52383512452E+03  0.10426405669E+04  0.25500000920E-02 0.  1.
</event>
<event>
 5   0  0.1449521E-05  0.2712497E+04  0.7818609E-02  0.8330961E-01
        1   -1    0    0  501    0  0.00000000000E+00  0.00000000000E+00  0.13542511319E+04  0.13542511319E+04  0.50400001928E-02 0. -1.
       -1   -1    0    0    0  501  0.00000000000E+00  0.00000000000E+00 -0.13582488512E+04  0.13582488512E+04  0.50400001928E-02 0.  1.
    10030    2    1    2    0    0  0.00000000000E+00  0.00000000000E+00 -0.39977192579E+01  0.27124999831E+04  0.27124970372E+04 0.  0.
        3    1    3    3  502    0 -0.69734205484E+03  0.11540517949E+04 -0.14790497139E+03  0.13564650300E+04  0.10100000352E+00 0.  1.
       -3    1    3    3    0  502  0.69734205484E+03 -0.11540517949E+04  0.14390725213E+03  0.13560349532E+04  0.10100000352E+00 0. -1.
</event>
<event>
 5   0  0.1474012E-05  0.1944900E+04  0.7818609E-02  0.8632824E-01
        1   -1    0    0  501    0  0.00000000000E+00  0.00000000000E+00  0.17428078403E+04  0.17428078403E+04  0.50400001928E-02 0. -1.
       -1   -1    0    0    0  501  0.00000000000E+00  0.00000000000E+00 -0.54260666873E+03  0.54260666876E+03  0.50400001928E-02 0.  1.
    10030    2    1    2    0    0  0.00000000000E+00  0.00000000000E+00  0.12002011716E+04  0.22854145091E+04  0.19449001584E+04 0.  0.
        2    1    3    3  502    0 -0.35180745769E+03  0.66226211580E+03 -0.12740583125E+03  0.76065224850E+03  0.25500000920E-02 0.  1.
       -2    1    3    3    0  502  0.35180745769E+03 -0.66226211580E+03  0.13276070028E+04  0.15247622606E+04  0.25500000920E-02 0. -1.
</event>
<event>
 5   0  0.3652331E-05  0.2723235E+04  0.7818609E-02  0.8327505E-01
       -2   -1    0    0    0  501  0.00000000000E+00  0.00000000000E+00  0.79960302048E+03  0.79960302049E+03  0.25500000920E-02 0.  1.
        2   -1    0    0  501    0  0.00000000000E+00  0.00000000000E+00 -0.23186532680E+04  0.23186532680E+04  0.25500000920E-02 0. -1.
    10030    2    1    2    0    0  0.00000000000E+00  0.00000000000E+00 -0.15190502475E+04  0.31182562885E+04  0.27232349561E+04 0.  0.
        1    1    3    3  502    0 -0.10911212162E+04  0.27771685969E+03  0.11726923990E+03  0.11320001047E+04  0.50400001928E-02 0.  1.
       -1    1    3    3    0  502  0.10911212162E+04 -0.27771685969E+03 -0.16363194874E+04  0.19862561837E+04  0.50400001928E-02 0. -1.
</event>
<event>
 5   0  0.1474012E-05  0.2672861E+04  0.7818609E-02  0.8343865E-01
        1   -1    0    0  501    0  0.00000000000E+00  0.00000000000E+00  0.18986069810E+04  0.18986069810E+04  0.50400001928E-02 0. -1.
       -1   -1    0    0    0  501  0.00000000000E+00  0.00000000000E+00 -0.94071440588E+03  0.94071440589E+03  0.50400001928E-02 0.  1.
    10030    2    1    2    0    0  0.00000000000E+00  0.00000000000E+00  0.95789257509E+03  0.28393213869E+04  0.26728613418E+04 0.  0.
        2    1    3    3  502    0 -0.11262159537E+04  0.52371225713E+03 -0.45145511307E+02  0.12428495564E+04  0.25500000920E-02 0. -1.
       -2    1    3    3    0  502  0.11262159537E+04 -0.52371225713E+03  0.10030380864E+04  0.15964718305E+04  0.25500000920E-02 0.  1.
</event>
<event>
 5   0  0.1495517E-05  0.2724911E+04  0.7818609E-02  0.8326967E-01
       -1   -1    0    0    0  501  0.00000000000E+00  0.00000000000E+00  0.14766884099E+04  0.14766884099E+04  0.50400001928E-02 0. -1.
        1   -1    0    0  501    0  0.00000000000E+00  0.00000000000E+00 -0.12570595393E+04  0.12570595393E+04  0.50400001928E-02 0.  1.
    10030    2    1    2    0    0  0.00000000000E+00  0.00000000000E+00  0.21962887055E+03  0.27337479492E+04  0.27249111929E+04 0.  0.
        5    1    3    3  502    0 -0.80642014742E+03 -0.14324214250E+03  0.12021204629E+04  0.14546296652E+04  0.46999998093E+01 0. -1.
       -5    1    3    3    0  502  0.80642014742E+03  0.14324214250E+03 -0.98249159233E+03  0.12791182840E+04  0.46999998093E+01 0.  1.
</event>
<event>
 5   0  0.3497949E-05  0.2744792E+04  0.7818609E-02  0.8320616E-01
        2   -1    0    0  501    0  0.00000000000E+00  0.00000000000E+00  0.18172963159E+04  0.18172963159E+04  0.25500000920E-02 0. -1.
       -2   -1    0    0    0  501  0.00000000000E+00  0.00000000000E+00 -0.10364136895E+04  0.10364136895E+04  0.25500000920E-02 0.  1.
    10030    2    1    2    0    0  0.00000000000E+00  0.00000000000E+00  0.78088262646E+03  0.28537100054E+04  0.27447919992E+04 0.  0.
        5    1    3    3  502    0 -0.13568626306E+04 -0.52452733055E+02  0.18349188831E+03  0.13702258392E+04  0.46999998093E+01 0.  1.
       -5    1    3    3    0  502  0.13568626306E+04  0.52452733055E+02  0.59739073814E+03  0.14834841662E+04  0.46999998093E+01 0. -1.
</event>
<event>
 5   0  0.1474012E-05  0.1479057E+04  0.7818609E-02  0.8898501E-01
        1   -1    0    0  501    0  0.00000000000E+00  0.00000000000E+00  0.79086290790E+03  0.79086290792E+03  0.50400001928E-02 0. -1.
       -1   -1    0    0    0  501  0.00000000000E+00  0.00000000000E+00 -0.69152577755E+03  0.69152577757E+03  0.50400001928E-02 0.  1.
    10030    2    1    2    0    0  0.00000000000E+00  0.00000000000E+00  0.99337130352E+02  0.14823886855E+04  0.14790565741E+04 0.  0.
        2    1    3    3  502    0  0.30358010771E+03 -0.32849134087E+03  0.63992202472E+03  0.78074812875E+03  0.25500000920E-02 0. -1.
       -2    1    3    3    0  502 -0.30358010771E+03  0.32849134087E+03 -0.54058489437E+03  0.70164055673E+03  0.25500000920E-02 0.  1.
</event>
<event>
 5   0  0.1449521E-05  0.2707264E+04  0.7818609E-02  0.8332652E-01
       -1   -1    0    0    0  501  0.00000000000E+00  0.00000000000E+00  0.12057785830E+04  0.12057785830E+04  0.50400001928E-02 0. -1.
        1   -1    0    0  501    0  0.00000000000E+00  0.00000000000E+00 -0.15196155797E+04  0.15196155797E+04  0.50400001928E-02 0.  1.
    10030    2    1    2    0    0  0.00000000000E+00  0.00000000000E+00 -0.31383699668E+03  0.27253941627E+04  0.27072642431E+04 0.  0.
        3    1    3    3  502    0 -0.22259542794E+03  0.24335269550E+03 -0.14785509675E+04  0.15148868712E+04  0.10100000352E+00 0.  1.
       -3    1    3    3    0  502  0.22259542794E+03 -0.24335269550E+03  0.11647139708E+04  0.12105072915E+04  0.10100000352E+00 0. -1.
</event>
<event>
 5   0  0.1495517E-05  0.2679109E+04  0.7818609E-02  0.8341815E-01
        1   -1    0    0  501    0  0.00000000000E+00  0.00000000000E+00  0.21636230957E+04  0.21636230957E+04  0.50400001928E-02 0.  1.
       -1   -1    0    0    0  501  0.00000000000E+00  0.00000000000E+00 -0.82935225872E+03  0.82935225874E+03  0.50400001928E-02 0. -1.
    10030    2    1    2    0    0  0.00000000000E+00  0.00000000000E+00  0.13342708370E+04  0.29929753544E+04  0.26791085842E+04 0.  0.
        5    1    3    3  502    0 -0.66049152755E+02 -0.13282050870E+04  0.48737308074E+03  0.14163494815E+04  0.46999998093E+01 0.  1.
       -5    1    3    3    0  502  0.66049152755E+02  0.13282050870E+04  0.84689775623E+03  0.15766258730E+04  0.46999998093E+01 0. -1.
</event>
<event>
 5   0  0.3514294E-05  0.2585710E+04  0.7818609E-02  0.8373071E-01
       -2   -1    0    0    0  501  0.00000000000E+00  0.00000000000E+00  0.14186325393E+04  0.14186325393E+04  0.25500000920E-02 0.  1.
        2   -1    0    0  501    0  0.00000000000E+00  0.00000000000E+00 -0.11782290471E+04  0.11782290471E+04  0.25500000920E-02 0. -1.
    10030    2    1    2    0    0  0.00000000000E+00  0.00000000000E+00  0.24040349215E+03  0.25968615864E+04  0.25857100108E+04 0.  0.
        2    1    3    3  502    0  0.76405524302E+03  0.77544215532E+03 -0.58021775621E+03  0.12335897192E+04  0.25500000920E-02 0. -1.
       -2    1    3    3    0  502 -0.76405524302E+03 -0.77544215532E+03  0.82062124837E+03  0.13632718672E+04  0.25500000920E-02 0.  1.
</event>
<event>
 5   0  0.3652331E-05  0.2736703E+04  0.7818609E-02  0.8323194E-01
       -2   -1    0    0    0  501  0.00000000000E+00  0.00000000000E+00  0.11522782186E+04  0.11522782186E+04  0.25500000920E-02 0. -1.
        2   -1    0    0  501    0  0.00000000000E+00  0.00000000000E+00 -0.16249419332E+04  0.16249419332E+04  0.25500000920E-02 0.  1.
    10030    2    1    2    0    0  0.00000000000E+00  0.00000000000E+00 -0.47266371464E+03  0.27772201518E+04  0.27367025386E+04 0.  0.
        1    1    3    3  502    0 -0.13501224237E+04 -0.18697475337E+02 -0.11225627742E+02  0.13502985483E+04  0.50400001928E-02 0.  1.
       -1    1    3    3    0  502  0.13501224237E+04  0.18697475337E+02 -0.46143808690E+03  0.14269216036E+04  0.50400001928E-02 0. -1.
</event>
<event>
 5   0  0.1449521E-05  0.1359415E+04  0.7818609E-02  0.8983732E-01
       -1   -1    0    0    0  501  0.00000000000E+00  0.00000000000E+00  0.10336452496E+04  0.10336452496E+04  0.50400001928E-02 0.  1.
        1   -1    0    0  501    0  0.00000000000E+00  0.00000000000E+00 -0.44696390690E+03  0.44696390693E+03  0.50400001928E-02 0. -1.
    10030    2    1    2    0    0  0.00000000000E+00  0.00000000000E+00  0.58668134272E+03  0.14806091566E+04  0.13594147552E+04 0.  0.
        3    1    3    3  502    0  0.62299047271E+03  0.26751274324E+03  0.34582278722E+03  0.76110026097E+03  0.10100000352E+00 0.  1.
       -3    1    3    3    0  502 -0.62299047271E+03 -0.26751274324E+03  0.24085855549E+03  0.71950889560E+03  0.10100000352E+00 0. -1.
</event>
<event>
 5   0  0.3652331E-05  0.2723575E+04  0.7818609E-02  0.8327396E-01
        2   -1    0    0  501    0  0.00000000000E+00  0.00000000000E+00  0.21948912237E+04  0.21948912237E+04  0.25500000920E-02 0. -1.
       -2   -1    0    0    0  501  0.00000000000E+00  0.00000000000E+00 -0.84490046263E+03  0.84490046263E+03  0.25500000920E-02 0.  1.
    10030    2    1    2    0    0  0.00000000000E+00  0.00000000000E+00  0.13499907610E+04  0.30397916863E+04  0.27235745705E+04 0.  0.
        1    1    3    3  502    0 -0.71773146379E+02 -0.94097093021E+02  0.21891409198E+04  0.21923374773E+04  0.50400001928E-02 0. -1.
       -1    1    3    3    0  502  0.71773146379E+02  0.94097093021E+02 -0.83915015876E+03  0.84745420904E+03  0.50400001928E-02 0.  1.
</event>
<event>
 5   0  0.3652331E-05  0.2676634E+04  0.7818609E-02  0.8342626E-01
        2   -1    0    0  501    0  0.00000000000E+00  0.00000000000E+00  0.26477312294E+04  0.26477312294E+04  0.25500000920E-02 0. -1.
       -2   -1    0    0    0  501  0.00000000000E+00  0.00000000000E+00 -0.67646322838E+03  0.67646322838E+03  0.25500000920E-02 0.  1.
    10030    2    1    2    0    0  0.00000000000E+00  0.00000000000E+00  0.19712680011E+04  0.33241944578E+04  0.26766343160E+04 0.  0.
        1    1    3    3  502    0 -0.92576959934E+03  0.93003069968E+03  0.65920138768E+03  0.14685206580E+04  0.50400001928E-02 0.  1.
       -1    1    3    3    0  502  0.92576959934E+03 -0.93003069968E+03  0.13120666134E+04  0.18556737998E+04  0.50400001928E-02 0. -1.
</event>
<event>
 5   0  0.3497949E-05  0.2610842E+04  0.7818609E-02  0.8364528E-01
       -2   -1    0    0    0  501  0.00000000000E+00  0.00000000000E+00  0.98389618875E+03  0.98389618875E+03  0.25500000920E-02 0. -1.
        2   -1    0    0  501    0  0.00000000000E+00  0.00000000000E+00 -0.17320158886E+04  0.17320158886E+04  0.25500000920E-02 0.  1.
    10030    2    1    2    0    0  0.00000000000E+00  0.00000000000E+00 -0.74811969987E+03  0.27159120774E+04  0.26108418808E+04 0.  0.
        5    1    3    3  502    0  0.93620961968E+03 -0.29060992389E+03 -0.12708194897E+04  0.16049756525E+04  0.46999998093E+01 0.  1.
       -5    1    3    3    0  502 -0.93620961968E+03  0.29060992389E+03  0.52269978979E+03  0.11109364249E+04  0.46999998093E+01 0. -1.
</event>
<event>
 5   0  0.3568647E-05  0.2793306E+04  0.7818609E-02  0.8305350E-01
        2   -1    0    0  501    0  0.00000000000E+00  0.00000000000E+00  0.97914428620E+03  0.97914428621E+03  0.25500000920E-02 0.  1.
       -2   -1    0    0    0  501  0.00000000000E+00  0.00000000000E+00 -0.19921874821E+04  0.19921874821E+04  0.25500000920E-02 0. -1.
    10030    2    1    2    0    0  0.00000000000E+00  0.00000000000E+00 -0.10130431959E+04  0.29713317683E+04  0.27933055616E+04 0.  0.
        3    1    3    3  502    0  0.95427398935E+03 -0.60343076436E+03  0.36798834085E+03  0.11875112477E+04  0.10100000352E+00 0.  1.
       -3    1    3    3    0  502 -0.95427398935E+03  0.60343076436E+03 -0.13810315367E+04  0.17838205206E+04  0.10100000352E+00 0. -1.
</event>
<event>
 5   0  0.1484379E-05  0.2767171E+04  0.7818609E-02  0.8313533E-01
       -1   -1    0    0    0  501  0.00000000000E+00  0.00000000000E+00  0.97912610964E+03  0.97912610965E+03  0.50400001928E-02 0. -1.
        1   -1    0    0  501    0  0.00000000000E+00  0.00000000000E+00 -0.19551204928E+04  0.19551204928E+04  0.50400001928E-02 0.  1.
    10030    2    1    2    0    0  0.00000000000E+00  0.00000000000E+00 -0.97599438316E+03  0.29342466025E+04  0.27671714960E+04 0.  0.
        1    1    3    3  502    0 -0.58844922438E+03 -0.98926056282E+02 -0.18116655755E+04  0.19074042601E+04  0.50400001928E-02 0.  1.
       -1    1    3    3    0  502  0.58844922438E+03  0.98926056282E+02  0.83567119230E+03  0.10268423423E+04  0.50400001928E-02 0. -1.
</event>
<event>
 5   0  0.1484379E-05  0.2570362E+04  0.7818609E-02  0.8378339E-01
        1   -1    0    0  501    0  0.00000000000E+00  0.00000000000E+00  0.23154098079E+04  0.23154098079E+04  0.50400001928E-02 0.  1.
       -1   -1    0    0    0  501  0.00000000000E+00  0.00000000000E+00 -0.71334664665E+03  0.71334664666E+03  0.50400001928E-02 0. -1.
    10030    2    1    2    0    0  0.00000000000E+00  0.00000000000E+00  0.16020631612E+04  0.30287564546E+04  0.25703617038E+04 0.  0.
        1    1    3    3  502    0 -0.12352936723E+04 -0.65678679831E+02  0.39042550045E+03  0.12971878111E+04  0.50400001928E-02 0. -1.
       -1    1    3    3    0  502  0.12352936723E+04  0.65678679831E+02  0.12116376608E+04  0.17315686434E+04  0.50400001928E-02 0.  1.
</event>
<event>
 5   0  0.1484379E-05  0.2709624E+04  0.7818609E-02  0.8331889E-01
       -1   -1    0    0    0  501  0.00000000000E+00  0.00000000000E+00  0.11525218949E+04  0.11525218949E+04  0.50400001928E-02 0.  1.
        1   -1    0    0  501    0  0.00000000000E+00  0.00000000000E+00 -0.15926080543E+04  0.15926080543E+04  0.50400001928E-02 0. -1.
    10030    2    1    2    0    0  0.00000000000E+00  0.00000000000E+00 -0.44008615941E+03  0.27451299492E+04  0.27096240718E+04 0.  0.
        1    1    3    3  502    0  0.13780705091E+03  0.11159590678E+04 -0.98569759029E+03  0.14953110592E+04  0.50400001928E-02 0. -1.
       -1    1    3    3    0  502 -0.13780705091E+03 -0.11159590678E+04  0.54561143088E+03  0.12498188900E+04  0.50400001928E-02 0.  1.
</event>
<event>
 5   0  0.3497949E-05  0.1558627E+04  0.7818609E-02  0.8846376E-01
        2   -1    0    0  501    0  0.00000000000E+00  0.00000000000E+00  0.80401415826E+03  0.80401415827E+03  0.25500000920E-02 0.  1.
       -2   -1    0    0    0  501  0.00000000000E+00  0.00000000000E+00 -0.75537173439E+03  0.75537173439E+03  0.25500000920E-02 0. -1.
    10030    2    1    2    0    0  0.00000000000E+00  0.00000000000E+00  0.48642423873E+02  0.15593858927E+04  0.15586270487E+04 0.  0.
        5    1    3    3  502    0 -0.76898582309E+03 -0.59933333617E+02 -0.86981675501E+02  0.77622103969E+03  0.46999998093E+01 0. -1.
       -5    1    3    3    0  502  0.76898582309E+03  0.59933333617E+02  0.13562409937E+03  0.78316485297E+03  0.46999998093E+01 0.  1.
</event>
<event>
 5   0  0.3652331E-05  0.2771976E+04  0.7818609E-02  0.8312022E-01
       -2   -1    0    0    0  501  0.00000000000E+00  0.00000000000E+00  0.21995438670E+04  0.21995438670E+04  0.25500000920E-02 0. -1.
        2   -1    0    0  501    0  0.00000000000E+00  0.00000000000E+00 -0.87334575675E+03  0.87334575675E+03  0.25500000920E-02 0.  1.
    10030    2    1    2    0    0  0.00000000000E+00  0.00000000000E+00  0.13261981102E+04  0.30728896237E+04  0.27719756875E+04 0.  0.
        1    1    3    3  502    0 -0.25791628154E+02  0.69417773106E+02 -0.87115103906E+03  0.87429295330E+03  0.50400001928E-02 0.  1.
       -1    1    3    3    0  502  0.25791628154E+02 -0.69417773106E+02  0.21973491493E+04  0.21985966704E+04  0.50400001928E-02 0. -1.
</event>
<event>
 5   0  0.1495517E-05  0.2567242E+04  0.7818609E-02  0.8379414E-01
       -1   -1    0    0    0  501  0.00000000000E+00  0.00000000000E+00  0.13672369771E+04  0.13672369771E+04  0.50400001928E-02 0. -1.
        1   -1    0    0  501    0  0.00000000000E+00  0.00000000000E+00 -0.12051188582E+04  0.12051188582E+04  0.50400001928E-02 0.  1.
    10030    2    1    2    0    0  0.00000000000E+00  0.00000000000E+00  0.16211811894E+03  0.25723558353E+04  0.25672421505E+04 0.  0.
        5    1    3    3  502    0  0.30487586714E+03 -0.13307717067E+03 -0.11611693208E+04  0.12078886991E+04  0.46999998093E+01 0.  1.
       -5    1    3    3    0  502 -0.30487586714E+03  0.13307717067E+03  0.13232874398E+04  0.13644671363E+04  0.46999998093E+01 0. -1.
</event>
<event>
 5   0  0.1449521E-05  0.2025557E+04  0.7818609E-02  0.8594764E-01
        1   -1    0    0  501    0  0.00000000000E+00  0.00000000000E+00  0.16939714591E+04  0.16939714591E+04  0.50400001928E-02 0.  1.
       -1   -1    0    0    0  501  0.00000000000E+00  0.00000000000E+00 -0.60551195654E+03  0.60551195656E+03  0.50400001928E-02 0. -1.
    10030    2    1    2    0    0  0.00000000000E+00  0.00000000000E+00  0.10884595026E+04  0.22994834157E+04  0.20255566865E+04 0.  0.
        3    1    3    3  502    0  0.25814822685E+03 -0.87645656996E+03  0.48217230816E+02  0.91495439099E+03  0.10100000352E+00 0.  1.
       -3    1    3    3    0  502 -0.25814822685E+03  0.87645656996E+03  0.10402422717E+04  0.13845290247E+04  0.10100000352E+00 0. -1.
</event>
<event>
 5   0  0.3652331E-05  0.2701627E+04  0.7818609E-02  0.8334477E-01
       -2   -1    0    0    0  501  0.00000000000E+00  0.00000000000E+00  0.10582804068E+04  0.10582804068E+04  0.25500000920E-02 0.  1.
        2   -1    0    0  501    0  0.00000000000E+00  0.00000000000E+00 -0.17242096769E+04  0.17242096769E+04  0.25500000920E-02 0. -1.
    10030    2    1    2    0    0  0.00000000000E+00  0.00000000000E+00 -0.66592927010E+03  0.27824900836E+04  0.27016271528E+04 0.  0.
        1    1    3    3  502    0 -0.90728375900E+03 -0.99328445009E+03 -0.20716327176E+03  0.13611371861E+04  0.50400001928E-02 0.  1.
       -1    1    3    3    0  502  0.90728375900E+03  0.99328445009E+03 -0.45876599835E+03  0.14213528976E+04  0.50400001928E-02 0. -1.
</event>
<event>
 5   0  0.1484379E-05  0.2561814E+04  0.7818609E-02  0.8381289E-01
       -1   -1    0    0    0  501  0.00000000000E+00  0.00000000000E+00  0.96854207264E+03  0.96854207265E+03  0.50400001928E-02 0.  1.
        1   -1    0    0  501    0  0.00000000000E+00  0.00000000000E+00 -0.16940126461E+04  0.16940126461E+04  0.50400001928E-02 0. -1.
    10030    2    1    2    0    0  0.00000000000E+00  0.00000000000E+00 -0.72547057342E+03  0.26625547187E+04  0.25618138256E+04 0.  0.
        1    1    3    3  502    0  0.10126164708E+04  0.63064657519E+03  0.12210163964E+03  0.11991730610E+04  0.50400001928E-02 0.  1.
       -1    1    3    3    0  502 -0.10126164708E+04 -0.63064657519E+03 -0.84757221306E+03  0.14633816577E+04  0.50400001928E-02 0. -1.
</event>
<event>
 5   0  0.1474012E-05  0.2692595E+04  0.7818609E-02  0.8337412E-01
       -1   -1    0    0    0  501  0.00000000000E+00  0.00000000000E+00  0.11931484895E+04  0.11931484895E+04  0.50400001928E-02 0.  1.
        1   -1    0    0  501    0  0.00000000000E+00  0.00000000000E+00 -0.15191043003E+04  0.15191043004E+04  0.50400001928E-02 0. -1.
    10030    2    1    2    0    0  0.00000000000E+00  0.00000000000E+00 -0.32595581082E+03  0.27122527899E+04  0.26925950319E+04 0.  0.
        2    1    3    3  502    0 -0.19643503809E+02  0.26079860439E+03  0.11673132717E+04  0.11962533400E+04  0.25500000920E-02 0.  1.
       -2    1    3    3    0  502  0.19643503809E+02 -0.26079860439E+03 -0.14932690825E+04  0.15159994499E+04  0.25500000920E-02 0. -1.
</event>
<event>
 5   0  0.1438701E-05  0.1992225E+04  0.7818609E-02  0.8610264E-01
        1   -1    0    0  501    0  0.00000000000E+00  0.00000000000E+00  0.17532075349E+04  0.17532075349E+04  0.50400001928E-02 0. -1.
       -1   -1    0    0    0  501  0.00000000000E+00  0.00000000000E+00 -0.56595686760E+03  0.56595686762E+03  0.50400001928E-02 0.  1.
    10030    2    1    2    0    0  0.00000000000E+00  0.00000000000E+00  0.11872506673E+04  0.23191644025E+04  0.19922247310E+04 0.  0.
        4    1    3    3  502    0 -0.96769251131E+03 -0.17125222609E+03  0.78306438292E+03  0.12565618019E+04  0.12699999809E+01 0. -1.
       -4    1    3    3    0  502  0.96769251131E+03  0.17125222609E+03  0.40418628436E+03  0.10626026006E+04  0.12699999809E+01 0.  1.
</event>
<event>
 5   0  0.1438701E-05  0.2699886E+04  0.7818609E-02  0.8335042E-01
        1   -1    0    0  501    0  0.00000000000E+00  0.00000000000E+00  0.17305134779E+04  0.17305134779E+04  0.50400001928E-02 0.  1.
       -1   -1    0    0    0  501  0.00000000000E+00  0.00000000000E+00 -0.10530667242E+04  0.10530667242E+04  0.50400001928E-02 0. -1.
    10030    2    1    2    0    0  0.00000000000E+00  0.00000000000E+00  0.67744675374E+03  0.27835802021E+04  0.26998860415E+04 0.  0.
        4    1    3    3  502    0  0.71400993134E+03 -0.29114377487E+03 -0.80367283711E+03  0.11137623273E+04  0.12699999809E+01 0. -1.
       -4    1    3    3    0  502 -0.71400993134E+03  0.29114377487E+03  0.14811195908E+04  0.16698178748E+04  0.12699999809E+01 0.  1.
</event>
<event>
 5   0  0.1484379E-05  0.2668403E+04  0.7818609E-02  0.8345331E-01
        1   -1    0    0  501    0  0.00000000000E+00  0.00000000000E+00  0.22796942351E+04  0.22796942351E+04  0.50400001928E-02 0.  1.
       -1   -1    0    0    0  501  0.00000000000E+00  0.00000000000E+00 -0.78084731990E+03  0.78084731992E+03  0.50400001928E-02 0. -1.
    10030    2    1    2    0    0  0.00000000000E+00  0.00000000000E+00  0.14988469152E+04  0.30605415551E+04  0.26684026186E+04 0.  0.
        1    1    3    3  502    0  0.94701353961E+02  0.97522240851E+02 -0.77288382000E+03  0.78474730528E+03  0.50400001928E-02 0. -1.
       -1    1    3    3    0  502 -0.94701353961E+02 -0.97522240851E+02  0.22717307352E+04  0.22757942498E+04  0.50400001928E-02 0.  1.
</event>
<event>
 5   0  0.1449521E-05  0.2712111E+04  0.7818609E-02  0.8331086E-01
        1   -1    0    0  501    0  0.00000000000E+00  0.00000000000E+00  0.18956321150E+04  0.18956321150E+04  0.50400001928E-02 0. -1.
       -1   -1    0    0    0  501  0.00000000000E+00  0.00000000000E+00 -0.97006539214E+03  0.97006539216E+03  0.50400001928E-02 0.  1.
    10030    2    1    2    0    0  0.00000000000E+00  0.00000000000E+00  0.92556672290E+03  0.28656975072E+04  0.27121114365E+04 0.  0.
        3    1    3    3  502    0  0.59406819110E+03 -0.92995847236E+03  0.12955438771E+04  0.17018148324E+04  0.10100000352E+00 0. -1.
       -3    1    3    3    0  502 -0.59406819110E+03  0.92995847236E+03 -0.36997715418E+03  0.11638826748E+04  0.10100000352E+00 0.  1.
</event>
<event>
 5   0  0.1438701E-05  0.2751970E+04  0.7818609E-02  0.8318337E-01
        1   -1    0    0  501    0  0.00000000000E+00  0.00000000000E+00  0.15365864561E+04  0.15365864561E+04  0.50400001928E-02 0. -1.
       -1   -1    0    0    0  501  0.00000000000E+00  0.00000000000E+00 -0.12321693344E+04  0.12321693344E+04  0.50400001928E-02 0.  1.
    10030    2    1    2    0    0  0.00000000000E+00  0.00000000000E+00  0.30441712164E+03  0.27687557905E+04  0.27519699932E+04 0.  0.
        4    1    3    3  502    0 -0.22131369468E+03  0.38428011987E+03  0.14627211622E+04  0.15284651692E+04  0.12699999809E+01 0. -1.
       -4    1    3    3    0  502  0.22131369468E+03 -0.38428011987E+03 -0.11583040406E+04  0.12402906213E+04  0.12699999809E+01 0.  1.
</event>
<event>
 5   0  0.3568647E-05  0.2322082E+04  0.7818609E-02  0.8469265E-01
       -2   -1    0    0    0  501  0.00000000000E+00  0.00000000000E+00  0.87621979768E+03  0.87621979768E+03  0.25500000920E-02 0. -1.
        2   -1    0    0  501    0  0.00000000000E+00  0.00000000000E+00 -0.15384459314E+04  0.15384459314E+04  0.25500000920E-02 0.  1.
    10030    2    1    2    0    0  0.00000000000E+00  0.00000000000E+00 -0.66222613373E+03  0.24146657291E+04  0.23220824988E+04 0.  0.
        3    1    3    3  502    0  0.93675274936E+02 -0.28685493808E+03  0.83472814627E+03  0.88759895280E+03  0.10100000352E+00 0. -1.
       -3    1    3    3    0  502 -0.93675274936E+02  0.28685493808E+03 -0.14969542800E+04  0.15270667763E+04  0.10100000352E+00 0.  1.
</event>
<event>
 5   0  0.1474012E-05  0.2701418E+04  0.7818609E-02  0.8334545E-01
        1   -1    0    0  501    0  0.00000000000E+00  0.00000000000E+00  0.13984938128E+04  0.13984938128E+04  0.50400001928E-02 0. -1.
       -1   -1    0    0    0  501  0.00000000000E+00  0.00000000000E+00 -0.13045572968E+04  0.13045572968E+04  0.50400001928E-02 0.  1.
    10030    2    1    2    0    0  0.00000000000E+00  0.00000000000E+00  0.93936516025E+02  0.27030511096E+04  0.27014183742E+04 0.  0.
        2    1    3    3  502    0 -0.70778799661E+03  0.81438577238E+02 -0.11012527435E+04  0.13116225430E+04  0.25500000920E-02 0.  1.
       -2    1    3    3    0  502  0.70778799661E+03 -0.81438577238E+02  0.11951892596E+04  0.13914285667E+04  0.25500000920E-02 0. -1.
</event>
<event>
 5   0  0.1449521E-05  0.2723394E+04  0.7818609E-02  0.8327454E-01
        1   -1    0    0  501    0  0.00000000000E+00  0.00000000000E+00  0.60180960609E+03  0.60180960611E+03  0.50400001928E-02 0.  1.
       -1   -1    0    0    0  501  0.00000000000E+00  0.00000000000E+00 -0.30810725888E+04  0.30810725888E+04  0.50400001928E-02 0. -1.
    10030    2    1    2    0    0  0.00000000000E+00  0.00000000000E+00 -0.24792629827E+04  0.36828821949E+04  0.27233942653E+04 0.  0.
        3    1    3    3  502    0 -0.68456656555E+03  0.48383441175E+03 -0.26907663066E+04  0.28183240495E+04  0.10100000352E+00 0. -1.
       -3    1    3    3    0  502  0.68456656555E+03 -0.48383441175E+03  0.21150332391E+03  0.86455814546E+03  0.10100000352E+00 0.  1.
</event>
<event>
 5   0  0.1474012E-05  0.2698488E+04  0.7818609E-02  0.8335496E-01
        1   -1    0    0  501    0  0.00000000000E+00  0.00000000000E+00  0.12127933663E+04  0.12127933663E+04  0.50400001928E-02 0.  1.
       -1   -1    0    0    0  501  0.00000000000E+00  0.00000000000E+00 -0.15010469587E+04  0.15010469587E+04  0.50400001928E-02 0. -1.
    10030    2    1    2    0    0  0.00000000000E+00  0.00000000000E+00 -0.28825359242E+03  0.27138403250E+04  0.26984883131E+04 0.  0.
        2    1    3    3  502    0  0.49908197462E+03  0.44829052726E+03  0.10331793686E+04  0.12318712684E+04  0.25500000920E-02 0.  1.
       -2    1    3    3    0  502 -0.49908197462E+03 -0.44829052726E+03 -0.13214329610E+04  0.14819690566E+04  0.25500000920E-02 0. -1.
</event>
<event>
 5   0  0.3652331E-05  0.2722591E+04  0.7818609E-02  0.8327712E-01
       -2   -1    0    0    0  501  0.00000000000E+00  0.00000000000E+00  0.99651756785E+03  0.99651756785E+03  0.25500000920E-02 0. -1.
        2   -1    0    0  501    0  0.00000000000E+00  0.00000000000E+00 -0.18596015305E+04  0.18596015305E+04  0.25500000920E-02 0.  1.
    10030    2    1    2    0    0  0.00000000000E+00  0.00000000000E+00 -0.86308396261E+03  0.28561190983E+04  0.27225911146E+04 0.  0.
        1    1    3    3  502    0  0.10800188647E+04 -0.42543927549E+03 -0.11775344983E+04  0.16534892863E+04  0.50400001928E-02 0.  1.
       -1    1    3    3    0  502 -0.10800188647E+04  0.42543927549E+03  0.31445053568E+03  0.12026298120E+04  0.50400001928E-02 0. -1.
</event>
<event>
 5   0  0.1484379E-05  0.1712183E+04  0.7818609E-02  0.8754446E-01
       -1   -1    0    0    0  501  0.00000000000E+00  0.00000000000E+00  0.10566865722E+04  0.10566865722E+04  0.50400001928E-02 0.  1.
        1   -1    0    0  501    0  0.00000000000E+00  0.00000000000E+00 -0.69357616788E+03  0.69357616790E+03  0.50400001928E-02 0. -1.
    10030    2    1    2    0    0  0.00000000000E+00  0.00000000000E+00  0.36311040433E+03  0.17502627401E+04  0.17121829615E+04 0.  0.
        1    1    3    3  502    0  0.60435925796E+03  0.51650813979E+03 -0.14309564936E+03  0.80777913816E+03  0.50400001928E-02 0. -1.
       -1    1    3    3    0  502 -0.60435925796E+03 -0.51650813979E+03  0.50620605369E+03  0.94248360196E+03  0.50400001928E-02 0.  1.
</event>
<event>
 5   0  0.3514294E-05  0.2700974E+04  0.7818609E-02  0.8334689E-01
       -2   -1    0    0    0  501  0.00000000000E+00  0.00000000000E+00  0.15235800347E+04  0.15235800347E+04  0.25500000920E-02 0. -1.
        2   -1    0    0  501    0  0.00000000000E+00  0.00000000000E+00 -0.11970588916E+04  0.11970588916E+04  0.25500000920E-02 0.  1.
    10030    2    1    2    0    0  0.00000000000E+00  0.00000000000E+00  0.32652114310E+03  0.27206389263E+04  0.27009739188E+04 0.  0.
        2    1    3    3  502    0 -0.25414820258E+03  0.82712240844E+03 -0.88115510182E+03  0.12349725102E+04  0.25500000920E-02 0.  1.
       -2    1    3    3    0  502  0.25414820258E+03 -0.82712240844E+03  0.12076762449E+04  0.14856664161E+04  0.25500000920E-02 0. -1.
</event>
<event>
 5   0  0.1495517E-05  0.2479988E+04  0.7818609E-02  0.8410150E-01
        1   -1    0    0  501    0  0.00000000000E+00  0.00000000000E+00  0.13592707312E+04  0.13592707312E+04  0.50400001928E-02 0.  1.
       -1   -1    0    0    0  501  0.00000000000E+00  0.00000000000E+00 -0.11311837818E+04  0.11311837818E+04  0.50400001928E-02 0. -1.
    10030    2    1    2    0    0  0.00000000000E+00  0.00000000000E+00  0.22808694943E+03  0.24904545130E+04  0.24799879082E+04 0.  0.
        5    1    3    3  502    0  0.10216342747E+04  0.31180818333E+03  0.74646477758E+03  0.13031472245E+04  0.46999998093E+01 0.  1.
       -5    1    3    3    0  502 -0.10216342747E+04 -0.31180818333E+03 -0.51837782814E+03  0.11873072885E+04  0.46999998093E+01 0. -1.
</event>
<event>
 5   0  0.1438701E-05  0.2413061E+04  0.7818609E-02  0.8434630E-01
       -1   -1    0    0    0  501  0.00000000000E+00  0.00000000000E+00  0.14984785422E+04  0.14984785422E+04  0.50400001928E-02 0. -1.
        1   -1    0    0  501    0  0.00000000000E+00  0.00000000000E+00 -0.97146249659E+03  0.97146249661E+03  0.50400001928E-02 0.  1.
    10030    2    1    2    0    0  0.00000000000E+00  0.00000000000E+00  0.52701604562E+03  0.24699410388E+04  0.24130608826E+04 0.  0.
        4    1    3    3  502    0 -0.10783332870E+04 -0.80478573463E+02  0.81131941090E+03  0.13518580835E+04  0.12699999809E+01 0. -1.
       -4    1    3    3    0  502  0.10783332870E+04  0.80478573463E+02 -0.28430336528E+03  0.11180829553E+04  0.12699999809E+01 0.  1.
</event>
<event>
 5   0  0.1449521E-05  0.2763127E+04  0.7818609E-02  0.8314808E-01
       -1   -1    0    0    0  501  0.00000000000E+00  0.00000000000E+00  0.14716293208E+04  0.14716293208E+04  0.50400001928E-02 0.  1.
        1   -1    0    0  501    0  0.00000000000E+00  0.00000000000E+00 -0.12970101122E+04  0.12970101122E+04  0.50400001928E-02 0. -1.
    10030    2    1    2    0    0  0.00000000000E+00  0.00000000000E+00  0.17461920865E+03  0.27686394330E+04  0.27631272938E+04 0.  0.
        3    1    3    3  502    0 -0.82741658291E+03 -0.11054262016E+04  0.13358410432E+03  0.13872382679E+04  0.10100000352E+00 0. -1.
       -3    1    3    3    0  502  0.82741658291E+03  0.11054262016E+04  0.41035104333E+02  0.13814011651E+04  0.10100000352E+00 0.  1.
</event>
<event>
 5   0  0.3568647E-05  0.2653860E+04  0.7818609E-02  0.8350133E-01
       -2   -1    0    0    0  501  0.00000000000E+00  0.00000000000E+00  0.10191549115E+04  0.10191549116E+04  0.25500000920E-02 0. -1.
        2   -1    0    0  501    0  0.00000000000E+00  0.00000000000E+00 -0.17276498435E+04  0.17276498435E+04  0.25500000920E-02 0.  1.
    10030    2    1    2    0    0  0.00000000000E+00  0.00000000000E+00 -0.70849493197E+03  0.27468047551E+04  0.26538596975E+04 0.  0.
        3    1    3    3  502    0 -0.48870685489E+03 -0.15254674841E+03 -0.16213104074E+04  0.17002212644E+04  0.10100000352E+00 0.  1.
       -3    1    3    3    0  502  0.48870685489E+03  0.15254674841E+03  0.91281547547E+03  0.10465834907E+04  0.10100000352E+00 0. -1.
</event>
<event>
 5   0  0.3676724E-05  0.2939688E+04  0.7818609E-02  0.8261166E-01
        2   -1    0    0  501    0  0.00000000000E+00  0.00000000000E+00  0.25361241967E+04  0.25361241967E+04  0.25500000920E-02 0. -1.
       -2   -1    0    0    0  501  0.00000000000E+00  0.00000000000E+00 -0.85186762573E+03  0.85186762574E+03  0.25500000920E-02 0.  1.
    10030    2    1    2    0    0  0.00000000000E+00  0.00000000000E+00  0.16842565710E+04  0.33879918225E+04  0.29396884856E+04 0.  0.
        4    1    3    3  502    0  0.92369725064E+03  0.40210460353E+03  0.20756459354E+04  0.23072087866E+04  0.12699999809E+01 0. -1.
       -4    1    3    3    0  502 -0.92369725064E+03 -0.40210460353E+03 -0.39138936444E+03  0.10807830358E+04  0.12699999809E+01 0.  1.
</event>
<event>
 5   0  0.1484379E-05  0.2202030E+04  0.7818609E-02  0.8517584E-01
       -1   -1    0    0    0  501  0.00000000000E+00  0.00000000000E+00  0.82263377019E+03  0.82263377021E+03  0.50400001928E-02 0.  1.
        1   -1    0    0  501    0  0.00000000000E+00  0.00000000000E+00 -0.14736015022E+04  0.14736015022E+04  0.50400001928E-02 0. -1.
    10030    2    1    2    0    0  0.00000000000E+00  0.00000000000E+00 -0.65096773201E+03  0.22962352724E+04  0.22020302991E+04 0.  0.
        1    1    3    3  502    0 -0.76629610016E+03  0.11548921114E+03 -0.11410471749E+04  0.13793245181E+04  0.50400001928E-02 0. -1.
       -1    1    3    3    0  502  0.76629610016E+03 -0.11548921114E+03  0.49007944285E+03  0.91691075429E+03  0.50400001928E-02 0.  1.
</event>
<event>
 5   0  0.1495517E-05  0.1453027E+04  0.7818609E-02  0.8916305E-01
       -1   -1    0    0    0  501  0.00000000000E+00  0.00000000000E+00  0.28980652461E+03  0.28980652465E+03  0.50400001928E-02 0. -1.
        1   -1    0    0  501    0  0.00000000000E+00  0.00000000000E+00 -0.18212894853E+04  0.18212894853E+04  0.50400001928E-02 0.  1.
    10030    2    1    2    0    0  0.00000000000E+00  0.00000000000E+00 -0.15314829607E+04  0.21110960100E+04  0.14530266014E+04 0.  0.
        5    1    3    3  502    0  0.45041807083E+03  0.14388001313E+03  0.35621793732E+02  0.47420343619E+03  0.46999998093E+01 0. -1.
       -5    1    3    3    0  502 -0.45041807083E+03 -0.14388001313E+03 -0.15671047544E+04  0.16368925738E+04  0.46999998093E+01 0.  1.
</event>
<event>
 5   0  0.3568647E-05  0.2123250E+04  0.7818609E-02  0.8551070E-01
       -2   -1    0    0    0  501  0.00000000000E+00  0.00000000000E+00  0.12946637816E+04  0.12946637816E+04  0.25500000920E-02 0.  1.
        2   -1    0    0  501    0  0.00000000000E+00  0.00000000000E+00 -0.87053342294E+03  0.87053342295E+03  0.25500000920E-02 0. -1.
    10030    2    1    2    0    0  0.00000000000E+00  0.00000000000E+00  0.42413035866E+03  0.21651972046E+04  0.21232504265E+04 0.  0.
        3    1    3    3  502    0  0.12917457098E+03 -0.10430238666E+04  0.59226839773E+02  0.10526598144E+04  0.10100000352E+00 0. -1.
       -3    1    3    3    0  502 -0.12917457098E+03  0.10430238666E+04  0.36490351888E+03  0.11125373901E+04  0.10100000352E+00 0.  1.
</event>
<event>
 5   0  0.1438701E-05  0.2563054E+04  0.7818609E-02  0.8380860E-01
       -1   -1    0    0    0  501  0.00000000000E+00  0.00000000000E+00  0.97158906406E+03  0.97158906407E+03  0.50400001928E-02 0. -1.
        1   -1    0    0  501    0  0.00000000000E+00  0.00000000000E+00 -0.16903348536E+04  0.16903348536E+04  0.50400001928E-02 0.  1.
    10030    2    1    2    0    0  0.00000000000E+00  0.00000000000E+00 -0.71874578952E+03  0.26619239177E+04  0.25630535370E+04 0.  0.
        4    1    3    3  502    0  0.12314408007E+04  0.23450144061E+03 -0.63586002401E+03  0.14056162187E+04  0.12699999809E+01 0.  1.
       -4    1    3    3    0  502 -0.12314408007E+04 -0.23450144061E+03 -0.82885765508E+02  0.12563076989E+04  0.12699999809E+01 0. -1.
</event>
<event>
 5   0  0.3568647E-05  0.2727281E+04  0.7818609E-02  0.8326207E-01
        2   -1    0    0  501    0  0.00000000000E+00  0.00000000000E+00  0.13795697201E+04  0.13795697201E+04  0.25500000920E-02 0. -1.
       -2   -1    0    0    0  501  0.00000000000E+00  0.00000000000E+00 -0.13478949046E+04  0.13478949046E+04  0.25500000920E-02 0.  1.
    10030    2    1    2    0    0  0.00000000000E+00  0.00000000000E+00  0.31674815500E+02  0.27274646247E+04  0.27272806942E+04 0.  0.
        3    1    3    3  502    0 -0.11460875841E+04 -0.21340602331E+03  0.72331433997E+03  0.13719484414E+04  0.10100000352E+00 0. -1.
       -3    1    3    3    0  502  0.11460875841E+04  0.21340602331E+03 -0.69163952447E+03  0.13555161833E+04  0.10100000352E+00 0.  1.
</event>
<event>
 5   0  0.1495517E-05  0.2719463E+04  0.7818609E-02  0.8328717E-01
        1   -1    0    0  501    0  0.00000000000E+00  0.00000000000E+00  0.20450330518E+04  0.20450330518E+04  0.50400001928E-02 0.  1.
       -1   -1    0    0    0  501  0.00000000000E+00  0.00000000000E+00 -0.90407836923E+03  0.90407836925E+03  0.50400001928E-02 0. -1.
    10030    2    1    2    0    0  0.00000000000E+00  0.00000000000E+00  0.11409546826E+04  0.29491114211E+04  0.27194632901E+04 0.  0.
        5    1    3    3  502    0 -0.10759348396E+04 -0.75954307542E+03  0.20383415160E+03  0.13327084880E+04  0.46999998093E+01 0. -1.
       -5    1    3    3    0  502  0.10759348396E+04  0.75954307542E+03  0.93712053100E+03  0.16164029331E+04  0.46999998093E+01 0.  1.
</event>
<event>
 5   0  0.1474012E-05  0.1355402E+04  0.7818609E-02  0.8986749E-01
        1   -1    0    0  501    0  0.00000000000E+00  0.00000000000E+00  0.73525754314E+03  0.73525754316E+03  0.50400001928E-02 0.  1.
       -1   -1    0    0    0  501  0.00000000000E+00  0.00000000000E+00 -0.62464977641E+03  0.62464977643E+03  0.50400001928E-02 0. -1.
    10030    2    1    2    0    0  0.00000000000E+00  0.00000000000E+00  0.11060776673E+03  0.13599073196E+04  0.13554017264E+04 0.  0.
        2    1    3    3  502    0  0.27363427111E+03  0.81726523971E+02  0.67193905376E+03  0.73010754757E+03  0.25500000920E-02 0.  1.
       -2    1    3    3    0  502 -0.27363427111E+03 -0.81726523971E+02 -0.56133128703E+03  0.62979977203E+03  0.25500000920E-02 0. -1.
</event>
<event>
 5   0  0.3497949E-05  0.2720021E+04  0.7818609E-02  0.8328538E-01
        2   -1    0    0  501    0  0.00000000000E+00  0.00000000000E+00  0.14372785451E+04  0.14372785451E+04  0.25500000920E-02 0. -1.
       -2   -1    0    0    0  501  0.00000000000E+00  0.00000000000E+00 -0.12868962052E+04  0.12868962052E+04  0.25500000920E-02 0.  1.
    10030    2    1    2    0    0  0.00000000000E+00  0.00000000000E+00  0.15038233986E+03  0.27241747503E+04  0.27200208128E+04 0.  0.
        5    1    3    3  502    0  0.53886126707E+03 -0.10794406758E+04  0.70387792646E+03  0.13967927058E+04  0.46999998093E+01 0. -1.
       -5    1    3    3    0  502 -0.53886126707E+03  0.10794406758E+04 -0.55349558660E+03  0.13273820445E+04  0.46999998093E+01 0.  1.
</event>
<event>
 5   0  0.1484379E-05  0.2611608E+04  0.7818609E-02  0.8364269E-01
        1   -1    0    0  501    0  0.00000000000E+00  0.00000000000E+00  0.10748654103E+04  0.10748654104E+04  0.50400001928E-02 0. -1.
       -1   -1    0    0    0  501  0.00000000000E+00  0.00000000000E+00 -0.15863602693E+04  0.15863602693E+04  0.50400001928E-02 0.  1.
    10030    2    1    2    0    0  0.00000000000E+00  0.00000000000E+00 -0.51149485894E+03  0.26612256796E+04  0.26116077667E+04 0.  0.
        1    1    3    3  502    0  0.51537556485E+03  0.11115161644E+04 -0.71604138249E+03  0.14190825973E+04  0.50400001928E-02 0.  1.
       -1    1    3    3    0  502 -0.51537556485E+03 -0.11115161644E+04  0.20454652355E+03  0.12421430823E+04  0.50400001928E-02 0. -1.
</event>
<event>
 5   0  0.1484379E-05  0.2660037E+04  0.7818609E-02  0.8348089E-01
       -1   -1    0    0    0  501  0.00000000000E+00  0.00000000000E+00  0.72698448825E+03  0.72698448827E+03  0.50400001928E-02 0. -1.
        1   -1    0    0  501    0  0.00000000000E+00  0.00000000000E+00 -0.24332691771E+04  0.24332691771E+04  0.50400001928E-02 0.  1.
    10030    2    1    2    0    0  0.00000000000E+00  0.00000000000E+00 -0.17062846888E+04  0.31602536654E+04  0.26600368024E+04 0.  0.
        1    1    3    3  502    0 -0.12420415055E+03  0.11426235770E+03 -0.24204964253E+04  0.24263729108E+04  0.50400001928E-02 0.  1.
       -1    1    3    3    0  502  0.12420415055E+03 -0.11426235770E+03  0.71421173645E+03  0.73388075456E+03  0.50400001928E-02 0. -1.
</event>
<event>
 5   0  0.3568647E-05  0.2787053E+04  0.7818609E-02  0.8307299E-01
        2   -1    0    0  501    0  0.00000000000E+00  0.00000000000E+00  0.17768248081E+04  0.17768248081E+04  0.25500000920E-02 0. -1.
       -2   -1    0    0    0  501  0.00000000000E+00  0.00000000000E+00 -0.10929139976E+04  0.10929139976E+04  0.25500000920E-02 0.  1.
    10030    2    1    2    0    0  0.00000000000E+00  0.00000000000E+00  0.68391081056E+03  0.28697388057E+04  0.27870534290E+04 0.  0.
        3    1    3    3  502    0  0.10666057884E+04  0.57898727475E+03  0.10471405972E+04  0.16029278252E+04  0.10100000352E+00 0. -1.
       -3    1    3    3    0  502 -0.10666057884E+04 -0.57898727475E+03 -0.36322978668E+03  0.12668109805E+04  0.10100000352E+00 0.  1.
</event>
<event>
 5   0  0.1438701E-05  0.2744899E+04  0.7818609E-02  0.8320582E-01
        1   -1    0    0  501    0  0.00000000000E+00  0.00000000000E+00  0.10045879343E+04  0.10045879343E+04  0.50400001928E-02 0.  1.
       -1   -1    0    0    0  501  0.00000000000E+00  0.00000000000E+00 -0.18750157468E+04  0.18750157468E+04  0.50400001928E-02 0. -1.
    10030    2    1    2    0    0  0.00000000000E+00  0.00000000000E+00 -0.87042781249E+03  0.28796036811E+04  0.27448994123E+04 0.  0.
        4    1    3    3  502    0  0.70262781576E+02  0.33499717234E+03  0.95909105940E+03  0.10183404328E+04  0.12699999809E+01 0.  1.
       -4    1    3    3    0  502 -0.70262781576E+02 -0.33499717234E+03 -0.18295188719E+04  0.18612632483E+04  0.12699999809E+01 0. -1.
</event>
<event>
 5   0  0.1484379E-05  0.2685357E+04  0.7818609E-02  0.8339772E-01
       -1   -1    0    0    0  501  0.00000000000E+00  0.00000000000E+00  0.12503714259E+04  0.12503714259E+04  0.50400001928E-02 0.  1.
        1   -1    0    0  501    0  0.00000000000E+00  0.00000000000E+00 -0.14418000567E+04  0.14418000568E+04  0.50400001928E-02 0. -1.
    10030    2    1    2    0    0  0.00000000000E+00  0.00000000000E+00 -0.19142863082E+03  0.26921714827E+04  0.26853570287E+04 0.  0.
        1    1    3    3  502    0 -0.12044446843E+04 -0.51445143422E+03  0.20073577015E+03  0.13250064623E+04  0.50400001928E-02 0.  1.
       -1    1    3    3    0  502  0.12044446843E+04  0.51445143422E+03 -0.39216440097E+03  0.13671650204E+04  0.50400001928E-02 0. -1.
</event>
<event>
 5   0  0.3497949E-05  0.2695463E+04  0.7818609E-02  0.8336478E-01
       -2   -1    0    0    0  501  0.00000000000E+00  0.00000000000E+00  0.10918279995E+04  0.10918279995E+04  0.25500000920E-02 0.  1.
        2   -1    0    0  501    0  0.00000000000E+00  0.00000000000E+00 -0.16636142771E+04  0.16636142771E+04  0.25500000920E-02 0. -1.
    10030    2    1    2    0    0  0.00000000000E+00  0.00000000000E+00 -0.57178627761E+03  0.27554422767E+04  0.26954633355E+04 0.  0.
        5    1    3    3  502    0  0.42478173581E+03 -0.49543478210E+03 -0.14913111363E+04  0.16278593741E+04  0.46999998093E+01 0. -1.
       -5    1    3    3    0  502 -0.42478173581E+03  0.49543478210E+03  0.91952485873E+03  0.11275829026E+04  0.46999998093E+01 0.  1.
</event>
<event>
 5   0  0.1495517E-05  0.2688915E+04  0.7818609E-02  0.8338611E-01
        1   -1    0    0  501    0  0.00000000000E+00  0.00000000000E+00  0.14628225819E+04  0.14628225819E+04  0.50400001928E-02 0.  1.
       -1   -1    0    0    0  501  0.00000000000E+00  0.00000000000E+00 -0.12356696802E+04  0.12356696802E+04  0.50400001928E-02 0. -1.
    10030    2    1    2    0    0  0.00000000000E+00  0.00000000000E+00  0.22715290171E+03  0.26984922621E+04  0.26889146598E+04 0.  0.
        5    1    3    3  502    0 -0.33722127213E+03  0.10971794840E+04 -0.58893293592E+03  0.12901104989E+04  0.46999998093E+01 0. -1.
       -5    1    3    3    0  502  0.33722127213E+03 -0.10971794840E+04  0.81608583763E+03  0.14083817632E+04  0.46999998093E+01 0.  1.
</event>
<event>
 5   0  0.3568647E-05  0.1786955E+04  0.7818609E-02  0.8713267E-01
        2   -1    0    0  501    0  0.00000000000E+00  0.00000000000E+00  0.13744383225E+04  0.13744383225E+04  0.25500000920E-02 0. -1.
       -2   -1    0    0    0  501  0.00000000000E+00  0.00000000000E+00 -0.58082064122E+03  0.58082064122E+03  0.25500000920E-02 0.  1.
    10030    2    1    2    0    0  0.00000000000E+00  0.00000000000E+00  0.79361768125E+03  0.19552589637E+04  0.17869551173E+04 0.  0.
        3    1    3    3  502    0  0.72514008459E+03  0.48887467413E+03  0.19661325793E+03  0.89637234042E+03  0.10100000352E+00 0. -1.
       -3    1    3    3    0  502 -0.72514008459E+03 -0.48887467413E+03  0.59700442332E+03  0.10588866233E+04  0.10100000352E+00 0.  1.
</event>
<event>
 5   0  0.1474012E-05  0.2695411E+04  0.7818609E-02  0.8336496E-01
        1   -1    0    0  501    0  0.00000000000E+00  0.00000000000E+00  0.21373687730E+04  0.21373687730E+04  0.50400001928E-02 0.  1.
       -1   -1    0    0    0  501  0.00000000000E+00  0.00000000000E+00 -0.84978779589E+03  0.84978779590E+03  0.50400001928E-02 0. -1.
    10030    2    1    2    0    0  0.00000000000E+00  0.00000000000E+00  0.12875809771E+04  0.29871565689E+04  0.26954108396E+04 0.  0.
        2    1    3    3  502    0  0.74006896318E+03  0.10372315349E+04  0.15722660952E+03  0.12838502771E+04  0.25500000920E-02 0. -1.
       -2    1    3    3    0  502 -0.74006896318E+03 -0.10372315349E+04  0.11303543676E+04  0.17033062918E+04  0.25500000920E-02 0.  1.
</event>
<event>
 5   0  0.1438701E-05  0.2733455E+04  0.7818609E-02  0.8324231E-01
        1   -1    0    0  501    0  0.00000000000E+00  0.00000000000E+00  0.24653819681E+04  0.24653819681E+04  0.50400001928E-02 0.  1.
       -1   -1    0    0    0  501  0.00000000000E+00  0.00000000000E+00 -0.75766933905E+03  0.75766933907E+03  0.50400001928E-02 0. -1.
    10030    2    1    2    0    0  0.00000000000E+00  0.00000000000E+00  0.17077126290E+04  0.32230513072E+04  0.27334551954E+04 0.  0.
        4    1    3    3  502    0 -0.23121619775E+03  0.85222434829E+03 -0.37615387981E+03  0.95981280681E+03  0.12699999809E+01 0. -1.
       -4    1    3    3    0  502  0.23121619775E+03 -0.85222434829E+03  0.20838665088E+04  0.22632385003E+04  0.12699999809E+01 0.  1.
</event>
<event>
 5   0  0.1484379E-05  0.2761468E+04  0.7818609E-02  0.8315332E-01
        1   -1    0    0  501    0  0.00000000000E+00  0.00000000000E+00  0.16938847784E+04  0.16938847784E+04  0.50400001928E-02 0. -1.
       -1   -1    0    0    0  501  0.00000000000E+00  0.00000000000E+00 -0.11254755127E+04  0.11254755127E+04  0.50400001928E-02 0.  1.
    10030    2    1    2    0    0  0.00000000000E+00  0.00000000000E+00  0.56840926566E+03  0.28193602912E+04  0.27614676094E+04 0.  0.
        1    1    3    3  502    0  0.45888984013E+03  0.10119025927E+03  0.16097320709E+04  0.16769188096E+04  0.50400001928E-02 0. -1.
       -1    1    3    3    0  502 -0.45888984013E+03 -0.10119025927E+03 -0.10413228052E+04  0.11424414815E+04  0.50400001928E-02 0.  1.
</event>
<event>
 5   0  0.1438701E-05  0.2759069E+04  0.7818609E-02  0.8316089E-01
       -1   -1    0    0    0  501  0.00000000000E+00  0.00000000000E+00  0.66742650627E+03  0.66742650629E+03  0.50400001928E-02 0. -1.
        1   -1    0    0  501    0  0.00000000000E+00  0.00000000000E+00 -0.28514241009E+04  0.28514241009E+04  0.50400001928E-02 0.  1.
    10030    2    1    2    0    0  0.00000000000E+00  0.00000000000E+00 -0.21839975947E+04  0.35188506072E+04  0.27590694269E+04 0.  0.
        4    1    3    3  502    0  0.89098682728E+03 -0.97695301731E+03 -0.59017495105E+03  0.14479650583E+04  0.12699999809E+01 0. -1.
       -4    1    3    3    0  502 -0.89098682728E+03  0.97695301731E+03 -0.15938226436E+04  0.20708855489E+04  0.12699999809E+01 0.  1.
</event>
<event>
 5   0  0.3514294E-05  0.2736934E+04  0.7818609E-02  0.8323120E-01
        2   -1    0    0  501    0  0.00000000000E+00  0.00000000000E+00  0.11671896113E+04  0.11671896113E+04  0.25500000920E-02 0. -1.
       -2   -1    0    0    0  501  0.00000000000E+00  0.00000000000E+00 -0.16044541887E+04  0.16044541887E+04  0.25500000920E-02 0.  1.
    10030    2    1    2    0    0  0.00000000000E+00  0.00000000000E+00 -0.43726457739E+03  0.27716438000E+04  0.27369342417E+04 0.  0.
        2    1    3    3  502    0  0.51993988900E+03 -0.10740931721E+04  0.45970483434E+03  0.12788049755E+04  0.25500000920E-02 0. -1.
       -2    1    3    3    0  502 -0.51993988900E+03  0.10740931721E+04 -0.89696941173E+03  0.14928388246E+04  0.25500000920E-02 0.  1.
</event>
<event>
 5   0  0.3652331E-05  0.2756322E+04  0.7818609E-02  0.8316958E-01
       -2   -1    0    0    0  501  0.00000000000E+00  0.00000000000E+00  0.15422578924E+04  0.15422578924E+04  0.25500000920E-02 0.  1.
        2   -1    0    0  501    0  0.00000000000E+00  0.00000000000E+00 -0.12315240019E+04  0.12315240019E+04  0.25500000920E-02 0. -1.
    10030    2    1    2    0    0  0.00000000000E+00  0.00000000000E+00  0.31073389053E+03  0.27737818942E+04  0.27563219054E+04 0.  0.
        1    1    3    3  502    0  0.10228291598E+03  0.85584936151E+03  0.12375334855E+04  0.15081210337E+04  0.50400001928E-02 0.  1.
       -1    1    3    3    0  502 -0.10228291598E+03 -0.85584936151E+03 -0.92679959502E+03  0.12656608605E+04  0.50400001928E-02 0. -1.
</event>
<event>
 5   0  0.3568647E-05  0.2261340E+04  0.7818609E-02  0.8493322E-01
       -2   -1    0    0    0  501  0.00000000000E+00  0.00000000000E+00  0.12036111343E+04  0.12036111343E+04  0.25500000920E-02 0. -1.
        2   -1    0    0  501    0  0.00000000000E+00  0.00000000000E+00 -0.10621492691E+04  0.10621492691E+04  0.25500000920E-02 0.  1.
    10030    2    1    2    0    0  0.00000000000E+00  0.00000000000E+00  0.14146186515E+03  0.22657604034E+04  0.22613400333E+04 0.  0.
        3    1    3    3  502    0  0.92147548090E+03  0.48741964114E+03  0.50944492978E+03  0.11602711386E+04  0.10100000352E+00 0. -1.
       -3    1    3    3    0  502 -0.92147548090E+03 -0.48741964114E+03 -0.36798306463E+03  0.11054892648E+04  0.10100000352E+00 0.  1.
</event>
<event>
 5   0  0.3652331E-05  0.1341589E+04  0.7818609E-02  0.8997220E-01
       -2   -1    0    0    0  501  0.00000000000E+00  0.00000000000E+00  0.11904537116E+04  0.11904537116E+04  0.25500000920E-02 0. -1.
        2   -1    0    0  501    0  0.00000000000E+00  0.00000000000E+00 -0.37797799462E+03  0.37797799463E+03  0.25500000920E-02 0.  1.
    10030    2    1    2    0    0  0.00000000000E+00  0.00000000000E+00  0.81247571695E+03  0.15684317062E+04  0.13415890676E+04 0.  0.
        1    1    3    3  502    0 -0.26473983251E+03 -0.61529512381E+03  0.36424771108E+03  0.76246420464E+03  0.50400001928E-02 0.  1.
       -1    1    3    3    0  502  0.26473983251E+03  0.61529512381E+03  0.44822800587E+03  0.80596750156E+03  0.50400001928E-02 0. -1.
</event>
<event>
 5   0  0.3676724E-05  0.2709436E+04  0.7818609E-02  0.8331950E-01
        2   -1    0    0  501    0  0.00000000000E+00  0.00000000000E+00  0.11836423016E+04  0.11836423016E+04  0.25500000920E-02 0.  1.
       -2   -1    0    0    0  501  0.00000000000E+00  0.00000000000E+00 -0.15505202592E+04  0.15505202592E+04  0.25500000920E-02 0. -1.
    10030    2    1    2    0    0  0.00000000000E+00  0.00000000000E+00 -0.36687795760E+03  0.27341625607E+04  0.27094363755E+04 0.  0.
        4    1    3    3  502    0 -0.79380166181E+03 -0.81308081145E+03 -0.92775968526E+03  0.14669564175E+04  0.12699999809E+01 0. -1.
       -4    1    3    3    0  502  0.79380166181E+03  0.81308081145E+03  0.56088172766E+03  0.12672061433E+04  0.12699999809E+01 0.  1.
</event>
<event>
 5   0  0.1449521E-05  0.2806874E+04  0.7818609E-02  0.8301138E-01
       -1   -1    0    0    0  501  0.00000000000E+00  0.00000000000E+00  0.14415113657E+04  0.14415113657E+04  0.50400001928E-02 0. -1.
        1   -1    0    0  501    0  0.00000000000E+00  0.00000000000E+00 -0.13663678435E+04  0.13663678435E+04  0.50400001928E-02 0.  1.
    10030    2    1    2    0    0  0.00000000000E+00  0.00000000000E+00  0.75143522186E+02  0.28078792093E+04  0.28068735463E+04 0.  0.
        3    1    3    3  502    0 -0.43965740291E+03  0.69863123315E+03 -0.10978461458E+04  0.13735539312E+04  0.10100000352E+00 0.  1.
       -3    1    3    3    0  502  0.43965740291E+03 -0.69863123315E+03  0.11729896680E+04  0.14343252781E+04  0.10100000352E+00 0. -1.
</event>
<event>
 5   0  0.1484379E-05  0.2726362E+04  0.7818609E-02  0.8326502E-01
        1   -1    0    0  501    0  0.00000000000E+00  0.00000000000E+00  0.16371146987E+04  0.16371146987E+04  0.50400001928E-02 0.  1.
       -1   -1    0    0    0  501  0.00000000000E+00  0.00000000000E+00 -0.11350840727E+04  0.11350840727E+04  0.50400001928E-02 0. -1.
    10030    2    1    2    0    0  0.00000000000E+00  0.00000000000E+00  0.50203062607E+03  0.27721987714E+04  0.27263622794E+04 0.  0.
        1    1    3    3  502    0  0.62607472772E+02 -0.37205385592E+03 -0.10809386073E+04  0.11448895319E+04  0.50400001928E-02 0. -1.
       -1    1    3    3    0  502 -0.62607472772E+02  0.37205385592E+03  0.15829692334E+04  0.16273092396E+04  0.50400001928E-02 0.  1.
</event>
<event>
 5   0  0.1495517E-05  0.2675912E+04  0.7818609E-02  0.8342863E-01
        1   -1    0    0  501    0  0.00000000000E+00  0.00000000000E+00  0.13154435338E+04  0.13154435338E+04  0.50400001928E-02 0.  1.
       -1   -1    0    0    0  501  0.00000000000E+00  0.00000000000E+00 -0.13608538469E+04  0.13608538469E+04  0.50400001928E-02 0. -1.
    10030    2    1    2    0    0  0.00000000000E+00  0.00000000000E+00 -0.45410313077E+02  0.26762973807E+04  0.26759121012E+04 0.  0.
        5    1    3    3  502    0  0.13003595022E+03 -0.11802401712E+04 -0.63942031942E+03  0.13486128595E+04  0.46999998093E+01 0. -1.
       -5    1    3    3    0  502 -0.13003595022E+03  0.11802401712E+04  0.59401000634E+03  0.13276845211E+04  0.46999998093E+01 0.  1.
</event>
<event>
 5   0  0.1484379E-05  0.2774899E+04  0.7818609E-02  0.8311104E-01
        1   -1    0    0  501    0  0.00000000000E+00  0.00000000000E+00  0.14780869027E+04  0.14780869027E+04  0.50400001928E-02 0. -1.
       -1   -1    0    0    0  501  0.00000000000E+00  0.00000000000E+00 -0.13023701165E+04  0.13023701165E+04  0.50400001928E-02 0.  1.
    10030    2    1    2    0    0  0.00000000000E+00  0.00000000000E+00  0.17571678626E+03  0.27804570192E+04  0.27748990697E+04 0.  0.
        1    1    3    3  502    0 -0.33909814792E+03  0.47328141395E+03  0.13497590134E+04  0.14699769539E+04  0.50400001928E-02 0. -1.
       -1    1    3    3    0  502  0.33909814792E+03 -0.47328141395E+03 -0.11740422271E+04  0.13104800654E+04  0.50400001928E-02 0.  1.
</event>
<event>
 5   0  0.1438701E-05  0.2820667E+04  0.7818609E-02  0.8296881E-01
        1   -1    0    0  501    0  0.00000000000E+00  0.00000000000E+00  0.21988897664E+04  0.21988897664E+04  0.50400001928E-02 0. -1.
       -1   -1    0    0    0  501  0.00000000000E+00  0.00000000000E+00 -0.90456563854E+03  0.90456563856E+03  0.50400001928E-02 0.  1.
    10030    2    1    2    0    0  0.00000000000E+00  0.00000000000E+00  0.12943241279E+04  0.31034554050E+04  0.28206666770E+04 0.  0.
        4    1    3    3  502    0 -0.32124695568E+03 -0.95151559569E+03 -0.44228971427E+03  0.10973619911E+04  0.12699999809E+01 0.  1.
       -4    1    3    3    0  502  0.32124695568E+03  0.95151559569E+03  0.17366138421E+04  0.20060934138E+04  0.12699999809E+01 0. -1.
</event>
<event>
 5   0  0.1449521E-05  0.2251076E+04  0.7818609E-02  0.8497465E-01
       -1   -1    0    0    0  501  0.00000000000E+00  0.00000000000E+00  0.75390035967E+03  0.75390035969E+03  0.50400001928E-02 0. -1.
        1   -1    0    0  501    0  0.00000000000E+00  0.00000000000E+00 -0.16803758460E+04  0.16803758460E+04  0.50400001928E-02 0.  1.
    10030    2    1    2    0    0  0.00000000000E+00  0.00000000000E+00 -0.92647548634E+03  0.24342762057E+04  0.22510761468E+04 0.  0.
        3    1    3    3  502    0 -0.24958508373E+03 -0.90456507352E+03  0.20887940777E+03  0.96133308663E+03  0.10100000352E+00 0. -1.
       -3    1    3    3    0  502  0.24958508373E+03  0.90456507352E+03 -0.11353548941E+04  0.14729431191E+04  0.10100000352E+00 0.  1.
</event>
<event>
 5   0  0.3676724E-05  0.2754607E+04  0.7818609E-02  0.8317501E-01
       -2   -1    0    0    0  501  0.00000000000E+00  0.00000000000E+00  0.15859394662E+04  0.15859394662E+04  0.25500000920E-02 0.  1.
        2   -1    0    0  501    0  0.00000000000E+00  0.00000000000E+00 -0.11961142378E+04  0.11961142378E+04  0.25500000920E-02 0. -1.
    10030    2    1    2    0    0  0.00000000000E+00  0.00000000000E+00  0.38982522841E+03  0.27820537041E+04  0.27546068873E+04 0.  0.
        4    1    3    3  502    0 -0.46444067437E+03 -0.12549585280E+04  0.52425552472E+03  0.14371748380E+04  0.12699999809E+01 0.  1.
       -4    1    3    3    0  502  0.46444067437E+03  0.12549585280E+04 -0.13443029631E+03  0.13448788661E+04  0.12699999809E+01 0. -1.
</event>
<event>
 5   0  0.1474012E-05  0.2775327E+04  0.7818609E-02  0.8310970E-01
        1   -1    0    0  501    0  0.00000000000E+00  0.00000000000E+00  0.12850528410E+04  0.12850528411E+04  0.50400001928E-02 0. -1.
       -1   -1    0    0    0  501  0.00000000000E+00  0.00000000000E+00 -0.14984672272E+04  0.14984672272E+04  0.50400001928E-02 0.  1.
    10030    2    1    2    0    0  0.00000000000E+00  0.00000000000E+00 -0.21341438616E+03  0.27835200683E+04  0.27753266961E+04 0.  0.
        2    1    3    3  502    0 -0.92057189837E+03  0.72109595279E+03 -0.85602565945E+03  0.14492107931E+04  0.25500000920E-02 0.  1.
       -2    1    3    3    0  502  0.92057189837E+03 -0.72109595279E+03  0.64261127330E+03  0.13343092752E+04  0.25500000920E-02 0. -1.
</event>
<event>
 5   0  0.1449521E-05  0.2658252E+04  0.7818609E-02  0.8348679E-01
       -1   -1    0    0    0  501  0.00000000000E+00  0.00000000000E+00  0.11398636309E+04  0.11398636309E+04  0.50400001928E-02 0.  1.
        1   -1    0    0  501    0  0.00000000000E+00  0.00000000000E+00 -0.15498136451E+04  0.15498136451E+04  0.50400001928E-02 0. -1.
    10030    2    1    2    0    0  0.00000000000E+00  0.00000000000E+00 -0.40995001424E+03  0.26896772760E+04  0.26582522143E+04 0.  0.
        3    1    3    3  502    0  0.10944196245E+04 -0.75248255448E+03 -0.15346255713E+03  0.13369873133E+04  0.10100000352E+00 0.  1.
       -3    1    3    3    0  502 -0.10944196245E+04  0.75248255448E+03 -0.25648745711E+03  0.13526899627E+04  0.10100000352E+00 0. -1.
</event>
<event>
 5   0  0.3497949E-05  0.2830855E+04  0.7818609E-02  0.8293753E-01
        2   -1    0    0  501    0  0.00000000000E+00  0.00000000000E+00  0.15818511216E+04  0.15818511216E+04  0.25500000920E-02 0.  1.
       -2   -1    0    0    0  501  0.00000000000E+00  0.00000000000E+00 -0.12665125534E+04  0.12665125534E+04  0.25500000920E-02 0. -1.
    10030    2    1    2    0    0  0.00000000000E+00  0.00000000000E+00  0.31533856812E+03  0.28483636750E+04  0.28308545022E+04 0.  0.
        5    1    3    3  502    0  0.10778472919E+04  0.66407023003E+02  0.10783410589E+04  0.15261081897E+04  0.46999998093E+01 0.  1.
       -5    1    3    3    0  502 -0.10778472919E+04 -0.66407023003E+02 -0.76300249076E+03  0.13222554853E+04  0.46999998093E+01 0. -1.
</event>
<event>
 5   0  0.1474012E-05  0.2730922E+04  0.7818609E-02  0.8325041E-01
       -1   -1    0    0    0  501  0.00000000000E+00  0.00000000000E+00  0.12508820713E+04  0.12508820713E+04  0.50400001928E-02 0. -1.
        1   -1    0    0  501    0  0.00000000000E+00  0.00000000000E+00 -0.14905349147E+04  0.14905349147E+04  0.50400001928E-02 0.  1.
    10030    2    1    2    0    0  0.00000000000E+00  0.00000000000E+00 -0.23965284339E+03  0.27414169859E+04  0.27309217502E+04 0.  0.
        2    1    3    3  502    0 -0.11764370613E+04 -0.28583986730E+03  0.51408664327E+03  0.13152922359E+04  0.25500000920E-02 0. -1.
       -2    1    3    3    0  502  0.11764370613E+04  0.28583986730E+03 -0.75373948666E+03  0.14261247501E+04  0.25500000920E-02 0.  1.
</event>
<event>
 5   0  0.1495517E-05  0.2725274E+04  0.7818609E-02  0.8326851E-01
        1   -1    0    0  501    0  0.00000000000E+00  0.00000000000E+00  0.20736827032E+04  0.20736827032E+04  0.50400001928E-02 0. -1.
       -1   -1    0    0    0  501  0.00000000000E+00  0.00000000000E+00 -0.89540180365E+03  0.89540180366E+03  0.50400001928E-02 0.  1.
    10030    2    1    2    0    0  0.00000000000E+00  0.00000000000E+00  0.11782808995E+04  0.29690845068E+04  0.27252737350E+04 0.  0.
        5    1    3    3  502    0  0.97979102557E+03 -0.65053683909E+02  0.16184001877E+04  0.18930038809E+04  0.46999998093E+01 0. -1.
       -5    1    3    3    0  502 -0.97979102557E+03  0.65053683909E+02 -0.44011928821E+03  0.10760806259E+04  0.46999998093E+01 0.  1.
</event>
<event>
 5   0  0.1495517E-05  0.2655837E+04  0.7818609E-02  0.8349478E-01
       -1   -1    0    0    0  501  0.00000000000E+00  0.00000000000E+00  0.12660031536E+04  0.12660031537E+04  0.50400001928E-02 0.  1.
        1   -1    0    0  501    0  0.00000000000E+00  0.00000000000E+00 -0.13928616508E+04  0.13928616508E+04  0.50400001928E-02 0. -1.
    10030    2    1    2    0    0  0.00000000000E+00  0.00000000000E+00 -0.12685849713E+03  0.26588648044E+04  0.26558367740E+04 0.  0.
        5    1    3    3  502    0 -0.65661988961E+03 -0.46080551094E+03 -0.11228672099E+04  0.13799798040E+04  0.46999998093E+01 0. -1.
       -5    1    3    3    0  502  0.65661988961E+03  0.46080551094E+03  0.99600871280E+03  0.12788850004E+04  0.46999998093E+01 0.  1.
</event>
<event>
 5   0  0.3514294E-05  0.2789706E+04  0.7818609E-02  0.8306471E-01
       -2   -1    0    0    0  501  0.00000000000E+00  0.00000000000E+00  0.10117832774E+04  0.10117832774E+04  0.25500000920E-02 0.  1.
        2   -1    0    0  501    0  0.00000000000E+00  0.00000000000E+00 -0.19229566374E+04  0.19229566374E+04  0.25500000920E-02 0. -1.
    10030    2    1    2    0    0  0.00000000000E+00  0.00000000000E+00 -0.91117336008E+03  0.29347399148E+04  0.27897063421E+04 0.  0.
        2    1    3    3  502    0 -0.90617852034E+03 -0.58547792040E+03  0.47449964197E+03  0.11785982421E+04  0.25500000920E-02 0.  1.
       -2    1    3    3    0  502  0.90617852034E+03  0.58547792040E+03 -0.13856730020E+04  0.17561416727E+04  0.25500000920E-02 0. -1.
</event>
<event>
 5   0  0.3514294E-05  0.1477274E+04  0.7818609E-02  0.8899708E-01
       -2   -1    0    0    0  501  0.00000000000E+00  0.00000000000E+00  0.44406451675E+03  0.44406451675E+03  0.25500000920E-02 0.  1.
        2   -1    0    0  501    0  0.00000000000E+00  0.00000000000E+00 -0.12286149345E+04  0.12286149346E+04  0.25500000920E-02 0. -1.
    10030    2    1    2    0    0  0.00000000000E+00  0.00000000000E+00 -0.78455041780E+03  0.16726794513E+04  0.14772735660E+04 0.  0.
        2    1    3    3  502    0  0.41966669228E+03 -0.36457264460E+03  0.15842360930E+03  0.57804098971E+03  0.25500000920E-02 0. -1.
       -2    1    3    3    0  502 -0.41966669228E+03  0.36457264460E+03 -0.94297402710E+03  0.10946384616E+04  0.25500000920E-02 0.  1.
</event>
<event>
 5   0  0.3497949E-05  0.2534202E+04  0.7818609E-02  0.8390901E-01
        2   -1    0    0  501    0  0.00000000000E+00  0.00000000000E+00  0.19850226763E+04  0.19850226763E+04  0.25500000920E-02 0.  1.
       -2   -1    0    0    0  501  0.00000000000E+00  0.00000000000E+00 -0.80882927145E+03  0.80882927145E+03  0.25500000920E-02 0. -1.
    10030    2    1    2    0    0  0.00000000000E+00  0.00000000000E+00  0.11761934048E+04  0.27938519477E+04  0.25342016061E+04 0.  0.
        5    1    3    3  502    0 -0.10817742880E+04 -0.65627077599E+03  0.66283178583E+03  0.14283889554E+04  0.46999998093E+01 0. -1.
       -5    1    3    3    0  502  0.10817742880E+04  0.65627077599E+03  0.51336161902E+03  0.13654629923E+04  0.46999998093E+01 0.  1.
</event>
<event>
 5   0  0.3676724E-05  0.2706914E+04  0.7818609E-02  0.8332765E-01
        2   -1    0    0  501    0  0.00000000000E+00  0.00000000000E+00  0.23687830758E+04  0.23687830758E+04  0.25500000920E-02 0.  1.
       -2   -1    0    0    0  501  0.00000000000E+00  0.00000000000E+00 -0.77332760945E+03  0.77332760946E+03  0.25500000920E-02 0. -1.
    10030    2    1    2    0    0  0.00000000000E+00  0.00000000000E+00  0.15954554664E+04  0.31421106853E+04  0.27069136324E+04 0.  0.
        4    1    3    3  502    0 -0.30646297554E+03 -0.12824901484E+04  0.11519881812E+04  0.17509365833E+04  0.12699999809E+01 0.  1.
       -4    1    3    3    0  502  0.30646297554E+03  0.12824901484E+04  0.44346728512E+03  0.13911741020E+04  0.12699999809E+01 0. -1.
</event>
<event>
 5   0  0.1484379E-05  0.2657675E+04  0.7818609E-02  0.8348870E-01
       -1   -1    0    0    0  501  0.00000000000E+00  0.00000000000E+00  0.85878277451E+03  0.85878277453E+03  0.50400001928E-02 0.  1.
        1   -1    0    0  501    0  0.00000000000E+00  0.00000000000E+00 -0.20561761279E+04  0.20561761279E+04  0.50400001928E-02 0. -1.
    10030    2    1    2    0    0  0.00000000000E+00  0.00000000000E+00 -0.11973933534E+04  0.29149589024E+04  0.26576746528E+04 0.  0.
        1    1    3    3  502    0 -0.32477729505E+03 -0.12700068532E+03 -0.20050933635E+04  0.20351925859E+04  0.50400001928E-02 0. -1.
       -1    1    3    3    0  502  0.32477729505E+03  0.12700068532E+03  0.80770001006E+03  0.87976631655E+03  0.50400001928E-02 0.  1.
</event>
<event>
 5   0  0.3676724E-05  0.2758775E+04  0.7818609E-02  0.8316183E-01
        2   -1    0    0  501    0  0.00000000000E+00  0.00000000000E+00  0.13712772264E+04  0.13712772264E+04  0.25500000920E-02 0. -1.
       -2   -1    0    0    0  501  0.00000000000E+00  0.00000000000E+00 -0.13875453398E+04  0.13875453398E+04  0.25500000920E-02 0.  1.
    10030    2    1    2    0    0  0.00000000000E+00  0.00000000000E+00 -0.16268113394E+02  0.27588225662E+04  0.27587746012E+04 0.  0.
        4    1    3    3  502    0  0.63546600411E+03  0.66044464811E+02  0.12143964205E+04  0.13722023148E+04  0.12699999809E+01 0. -1.
       -4    1    3    3    0  502 -0.63546600411E+03 -0.66044464811E+02 -0.12306645339E+04  0.13866202514E+04  0.12699999809E+01 0.  1.
</event>
<event>
 5   0  0.1438701E-05  0.2770945E+04  0.7818609E-02  0.8312346E-01
        1   -1    0    0  501    0  0.00000000000E+00  0.00000000000E+00  0.19971930929E+04  0.19971930929E+04  0.50400001928E-02 0. -1.
       -1   -1    0    0    0  501  0.00000000000E+00  0.00000000000E+00 -0.96111595933E+03  0.96111595935E+03  0.50400001928E-02 0.  1.
    10030    2    1    2    0    0  0.00000000000E+00  0.00000000000E+00  0.10360771336E+04  0.29583090522E+04  0.27709450774E+04 0.  0.
        4    1    3    3  502    0 -0.56635641469E+03 -0.11182660149E+04 -0.11199505680E+03  0.12585002878E+04  0.12699999809E+01 0.  1.
       -4    1    3    3    0  502  0.56635641469E+03  0.11182660149E+04  0.11480721904E+04  0.16998087645E+04  0.12699999809E+01 0. -1.
</event>
<event>
 5   0  0.3652331E-05  0.2676096E+04  0.7818609E-02  0.8342803E-01
       -2   -1    0    0    0  501  0.00000000000E+00  0.00000000000E+00  0.86675967674E+03  0.86675967675E+03  0.25500000920E-02 0. -1.
        2   -1    0    0  501    0  0.00000000000E+00  0.00000000000E+00 -0.20655925363E+04  0.20655925363E+04  0.25500000920E-02 0.  1.
    10030    2    1    2    0    0  0.00000000000E+00  0.00000000000E+00 -0.11988328596E+04  0.29323522131E+04  0.26760959019E+04 0.  0.
        1    1    3    3  502    0  0.11631999607E+04  0.12988909972E+03  0.11111029023E+03  0.11756916362E+04  0.50400001928E-02 0. -1.
       -1    1    3    3    0  502 -0.11631999607E+04 -0.12988909972E+03 -0.13099431498E+04  0.17566605769E+04  0.50400001928E-02 0.  1.
</event>
<event>
 5   0  0.1449521E-05  0.2554126E+04  0.7818609E-02  0.8383953E-01
        1   -1    0    0  501    0  0.00000000000E+00  0.00000000000E+00  0.21722805355E+04  0.21722805355E+04  0.50400001928E-02 0. -1.
       -1   -1    0    0    0  501  0.00000000000E+00  0.00000000000E+00 -0.75077300780E+03  0.75077300782E+03  0.50400001928E-02 0.  1.
    10030    2    1    2    0    0  0.00000000000E+00  0.00000000000E+00  0.14215075277E+04  0.29230535433E+04  0.25541257537E+04 0.  0.
        3    1    3    3  502    0 -0.11359094976E+04  0.59653671794E+02  0.46344581356E+02  0.11384185424E+04  0.10100000352E+00 0.  1.
       -3    1    3    3    0  502  0.11359094976E+04 -0.59653671794E+02  0.13751629463E+04  0.17846350009E+04  0.10100000352E+00 0. -1.
</event>
<event>
 5   0  0.3568647E-05  0.2595824E+04  0.7818609E-02  0.8369621E-01
       -2   -1    0    0    0  501  0.00000000000E+00  0.00000000000E+00  0.17219185958E+04  0.17219185958E+04  0.25500000920E-02 0. -1.
        2   -1    0    0  501    0  0.00000000000E+00  0.00000000000E+00 -0.97831328216E+03  0.97831328216E+03  0.25500000920E-02 0.  1.
    10030    2    1    2    0    0  0.00000000000E+00  0.00000000000E+00  0.74360531365E+03  0.27002318780E+04  0.25958242106E+04 0.  0.
        3    1    3    3  502    0 -0.12024561323E+03  0.11175766097E+04  0.10468569224E+04  0.15360162474E+04  0.10100000352E+00 0.  1.
       -3    1    3    3    0  502  0.12024561323E+03 -0.11175766097E+04 -0.30325160873E+03  0.11642156306E+04  0.10100000352E+00 0. -1.
</event>
<event>
 5   0  0.1495517E-05  0.2421400E+04  0.7818609E-02  0.8431535E-01
        1   -1    0    0  501    0  0.00000000000E+00  0.00000000000E+00  0.16554501847E+04  0.16554501847E+04  0.50400001928E-02 0.  1.
       -1   -1    0    0    0  501  0.00000000000E+00  0.00000000000E+00 -0.88543570946E+03  0.88543570947E+03  0.50400001928E-02 0. -1.
    10030    2    1    2    0    0  0.00000000000E+00  0.00000000000E+00  0.77001447522E+03  0.25408858942E+04  0.24214001807E+04 0.  0.
        5    1    3    3  502    0  0.29634614179E+03 -0.17661327072E+03 -0.83275804657E+03  0.90139965458E+03  0.46999998093E+01 0. -1.
       -5    1    3    3    0  502 -0.29634614179E+03  0.17661327072E+03  0.16027725218E+04  0.16394862396E+04  0.46999998093E+01 0.  1.
</event>
<event>
 5   0  0.3652331E-05  0.2717396E+04  0.7818609E-02  0.8329383E-01
        2   -1    0    0  501    0  0.00000000000E+00  0.00000000000E+00  0.12817902068E+04  0.12817902068E+04  0.25500000920E-02 0.  1.
       -2   -1    0    0    0  501  0.00000000000E+00  0.00000000000E+00 -0.14402200312E+04  0.14402200312E+04  0.25500000920E-02 0. -1.
    10030    2    1    2    0    0  0.00000000000E+00  0.00000000000E+00 -0.15842982436E+03  0.27220102380E+04  0.27173957618E+04 0.  0.
        1    1    3    3  502    0 -0.12470863455E+04 -0.34547995997E+03 -0.49401854781E+03  0.13851480359E+04  0.50400001928E-02 0.  1.
       -1    1    3    3    0  502  0.12470863455E+04  0.34547995997E+03  0.33558872345E+03  0.13368622020E+04  0.50400001928E-02 0. -1.
</event>
<event>
 5   0  0.3568647E-05  0.2597275E+04  0.7818609E-02  0.8369127E-01
        2   -1    0    0  501    0  0.00000000000E+00  0.00000000000E+00  0.19454202122E+04  0.19454202122E+04  0.25500000920E-02 0. -1.
       -2   -1    0    0    0  501  0.00000000000E+00  0.00000000000E+00 -0.86688720460E+03  0.86688720460E+03  0.25500000920E-02 0.  1.
    10030    2    1    2    0    0  0.00000000000E+00  0.00000000000E+00  0.10785330076E+04  0.28123074168E+04  0.25972754105E+04 0.  0.
        3    1    3    3  502    0  0.62573554649E+03 -0.65491890871E+03 -0.46836738081E+03  0.10197214153E+04  0.10100000352E+00 0.  1.
       -3    1    3    3    0  502 -0.62573554649E+03  0.65491890871E+03  0.15469003884E+04  0.17925860016E+04  0.10100000352E+00 0. -1.
</event>
<event>
 5   0  0.1495517E-05  0.2426361E+04  0.7818609E-02  0.8429700E-01
        1   -1    0    0  501    0  0.00000000000E+00  0.00000000000E+00  0.13575705261E+04  0.13575705261E+04  0.50400001928E-02 0.  1.
       -1   -1    0    0    0  501  0.00000000000E+00  0.00000000000E+00 -0.10841478150E+04  0.10841478151E+04  0.50400001928E-02 0. -1.
    10030    2    1    2    0    0  0.00000000000E+00  0.00000000000E+00  0.27342271103E+03  0.24417183411E+04  0.24263611599E+04 0.  0.
        5    1    3    3  502    0  0.88378025498E+03  0.82434275306E+03  0.24309952650E+03  0.12327724784E+04  0.46999998093E+01 0. -1.
       -5    1    3    3    0  502 -0.88378025498E+03 -0.82434275306E+03  0.30323184524E+02  0.12089458628E+04  0.46999998093E+01 0.  1.
</event>
<event>
 5   0  0.1438701E-05  0.2088122E+04  0.7818609E-02  0.8566494E-01
        1   -1    0    0  501    0  0.00000000000E+00  0.00000000000E+00  0.17918348909E+04  0.17918348909E+04  0.50400001928E-02 0.  1.
       -1   -1    0    0    0  501  0.00000000000E+00  0.00000000000E+00 -0.60835007466E+03  0.60835007468E+03  0.50400001928E-02 0. -1.
    10030    2    1    2    0    0  0.00000000000E+00  0.00000000000E+00  0.11834848162E+04  0.24001849656E+04  0.20881215383E+04 0.  0.
        4    1    3    3  502    0 -0.21105462265E+03  0.90780165565E+03  0.11326098832E+04  0.14667837810E+04  0.12699999809E+01 0.  1.
       -4    1    3    3    0  502  0.21105462265E+03 -0.90780165565E+03  0.50874933068E+02  0.93340118463E+03  0.12699999809E+01 0. -1.
</event>
<event>
 5   0  0.1474012E-05  0.2708654E+04  0.7818609E-02  0.8332202E-01
        1   -1    0    0  501    0  0.00000000000E+00  0.00000000000E+00  0.95430185285E+03  0.95430185286E+03  0.50400001928E-02 0. -1.
       -1   -1    0    0    0  501  0.00000000000E+00  0.00000000000E+00 -0.19220357353E+04  0.19220357353E+04  0.50400001928E-02 0.  1.
    10030    2    1    2    0    0  0.00000000000E+00  0.00000000000E+00 -0.96773388249E+03  0.28763375882E+04  0.27086544730E+04 0.  0.
        2    1    3    3  502    0 -0.52745927003E+03 -0.46367016278E+03  0.74583672934E+03  0.10244392262E+04  0.25500000920E-02 0. -1.
       -2    1    3    3    0  502  0.52745927003E+03  0.46367016278E+03 -0.17135706118E+04  0.18518983620E+04  0.25500000920E-02 0.  1.
</event>
<event>
 5   0  0.3676724E-05  0.2709889E+04  0.7818609E-02  0.8331803E-01
       -2   -1    0    0    0  501  0.00000000000E+00  0.00000000000E+00  0.10395884419E+04  0.10395884419E+04  0.25500000920E-02 0. -1.
        2   -1    0    0  501    0  0.00000000000E+00  0.00000000000E+00 -0.17659631999E+04  0.17659631999E+04  0.25500000920E-02 0.  1.
    10030    2    1    2    0    0  0.00000000000E+00  0.00000000000E+00 -0.72637475804E+03  0.28055516417E+04  0.27098892460E+04 0.  0.
        4    1    3    3  502    0 -0.45385733324E+03  0.73570612587E+03 -0.14433907930E+04  0.16824471988E+04  0.12699999809E+01 0.  1.
       -4    1    3    3    0  502  0.45385733324E+03 -0.73570612587E+03  0.71701603492E+03  0.11231044430E+04  0.12699999809E+01 0. -1.
</event>
<event>
 5   0  0.3652331E-05  0.2683220E+04  0.7818609E-02  0.8340470E-01
        2   -1    0    0  501    0  0.00000000000E+00  0.00000000000E+00  0.17527348652E+04  0.17527348652E+04  0.25500000920E-02 0.  1.
       -2   -1    0    0    0  501  0.00000000000E+00  0.00000000000E+00 -0.10269192404E+04  0.10269192404E+04  0.25500000920E-02 0. -1.
    10030    2    1    2    0    0  0.00000000000E+00  0.00000000000E+00  0.72581562481E+03  0.27796541056E+04  0.26832198243E+04 0.  0.
        1    1    3    3  502    0 -0.61747564536E+03 -0.44976303937E+03  0.15054297054E+04  0.16881592229E+04  0.50400001928E-02 0.  1.
       -1    1    3    3    0  502  0.61747564536E+03  0.44976303937E+03 -0.77961408054E+03  0.10914948826E+04  0.50400001928E-02 0. -1.
</event>
<event>
 5   0  0.1494548E-05  0.1433475E+04  0.7818609E-02  0.8929938E-01
       -1   -1    0    0    0  501  0.00000000000E+00  0.00000000000E+00  0.61605985929E+03  0.61605985931E+03  0.50400001928E-02 0. -1.
        1   -1    0    0  501    0  0.00000000000E+00  0.00000000000E+00 -0.83386854260E+03  0.83386854262E+03  0.50400001928E-02 0.  1.
    10030    2    1    2    0    0  0.00000000000E+00  0.00000000000E+00 -0.21780868331E+03  0.14499284019E+04  0.14334754090E+04 0.  0.
        1    1    3    3  502    0  0.55839409962E+03 -0.31181636901E+03 -0.43616000295E+03  0.77412464544E+03  0.50400001928E-02 0.  1.
       -1    1    3    3    0  502 -0.55839409962E+03  0.31181636901E+03  0.21835131963E+03  0.67580375649E+03  0.50400001928E-02 0. -1.
</event>
<event>
 5   0  0.3497949E-05  0.2683564E+04  0.7818609E-02  0.8340358E-01
        2   -1    0    0  501    0  0.00000000000E+00  0.00000000000E+00  0.20308747792E+04  0.20308747792E+04  0.25500000920E-02 0. -1.
       -2   -1    0    0    0  501  0.00000000000E+00  0.00000000000E+00 -0.88650418695E+03  0.88650418696E+03  0.25500000920E-02 0.  1.
    10030    2    1    2    0    0  0.00000000000E+00  0.00000000000E+00  0.11443705923E+04  0.29173789662E+04  0.26835640443E+04 0.  0.
        5    1    3    3  502    0 -0.45656659331E+03  0.34063158129E+03  0.18928893796E+04  0.19767486491E+04  0.46999998093E+01 0. -1.
       -5    1    3    3    0  502  0.45656659331E+03 -0.34063158129E+03 -0.74851878737E+03  0.94063031705E+03  0.46999998093E+01 0.  1.
</event>
<event>
 5   0  0.1438701E-05  0.1417949E+04  0.7818609E-02  0.8940928E-01
       -1   -1    0    0    0  501  0.00000000000E+00  0.00000000000E+00  0.55844521564E+03  0.55844521566E+03  0.50400001928E-02 0. -1.
        1   -1    0    0  501    0  0.00000000000E+00  0.00000000000E+00 -0.90007885378E+03  0.90007885379E+03  0.50400001928E-02 0.  1.
    10030    2    1    2    0    0  0.00000000000E+00  0.00000000000E+00 -0.34163363814E+03  0.14585240695E+04  0.14179488420E+04 0.  0.
        4    1    3    3  502    0 -0.16545056788E+02  0.60702462730E+03  0.20556435007E+03  0.64110135858E+03  0.12699999809E+01 0. -1.
       -4    1    3    3    0  502  0.16545056788E+02 -0.60702462730E+03 -0.54719798821E+03  0.81742271087E+03  0.12699999809E+01 0.  1.
</event>
<event>
 5   0  0.1449521E-05  0.2700433E+04  0.7818609E-02  0.8334865E-01
        1   -1    0    0  501    0  0.00000000000E+00  0.00000000000E+00  0.10286209950E+04  0.10286209950E+04  0.50400001928E-02 0. -1.
       -1   -1    0    0    0  501  0.00000000000E+00  0.00000000000E+00 -0.17723574933E+04  0.17723574933E+04  0.50400001928E-02 0.  1.
    10030    2    1    2    0    0  0.00000000000E+00  0.00000000000E+00 -0.74373649828E+03  0.28009784883E+04  0.27004326529E+04 0.  0.
        3    1    3    3  502    0 -0.10840088501E+04 -0.59582225624E+03  0.18958521770E+03  0.12514079723E+04  0.10100000352E+00 0. -1.
       -3    1    3    3    0  502  0.10840088501E+04  0.59582225624E+03 -0.93332171598E+03  0.15495705159E+04  0.10100000352E+00 0.  1.
</event>
<event>
 5   0  0.1474012E-05  0.2743963E+04  0.7818609E-02  0.8320880E-01
       -1   -1    0    0    0  501  0.00000000000E+00  0.00000000000E+00  0.10329593454E+04  0.10329593454E+04  0.50400001928E-02 0.  1.
        1   -1    0    0  501    0  0.00000000000E+00  0.00000000000E+00 -0.18222724121E+04  0.18222724121E+04  0.50400001928E-02 0. -1.
    10030    2    1    2    0    0  0.00000000000E+00  0.00000000000E+00 -0.78931306675E+03  0.28552317575E+04  0.27439630595E+04 0.  0.
        2    1    3    3  502    0 -0.12394331326E+04  0.29586181105E+03  0.13449644127E+03  0.12813344583E+04  0.25500000920E-02 0.  1.
       -2    1    3    3    0  502  0.12394331326E+04 -0.29586181105E+03 -0.92380950803E+03  0.15738972992E+04  0.25500000920E-02 0. -1.
</event>
<event>
 5   0  0.3676724E-05  0.1386536E+04  0.7818609E-02  0.8963623E-01
        2   -1    0    0  501    0  0.00000000000E+00  0.00000000000E+00  0.12177531435E+04  0.12177531435E+04  0.25500000920E-02 0.  1.
       -2   -1    0    0    0  501  0.00000000000E+00  0.00000000000E+00 -0.39467789751E+03  0.39467789752E+03  0.25500000920E-02 0. -1.
    10030    2    1    2    0    0  0.00000000000E+00  0.00000000000E+00  0.82307524600E+03  0.16124310410E+04  0.13865356113E+04 0.  0.
        4    1    3    3  502    0 -0.43215777941E+03 -0.94364309714E+02  0.10323169530E+04  0.11230961106E+04  0.12699999809E+01 0.  1.
       -4    1    3    3    0  502  0.43215777941E+03  0.94364309714E+02 -0.20924170704E+03  0.48933493041E+03  0.12699999809E+01 0. -1.
</event>
<event>
 5   0  0.1484379E-05  0.2698856E+04  0.7818609E-02  0.8335376E-01
       -1   -1    0    0    0  501  0.00000000000E+00  0.00000000000E+00  0.19158874537E+04  0.19158874537E+04  0.50400001928E-02 0.  1.
        1   -1    0    0  501    0  0.00000000000E+00  0.00000000000E+00 -0.95045013467E+03  0.95045013468E+03  0.50400001928E-02 0. -1.
    10030    2    1    2    0    0  0.00000000000E+00  0.00000000000E+00  0.96543731907E+03  0.28663375884E+04  0.26988556749E+04 0.  0.
        1    1    3    3  502    0 -0.44452726908E+02 -0.12618530382E+04 -0.22965703149E+02  0.12628446295E+04  0.50400001928E-02 0. -1.
       -1    1    3    3    0  502  0.44452726908E+02  0.12618530382E+04  0.98840302222E+03  0.16034929589E+04  0.50400001928E-02 0.  1.
</event>
<event>
 5   0  0.1449521E-05  0.2543222E+04  0.7818609E-02  0.8387747E-01
        1   -1    0    0  501    0  0.00000000000E+00  0.00000000000E+00  0.17798120939E+04  0.17798120939E+04  0.50400001928E-02 0.  1.
       -1   -1    0    0    0  501  0.00000000000E+00  0.00000000000E+00 -0.90852005264E+03  0.90852005265E+03  0.50400001928E-02 0. -1.
    10030    2    1    2    0    0  0.00000000000E+00  0.00000000000E+00  0.87129204127E+03  0.26883321466E+04  0.25432223476E+04 0.  0.
        3    1    3    3  502    0 -0.52858537630E+03  0.43721753551E+03 -0.69616257825E+03  0.97734539389E+03  0.10100000352E+00 0. -1.
       -3    1    3    3    0  502  0.52858537630E+03 -0.43721753551E+03  0.15674546195E+04  0.17109867527E+04  0.10100000352E+00 0.  1.
</event>
<event>
 5   0  0.3514294E-05  0.2646345E+04  0.7818609E-02  0.8352627E-01
       -2   -1    0    0    0  501  0.00000000000E+00  0.00000000000E+00  0.73594506682E+03  0.73594506683E+03  0.25500000920E-02 0.  1.
        2   -1    0    0  501    0  0.00000000000E+00  0.00000000000E+00 -0.23789623640E+04  0.23789623640E+04  0.25500000920E-02 0. -1.
    10030    2    1    2    0    0  0.00000000000E+00  0.00000000000E+00 -0.16430172972E+04  0.31149074309E+04  0.26463451143E+04 0.  0.
        2    1    3    3  502    0  0.11536742347E+04 -0.10597503064E+02 -0.15840665771E+04  0.19596794298E+04  0.25500000920E-02 0. -1.
       -2    1    3    3    0  502 -0.11536742347E+04  0.10597503064E+02 -0.58950720117E+02  0.11552280010E+04  0.25500000920E-02 0.  1.
</event>
<event>
 5   0  0.3676724E-05  0.2760275E+04  0.7818609E-02  0.8315708E-01
       -2   -1    0    0    0  501  0.00000000000E+00  0.00000000000E+00  0.10301689709E+04  0.10301689709E+04  0.25500000920E-02 0. -1.
        2   -1    0    0  501    0  0.00000000000E+00  0.00000000000E+00 -0.18489978101E+04  0.18489978101E+04  0.25500000920E-02 0.  1.
    10030    2    1    2    0    0  0.00000000000E+00  0.00000000000E+00 -0.81882883919E+03  0.28791667810E+04  0.27602754726E+04 0.  0.
        4    1    3    3  502    0 -0.92846175741E+03  0.60653233557E+03 -0.12662942193E+04  0.16832781623E+04  0.12699999809E+01 0.  1.
       -4    1    3    3    0  502  0.92846175741E+03 -0.60653233557E+03  0.44746538006E+03  0.11958886187E+04  0.12699999809E+01 0. -1.
</event>
<event>
 5   0  0.1495517E-05  0.2698747E+04  0.7818609E-02  0.8335412E-01
       -1   -1    0    0    0  501  0.00000000000E+00  0.00000000000E+00  0.14363223962E+04  0.14363223962E+04  0.50400001928E-02 0. -1.
        1   -1    0    0  501    0  0.00000000000E+00  0.00000000000E+00 -0.12676881502E+04  0.12676881502E+04  0.50400001928E-02 0.  1.
    10030    2    1    2    0    0  0.00000000000E+00  0.00000000000E+00  0.16863424600E+03  0.27040105464E+04  0.26987470290E+04 0.  0.
        5    1    3    3  502    0 -0.90259734724E+03  0.90961065160E+03  0.50788656441E+03  0.13784209666E+04  0.46999998093E+01 0. -1.
       -5    1    3    3    0  502  0.90259734724E+03 -0.90961065160E+03 -0.33925231841E+03  0.13255895799E+04  0.46999998093E+01 0.  1.
</event>
<event>
 5   0  0.3676724E-05  0.2471078E+04  0.7818609E-02  0.8413362E-01
       -2   -1    0    0    0  501  0.00000000000E+00  0.00000000000E+00  0.13458944904E+04  0.13458944905E+04  0.25500000920E-02 0. -1.
        2   -1    0    0  501    0  0.00000000000E+00  0.00000000000E+00 -0.11342315610E+04  0.11342315610E+04  0.25500000920E-02 0.  1.
    10030    2    1    2    0    0  0.00000000000E+00  0.00000000000E+00  0.21166292947E+03  0.24801260514E+04  0.24710775049E+04 0.  0.
        4    1    3    3  502    0  0.62072579180E+03  0.93398785179E+03  0.62630590486E+03  0.12844821973E+04  0.12699999809E+01 0. -1.
       -4    1    3    3    0  502 -0.62072579180E+03 -0.93398785179E+03 -0.41464297539E+03  0.11956438541E+04  0.12699999809E+01 0.  1.
</event>
<event>
 5   0  0.1474012E-05  0.2706302E+04  0.7818609E-02  0.8332963E-01
       -1   -1    0    0    0  501  0.00000000000E+00  0.00000000000E+00  0.17224711007E+04  0.17224711007E+04  0.50400001928E-02 0.  1.
        1   -1    0    0  501    0  0.00000000000E+00  0.00000000000E+00 -0.10630177079E+04  0.10630177079E+04  0.50400001928E-02 0. -1.
    10030    2    1    2    0    0  0.00000000000E+00  0.00000000000E+00  0.65945339273E+03  0.27854888086E+04  0.27063017433E+04 0.  0.
        2    1    3    3  502    0 -0.89074714614E+03  0.99090443398E+03  0.57263038345E+03  0.14502508858E+04  0.25500000920E-02 0. -1.
       -2    1    3    3    0  502  0.89074714614E+03 -0.99090443398E+03  0.86823009280E+02  0.13352379228E+04  0.25500000920E-02 0.  1.
</event>
<event>
 5   0  0.3497949E-05  0.2834979E+04  0.7818609E-02  0.8292490E-01
       -2   -1    0    0    0  501  0.00000000000E+00  0.00000000000E+00  0.25190682680E+04  0.25190682680E+04  0.25500000920E-02 0. -1.
        2   -1    0    0  501    0  0.00000000000E+00  0.00000000000E+00 -0.79762704084E+03  0.79762704085E+03  0.25500000920E-02 0.  1.
    10030    2    1    2    0    0  0.00000000000E+00  0.00000000000E+00  0.17214412271E+04  0.33166953088E+04  0.28349793426E+04 0.  0.
        5    1    3    3  502    0 -0.62606258323E+03  0.10945881424E+04  0.16181716522E+04  0.20514821826E+04  0.46999998093E+01 0. -1.
       -5    1    3    3    0  502  0.62606258323E+03 -0.10945881424E+04  0.10326957491E+03  0.12652131262E+04  0.46999998093E+01 0.  1.
</event>
<event>
 5   0  0.1438701E-05  0.2720986E+04  0.7818609E-02  0.8328228E-01
       -1   -1    0    0    0  501  0.00000000000E+00  0.00000000000E+00  0.11654211238E+04  0.11654211238E+04  0.50400001928E-02 0. -1.
        1   -1    0    0  501    0  0.00000000000E+00  0.00000000000E+00 -0.15882167660E+04  0.15882167660E+04  0.50400001928E-02 0.  1.
    10030    2    1    2    0    0  0.00000000000E+00  0.00000000000E+00 -0.42279564214E+03  0.27536378898E+04  0.27209861215E+04 0.  0.
        4    1    3    3  502    0 -0.30107962607E+03  0.12953300460E+04  0.79120010773E+02  0.13322126175E+04  0.12699999809E+01 0.  1.
       -4    1    3    3    0  502  0.30107962607E+03 -0.12953300460E+04 -0.50191565292E+03  0.14214252723E+04  0.12699999809E+01 0. -1.
</event>
<event>
 5   0  0.3568647E-05  0.2718419E+04  0.7818609E-02  0.8329053E-01
        2   -1    0    0  501    0  0.00000000000E+00  0.00000000000E+00  0.20101715017E+04  0.20101715017E+04  0.25500000920E-02 0. -1.
       -2   -1    0    0    0  501  0.00000000000E+00  0.00000000000E+00 -0.91905148722E+03  0.91905148723E+03  0.25500000920E-02 0.  1.
    10030    2    1    2    0    0  0.00000000000E+00  0.00000000000E+00  0.10911200145E+04  0.29292229889E+04  0.27184194733E+04 0.  0.
        3    1    3    3  502    0  0.90226044430E+03  0.99478033666E+03  0.32007388594E+03  0.13806191112E+04  0.10100000352E+00 0. -1.
       -3    1    3    3    0  502 -0.90226044430E+03 -0.99478033666E+03  0.77104612852E+03  0.15486038777E+04  0.10100000352E+00 0.  1.
</event>
<event>
 5   0  0.1228050E-05  0.2281760E+04  0.7818609E-02  0.8485148E-01
       -4   -1    0    0    0  501  0.00000000000E+00  0.00000000000E+00  0.11590554773E+04  0.11590561731E+04  0.12699999809E+01 0. -1.
        4   -1    0    0  501    0  0.00000000000E+00  0.00000000000E+00 -0.11229884886E+04  0.11229892067E+04  0.12699999809E+01 0.  1.
    10030    2    1    2    0    0  0.00000000000E+00  0.00000000000E+00  0.36066988685E+02  0.22820453798E+04  0.22817603485E+04 0.  0.
        1    1    3    3  502    0  0.13815447560E+02  0.11403946575E+04 -0.12247845846E+02  0.11405441031E+04  0.50400001928E-02 0.  1.
       -1    1    3    3    0  502 -0.13815447560E+02 -0.11403946575E+04  0.48314834531E+02  0.11415012767E+04  0.50400001928E-02 0. -1.
</event>
<event>
 5   0  0.3514294E-05  0.1996616E+04  0.7818609E-02  0.8608204E-01
        2   -1    0    0  501    0  0.00000000000E+00  0.00000000000E+00  0.15761446582E+04  0.15761446582E+04  0.25500000920E-02 0.  1.
       -2   -1    0    0    0  501  0.00000000000E+00  0.00000000000E+00 -0.63231439480E+03  0.63231439480E+03  0.25500000920E-02 0. -1.
    10030    2    1    2    0    0  0.00000000000E+00  0.00000000000E+00  0.94383026341E+03  0.22084590530E+04  0.19966160930E+04 0.  0.
        2    1    3    3  502    0  0.58348497018E+03  0.66161630562E+03  0.98886573624E+03  0.13251589680E+04  0.25500000920E-02 0.  1.
       -2    1    3    3    0  502 -0.58348497018E+03 -0.66161630562E+03 -0.45035472825E+02  0.88330008497E+03  0.25500000920E-02 0. -1.
</event>
<event>
 5   0  0.1228050E-05  0.2644259E+04  0.7818609E-02  0.8353321E-01
        3   -1    0    0  501    0  0.00000000000E+00  0.00000000000E+00  0.11625599680E+04  0.11625599724E+04  0.10100000352E+00 0.  1.
       -3   -1    0    0    0  501  0.00000000000E+00  0.00000000000E+00 -0.15036011568E+04  0.15036011602E+04  0.10100000352E+00 0. -1.
    10030    2    1    2    0    0  0.00000000000E+00  0.00000000000E+00 -0.34104118875E+03  0.26661611326E+04  0.26442590820E+04 0.  0.
        4    1    3    3  502    0 -0.10215306131E+04 -0.33947869410E+03 -0.94450779822E+03  0.14320849036E+04  0.12699999809E+01 0. -1.
       -4    1    3    3    0  502  0.10215306131E+04  0.33947869410E+03  0.60346660947E+03  0.12340762290E+04  0.12699999809E+01 0.  1.
</event>
<event>
 5   0  0.3676724E-05  0.2658311E+04  0.7818609E-02  0.8348660E-01
        2   -1    0    0  501    0  0.00000000000E+00  0.00000000000E+00  0.16091235444E+04  0.16091235444E+04  0.25500000920E-02 0. -1.
       -2   -1    0    0    0  501  0.00000000000E+00  0.00000000000E+00 -0.10978982081E+04  0.10978982081E+04  0.25500000920E-02 0.  1.
    10030    2    1    2    0    0  0.00000000000E+00  0.00000000000E+00  0.51122533632E+03  0.27070217525E+04  0.26583106335E+04 0.  0.
        4    1    3    3  502    0 -0.19471111518E+03 -0.34553559520E+03 -0.10362328759E+04  0.11095438035E+04  0.12699999809E+01 0.  1.
       -4    1    3    3    0  502  0.19471111518E+03  0.34553559520E+03  0.15474582123E+04  0.15974779490E+04  0.12699999809E+01 0. -1.
</event>
<event>
 5   0  0.3497949E-05  0.2727646E+04  0.7818609E-02  0.8326090E-01
        2   -1    0    0  501    0  0.00000000000E+00  0.00000000000E+00  0.30112096225E+04  0.30112096225E+04  0.25500000920E-02 0. -1.
       -2   -1    0    0    0  501  0.00000000000E+00  0.00000000000E+00 -0.61769620215E+03  0.61769620216E+03  0.25500000920E-02 0.  1.
    10030    2    1    2    0    0  0.00000000000E+00  0.00000000000E+00  0.23935134204E+04  0.36289058247E+04  0.27276456865E+04 0.  0.
        5    1    3    3  502    0  0.63927872215E+03 -0.66994592632E+02  0.27970359036E+04  0.28699472985E+04  0.46999998093E+01 0. -1.
       -5    1    3    3    0  502 -0.63927872215E+03  0.66994592632E+02 -0.40352248322E+03  0.75895852621E+03  0.46999998093E+01 0.  1.
</event>
<event>
 5   0  0.1438701E-05  0.2359308E+04  0.7818609E-02  0.8454897E-01
       -1   -1    0    0    0  501  0.00000000000E+00  0.00000000000E+00  0.10420977267E+04  0.10420977267E+04  0.50400001928E-02 0.  1.
        1   -1    0    0  501    0  0.00000000000E+00  0.00000000000E+00 -0.13353670779E+04  0.13353670779E+04  0.50400001928E-02 0. -1.
    10030    2    1    2    0    0  0.00000000000E+00  0.00000000000E+00 -0.29326935118E+03  0.23774648046E+04  0.23593075223E+04 0.  0.
        4    1    3    3  502    0  0.34671128392E+03  0.10865172621E+04  0.15710320674E+03  0.11512651761E+04  0.12699999809E+01 0. -1.
       -4    1    3    3    0  502 -0.34671128392E+03 -0.10865172621E+04 -0.45037255792E+03  0.12261996285E+04  0.12699999809E+01 0.  1.
</event>
<event>
 5   0  0.1474012E-05  0.2026959E+04  0.7818609E-02  0.8594119E-01
       -1   -1    0    0    0  501  0.00000000000E+00  0.00000000000E+00  0.82340839566E+03  0.82340839567E+03  0.50400001928E-02 0. -1.
        1   -1    0    0  501    0  0.00000000000E+00  0.00000000000E+00 -0.12474251386E+04  0.12474251386E+04  0.50400001928E-02 0.  1.
    10030    2    1    2    0    0  0.00000000000E+00  0.00000000000E+00 -0.42401674296E+03  0.20708335343E+04  0.20269586400E+04 0.  0.
        2    1    3    3  502    0 -0.89424202816E+03  0.80013816616E+02  0.26834908464E+03  0.93706042869E+03  0.25500000920E-02 0. -1.
       -2    1    3    3    0  502  0.89424202816E+03 -0.80013816616E+02 -0.69236582760E+03  0.11337731056E+04  0.25500000920E-02 0.  1.
</event>
<event>
 5   0  0.3497949E-05  0.2693655E+04  0.7818609E-02  0.8337067E-01
        2   -1    0    0  501    0  0.00000000000E+00  0.00000000000E+00  0.18659722840E+04  0.18659722840E+04  0.25500000920E-02 0.  1.
       -2   -1    0    0    0  501  0.00000000000E+00  0.00000000000E+00 -0.97211735882E+03  0.97211735882E+03  0.25500000920E-02 0. -1.
    10030    2    1    2    0    0  0.00000000000E+00  0.00000000000E+00  0.89385492522E+03  0.28380896429E+04  0.26936548022E+04 0.  0.
        5    1    3    3  502    0 -0.14395566551E+03 -0.94788372079E+03  0.14435405173E+04  0.17329276086E+04  0.46999998093E+01 0.  1.
       -5    1    3    3    0  502  0.14395566551E+03  0.94788372079E+03 -0.54968559206E+03  0.11051620342E+04  0.46999998093E+01 0. -1.
</event>
<event>
 5   0  0.1449521E-05  0.2718109E+04  0.7818609E-02  0.8329153E-01
        1   -1    0    0  501    0  0.00000000000E+00  0.00000000000E+00  0.17286250094E+04  0.17286250094E+04  0.50400001928E-02 0.  1.
       -1   -1    0    0    0  501  0.00000000000E+00  0.00000000000E+00 -0.10684963021E+04  0.10684963021E+04  0.50400001928E-02 0. -1.
    10030    2    1    2    0    0  0.00000000000E+00  0.00000000000E+00  0.66012870725E+03  0.27971213115E+04  0.27181092180E+04 0.  0.
        3    1    3    3  502    0 -0.31762301775E+03 -0.12863464826E+04  0.64127517645E+03  0.14720073087E+04  0.10100000352E+00 0.  1.
       -3    1    3    3    0  502  0.31762301775E+03  0.12863464826E+04  0.18853530796E+02  0.13251140028E+04  0.10100000352E+00 0. -1.
</event>
<event>
 5   0  0.3652331E-05  0.2718550E+04  0.7818609E-02  0.8329011E-01
        2   -1    0    0  501    0  0.00000000000E+00  0.00000000000E+00  0.18860724541E+04  0.18860724541E+04  0.25500000920E-02 0. -1.
       -2   -1    0    0    0  501  0.00000000000E+00  0.00000000000E+00 -0.97961726311E+03  0.97961726311E+03  0.25500000920E-02 0.  1.
    10030    2    1    2    0    0  0.00000000000E+00  0.00000000000E+00  0.90645519099E+03  0.28656897172E+04  0.27185504487E+04 0.  0.
        1    1    3    3  502    0 -0.54291370999E+03 -0.11761574701E+04  0.88724962788E+03  0.15701317121E+04  0.50400001928E-02 0. -1.
       -1    1    3    3    0  502  0.54291370999E+03  0.11761574701E+04  0.19205563112E+02  0.12955580051E+04  0.50400001928E-02 0.  1.
</event>
<event>
 5   0  0.1484379E-05  0.2590191E+04  0.7818609E-02  0.8371541E-01
        1   -1    0    0  501    0  0.00000000000E+00  0.00000000000E+00  0.11461094883E+04  0.11461094884E+04  0.50400001928E-02 0.  1.
       -1   -1    0    0    0  501  0.00000000000E+00  0.00000000000E+00 -0.14634484187E+04  0.14634484187E+04  0.50400001928E-02 0. -1.
    10030    2    1    2    0    0  0.00000000000E+00  0.00000000000E+00 -0.31733893034E+03  0.26095579070E+04  0.25901908180E+04 0.  0.
        1    1    3    3  502    0 -0.10042628755E+04  0.69361437505E+03  0.27772897180E+03  0.12517101127E+04  0.50400001928E-02 0. -1.
       -1    1    3    3    0  502  0.10042628755E+04 -0.69361437505E+03 -0.59506790214E+03  0.13578477943E+04  0.50400001928E-02 0.  1.
</event>
<event>
 5   0  0.3652331E-05  0.1336076E+04  0.7818609E-02  0.9001436E-01
       -2   -1    0    0    0  501  0.00000000000E+00  0.00000000000E+00  0.43236445228E+03  0.43236445228E+03  0.25500000920E-02 0. -1.
        2   -1    0    0  501    0  0.00000000000E+00  0.00000000000E+00 -0.10321720011E+04  0.10321720011E+04  0.25500000920E-02 0.  1.
    10030    2    1    2    0    0  0.00000000000E+00  0.00000000000E+00 -0.59980754881E+03  0.14645364534E+04  0.13360755696E+04 0.  0.
        1    1    3    3  502    0 -0.37458052941E+03  0.47773205813E+03 -0.60552268881E+03  0.85743583962E+03  0.50400001928E-02 0.  1.
       -1    1    3    3    0  502  0.37458052941E+03 -0.47773205813E+03  0.57151400001E+01  0.60710061376E+03  0.50400001928E-02 0. -1.
</event>
<event>
 5   0  0.3652331E-05  0.2861800E+04  0.7818609E-02  0.8284335E-01
        2   -1    0    0  501    0  0.00000000000E+00  0.00000000000E+00  0.89123942407E+03  0.89123942407E+03  0.25500000920E-02 0.  1.
       -2   -1    0    0    0  501  0.00000000000E+00  0.00000000000E+00 -0.22973343326E+04  0.22973343326E+04  0.25500000920E-02 0. -1.
    10030    2    1    2    0    0  0.00000000000E+00  0.00000000000E+00 -0.14060949085E+04  0.31885737567E+04  0.28618000821E+04 0.  0.
        1    1    3    3  502    0  0.51550228625E+03  0.67708011432E+03 -0.19847447999E+04  0.21594888305E+04  0.50400001928E-02 0. -1.
       -1    1    3    3    0  502 -0.51550228625E+03 -0.67708011432E+03  0.57864989141E+03  0.10290849261E+04  0.50400001928E-02 0.  1.
</event>
<event>
 5   0  0.3497949E-05  0.2603085E+04  0.7818609E-02  0.8367154E-01
       -2   -1    0    0    0  501  0.00000000000E+00  0.00000000000E+00  0.73192188576E+03  0.73192188576E+03  0.25500000920E-02 0.  1.
        2   -1    0    0  501    0  0.00000000000E+00  0.00000000000E+00 -0.23144722242E+04  0.23144722242E+04  0.25500000920E-02 0. -1.
    10030    2    1    2    0    0  0.00000000000E+00  0.00000000000E+00 -0.15825503385E+04  0.30463941100E+04  0.26030849966E+04 0.  0.
        5    1    3    3  502    0 -0.12618071330E+04 -0.14077818789E+02 -0.41817954893E+03  0.13293801755E+04  0.46999998093E+01 0. -1.
       -5    1    3    3    0  502  0.12618071330E+04  0.14077818789E+02 -0.11643707895E+04  0.17170139345E+04  0.46999998093E+01 0.  1.
</event>
<event>
 5   0  0.3568647E-05  0.2680891E+04  0.7818609E-02  0.8341232E-01
       -2   -1    0    0    0  501  0.00000000000E+00  0.00000000000E+00  0.14124369261E+04  0.14124369261E+04  0.25500000920E-02 0.  1.
        2   -1    0    0  501    0  0.00000000000E+00  0.00000000000E+00 -0.12721238277E+04  0.12721238277E+04  0.25500000920E-02 0. -1.
    10030    2    1    2    0    0  0.00000000000E+00  0.00000000000E+00  0.14031309842E+03  0.26845607537E+04  0.26808913956E+04 0.  0.
        3    1    3    3  502    0  0.24919071478E+03 -0.13149613175E+04  0.14492721372E+03  0.13461883918E+04  0.10100000352E+00 0. -1.
       -3    1    3    3    0  502 -0.24919071478E+03  0.13149613175E+04 -0.46141152948E+01  0.13383723619E+04  0.10100000352E+00 0.  1.
</event>
<event>
 5   0  0.1474012E-05  0.2734577E+04  0.7818609E-02  0.8323872E-01
       -1   -1    0    0    0  501  0.00000000000E+00  0.00000000000E+00  0.12352828309E+04  0.12352828309E+04  0.50400001928E-02 0. -1.
        1   -1    0    0  501    0  0.00000000000E+00  0.00000000000E+00 -0.15134003291E+04  0.15134003291E+04  0.50400001928E-02 0.  1.
    10030    2    1    2    0    0  0.00000000000E+00  0.00000000000E+00 -0.27811749820E+03  0.27486831599E+04  0.27345767078E+04 0.  0.
        2    1    3    3  502    0  0.38932919486E+03 -0.32570362288E+03  0.11370641074E+04  0.12452208063E+04  0.25500000920E-02 0. -1.
       -2    1    3    3    0  502 -0.38932919486E+03  0.32570362288E+03 -0.14151816056E+04  0.15034623537E+04  0.25500000920E-02 0.  1.
</event>
<event>
 5   0  0.1449521E-05  0.1354893E+04  0.7818609E-02  0.8987133E-01
        1   -1    0    0  501    0  0.00000000000E+00  0.00000000000E+00  0.72644794648E+03  0.72644794650E+03  0.50400001928E-02 0.  1.
       -1   -1    0    0    0  501  0.00000000000E+00  0.00000000000E+00 -0.63175013907E+03  0.63175013909E+03  0.50400001928E-02 0. -1.
    10030    2    1    2    0    0  0.00000000000E+00  0.00000000000E+00  0.94697807412E+02  0.13581980856E+04  0.13548927504E+04 0.  0.
        3    1    3    3  502    0 -0.37099097798E+03  0.48969047304E+02  0.61344002722E+03  0.71856868184E+03  0.10100000352E+00 0.  1.
       -3    1    3    3    0  502  0.37099097798E+03 -0.48969047304E+02 -0.51874221981E+03  0.63962940375E+03  0.10100000352E+00 0. -1.
</event>
<event>
 5   0  0.1228050E-05  0.2741928E+04  0.7818609E-02  0.8321528E-01
       -3   -1    0    0    0  501  0.00000000000E+00  0.00000000000E+00  0.10297566501E+04  0.10297566551E+04  0.10100000352E+00 0.  1.
        3   -1    0    0  501    0  0.00000000000E+00  0.00000000000E+00 -0.18252293526E+04  0.18252293554E+04  0.10100000352E+00 0. -1.
    10030    2    1    2    0    0  0.00000000000E+00  0.00000000000E+00 -0.79547270246E+03  0.28549860105E+04  0.27419278436E+04 0.  0.
        3    1    3    3  502    0 -0.12868166543E+04 -0.83067857126E+02 -0.88249124272E+03  0.15625582147E+04  0.10100000352E+00 0. -1.
       -3    1    3    3    0  502  0.12868166543E+04  0.83067857126E+02  0.87018540264E+02  0.12924277958E+04  0.10100000352E+00 0.  1.
</event>
<event>
 5   0  0.1474012E-05  0.2248500E+04  0.7818609E-02  0.8498508E-01
       -1   -1    0    0    0  501  0.00000000000E+00  0.00000000000E+00  0.13670121646E+04  0.13670121646E+04  0.50400001928E-02 0.  1.
        1   -1    0    0  501    0  0.00000000000E+00  0.00000000000E+00 -0.92459887931E+03  0.92459887933E+03  0.50400001928E-02 0. -1.
    10030    2    1    2    0    0  0.00000000000E+00  0.00000000000E+00  0.44241328531E+03  0.22916110440E+04  0.22484998692E+04 0.  0.
        2    1    3    3  502    0 -0.88755497257E+03 -0.17348176617E+03  0.90191077889E+03  0.12772207349E+04  0.25500000920E-02 0.  1.
       -2    1    3    3    0  502  0.88755497257E+03  0.17348176617E+03 -0.45949749358E+03  0.10143903091E+04  0.25500000920E-02 0. -1.
</event>
<event>
 5   0  0.1484379E-05  0.2641939E+04  0.7818609E-02  0.8354093E-01
        1   -1    0    0  501    0  0.00000000000E+00  0.00000000000E+00  0.22482382906E+04  0.22482382906E+04  0.50400001928E-02 0. -1.
       -1   -1    0    0    0  501  0.00000000000E+00  0.00000000000E+00 -0.77614592023E+03  0.77614592025E+03  0.50400001928E-02 0.  1.
    10030    2    1    2    0    0  0.00000000000E+00  0.00000000000E+00  0.14720923704E+04  0.30243842109E+04  0.26419394217E+04 0.  0.
        1    1    3    3  502    0 -0.57583703033E+03 -0.77691095214E+03 -0.29409839862E+03  0.10107783046E+04  0.50400001928E-02 0.  1.
       -1    1    3    3    0  502  0.57583703033E+03  0.77691095214E+03  0.17661907690E+04  0.20136059062E+04  0.50400001928E-02 0. -1.
</event>
<event>
 5   0  0.3652331E-05  0.2951123E+04  0.7818609E-02  0.8257827E-01
       -2   -1    0    0    0  501  0.00000000000E+00  0.00000000000E+00  0.11407890970E+04  0.11407890970E+04  0.25500000920E-02 0. -1.
        2   -1    0    0  501    0  0.00000000000E+00  0.00000000000E+00 -0.19085749422E+04  0.19085749422E+04  0.25500000920E-02 0.  1.
    10030    2    1    2    0    0  0.00000000000E+00  0.00000000000E+00 -0.76778584519E+03  0.30493640393E+04  0.29511228270E+04 0.  0.
        1    1    3    3  502    0  0.15962915616E+02 -0.20774479570E+03 -0.18932981257E+04  0.19047284604E+04  0.50400001928E-02 0.  1.
       -1    1    3    3    0  502 -0.15962915616E+02  0.20774479570E+03  0.11255122805E+04  0.11446355789E+04  0.50400001928E-02 0. -1.
</event>
<event>
 5   0  0.1449521E-05  0.1560073E+04  0.7818609E-02  0.8845459E-01
       -1   -1    0    0    0  501  0.00000000000E+00  0.00000000000E+00  0.50053848804E+03  0.50053848807E+03  0.50400001928E-02 0.  1.
        1   -1    0    0  501    0  0.00000000000E+00  0.00000000000E+00 -0.12156041885E+04  0.12156041885E+04  0.50400001928E-02 0. -1.
    10030    2    1    2    0    0  0.00000000000E+00  0.00000000000E+00 -0.71506570043E+03  0.17161426766E+04  0.15600726683E+04 0.  0.
        3    1    3    3  502    0 -0.50541647062E+03 -0.51583267333E+03 -0.68186290819E+03  0.99321004396E+03  0.10100000352E+00 0. -1.
       -3    1    3    3    0  502  0.50541647062E+03  0.51583267333E+03 -0.33202792237E+02  0.72293263259E+03  0.10100000352E+00 0.  1.
</event>
<event>
 5   0  0.3514294E-05  0.2770596E+04  0.7818609E-02  0.8312456E-01
       -2   -1    0    0    0  501  0.00000000000E+00  0.00000000000E+00  0.80086484096E+03  0.80086484096E+03  0.25500000920E-02 0.  1.
        2   -1    0    0  501    0  0.00000000000E+00  0.00000000000E+00 -0.23962235946E+04  0.23962235946E+04  0.25500000920E-02 0. -1.
    10030    2    1    2    0    0  0.00000000000E+00  0.00000000000E+00 -0.15953587536E+04  0.31970884356E+04  0.27705964903E+04 0.  0.
        2    1    3    3  502    0 -0.23479207203E+03 -0.26194784905E+03 -0.23438262996E+04  0.23700771539E+04  0.25500000920E-02 0. -1.
       -2    1    3    3    0  502  0.23479207203E+03  0.26194784905E+03  0.74846754594E+03  0.82701128169E+03  0.25500000920E-02 0.  1.
</event>
<event>
 5   0  0.1495517E-05  0.2656806E+04  0.7818609E-02  0.8349158E-01
        1   -1    0    0  501    0  0.00000000000E+00  0.00000000000E+00  0.17812914499E+04  0.17812914499E+04  0.50400001928E-02 0.  1.
       -1   -1    0    0    0  501  0.00000000000E+00  0.00000000000E+00 -0.99065990560E+03  0.99065990561E+03  0.50400001928E-02 0. -1.
    10030    2    1    2    0    0  0.00000000000E+00  0.00000000000E+00  0.79063154427E+03  0.27719513555E+04  0.26568056155E+04 0.  0.
        5    1    3    3  502    0  0.11540377026E+04 -0.47661026054E+03 -0.77849602182E+02  0.12510167904E+04  0.46999998093E+01 0. -1.
       -5    1    3    3    0  502 -0.11540377026E+04  0.47661026054E+03  0.86848114645E+03  0.15209345650E+04  0.46999998093E+01 0.  1.
</event>
<event>
 5   0  0.3676724E-05  0.2430896E+04  0.7818609E-02  0.8428027E-01
        2   -1    0    0  501    0  0.00000000000E+00  0.00000000000E+00  0.15548363967E+04  0.15548363967E+04  0.25500000920E-02 0. -1.
       -2   -1    0    0    0  501  0.00000000000E+00  0.00000000000E+00 -0.95014063358E+03  0.95014063358E+03  0.25500000920E-02 0.  1.
    10030    2    1    2    0    0  0.00000000000E+00  0.00000000000E+00  0.60469576309E+03  0.25049770303E+04  0.24308955050E+04 0.  0.
        4    1    3    3  502    0  0.14851105093E+03 -0.41327381962E+03 -0.86553123353E+03  0.97056515050E+03  0.12699999809E+01 0.  1.
       -4    1    3    3    0  502 -0.14851105093E+03  0.41327381962E+03  0.14702269966E+04  0.15344118798E+04  0.12699999809E+01 0. -1.
</event>
<event>
 5   0  0.3652331E-05  0.2336003E+04  0.7818609E-02  0.8463859E-01
        2   -1    0    0  501    0  0.00000000000E+00  0.00000000000E+00  0.23955306198E+04  0.23955306198E+04  0.25500000920E-02 0.  1.
       -2   -1    0    0    0  501  0.00000000000E+00  0.00000000000E+00 -0.56948887479E+03  0.56948887480E+03  0.25500000920E-02 0. -1.
    10030    2    1    2    0    0  0.00000000000E+00  0.00000000000E+00  0.18260417450E+04  0.29650194946E+04  0.23360034565E+04 0.  0.
        1    1    3    3  502    0  0.63634416132E+03  0.88707796384E+03  0.38602633225E+03  0.11579540297E+04  0.50400001928E-02 0. -1.
       -1    1    3    3    0  502 -0.63634416132E+03 -0.88707796384E+03  0.14400154127E+04  0.18070654649E+04  0.50400001928E-02 0.  1.
</event>
<event>
 5   0  0.3652331E-05  0.2183664E+04  0.7818609E-02  0.8525258E-01
       -2   -1    0    0    0  501  0.00000000000E+00  0.00000000000E+00  0.97181742278E+03  0.97181742279E+03  0.25500000920E-02 0.  1.
        2   -1    0    0  501    0  0.00000000000E+00  0.00000000000E+00 -0.12266678201E+04  0.12266678201E+04  0.25500000920E-02 0. -1.
    10030    2    1    2    0    0  0.00000000000E+00  0.00000000000E+00 -0.25485039730E+03  0.21984852429E+04  0.21836640397E+04 0.  0.
        1    1    3    3  502    0  0.15274190376E+03 -0.74273262610E+03  0.66347356257E+03  0.10075609219E+04  0.50400001928E-02 0.  1.
       -1    1    3    3    0  502 -0.15274190376E+03  0.74273262610E+03 -0.91832395987E+03  0.11909243210E+04  0.50400001928E-02 0. -1.
</event>
<event>
 5   0  0.1438701E-05  0.2699406E+04  0.7818609E-02  0.8335198E-01
       -1   -1    0    0    0  501  0.00000000000E+00  0.00000000000E+00  0.92864459219E+03  0.92864459220E+03  0.50400001928E-02 0.  1.
        1   -1    0    0  501    0  0.00000000000E+00  0.00000000000E+00 -0.19616744392E+04  0.19616744392E+04  0.50400001928E-02 0. -1.
    10030    2    1    2    0    0  0.00000000000E+00  0.00000000000E+00 -0.10330298470E+04  0.28903190314E+04  0.26994061270E+04 0.  0.
        4    1    3    3  502    0 -0.41197259192E+03 -0.12801486001E+04 -0.39352190186E+03  0.14012005406E+04  0.12699999809E+01 0.  1.
       -4    1    3    3    0  502  0.41197259192E+03  0.12801486001E+04 -0.63950794518E+03  0.14891184908E+04  0.12699999809E+01 0. -1.
</event>
<event>
 5   0  0.3676724E-05  0.2650627E+04  0.7818609E-02  0.8351205E-01
        2   -1    0    0  501    0  0.00000000000E+00  0.00000000000E+00  0.20829248437E+04  0.20829248437E+04  0.25500000920E-02 0. -1.
       -2   -1    0    0    0  501  0.00000000000E+00  0.00000000000E+00 -0.84326400627E+03  0.84326400627E+03  0.25500000920E-02 0.  1.
    10030    2    1    2    0    0  0.00000000000E+00  0.00000000000E+00  0.12396608374E+04  0.29261888500E+04  0.26506267549E+04 0.  0.
        4    1    3    3  502    0  0.26730433267E+03 -0.12330961305E+04  0.10675492772E+04  0.16527676018E+04  0.12699999809E+01 0. -1.
       -4    1    3    3    0  502 -0.26730433267E+03  0.12330961305E+04  0.17211156022E+03  0.12734212482E+04  0.12699999809E+01 0.  1.
</event>
<event>
 5   0  0.3676724E-05  0.2637936E+04  0.7818609E-02  0.8355428E-01
       -2   -1    0    0    0  501  0.00000000000E+00  0.00000000000E+00  0.17906611786E+04  0.17906611786E+04  0.25500000920E-02 0. -1.
        2   -1    0    0  501    0  0.00000000000E+00  0.00000000000E+00 -0.97152785169E+03  0.97152785170E+03  0.25500000920E-02 0.  1.
    10030    2    1    2    0    0  0.00000000000E+00  0.00000000000E+00  0.81913332687E+03  0.27621890303E+04  0.26379364723E+04 0.  0.
        4    1    3    3  502    0 -0.27313685525E+02 -0.12788817839E+04  0.72876594459E+02  0.12812483231E+04  0.12699999809E+01 0.  1.
       -4    1    3    3    0  502  0.27313685525E+02  0.12788817839E+04  0.74625673241E+03  0.14809407072E+04  0.12699999809E+01 0. -1.
</event>
<event>
 5   0  0.1474012E-05  0.2488462E+04  0.7818609E-02  0.8407107E-01
        1   -1    0    0  501    0  0.00000000000E+00  0.00000000000E+00  0.15329773731E+04  0.15329773731E+04  0.50400001928E-02 0.  1.
       -1   -1    0    0    0  501  0.00000000000E+00  0.00000000000E+00 -0.10098721743E+04  0.10098721743E+04  0.50400001928E-02 0. -1.
    10030    2    1    2    0    0  0.00000000000E+00  0.00000000000E+00  0.52310519879E+03  0.25428495473E+04  0.24884623307E+04 0.  0.
        2    1    3    3  502    0  0.96950470554E+03 -0.19004377510E+03  0.10344263478E+04  0.14304173795E+04  0.25500000920E-02 0.  1.
       -2    1    3    3    0  502 -0.96950470554E+03  0.19004377510E+03 -0.51132114905E+03  0.11124321678E+04  0.25500000920E-02 0. -1.
</event>
<event>
 5   0  0.3652331E-05  0.2701363E+04  0.7818609E-02  0.8334563E-01
       -2   -1    0    0    0  501  0.00000000000E+00  0.00000000000E+00  0.19294272447E+04  0.19294272447E+04  0.25500000920E-02 0. -1.
        2   -1    0    0  501    0  0.00000000000E+00  0.00000000000E+00 -0.94553458973E+03  0.94553458973E+03  0.25500000920E-02 0.  1.
    10030    2    1    2    0    0  0.00000000000E+00  0.00000000000E+00  0.98389265494E+03  0.28749618344E+04  0.27013627659E+04 0.  0.
        1    1    3    3  502    0  0.29014399344E+03 -0.57993734015E+03  0.17529209087E+04  0.18690218210E+04  0.50400001928E-02 0. -1.
       -1    1    3    3    0  502 -0.29014399344E+03  0.57993734015E+03 -0.76902825373E+03  0.10059400134E+04  0.50400001928E-02 0.  1.
</event>
<event>
 5   0  0.1495517E-05  0.2236412E+04  0.7818609E-02  0.8503424E-01
       -1   -1    0    0    0  501  0.00000000000E+00  0.00000000000E+00  0.11145137432E+04  0.11145137432E+04  0.50400001928E-02 0. -1.
        1   -1    0    0  501    0  0.00000000000E+00  0.00000000000E+00 -0.11219108612E+04  0.11219108612E+04  0.50400001928E-02 0.  1.
    10030    2    1    2    0    0  0.00000000000E+00  0.00000000000E+00 -0.73971180259E+01  0.22364246044E+04  0.22364123711E+04 0.  0.
        5    1    3    3  502    0  0.19069157314E+03 -0.91217712814E+03  0.61431177473E+03  0.11161681933E+04  0.46999998093E+01 0. -1.
       -5    1    3    3    0  502 -0.19069157314E+03  0.91217712814E+03 -0.62170889276E+03  0.11202564110E+04  0.46999998093E+01 0.  1.
</event>
<event>
 5   0  0.1495517E-05  0.2621086E+04  0.7818609E-02  0.8361074E-01
        1   -1    0    0  501    0  0.00000000000E+00  0.00000000000E+00  0.25595350178E+04  0.25595350178E+04  0.50400001928E-02 0. -1.
       -1   -1    0    0    0  501  0.00000000000E+00  0.00000000000E+00 -0.67102922792E+03  0.67102922793E+03  0.50400001928E-02 0.  1.
    10030    2    1    2    0    0  0.00000000000E+00  0.00000000000E+00  0.18885057899E+04  0.32305642457E+04  0.26210858871E+04 0.  0.
        5    1    3    3  502    0 -0.59333648183E+03 -0.53323006514E+03  0.22257974986E+04  0.23644405422E+04  0.46999998093E+01 0. -1.
       -5    1    3    3    0  502  0.59333648183E+03  0.53323006514E+03 -0.33729170869E+03  0.86612370352E+03  0.46999998093E+01 0.  1.
</event>
<event>
 5   0  0.1495517E-05  0.1601033E+04  0.7818609E-02  0.8819914E-01
        1   -1    0    0  501    0  0.00000000000E+00  0.00000000000E+00  0.21550056269E+04  0.21550056269E+04  0.50400001928E-02 0.  1.
       -1   -1    0    0    0  501  0.00000000000E+00  0.00000000000E+00 -0.29736641131E+03  0.29736641135E+03  0.50400001928E-02 0. -1.
    10030    2    1    2    0    0  0.00000000000E+00  0.00000000000E+00  0.18576392156E+04  0.24523720383E+04  0.16010325290E+04 0.  0.
        5    1    3    3  502    0 -0.13297988249E+03  0.69568860800E+02  0.21332426440E+04  0.21385204567E+04  0.46999998093E+01 0.  1.
       -5    1    3    3    0  502  0.13297988249E+03 -0.69568860800E+02 -0.27560342837E+03  0.31385158159E+03  0.46999998093E+01 0. -1.
</event>
<event>
 5   0  0.1474012E-05  0.2373388E+04  0.7818609E-02  0.8449534E-01
        1   -1    0    0  501    0  0.00000000000E+00  0.00000000000E+00  0.94172391829E+03  0.94172391830E+03  0.50400001928E-02 0. -1.
       -1   -1    0    0    0  501  0.00000000000E+00  0.00000000000E+00 -0.14953879585E+04  0.14953879585E+04  0.50400001928E-02 0.  1.
    10030    2    1    2    0    0  0.00000000000E+00  0.00000000000E+00 -0.55366404022E+03  0.24371118768E+04  0.23733879646E+04 0.  0.
        2    1    3    3  502    0  0.77025347918E+03  0.12888368307E+03 -0.11943212960E+04  0.14269915150E+04  0.25500000920E-02 0.  1.
       -2    1    3    3    0  502 -0.77025347918E+03 -0.12888368307E+03  0.64065725574E+03  0.10101203618E+04  0.25500000920E-02 0. -1.
</event>
<event>
 5   0  0.3568647E-05  0.2737550E+04  0.7818609E-02  0.8322923E-01
       -2   -1    0    0    0  501  0.00000000000E+00  0.00000000000E+00  0.14400005750E+04  0.14400005750E+04  0.25500000920E-02 0. -1.
        2   -1    0    0  501    0  0.00000000000E+00  0.00000000000E+00 -0.13010727276E+04  0.13010727276E+04  0.25500000920E-02 0.  1.
    10030    2    1    2    0    0  0.00000000000E+00  0.00000000000E+00  0.13892784740E+03  0.27410733026E+04  0.27375503472E+04 0.  0.
        3    1    3    3  502    0 -0.12709642873E+04  0.33383893560E+03  0.45303236784E+03  0.13899773347E+04  0.10100000352E+00 0. -1.
       -3    1    3    3    0  502  0.12709642873E+04 -0.33383893560E+03 -0.31410452044E+03  0.13510959679E+04  0.10100000352E+00 0.  1.
</event>
<event>
 5   0  0.3497949E-05  0.2679195E+04  0.7818609E-02  0.8341787E-01
        2   -1    0    0  501    0  0.00000000000E+00  0.00000000000E+00  0.20967459120E+04  0.20967459120E+04  0.25500000920E-02 0. -1.
       -2   -1    0    0    0  501  0.00000000000E+00  0.00000000000E+00 -0.85586004473E+03  0.85586004474E+03  0.25500000920E-02 0.  1.
    10030    2    1    2    0    0  0.00000000000E+00  0.00000000000E+00  0.12408858673E+04  0.29526059568E+04  0.26791946925E+04 0.  0.
        5    1    3    3  502    0  0.97598952684E+02 -0.13175933652E+04  0.37669022494E+03  0.13738615095E+04  0.46999998093E+01 0. -1.
       -5    1    3    3    0  502 -0.97598952684E+02  0.13175933652E+04  0.86419564238E+03  0.15787444473E+04  0.46999998093E+01 0.  1.
</event>
<event>
 5   0  0.3514294E-05  0.2144946E+04  0.7818609E-02  0.8541699E-01
       -2   -1    0    0    0  501  0.00000000000E+00  0.00000000000E+00  0.81821007224E+03  0.81821007225E+03  0.25500000920E-02 0.  1.
        2   -1    0    0  501    0  0.00000000000E+00  0.00000000000E+00 -0.14057491890E+04  0.14057491890E+04  0.25500000920E-02 0. -1.
    10030    2    1    2    0    0  0.00000000000E+00  0.00000000000E+00 -0.58753911674E+03  0.22239592612E+04  0.21449458226E+04 0.  0.
        2    1    3    3  502    0  0.59104024134E+03 -0.86926701206E+03 -0.51431247337E+03  0.11702440025E+04  0.25500000920E-02 0. -1.
       -2    1    3    3    0  502 -0.59104024134E+03  0.86926701206E+03 -0.73226643366E+02  0.10537152587E+04  0.25500000920E-02 0.  1.
</event>
<event>
 5   0  0.1474012E-05  0.2709984E+04  0.7818609E-02  0.8331773E-01
       -1   -1    0    0    0  501  0.00000000000E+00  0.00000000000E+00  0.11877062552E+04  0.11877062552E+04  0.50400001928E-02 0.  1.
        1   -1    0    0  501    0  0.00000000000E+00  0.00000000000E+00 -0.15458395193E+04  0.15458395193E+04  0.50400001928E-02 0. -1.
    10030    2    1    2    0    0  0.00000000000E+00  0.00000000000E+00 -0.35813326413E+03  0.27335457745E+04  0.27099839605E+04 0.  0.
        2    1    3    3  502    0  0.65575375721E+03 -0.75404553298E+03  0.74398833472E+03  0.12458395957E+04  0.25500000920E-02 0.  1.
       -2    1    3    3    0  502 -0.65575375721E+03  0.75404553298E+03 -0.11021215989E+04  0.14877061788E+04  0.25500000920E-02 0. -1.
</event>
<event>
 5   0  0.3652331E-05  0.2739447E+04  0.7818609E-02  0.8322318E-01
       -2   -1    0    0    0  501  0.00000000000E+00  0.00000000000E+00  0.13892907179E+04  0.13892907179E+04  0.25500000920E-02 0. -1.
        2   -1    0    0  501    0  0.00000000000E+00  0.00000000000E+00 -0.13504323231E+04  0.13504323231E+04  0.25500000920E-02 0.  1.
    10030    2    1    2    0    0  0.00000000000E+00  0.00000000000E+00  0.38858394804E+02  0.27397230409E+04  0.27394474564E+04 0.  0.
        1    1    3    3  502    0 -0.48556014624E+03  0.20062840754E+03 -0.12456576116E+04  0.13519183773E+04  0.50400001928E-02 0.  1.
       -1    1    3    3    0  502  0.48556014624E+03 -0.20062840754E+03  0.12845160064E+04  0.13878046636E+04  0.50400001928E-02 0. -1.
</event>
<event>
 5   0  0.1228050E-05  0.2728906E+04  0.7818609E-02  0.8325687E-01
       -3   -1    0    0    0  501  0.00000000000E+00  0.00000000000E+00  0.10289972133E+04  0.10289972183E+04  0.10100000352E+00 0.  1.
        3   -1    0    0  501    0  0.00000000000E+00  0.00000000000E+00 -0.18092679869E+04  0.18092679898E+04  0.10100000352E+00 0. -1.
    10030    2    1    2    0    0  0.00000000000E+00  0.00000000000E+00 -0.78027077361E+03  0.28382652081E+04  0.27289058084E+04 0.  0.
        5    1    3    3  502    0  0.89678526668E+03  0.91802637144E+02  0.67514565543E+03  0.11262749597E+04  0.46999998093E+01 0.  1.
       -5    1    3    3    0  502 -0.89678526668E+03 -0.91802637144E+02 -0.14554164290E+04  0.17119902484E+04  0.46999998093E+01 0. -1.
</event>
<event>
 5   0  0.1228050E-05  0.2722284E+04  0.7818609E-02  0.8327811E-01
       -4   -1    0    0    0  501  0.00000000000E+00  0.00000000000E+00  0.12242016408E+04  0.12242022996E+04  0.12699999809E+01 0. -1.
        4   -1    0    0  501    0  0.00000000000E+00  0.00000000000E+00 -0.15133992580E+04  0.15133997909E+04  0.12699999809E+01 0.  1.
    10030    2    1    2    0    0  0.00000000000E+00  0.00000000000E+00 -0.28919761720E+03  0.27376020905E+04  0.27222839572E+04 0.  0.
        5    1    3    3  502    0 -0.10336769308E+04  0.33654105933E+03  0.67911801793E+03  0.12817844023E+04  0.46999998093E+01 0. -1.
       -5    1    3    3    0  502  0.10336769308E+04 -0.33654105933E+03 -0.96831563513E+03  0.14558176881E+04  0.46999998093E+01 0.  1.
</event>
<event>
 5   0  0.1484379E-05  0.2698826E+04  0.7818609E-02  0.8335386E-01
        1   -1    0    0  501    0  0.00000000000E+00  0.00000000000E+00  0.15394267033E+04  0.15394267034E+04  0.50400001928E-02 0.  1.
       -1   -1    0    0    0  501  0.00000000000E+00  0.00000000000E+00 -0.11828531442E+04  0.11828531443E+04  0.50400001928E-02 0. -1.
    10030    2    1    2    0    0  0.00000000000E+00  0.00000000000E+00  0.35657355910E+03  0.27222798476E+04  0.26988262015E+04 0.  0.
        1    1    3    3  502    0 -0.34696845602E+02  0.11693444326E+03 -0.11772812389E+04  0.11835829715E+04  0.50400001928E-02 0. -1.
       -1    1    3    3    0  502  0.34696845602E+02 -0.11693444326E+03  0.15338547980E+04  0.15386968761E+04  0.50400001928E-02 0.  1.
</event>
<event>
 5   0  0.1449521E-05  0.2745469E+04  0.7818609E-02  0.8320401E-01
       -1   -1    0    0    0  501  0.00000000000E+00  0.00000000000E+00  0.15966438933E+04  0.15966438933E+04  0.50400001928E-02 0.  1.
        1   -1    0    0  501    0  0.00000000000E+00  0.00000000000E+00 -0.11802259784E+04  0.11802259784E+04  0.50400001928E-02 0. -1.
    10030    2    1    2    0    0  0.00000000000E+00  0.00000000000E+00  0.41641791496E+03  0.27768698717E+04  0.27454694324E+04 0.  0.
        3    1    3    3  502    0  0.57561995732E+03  0.61602610619E+03  0.13039152923E+04  0.15527464695E+04  0.10100000352E+00 0.  1.
       -3    1    3    3    0  502 -0.57561995732E+03 -0.61602610619E+03 -0.88749737737E+03  0.12241234022E+04  0.10100000352E+00 0. -1.
</event>
<event>
 5   0  0.1474012E-05  0.2592320E+04  0.7818609E-02  0.8370815E-01
        1   -1    0    0  501    0  0.00000000000E+00  0.00000000000E+00  0.15107226348E+04  0.15107226348E+04  0.50400001928E-02 0.  1.
       -1   -1    0    0    0  501  0.00000000000E+00  0.00000000000E+00 -0.11120707576E+04  0.11120707576E+04  0.50400001928E-02 0. -1.
    10030    2    1    2    0    0  0.00000000000E+00  0.00000000000E+00  0.39865187718E+03  0.26227933924E+04  0.25923197836E+04 0.  0.
        2    1    3    3  502    0  0.64343930198E+03  0.19303817144E+03  0.13208477663E+04  0.14818625755E+04  0.25500000920E-02 0.  1.
       -2    1    3    3    0  502 -0.64343930198E+03 -0.19303817144E+03 -0.92219588915E+03  0.11409308169E+04  0.25500000920E-02 0. -1.
</event>
<event>
 5   0  0.1449521E-05  0.2723988E+04  0.7818609E-02  0.8327263E-01
        1   -1    0    0  501    0  0.00000000000E+00  0.00000000000E+00  0.22103589962E+04  0.22103589962E+04  0.50400001928E-02 0. -1.
       -1   -1    0    0    0  501  0.00000000000E+00  0.00000000000E+00 -0.83924285400E+03  0.83924285401E+03  0.50400001928E-02 0.  1.
    10030    2    1    2    0    0  0.00000000000E+00  0.00000000000E+00  0.13711161422E+04  0.30496018502E+04  0.27239882469E+04 0.  0.
        3    1    3    3  502    0  0.12285972223E+04  0.30056459709E+03  0.12511593518E+04  0.17790980708E+04  0.10100000352E+00 0. -1.
       -3    1    3    3    0  502 -0.12285972223E+04 -0.30056459709E+03  0.11995679037E+03  0.12705037794E+04  0.10100000352E+00 0.  1.
</event>
<event>
 5   0  0.1438701E-05  0.2657759E+04  0.7818609E-02  0.8348842E-01
        1   -1    0    0  501    0  0.00000000000E+00  0.00000000000E+00  0.13612568107E+04  0.13612568107E+04  0.50400001928E-02 0.  1.
       -1   -1    0    0    0  501  0.00000000000E+00  0.00000000000E+00 -0.12972726664E+04  0.12972726664E+04  0.50400001928E-02 0. -1.
    10030    2    1    2    0    0  0.00000000000E+00  0.00000000000E+00  0.63984144239E+02  0.26585294771E+04  0.26577593966E+04 0.  0.
        4    1    3    3  502    0  0.12910097983E+04  0.31156463254E+03  0.78274476039E+02  0.13303786401E+04  0.12699999809E+01 0. -1.
       -4    1    3    3    0  502 -0.12910097983E+04 -0.31156463254E+03 -0.14290331800E+02  0.13281508370E+04  0.12699999809E+01 0.  1.
</event>
<event>
 5   0  0.1474012E-05  0.2588624E+04  0.7818609E-02  0.8372076E-01
        1   -1    0    0  501    0  0.00000000000E+00  0.00000000000E+00  0.22504474855E+04  0.22504474855E+04  0.50400001928E-02 0.  1.
       -1   -1    0    0    0  501  0.00000000000E+00  0.00000000000E+00 -0.74440437145E+03  0.74440437147E+03  0.50400001928E-02 0. -1.
    10030    2    1    2    0    0  0.00000000000E+00  0.00000000000E+00  0.15060431140E+04  0.29948518570E+04  0.25886235307E+04 0.  0.
        2    1    3    3  502    0 -0.33627972427E+03 -0.12426173436E+04  0.59754041911E+03  0.14192379885E+04  0.25500000920E-02 0. -1.
       -2    1    3    3    0  502  0.33627972427E+03  0.12426173436E+04  0.90850269493E+03  0.15756138684E+04  0.25500000920E-02 0.  1.
</event>
<event>
 5   0  0.3514294E-05  0.2572013E+04  0.7818609E-02  0.8377770E-01
       -2   -1    0    0    0  501  0.00000000000E+00  0.00000000000E+00  0.12335043048E+04  0.12335043048E+04  0.25500000920E-02 0.  1.
        2   -1    0    0  501    0  0.00000000000E+00  0.00000000000E+00 -0.13407437158E+04  0.13407437158E+04  0.25500000920E-02 0. -1.
    10030    2    1    2    0    0  0.00000000000E+00  0.00000000000E+00 -0.10723941099E+03  0.25742480207E+04  0.25720133321E+04 0.  0.
        2    1    3    3  502    0  0.20966712672E+03  0.17367243324E+03 -0.13115692044E+04  0.13395283483E+04  0.25500000920E-02 0. -1.
       -2    1    3    3    0  502 -0.20966712672E+03 -0.17367243324E+03  0.12043297934E+04  0.12347196723E+04  0.25500000920E-02 0.  1.
</event>
<event>
 5   0  0.1474012E-05  0.1561161E+04  0.7818609E-02  0.8844770E-01
       -1   -1    0    0    0  501  0.00000000000E+00  0.00000000000E+00  0.56918230885E+03  0.56918230887E+03  0.50400001928E-02 0.  1.
        1   -1    0    0  501    0  0.00000000000E+00  0.00000000000E+00 -0.10704939726E+04  0.10704939726E+04  0.50400001928E-02 0. -1.
    10030    2    1    2    0    0  0.00000000000E+00  0.00000000000E+00 -0.50131166379E+03  0.16396762815E+04  0.15611614023E+04 0.  0.
        2    1    3    3  502    0 -0.24064277879E+03  0.18555454693E+03  0.50450878555E+03  0.58895547503E+03  0.25500000920E-02 0.  1.
       -2    1    3    3    0  502  0.24064277879E+03 -0.18555454693E+03 -0.10058204493E+04  0.10507208065E+04  0.25500000920E-02 0. -1.
</event>
<event>
 5   0  0.1495517E-05  0.1651856E+04  0.7818609E-02  0.8789309E-01
        1   -1    0    0  501    0  0.00000000000E+00  0.00000000000E+00  0.10824257271E+04  0.10824257272E+04  0.50400001928E-02 0. -1.
       -1   -1    0    0    0  501  0.00000000000E+00  0.00000000000E+00 -0.63021110610E+03  0.63021110612E+03  0.50400001928E-02 0.  1.
    10030    2    1    2    0    0  0.00000000000E+00  0.00000000000E+00  0.45221462104E+03  0.17126368333E+04  0.16518555806E+04 0.  0.
        5    1    3    3  502    0 -0.54651252420E+03 -0.30914356395E+03  0.78240300338E+03  0.10032059768E+04  0.46999998093E+01 0. -1.
       -5    1    3    3    0  502  0.54651252420E+03  0.30914356395E+03 -0.33018838234E+03  0.70943085644E+03  0.46999998093E+01 0.  1.
</event>
<event>
 5   0  0.1228050E-05  0.2720862E+04  0.7818609E-02  0.8328268E-01
        3   -1    0    0  501    0  0.00000000000E+00  0.00000000000E+00  0.16216201411E+04  0.16216201443E+04  0.10100000352E+00 0. -1.
       -3   -1    0    0    0  501  0.00000000000E+00  0.00000000000E+00 -0.11413107773E+04  0.11413107818E+04  0.10100000352E+00 0.  1.
    10030    2    1    2    0    0  0.00000000000E+00  0.00000000000E+00  0.48030936380E+03  0.27629309261E+04  0.27208620357E+04 0.  0.
        1    1    3    3  502    0 -0.63209336283E+03 -0.23761988331E+03  0.14394175555E+04  0.15899459511E+04  0.50400001928E-02 0. -1.
       -1    1    3    3    0  502  0.63209336283E+03  0.23761988331E+03 -0.95910819167E+03  0.11729849750E+04  0.50400001928E-02 0.  1.
</event>
<event>
 5   0  0.3568647E-05  0.2748187E+04  0.7818609E-02  0.8319537E-01
       -2   -1    0    0    0  501  0.00000000000E+00  0.00000000000E+00  0.12922492090E+04  0.12922492090E+04  0.25500000920E-02 0.  1.
        2   -1    0    0  501    0  0.00000000000E+00  0.00000000000E+00 -0.14611217865E+04  0.14611217865E+04  0.25500000920E-02 0. -1.
    10030    2    1    2    0    0  0.00000000000E+00  0.00000000000E+00 -0.16887257756E+03  0.27533709955E+04  0.27481873829E+04 0.  0.
        3    1    3    3  502    0 -0.58841458745E+03 -0.69446423222E+03 -0.11157569163E+04  0.14399395136E+04  0.10100000352E+00 0. -1.
       -3    1    3    3    0  502  0.58841458745E+03  0.69446423222E+03  0.94688433870E+03  0.13134314819E+04  0.10100000352E+00 0.  1.
</event>
<event>
 5   0  0.3568647E-05  0.2176880E+04  0.7818609E-02  0.8528113E-01
       -2   -1    0    0    0  501  0.00000000000E+00  0.00000000000E+00  0.10689413304E+04  0.10689413304E+04  0.25500000920E-02 0. -1.
        2   -1    0    0  501    0  0.00000000000E+00  0.00000000000E+00 -0.11082942512E+04  0.11082942512E+04  0.25500000920E-02 0.  1.
    10030    2    1    2    0    0  0.00000000000E+00  0.00000000000E+00 -0.39352920774E+02  0.21772355816E+04  0.21768799061E+04 0.  0.
        3    1    3    3  502    0 -0.83237744491E+03 -0.69674834102E+02  0.67828763529E+03  0.10760022861E+04  0.10100000352E+00 0. -1.
       -3    1    3    3    0  502  0.83237744491E+03  0.69674834102E+02 -0.71764055606E+03  0.11012332955E+04  0.10100000352E+00 0.  1.
</event>
<event>
 5   0  0.3676724E-05  0.2706180E+04  0.7818609E-02  0.8333002E-01
        2   -1    0    0  501    0  0.00000000000E+00  0.00000000000E+00  0.18988590928E+04  0.18988590928E+04  0.25500000920E-02 0. -1.
       -2   -1    0    0    0  501  0.00000000000E+00  0.00000000000E+00 -0.96418572300E+03  0.96418572301E+03  0.25500000920E-02 0.  1.
    10030    2    1    2    0    0  0.00000000000E+00  0.00000000000E+00  0.93467336976E+03  0.28630448158E+04  0.27061802063E+04 0.  0.
        4    1    3    3  502    0 -0.93173737189E+03 -0.98116143294E+03  0.47393746238E+03  0.14336773064E+04  0.12699999809E+01 0. -1.
       -4    1    3    3    0  502  0.93173737189E+03  0.98116143294E+03  0.46073590738E+03  0.14293675094E+04  0.12699999809E+01 0.  1.
</event>
<event>
 5   0  0.3568647E-05  0.2578291E+04  0.7818609E-02  0.8375613E-01
        2   -1    0    0  501    0  0.00000000000E+00  0.00000000000E+00  0.13420467552E+04  0.13420467552E+04  0.25500000920E-02 0. -1.
       -2   -1    0    0    0  501  0.00000000000E+00  0.00000000000E+00 -0.12383292416E+04  0.12383292416E+04  0.25500000920E-02 0.  1.
    10030    2    1    2    0    0  0.00000000000E+00  0.00000000000E+00  0.10371751366E+03  0.25803759968E+04  0.25782907055E+04 0.  0.
        3    1    3    3  502    0  0.92411659600E+03  0.56795067777E+03 -0.64536549766E+03  0.12621632585E+04  0.10100000352E+00 0.  1.
       -3    1    3    3    0  502 -0.92411659600E+03 -0.56795067777E+03  0.74908301132E+03  0.13182127383E+04  0.10100000352E+00 0. -1.
</event>
<event>
 5   0  0.3652331E-05  0.2726379E+04  0.7818609E-02  0.8326496E-01
        2   -1    0    0  501    0  0.00000000000E+00  0.00000000000E+00  0.22152709236E+04  0.22152709236E+04  0.25500000920E-02 0.  1.
       -2   -1    0    0    0  501  0.00000000000E+00  0.00000000000E+00 -0.83885258432E+03  0.83885258432E+03  0.25500000920E-02 0. -1.
    10030    2    1    2    0    0  0.00000000000E+00  0.00000000000E+00  0.13764183393E+04  0.30541235080E+04  0.27263790927E+04 0.  0.
        1    1    3    3  502    0  0.82348850765E+03  0.41693572640E+03  0.18119541415E+04  0.20335059708E+04  0.50400001928E-02 0.  1.
       -1    1    3    3    0  502 -0.82348850765E+03 -0.41693572640E+03 -0.43553580220E+03  0.10206175372E+04  0.50400001928E-02 0. -1.
</event>
<event>
 5   0  0.3568647E-05  0.2109562E+04  0.7818609E-02  0.8557043E-01
       -2   -1    0    0    0  501  0.00000000000E+00  0.00000000000E+00  0.14083642912E+04  0.14083642912E+04  0.25500000920E-02 0.  1.
        2   -1    0    0  501    0  0.00000000000E+00  0.00000000000E+00 -0.78996812518E+03  0.78996812518E+03  0.25500000920E-02 0. -1.
    10030    2    1    2    0    0  0.00000000000E+00  0.00000000000E+00  0.61839616606E+03  0.21983324164E+04  0.21095619438E+04 0.  0.
        3    1    3    3  502    0 -0.15297375009E+03 -0.43080059561E+03  0.12997623293E+04  0.13778142996E+04  0.10100000352E+00 0.  1.
       -3    1    3    3    0  502  0.15297375009E+03  0.43080059561E+03 -0.68136616324E+03  0.82051811680E+03  0.10100000352E+00 0. -1.
</event>
<event>
 5   0  0.3497949E-05  0.1947093E+04  0.7818609E-02  0.8631764E-01
        2   -1    0    0  501    0  0.00000000000E+00  0.00000000000E+00  0.96729780180E+03  0.96729780181E+03  0.25500000920E-02 0. -1.
       -2   -1    0    0    0  501  0.00000000000E+00  0.00000000000E+00 -0.97983511290E+03  0.97983511290E+03  0.25500000920E-02 0.  1.
    10030    2    1    2    0    0  0.00000000000E+00  0.00000000000E+00 -0.12537311095E+02  0.19471329147E+04  0.19470925513E+04 0.  0.
        5    1    3    3  502    0 -0.54904764204E+02 -0.95587315714E+03 -0.18251712515E+03  0.97470129611E+03  0.46999998093E+01 0. -1.
       -5    1    3    3    0  502  0.54904764204E+02  0.95587315714E+03  0.16997981405E+03  0.97243161860E+03  0.46999998093E+01 0.  1.
</event>
<event>
 5   0  0.1449521E-05  0.2555919E+04  0.7818609E-02  0.8383331E-01
        1   -1    0    0  501    0  0.00000000000E+00  0.00000000000E+00  0.14173369155E+04  0.14173369155E+04  0.50400001928E-02 0. -1.
       -1   -1    0    0    0  501  0.00000000000E+00  0.00000000000E+00 -0.11522879968E+04  0.11522879968E+04  0.50400001928E-02 0.  1.
    10030    2    1    2    0    0  0.00000000000E+00  0.00000000000E+00  0.26504891876E+03  0.25696249123E+04  0.25559188681E+04 0.  0.
        3    1    3    3  502    0  0.19106184665E+03  0.21315672474E+03 -0.11196422451E+04  0.11556553058E+04  0.10100000352E+00 0.  1.
       -3    1    3    3    0  502 -0.19106184665E+03 -0.21315672474E+03  0.13846911639E+04  0.14139696065E+04  0.10100000352E+00 0. -1.
</event>
<event>
 5   0  0.1484379E-05  0.2791777E+04  0.7818609E-02  0.8305826E-01
        1   -1    0    0  501    0  0.00000000000E+00  0.00000000000E+00  0.14568622727E+04  0.14568622727E+04  0.50400001928E-02 0. -1.
       -1   -1    0    0    0  501  0.00000000000E+00  0.00000000000E+00 -0.13374668194E+04  0.13374668194E+04  0.50400001928E-02 0.  1.
    10030    2    1    2    0    0  0.00000000000E+00  0.00000000000E+00  0.11939545330E+03  0.27943290922E+04  0.27917771761E+04 0.  0.
        1    1    3    3  502    0 -0.12981338298E+04 -0.48085882866E+03  0.23910525100E+03  0.14048302297E+04  0.50400001928E-02 0.  1.
       -1    1    3    3    0  502  0.12981338298E+04  0.48085882866E+03 -0.11970979770E+03  0.13894988625E+04  0.50400001928E-02 0. -1.
</event>
<event>
 5   0  0.1449521E-05  0.2730386E+04  0.7818609E-02  0.8325213E-01
        1   -1    0    0  501    0  0.00000000000E+00  0.00000000000E+00  0.70735062562E+03  0.70735062564E+03  0.50400001928E-02 0.  1.
       -1   -1    0    0    0  501  0.00000000000E+00  0.00000000000E+00 -0.26348344235E+04  0.26348344235E+04  0.50400001928E-02 0. -1.
    10030    2    1    2    0    0  0.00000000000E+00  0.00000000000E+00 -0.19274837979E+04  0.33421850491E+04  0.27303858906E+04 0.  0.
        3    1    3    3  502    0 -0.54163819121E+03  0.78380165907E+03  0.23311798558E+03  0.98084707083E+03  0.10100000352E+00 0.  1.
       -3    1    3    3    0  502  0.54163819121E+03 -0.78380165907E+03 -0.21606017834E+04  0.23613379783E+04  0.10100000352E+00 0. -1.
</event>
<event>
 5   0  0.1484379E-05  0.2326177E+04  0.7818609E-02  0.8467671E-01
       -1   -1    0    0    0  501  0.00000000000E+00  0.00000000000E+00  0.14798546470E+04  0.14798546470E+04  0.50400001928E-02 0. -1.
        1   -1    0    0  501    0  0.00000000000E+00  0.00000000000E+00 -0.91412708315E+03  0.91412708316E+03  0.50400001928E-02 0.  1.
    10030    2    1    2    0    0  0.00000000000E+00  0.00000000000E+00  0.56572756387E+03  0.23939817302E+04  0.23261773036E+04 0.  0.
        1    1    3    3  502    0 -0.78804507707E+03  0.82426331328E+03  0.51833456041E+03  0.12526355295E+04  0.50400001928E-02 0.  1.
       -1    1    3    3    0  502  0.78804507707E+03 -0.82426331328E+03  0.47393003452E+02  0.11413462007E+04  0.50400001928E-02 0. -1.
</event>
<event>
 5   0  0.1438701E-05  0.2648900E+04  0.7818609E-02  0.8351778E-01
       -1   -1    0    0    0  501  0.00000000000E+00  0.00000000000E+00  0.10759304594E+04  0.10759304594E+04  0.50400001928E-02 0. -1.
        1   -1    0    0  501    0  0.00000000000E+00  0.00000000000E+00 -0.16303725827E+04  0.16303725827E+04  0.50400001928E-02 0.  1.
    10030    2    1    2    0    0  0.00000000000E+00  0.00000000000E+00 -0.55444212329E+03  0.27063030421E+04  0.26488997882E+04 0.  0.
        4    1    3    3  502    0 -0.62093390656E+03 -0.82963830668E+03  0.56546042745E+03  0.11805107980E+04  0.12699999809E+01 0. -1.
       -4    1    3    3    0  502  0.62093390656E+03  0.82963830668E+03 -0.11199025507E+04  0.15257922441E+04  0.12699999809E+01 0.  1.
</event>
<event>
 5   0  0.3676724E-05  0.2812362E+04  0.7818609E-02  0.8299441E-01
       -2   -1    0    0    0  501  0.00000000000E+00  0.00000000000E+00  0.12266297607E+04  0.12266297607E+04  0.25500000920E-02 0. -1.
        2   -1    0    0  501    0  0.00000000000E+00  0.00000000000E+00 -0.16120140761E+04  0.16120140761E+04  0.25500000920E-02 0.  1.
    10030    2    1    2    0    0  0.00000000000E+00  0.00000000000E+00 -0.38538431543E+03  0.28386438367E+04  0.28123615986E+04 0.  0.
        4    1    3    3  502    0 -0.98689292464E+03 -0.98468695984E+03 -0.71900583432E+01  0.13941374980E+04  0.12699999809E+01 0. -1.
       -4    1    3    3    0  502  0.98689292464E+03  0.98468695984E+03 -0.37819425708E+03  0.14445063387E+04  0.12699999809E+01 0.  1.
</event>
<event>
 5   0  0.3497949E-05  0.2704869E+04  0.7818609E-02  0.8333427E-01
        2   -1    0    0  501    0  0.00000000000E+00  0.00000000000E+00  0.14375193786E+04  0.14375193786E+04  0.25500000920E-02 0.  1.
       -2   -1    0    0    0  501  0.00000000000E+00  0.00000000000E+00 -0.12723859549E+04  0.12723859549E+04  0.25500000920E-02 0. -1.
    10030    2    1    2    0    0  0.00000000000E+00  0.00000000000E+00  0.16513342377E+03  0.27099053335E+04  0.27048692887E+04 0.  0.
        5    1    3    3  502    0  0.67992563170E+03  0.75166190898E+03 -0.81451253843E+03  0.13002873741E+04  0.46999998093E+01 0. -1.
       -5    1    3    3    0  502 -0.67992563170E+03 -0.75166190898E+03  0.97964596220E+03  0.14096179593E+04  0.46999998093E+01 0.  1.
</event>
<event>
 5   0  0.1484379E-05  0.2621803E+04  0.7818609E-02  0.8360833E-01
       -1   -1    0    0    0  501  0.00000000000E+00  0.00000000000E+00  0.13364472883E+04  0.13364472883E+04  0.50400001928E-02 0.  1.
        1   -1    0    0  501    0  0.00000000000E+00  0.00000000000E+00 -0.12858436062E+04  0.12858436062E+04  0.50400001928E-02 0. -1.
    10030    2    1    2    0    0  0.00000000000E+00  0.00000000000E+00  0.50603682093E+02  0.26222908945E+04  0.26218025866E+04 0.  0.
        1    1    3    3  502    0  0.63378234543E+03 -0.51046209644E+03 -0.10026106359E+04  0.12913092970E+04  0.50400001928E-02 0. -1.
       -1    1    3    3    0  502 -0.63378234543E+03  0.51046209644E+03  0.10532143180E+04  0.13309815975E+04  0.50400001928E-02 0.  1.
</event>
<event>
 5   0  0.3568647E-05  0.1694847E+04  0.7818609E-02  0.8764309E-01
        2   -1    0    0  501    0  0.00000000000E+00  0.00000000000E+00  0.10039823227E+04  0.10039823227E+04  0.25500000920E-02 0.  1.
       -2   -1    0    0    0  501  0.00000000000E+00  0.00000000000E+00 -0.71527804159E+03  0.71527804160E+03  0.25500000920E-02 0. -1.
    10030    2    1    2    0    0  0.00000000000E+00  0.00000000000E+00  0.28870428109E+03  0.17192603643E+04  0.16948469070E+04 0.  0.
        3    1    3    3  502    0 -0.26636218298E+03 -0.56061729189E+02  0.95842979319E+03  0.99633298082E+03  0.10100000352E+00 0.  1.
       -3    1    3    3    0  502  0.26636218298E+03  0.56061729189E+02 -0.66972551210E+03  0.72292738346E+03  0.10100000352E+00 0. -1.
</event>
<event>
 5   0  0.3652331E-05  0.2693510E+04  0.7818609E-02  0.8337114E-01
        2   -1    0    0  501    0  0.00000000000E+00  0.00000000000E+00  0.13397055299E+04  0.13397055299E+04  0.25500000920E-02 0.  1.
       -2   -1    0    0    0  501  0.00000000000E+00  0.00000000000E+00 -0.13538411446E+04  0.13538411446E+04  0.25500000920E-02 0. -1.
    10030    2    1    2    0    0  0.00000000000E+00  0.00000000000E+00 -0.14135614694E+02  0.26935466746E+04  0.26935095828E+04 0.  0.
        1    1    3    3  502    0  0.99658570751E+02  0.13336062242E+04 -0.16616454883E+03  0.13476082700E+04  0.50400001928E-02 0.  1.
       -1    1    3    3    0  502 -0.99658570751E+02 -0.13336062242E+04  0.15202893414E+03  0.13459384046E+04  0.50400001928E-02 0. -1.
</event>
<event>
 5   0  0.3514294E-05  0.2674987E+04  0.7818609E-02  0.8343167E-01
        2   -1    0    0  501    0  0.00000000000E+00  0.00000000000E+00  0.25341181615E+04  0.25341181615E+04  0.25500000920E-02 0. -1.
       -2   -1    0    0    0  501  0.00000000000E+00  0.00000000000E+00 -0.70592189942E+03  0.70592189942E+03  0.25500000920E-02 0.  1.
    10030    2    1    2    0    0  0.00000000000E+00  0.00000000000E+00  0.18281962621E+04  0.32400400609E+04  0.26749874810E+04 0.  0.
        2    1    3    3  502    0  0.11186178568E+03  0.57529842785E+03  0.23703076918E+04  0.24416879190E+04  0.25500000920E-02 0. -1.
       -2    1    3    3    0  502 -0.11186178568E+03 -0.57529842785E+03 -0.54211142973E+03  0.79835214187E+03  0.25500000920E-02 0.  1.
</event>
<event>
 5   0  0.1474012E-05  0.1935044E+04  0.7818609E-02  0.8637607E-01
       -1   -1    0    0    0  501  0.00000000000E+00  0.00000000000E+00  0.10923076023E+04  0.10923076023E+04  0.50400001928E-02 0. -1.
        1   -1    0    0  501    0  0.00000000000E+00  0.00000000000E+00 -0.85699217441E+03  0.85699217443E+03  0.50400001928E-02 0.  1.
    10030    2    1    2    0    0  0.00000000000E+00  0.00000000000E+00  0.23531542787E+03  0.19492997767E+04  0.19350442550E+04 0.  0.
        2    1    3    3  502    0  0.68575092642E+03  0.44483385732E+03  0.63912714278E+03  0.10376005967E+04  0.25500000920E-02 0. -1.
       -2    1    3    3    0  502 -0.68575092642E+03 -0.44483385732E+03 -0.40381171491E+03  0.91169917999E+03  0.25500000920E-02 0.  1.
</event>
<event>
 5   0  0.1438701E-05  0.2595809E+04  0.7818609E-02  0.8369626E-01
       -1   -1    0    0    0  501  0.00000000000E+00  0.00000000000E+00  0.13025141018E+04  0.13025141018E+04  0.50400001928E-02 0. -1.
        1   -1    0    0  501    0  0.00000000000E+00  0.00000000000E+00 -0.12933110578E+04  0.12933110578E+04  0.50400001928E-02 0.  1.
    10030    2    1    2    0    0  0.00000000000E+00  0.00000000000E+00  0.92030439851E+01  0.25958251596E+04  0.25958088457E+04 0.  0.
        4    1    3    3  502    0  0.71782486328E+03  0.83182041709E+03  0.69551579844E+03  0.13003620955E+04  0.12699999809E+01 0. -1.
       -4    1    3    3    0  502 -0.71782486328E+03 -0.83182041709E+03 -0.68631275445E+03  0.12954630641E+04  0.12699999809E+01 0.  1.
</event>
<event>
 5   0  0.3497949E-05  0.2661098E+04  0.7818609E-02  0.8347739E-01
        2   -1    0    0  501    0  0.00000000000E+00  0.00000000000E+00  0.16180103062E+04  0.16180103062E+04  0.25500000920E-02 0.  1.
       -2   -1    0    0    0  501  0.00000000000E+00  0.00000000000E+00 -0.10941591875E+04  0.10941591875E+04  0.25500000920E-02 0. -1.
    10030    2    1    2    0    0  0.00000000000E+00  0.00000000000E+00  0.52385111874E+03  0.27121694937E+04  0.26610981508E+04 0.  0.
        5    1    3    3  502    0  0.78296853611E+03 -0.91906142101E+03 -0.30793404830E+03  0.12460172921E+04  0.46999998093E+01 0. -1.
       -5    1    3    3    0  502 -0.78296853611E+03  0.91906142101E+03  0.83178516704E+03  0.14661522016E+04  0.46999998093E+01 0.  1.
</event>
<event>
 5   0  0.1228050E-05  0.2370301E+04  0.7818609E-02  0.8450707E-01
       -4   -1    0    0    0  501  0.00000000000E+00  0.00000000000E+00  0.10474352146E+04  0.10474359846E+04  0.12699999809E+01 0.  1.
        4   -1    0    0  501    0  0.00000000000E+00  0.00000000000E+00 -0.13409703204E+04  0.13409709218E+04  0.12699999809E+01 0. -1.
    10030    2    1    2    0    0  0.00000000000E+00  0.00000000000E+00 -0.29353510573E+03  0.23884069063E+04  0.23703005488E+04 0.  0.
        1    1    3    3  502    0  0.89301948136E+03  0.14477603884E+03  0.62467674375E+03  0.10993929824E+04  0.50400001928E-02 0.  1.
       -1    1    3    3    0  502 -0.89301948136E+03 -0.14477603884E+03 -0.91821184948E+03  0.12890139239E+04  0.50400001928E-02 0. -1.
</event>
<event>
 5   0  0.1495517E-05  0.2862857E+04  0.7818609E-02  0.8284015E-01
        1   -1    0    0  501    0  0.00000000000E+00  0.00000000000E+00  0.14421582249E+04  0.14421582249E+04  0.50400001928E-02 0.  1.
       -1   -1    0    0    0  501  0.00000000000E+00  0.00000000000E+00 -0.14207786140E+04  0.14207786140E+04  0.50400001928E-02 0. -1.
    10030    2    1    2    0    0  0.00000000000E+00  0.00000000000E+00  0.21379610952E+02  0.28629368389E+04  0.28628570093E+04 0.  0.
        5    1    3    3  502    0 -0.33749644154E+03 -0.10870209703E+04  0.87872727915E+03  0.14379506803E+04  0.46999998093E+01 0.  1.
       -5    1    3    3    0  502  0.33749644154E+03  0.10870209703E+04 -0.85734766820E+03  0.14249861586E+04  0.46999998093E+01 0. -1.
</event>
<event>
 5   0  0.1438701E-05  0.2653138E+04  0.7818609E-02  0.8350372E-01
       -1   -1    0    0    0  501  0.00000000000E+00  0.00000000000E+00  0.92996780508E+03  0.92996780509E+03  0.50400001928E-02 0.  1.
        1   -1    0    0  501    0  0.00000000000E+00  0.00000000000E+00 -0.18923079246E+04  0.18923079246E+04  0.50400001928E-02 0. -1.
    10030    2    1    2    0    0  0.00000000000E+00  0.00000000000E+00 -0.96234011947E+03  0.28222757296E+04  0.26531381021E+04 0.  0.
        4    1    3    3  502    0 -0.10675956652E+04  0.39168521699E+03  0.24546233150E+03  0.11633706127E+04  0.12699999809E+01 0.  1.
       -4    1    3    3    0  502  0.10675956652E+04 -0.39168521699E+03 -0.12078024510E+04  0.16589051169E+04  0.12699999809E+01 0. -1.
</event>
<event>
 5   0  0.1449521E-05  0.2595093E+04  0.7818609E-02  0.8369870E-01
       -1   -1    0    0    0  501  0.00000000000E+00  0.00000000000E+00  0.11322452858E+04  0.11322452858E+04  0.50400001928E-02 0. -1.
        1   -1    0    0  501    0  0.00000000000E+00  0.00000000000E+00 -0.14869812157E+04  0.14869812157E+04  0.50400001928E-02 0.  1.
    10030    2    1    2    0    0  0.00000000000E+00  0.00000000000E+00 -0.35473592983E+03  0.26192265015E+04  0.25950934254E+04 0.  0.
        3    1    3    3  502    0 -0.31897517212E+03 -0.12044095102E+04 -0.54306328033E+03  0.13591413338E+04  0.10100000352E+00 0. -1.
       -3    1    3    3    0  502  0.31897517212E+03  0.12044095102E+04  0.18832735050E+03  0.12600851677E+04  0.10100000352E+00 0.  1.
</event>
<event>
 5   0  0.1495517E-05  0.1982511E+04  0.7818609E-02  0.8614841E-01
        1   -1    0    0  501    0  0.00000000000E+00  0.00000000000E+00  0.14708813103E+04  0.14708813103E+04  0.50400001928E-02 0. -1.
       -1   -1    0    0    0  501  0.00000000000E+00  0.00000000000E+00 -0.66802668078E+03  0.66802668080E+03  0.50400001928E-02 0.  1.
    10030    2    1    2    0    0  0.00000000000E+00  0.00000000000E+00  0.80285462951E+03  0.21389079911E+04  0.19825114976E+04 0.  0.
        5    1    3    3  502    0 -0.83769823436E+03 -0.49176946317E+03  0.61446422731E+03  0.11494189460E+04  0.46999998093E+01 0.  1.
       -5    1    3    3    0  502  0.83769823436E+03  0.49176946317E+03  0.18839040220E+03  0.98948904511E+03  0.46999998093E+01 0. -1.
</event>
<event>
 5   0  0.1782720E-05  0.1475212E+04  0.7818609E-02  0.8901106E-01
        1   -1    0    0  501    0  0.00000000000E+00  0.00000000000E+00  0.10493543289E+04  0.10493543289E+04  0.50400001928E-02 0. -1.
       -1   -1    0    0    0  501  0.00000000000E+00  0.00000000000E+00 -0.51847374902E+03  0.51847374904E+03  0.50400001928E-02 0.  1.
    10030    2    1    2    0    0  0.00000000000E+00  0.00000000000E+00  0.53088057988E+03  0.15678280780E+04  0.14752120837E+04 0.  0.
        1    1    3    3  502    0 -0.26929179827E+03 -0.50878961054E+02 -0.46235626167E+03  0.53747563110E+03  0.50400001928E-02 0.  1.
       -1    1    3    3    0  502  0.26929179827E+03  0.50878961054E+02  0.99323684156E+03  0.10303524469E+04  0.50400001928E-02 0. -1.
</event>
<event>
 5   0  0.1228050E-05  0.2259496E+04  0.7818609E-02  0.8494065E-01
       -3   -1    0    0    0  501  0.00000000000E+00  0.00000000000E+00  0.21009153456E+04  0.21009153480E+04  0.10100000352E+00 0.  1.
        3   -1    0    0  501    0  0.00000000000E+00  0.00000000000E+00 -0.60751185928E+03  0.60751186768E+03  0.10100000352E+00 0. -1.
    10030    2    1    2    0    0  0.00000000000E+00  0.00000000000E+00  0.14934034863E+04  0.27084272157E+04  0.22594964062E+04 0.  0.
        3    1    3    3  502    0 -0.34494325607E+03 -0.18865170674E+03  0.20162658984E+04  0.20542403704E+04  0.10100000352E+00 0.  1.
       -3    1    3    3    0  502  0.34494325607E+03  0.18865170674E+03 -0.52286241207E+03  0.65418684526E+03  0.10100000352E+00 0. -1.
</event>
<event>
 5   0  0.3652331E-05  0.2731286E+04  0.7818609E-02  0.8324925E-01
       -2   -1    0    0    0  501  0.00000000000E+00  0.00000000000E+00  0.16378363086E+04  0.16378363086E+04  0.25500000920E-02 0. -1.
        2   -1    0    0  501    0  0.00000000000E+00  0.00000000000E+00 -0.11386853717E+04  0.11386853717E+04  0.25500000920E-02 0.  1.
    10030    2    1    2    0    0  0.00000000000E+00  0.00000000000E+00  0.49915093685E+03  0.27765216803E+04  0.27312855917E+04 0.  0.
        1    1    3    3  502    0 -0.85012419720E+03 -0.80248527624E+02  0.13329795893E+04  0.15830304995E+04  0.50400001928E-02 0. -1.
       -1    1    3    3    0  502  0.85012419720E+03  0.80248527624E+02 -0.83382865245E+03  0.11934911808E+04  0.50400001928E-02 0.  1.
</event>
<event>
 5   0  0.1484379E-05  0.2820401E+04  0.7818609E-02  0.8296963E-01
       -1   -1    0    0    0  501  0.00000000000E+00  0.00000000000E+00  0.19120485503E+04  0.19120485503E+04  0.50400001928E-02 0. -1.
        1   -1    0    0  501    0  0.00000000000E+00  0.00000000000E+00 -0.10400704497E+04  0.10400704497E+04  0.50400001928E-02 0.  1.
    10030    2    1    2    0    0  0.00000000000E+00  0.00000000000E+00  0.87197810066E+03  0.29521190000E+04  0.28204008194E+04 0.  0.
        1    1    3    3  502    0 -0.43613048980E+00  0.47047298518E+03 -0.95550273051E+03  0.10650495237E+04  0.50400001928E-02 0.  1.
       -1    1    3    3    0  502  0.43613048980E+00 -0.47047298518E+03  0.18274808312E+04  0.18870694763E+04  0.50400001928E-02 0. -1.
</event>
<event>
 5   0  0.3676724E-05  0.2504879E+04  0.7818609E-02  0.8401249E-01
        2   -1    0    0  501    0  0.00000000000E+00  0.00000000000E+00  0.20378329091E+04  0.20378329091E+04  0.25500000920E-02 0. -1.
       -2   -1    0    0    0  501  0.00000000000E+00  0.00000000000E+00 -0.76974183635E+03  0.76974183635E+03  0.25500000920E-02 0.  1.
    10030    2    1    2    0    0  0.00000000000E+00  0.00000000000E+00  0.12680910727E+04  0.28075747454E+04  0.25048794347E+04 0.  0.
        4    1    3    3  502    0 -0.89339141774E+03  0.90071682259E+02  0.16126778820E+04  0.18458040788E+04  0.12699999809E+01 0. -1.
       -4    1    3    3    0  502  0.89339141774E+03 -0.90071682259E+02 -0.34458680927E+03  0.96177066666E+03  0.12699999809E+01 0.  1.
</event>
<event>
 5   0  0.3497949E-05  0.2782120E+04  0.7818609E-02  0.8308841E-01
        2   -1    0    0  501    0  0.00000000000E+00  0.00000000000E+00  0.20934045292E+04  0.20934045292E+04  0.25500000920E-02 0. -1.
       -2   -1    0    0    0  501  0.00000000000E+00  0.00000000000E+00 -0.92435451676E+03  0.92435451676E+03  0.25500000920E-02 0.  1.
    10030    2    1    2    0    0  0.00000000000E+00  0.00000000000E+00  0.11690500124E+04  0.30177590459E+04  0.27821200060E+04 0.  0.
        5    1    3    3  502    0  0.12080520441E+04  0.11243109749E+03 -0.15354407996E+03  0.12229588576E+04  0.46999998093E+01 0.  1.
       -5    1    3    3    0  502 -0.12080520441E+04 -0.11243109749E+03  0.13225940924E+04  0.17948001883E+04  0.46999998093E+01 0. -1.
</event>
<event>
 5   0  0.1474012E-05  0.2562523E+04  0.7818609E-02  0.8381044E-01
       -1   -1    0    0    0  501  0.00000000000E+00  0.00000000000E+00  0.14121957835E+04  0.14121957835E+04  0.50400001928E-02 0. -1.
        1   -1    0    0  501    0  0.00000000000E+00  0.00000000000E+00 -0.11624674038E+04  0.11624674038E+04  0.50400001928E-02 0.  1.
    10030    2    1    2    0    0  0.00000000000E+00  0.00000000000E+00  0.24972837976E+03  0.25746631873E+04  0.25625234173E+04 0.  0.
        2    1    3    3  502    0  0.19346610593E+03  0.22203394351E+03  0.13777292034E+04  0.14088527120E+04  0.25500000920E-02 0. -1.
       -2    1    3    3    0  502 -0.19346610593E+03 -0.22203394351E+03 -0.11280008236E+04  0.11658104753E+04  0.25500000920E-02 0.  1.
</event>
<event>
 5   0  0.1484379E-05  0.1597434E+04  0.7818609E-02  0.8822126E-01
        1   -1    0    0  501    0  0.00000000000E+00  0.00000000000E+00  0.68203091063E+03  0.68203091065E+03  0.50400001928E-02 0.  1.
       -1   -1    0    0    0  501  0.00000000000E+00  0.00000000000E+00 -0.93536610803E+03  0.93536610804E+03  0.50400001928E-02 0. -1.
    10030    2    1    2    0    0  0.00000000000E+00  0.00000000000E+00 -0.25333519740E+03  0.16173970187E+04  0.15974336900E+04 0.  0.
        1    1    3    3  502    0 -0.30374962750E+03  0.20312088127E+03 -0.84577344394E+03  0.92133308153E+03  0.50400001928E-02 0. -1.
       -1    1    3    3    0  502  0.30374962750E+03 -0.20312088127E+03  0.59243824655E+03  0.69606393716E+03  0.50400001928E-02 0.  1.
</event>
<event>
 5   0  0.3514294E-05  0.1874955E+04  0.7818609E-02  0.8667424E-01
       -2   -1    0    0    0  501  0.00000000000E+00  0.00000000000E+00  0.57063532774E+03  0.57063532774E+03  0.25500000920E-02 0.  1.
        2   -1    0    0  501    0  0.00000000000E+00  0.00000000000E+00 -0.15401495643E+04  0.15401495643E+04  0.25500000920E-02 0. -1.
    10030    2    1    2    0    0  0.00000000000E+00  0.00000000000E+00 -0.96951423659E+03  0.21107848921E+04  0.18749546676E+04 0.  0.
        2    1    3    3  502    0  0.70184201266E+03 -0.51331510834E+03 -0.90269674635E+02  0.87419861893E+03  0.25500000920E-02 0.  1.
       -2    1    3    3    0  502 -0.70184201266E+03  0.51331510834E+03 -0.87924456195E+03  0.12365862731E+04  0.25500000920E-02 0. -1.
</event>
<event>
 5   0  0.1449521E-05  0.1815751E+04  0.7818609E-02  0.8697968E-01
        1   -1    0    0  501    0  0.00000000000E+00  0.00000000000E+00  0.11455324704E+04  0.11455324704E+04  0.50400001928E-02 0.  1.
       -1   -1    0    0    0  501  0.00000000000E+00  0.00000000000E+00 -0.71952418762E+03  0.71952418763E+03  0.50400001928E-02 0. -1.
    10030    2    1    2    0    0  0.00000000000E+00  0.00000000000E+00  0.42600828282E+03  0.18650566581E+04  0.18157514370E+04 0.  0.
        3    1    3    3  502    0 -0.73064829306E+03  0.13283553232E+03 -0.32342814670E+03  0.80999875498E+03  0.10100000352E+00 0. -1.
       -3    1    3    3    0  502  0.73064829306E+03 -0.13283553232E+03  0.74943642952E+03  0.10550579031E+04  0.10100000352E+00 0.  1.
</event>
<event>
 5   0  0.1449521E-05  0.2198091E+04  0.7818609E-02  0.8519223E-01
       -1   -1    0    0    0  501  0.00000000000E+00  0.00000000000E+00  0.13609086637E+04  0.13609086637E+04  0.50400001928E-02 0. -1.
        1   -1    0    0  501    0  0.00000000000E+00  0.00000000000E+00 -0.88756917987E+03  0.88756917988E+03  0.50400001928E-02 0.  1.
    10030    2    1    2    0    0  0.00000000000E+00  0.00000000000E+00  0.47333948385E+03  0.22484778436E+04  0.21980906137E+04 0.  0.
        3    1    3    3  502    0 -0.48196965326E+03  0.72053555733E+03 -0.45441638747E+03  0.97875456548E+03  0.10100000352E+00 0.  1.
       -3    1    3    3    0  502  0.48196965326E+03 -0.72053555733E+03  0.92775587133E+03  0.12697232781E+04  0.10100000352E+00 0. -1.
</event>
<event>
 5   0  0.3514294E-05  0.2749782E+04  0.7818609E-02  0.8319031E-01
        2   -1    0    0  501    0  0.00000000000E+00  0.00000000000E+00  0.21258841394E+04  0.21258841394E+04  0.25500000920E-02 0. -1.
       -2   -1    0    0    0  501  0.00000000000E+00  0.00000000000E+00 -0.88919481046E+03  0.88919481047E+03  0.25500000920E-02 0.  1.
    10030    2    1    2    0    0  0.00000000000E+00  0.00000000000E+00  0.12366893289E+04  0.30150789499E+04  0.27497819146E+04 0.  0.
        2    1    3    3  502    0 -0.84092960687E+03 -0.10875344136E+04  0.64111977816E+03  0.15168811010E+04  0.25500000920E-02 0.  1.
       -2    1    3    3    0  502  0.84092960687E+03  0.10875344136E+04  0.59556955078E+03  0.14981978489E+04  0.25500000920E-02 0. -1.
</event>
<event>
 5   0  0.1495517E-05  0.1526350E+04  0.7818609E-02  0.8867117E-01
        1   -1    0    0  501    0  0.00000000000E+00  0.00000000000E+00  0.18185458864E+04  0.18185458864E+04  0.50400001928E-02 0. -1.
       -1   -1    0    0    0  501  0.00000000000E+00  0.00000000000E+00 -0.32027588585E+03  0.32027588589E+03  0.50400001928E-02 0.  1.
    10030    2    1    2    0    0  0.00000000000E+00  0.00000000000E+00  0.14982700006E+04  0.21388217723E+04  0.15263504117E+04 0.  0.
        5    1    3    3  502    0  0.16590401664E+03  0.64439513712E+03  0.22549459395E+03  0.70259457540E+03  0.46999998093E+01 0.  1.
       -5    1    3    3    0  502 -0.16590401664E+03 -0.64439513712E+03  0.12727754066E+04  0.14362271969E+04  0.46999998093E+01 0. -1.
</event>
<event>
 5   0  0.3568647E-05  0.2084651E+04  0.7818609E-02  0.8568035E-01
        2   -1    0    0  501    0  0.00000000000E+00  0.00000000000E+00  0.98359125161E+03  0.98359125161E+03  0.25500000920E-02 0.  1.
       -2   -1    0    0    0  501  0.00000000000E+00  0.00000000000E+00 -0.11045664890E+04  0.11045664890E+04  0.25500000920E-02 0. -1.
    10030    2    1    2    0    0  0.00000000000E+00  0.00000000000E+00 -0.12097523736E+03  0.20881577406E+04  0.20846505082E+04 0.  0.
        3    1    3    3  502    0  0.34053577177E+03 -0.20112356917E+03  0.90551373941E+03  0.98811459072E+03  0.10100000352E+00 0.  1.
       -3    1    3    3    0  502 -0.34053577177E+03  0.20112356917E+03 -0.10264889768E+04  0.11000431499E+04  0.10100000352E+00 0. -1.
</event>
<event>
 5   0  0.3568647E-05  0.2591151E+04  0.7818609E-02  0.8371213E-01
        2   -1    0    0  501    0  0.00000000000E+00  0.00000000000E+00  0.12052852437E+04  0.12052852437E+04  0.25500000920E-02 0.  1.
       -2   -1    0    0    0  501  0.00000000000E+00  0.00000000000E+00 -0.13926296203E+04  0.13926296203E+04  0.25500000920E-02 0. -1.
    10030    2    1    2    0    0  0.00000000000E+00  0.00000000000E+00 -0.18734437657E+03  0.25979148640E+04  0.25911510425E+04 0.  0.
        3    1    3    3  502    0  0.11150808675E+04  0.32357809601E+03  0.48263936788E+03  0.12573976678E+04  0.10100000352E+00 0.  1.
       -3    1    3    3    0  502 -0.11150808675E+04 -0.32357809601E+03 -0.66998374445E+03  0.13405171962E+04  0.10100000352E+00 0. -1.
</event>
<event>
 5   0  0.3514294E-05  0.2734992E+04  0.7818609E-02  0.8323740E-01
       -2   -1    0    0    0  501  0.00000000000E+00  0.00000000000E+00  0.88320588346E+03  0.88320588347E+03  0.25500000920E-02 0.  1.
        2   -1    0    0  501    0  0.00000000000E+00  0.00000000000E+00 -0.21173380634E+04  0.21173380634E+04  0.25500000920E-02 0. -1.
    10030    2    1    2    0    0  0.00000000000E+00  0.00000000000E+00 -0.12341321800E+04  0.30005439469E+04  0.27349920913E+04 0.  0.
        2    1    3    3  502    0  0.78154802818E+03 -0.46279971668E+03 -0.17385971788E+04  0.19615608704E+04  0.25500000920E-02 0. -1.
       -2    1    3    3    0  502 -0.78154802818E+03  0.46279971668E+03  0.50446499887E+03  0.10389830765E+04  0.25500000920E-02 0.  1.
</event>
<event>
 5   0  0.1438701E-05  0.2754566E+04  0.7818609E-02  0.8317514E-01
        1   -1    0    0  501    0  0.00000000000E+00  0.00000000000E+00  0.16040159536E+04  0.16040159536E+04  0.50400001928E-02 0. -1.
       -1   -1    0    0    0  501  0.00000000000E+00  0.00000000000E+00 -0.11825993824E+04  0.11825993824E+04  0.50400001928E-02 0.  1.
    10030    2    1    2    0    0  0.00000000000E+00  0.00000000000E+00  0.42141657118E+03  0.27866153360E+04  0.27545658650E+04 0.  0.
        4    1    3    3  502    0  0.35481300296E+03  0.87627345289E+03 -0.80252348444E+03  0.12400778150E+04  0.12699999809E+01 0.  1.
       -4    1    3    3    0  502 -0.35481300296E+03 -0.87627345289E+03  0.12239400556E+04  0.15465375210E+04  0.12699999809E+01 0. -1.
</event>
<event>
 5   0  0.3652331E-05  0.2726881E+04  0.7818609E-02  0.8326335E-01
        2   -1    0    0  501    0  0.00000000000E+00  0.00000000000E+00  0.94609277548E+03  0.94609277548E+03  0.25500000920E-02 0.  1.
       -2   -1    0    0    0  501  0.00000000000E+00  0.00000000000E+00 -0.19648925030E+04  0.19648925030E+04  0.25500000920E-02 0. -1.
    10030    2    1    2    0    0  0.00000000000E+00  0.00000000000E+00 -0.10187997275E+04  0.29109852785E+04  0.27268814435E+04 0.  0.
        1    1    3    3  502    0 -0.33506631600E+03  0.80029276893E+03  0.61338613590E+03  0.10625349424E+04  0.50400001928E-02 0.  1.
       -1    1    3    3    0  502  0.33506631600E+03 -0.80029276893E+03 -0.16321858634E+04  0.18484503360E+04  0.50400001928E-02 0. -1.
</event>
<event>
 5   0  0.3514294E-05  0.2399624E+04  0.7818609E-02  0.8439644E-01
       -2   -1    0    0    0  501  0.00000000000E+00  0.00000000000E+00  0.78052173087E+03  0.78052173087E+03  0.25500000920E-02 0.  1.
        2   -1    0    0  501    0  0.00000000000E+00  0.00000000000E+00 -0.18443412894E+04  0.18443412894E+04  0.25500000920E-02 0. -1.
    10030    2    1    2    0    0  0.00000000000E+00  0.00000000000E+00 -0.10638195586E+04  0.26248630203E+04  0.23996236835E+04 0.  0.
        2    1    3    3  502    0  0.10227361485E+04 -0.20438169570E+03  0.11687942284E+03  0.10494864965E+04  0.25500000920E-02 0.  1.
       -2    1    3    3    0  502 -0.10227361485E+04  0.20438169570E+03 -0.11806989814E+04  0.15753765238E+04  0.25500000920E-02 0. -1.
</event>
<event>
 5   0  0.3652331E-05  0.2740705E+04  0.7818609E-02  0.8321917E-01
        2   -1    0    0  501    0  0.00000000000E+00  0.00000000000E+00  0.12632768966E+04  0.12632768966E+04  0.25500000920E-02 0.  1.
       -2   -1    0    0    0  501  0.00000000000E+00  0.00000000000E+00 -0.14865041775E+04  0.14865041775E+04  0.25500000920E-02 0. -1.
    10030    2    1    2    0    0  0.00000000000E+00  0.00000000000E+00 -0.22322728090E+03  0.27497810740E+04  0.27407052990E+04 0.  0.
        1    1    3    3  502    0 -0.59033913679E+03 -0.97926608923E+03  0.64613831463E+03  0.13133762186E+04  0.50400001928E-02 0.  1.
       -1    1    3    3    0  502  0.59033913679E+03  0.97926608923E+03 -0.86936559553E+03  0.14364048554E+04  0.50400001928E-02 0. -1.
</event>
<event>
 5   0  0.3568647E-05  0.2769044E+04  0.7818609E-02  0.8312944E-01
       -2   -1    0    0    0  501  0.00000000000E+00  0.00000000000E+00  0.10093926358E+04  0.10093926358E+04  0.25500000920E-02 0. -1.
        2   -1    0    0  501    0  0.00000000000E+00  0.00000000000E+00 -0.18990638222E+04  0.18990638222E+04  0.25500000920E-02 0.  1.
    10030    2    1    2    0    0  0.00000000000E+00  0.00000000000E+00 -0.88967118641E+03  0.29084564581E+04  0.27690439051E+04 0.  0.
        3    1    3    3  502    0 -0.34378899305E+03  0.13397556214E+04 -0.50928470750E+03  0.14739426448E+04  0.10100000352E+00 0. -1.
       -3    1    3    3    0  502  0.34378899305E+03 -0.13397556214E+04 -0.38038647890E+03  0.14345138132E+04  0.10100000352E+00 0.  1.
</event>
<event>
 5   0  0.1474012E-05  0.2665274E+04  0.7818609E-02  0.8346361E-01
       -1   -1    0    0    0  501  0.00000000000E+00  0.00000000000E+00  0.16377518819E+04  0.16377518819E+04  0.50400001928E-02 0.  1.
        1   -1    0    0  501    0  0.00000000000E+00  0.00000000000E+00 -0.10843651259E+04  0.10843651259E+04  0.50400001928E-02 0. -1.
    10030    2    1    2    0    0  0.00000000000E+00  0.00000000000E+00  0.55338675604E+03  0.27221170079E+04  0.26652737388E+04 0.  0.
        2    1    3    3  502    0 -0.12878340524E+04 -0.14813710475E+03 -0.38861868049E+02  0.12969083982E+04  0.25500000920E-02 0.  1.
       -2    1    3    3    0  502  0.12878340524E+04  0.14813710475E+03  0.59224862409E+03  0.14252086097E+04  0.25500000920E-02 0. -1.
</event>
<event>
 5   0  0.3652331E-05  0.2477061E+04  0.7818609E-02  0.8411203E-01
       -2   -1    0    0    0  501  0.00000000000E+00  0.00000000000E+00  0.10074791599E+04  0.10074791599E+04  0.25500000920E-02 0. -1.
        2   -1    0    0  501    0  0.00000000000E+00  0.00000000000E+00 -0.15225705874E+04  0.15225705874E+04  0.25500000920E-02 0.  1.
    10030    2    1    2    0    0  0.00000000000E+00  0.00000000000E+00 -0.51509142750E+03  0.25300497474E+04  0.24770612720E+04 0.  0.
        1    1    3    3  502    0 -0.12216267182E+04 -0.25091164181E+02 -0.46425260459E+03  0.13071082152E+04  0.50400001928E-02 0.  1.
       -1    1    3    3    0  502  0.12216267182E+04  0.25091164181E+02 -0.50838822904E+02  0.12229415322E+04  0.50400001928E-02 0. -1.
</event>
<event>
 5   0  0.3676724E-05  0.2683109E+04  0.7818609E-02  0.8340506E-01
       -2   -1    0    0    0  501  0.00000000000E+00  0.00000000000E+00  0.87811037675E+03  0.87811037675E+03  0.25500000920E-02 0. -1.
        2   -1    0    0  501    0  0.00000000000E+00  0.00000000000E+00 -0.20495920306E+04  0.20495920306E+04  0.25500000920E-02 0.  1.
    10030    2    1    2    0    0  0.00000000000E+00  0.00000000000E+00 -0.11714816539E+04  0.29277024074E+04  0.26831086674E+04 0.  0.
        4    1    3    3  502    0 -0.23540263204E+03  0.92993287551E+03 -0.16090940615E+04  0.18733325556E+04  0.12699999809E+01 0.  1.
       -4    1    3    3    0  502  0.23540263204E+03 -0.92993287551E+03  0.43761240764E+03  0.10543698518E+04  0.12699999809E+01 0. -1.
</event>
<event>
 5   0  0.1484379E-05  0.2696703E+04  0.7818609E-02  0.8336076E-01
       -1   -1    0    0    0  501  0.00000000000E+00  0.00000000000E+00  0.14395717604E+04  0.14395717604E+04  0.50400001928E-02 0.  1.
        1   -1    0    0  501    0  0.00000000000E+00  0.00000000000E+00 -0.12629114024E+04  0.12629114024E+04  0.50400001928E-02 0. -1.
    10030    2    1    2    0    0  0.00000000000E+00  0.00000000000E+00  0.17666035794E+03  0.27024831628E+04  0.26967028689E+04 0.  0.
        1    1    3    3  502    0  0.23321083828E+03  0.85215753493E+03  0.11090868871E+04  0.14179680824E+04  0.50400001928E-02 0.  1.
       -1    1    3    3    0  502 -0.23321083828E+03 -0.85215753493E+03 -0.93242652921E+03  0.12845150804E+04  0.50400001928E-02 0. -1.
</event>
<event>
 5   0  0.1474012E-05  0.2698653E+04  0.7818609E-02  0.8335442E-01
        1   -1    0    0  501    0  0.00000000000E+00  0.00000000000E+00  0.65532523462E+03  0.65532523464E+03  0.50400001928E-02 0.  1.
       -1   -1    0    0    0  501  0.00000000000E+00  0.00000000000E+00 -0.27782875633E+04  0.27782875633E+04  0.50400001928E-02 0. -1.
    10030    2    1    2    0    0  0.00000000000E+00  0.00000000000E+00 -0.21229623286E+04  0.34336127979E+04  0.26986529597E+04 0.  0.
        2    1    3    3  502    0 -0.23597564526E+03  0.13220712030E+04 -0.12279840759E+04  0.18197531870E+04  0.25500000920E-02 0. -1.
       -2    1    3    3    0  502  0.23597564526E+03 -0.13220712030E+04 -0.89497825272E+03  0.16138596109E+04  0.25500000920E-02 0.  1.
</event>
<event>
 5   0  0.1495517E-05  0.2705851E+04  0.7818609E-02  0.8333109E-01
        1   -1    0    0  501    0  0.00000000000E+00  0.00000000000E+00  0.91446021622E+03  0.91446021623E+03  0.50400001928E-02 0.  1.
       -1   -1    0    0    0  501  0.00000000000E+00  0.00000000000E+00 -0.20016259657E+04  0.20016259657E+04  0.50400001928E-02 0. -1.
    10030    2    1    2    0    0  0.00000000000E+00  0.00000000000E+00 -0.10871657495E+04  0.29160861819E+04  0.27058509297E+04 0.  0.
        5    1    3    3  502    0 -0.10020510087E+04  0.85657620095E+03 -0.87145105661E+03  0.15802778383E+04  0.46999998093E+01 0. -1.
       -5    1    3    3    0  502  0.10020510087E+04 -0.85657620095E+03 -0.21571469285E+03  0.13358083436E+04  0.46999998093E+01 0.  1.
</event>
<event>
 5   0  0.1228050E-05  0.2712608E+04  0.7818609E-02  0.8330926E-01
        3   -1    0    0  501    0  0.00000000000E+00  0.00000000000E+00  0.11284082810E+04  0.11284082856E+04  0.10100000352E+00 0.  1.
       -3   -1    0    0    0  501  0.00000000000E+00  0.00000000000E+00 -0.16302256988E+04  0.16302257020E+04  0.10100000352E+00 0. -1.
    10030    2    1    2    0    0  0.00000000000E+00  0.00000000000E+00 -0.50181741780E+03  0.27586339875E+04  0.27126077410E+04 0.  0.
        4    1    3    3  502    0  0.23260075819E+03 -0.21969019930E+03 -0.15912980208E+04  0.16231444484E+04  0.12699999809E+01 0. -1.
       -4    1    3    3    0  502 -0.23260075819E+03  0.21969019930E+03  0.10894806030E+04  0.11354895392E+04  0.12699999809E+01 0.  1.
</event>
<event>
 5   0  0.1449521E-05  0.2121876E+04  0.7818609E-02  0.8551667E-01
       -1   -1    0    0    0  501  0.00000000000E+00  0.00000000000E+00  0.16423374071E+04  0.16423374071E+04  0.50400001928E-02 0. -1.
        1   -1    0    0  501    0  0.00000000000E+00  0.00000000000E+00 -0.68535850201E+03  0.68535850203E+03  0.50400001928E-02 0.  1.
    10030    2    1    2    0    0  0.00000000000E+00  0.00000000000E+00  0.95697890506E+03  0.23276959091E+04  0.21218764386E+04 0.  0.
        3    1    3    3  502    0 -0.89442094939E+02  0.10491854339E+04  0.33630244521E+03  0.11053910204E+04  0.10100000352E+00 0.  1.
       -3    1    3    3    0  502  0.89442094939E+02 -0.10491854339E+04  0.62067645986E+03  0.12223048887E+04  0.10100000352E+00 0. -1.
</event>
<event>
 5   0  0.3676724E-05  0.2754429E+04  0.7818609E-02  0.8317557E-01
        2   -1    0    0  501    0  0.00000000000E+00  0.00000000000E+00  0.15829124600E+04  0.15829124600E+04  0.25500000920E-02 0.  1.
       -2   -1    0    0    0  501  0.00000000000E+00  0.00000000000E+00 -0.11982471786E+04  0.11982471786E+04  0.25500000920E-02 0. -1.
    10030    2    1    2    0    0  0.00000000000E+00  0.00000000000E+00  0.38466528138E+03  0.27811596385E+04  0.27544294430E+04 0.  0.
        4    1    3    3  502    0  0.96021055719E+03  0.97991259478E+03  0.70807806351E+02  0.13737715843E+04  0.12699999809E+01 0. -1.
       -4    1    3    3    0  502 -0.96021055719E+03 -0.97991259478E+03  0.31385747503E+03  0.14073880542E+04  0.12699999809E+01 0.  1.
</event>
<event>
 5   0  0.1484379E-05  0.2700277E+04  0.7818609E-02  0.8334915E-01
       -1   -1    0    0    0  501  0.00000000000E+00  0.00000000000E+00  0.11494000306E+04  0.11494000306E+04  0.50400001928E-02 0. -1.
        1   -1    0    0  501    0  0.00000000000E+00  0.00000000000E+00 -0.15859351607E+04  0.15859351607E+04  0.50400001928E-02 0.  1.
    10030    2    1    2    0    0  0.00000000000E+00  0.00000000000E+00 -0.43653513008E+03  0.27353351913E+04  0.27002769652E+04 0.  0.
        1    1    3    3  502    0 -0.69524182458E+03  0.38871023378E+03 -0.13225665780E+04  0.15439038810E+04  0.50400001928E-02 0.  1.
       -1    1    3    3    0  502  0.69524182458E+03 -0.38871023378E+03  0.88603144791E+03  0.11914313103E+04  0.50400001928E-02 0. -1.
</event>
<event>
 5   0  0.3497949E-05  0.2622320E+04  0.7818609E-02  0.8360659E-01
       -2   -1    0    0    0  501  0.00000000000E+00  0.00000000000E+00  0.11242001275E+04  0.11242001275E+04  0.25500000920E-02 0. -1.
        2   -1    0    0  501    0  0.00000000000E+00  0.00000000000E+00 -0.15292116139E+04  0.15292116139E+04  0.25500000920E-02 0.  1.
    10030    2    1    2    0    0  0.00000000000E+00  0.00000000000E+00 -0.40501148640E+03  0.26534117414E+04  0.26223195010E+04 0.  0.
        5    1    3    3  502    0  0.98963725260E+03 -0.30468525026E+03 -0.10163448597E+04  0.14509286534E+04  0.46999998093E+01 0.  1.
       -5    1    3    3    0  502 -0.98963725260E+03  0.30468525026E+03  0.61133337333E+03  0.12024830879E+04  0.46999998093E+01 0. -1.
</event>
<event>
 5   0  0.3497949E-05  0.2605982E+04  0.7818609E-02  0.8366172E-01
       -2   -1    0    0    0  501  0.00000000000E+00  0.00000000000E+00  0.75290614607E+03  0.75290614608E+03  0.25500000920E-02 0.  1.
        2   -1    0    0  501    0  0.00000000000E+00  0.00000000000E+00 -0.22549760351E+04  0.22549760351E+04  0.25500000920E-02 0. -1.
    10030    2    1    2    0    0  0.00000000000E+00  0.00000000000E+00 -0.15020698890E+04  0.30078821812E+04  0.26059818235E+04 0.  0.
        5    1    3    3  502    0 -0.13686973748E+03 -0.24340161203E+03 -0.22200227809E+04  0.22375211524E+04  0.46999998093E+01 0. -1.
       -5    1    3    3    0  502  0.13686973748E+03  0.24340161203E+03  0.71795289185E+03  0.77036102879E+03  0.46999998093E+01 0.  1.
</event>
<event>
 5   0  0.3497949E-05  0.2609887E+04  0.7818609E-02  0.8364850E-01
        2   -1    0    0  501    0  0.00000000000E+00  0.00000000000E+00  0.14584604627E+04  0.14584604627E+04  0.25500000920E-02 0.  1.
       -2   -1    0    0    0  501  0.00000000000E+00  0.00000000000E+00 -0.11675859255E+04  0.11675859255E+04  0.25500000920E-02 0. -1.
    10030    2    1    2    0    0  0.00000000000E+00  0.00000000000E+00  0.29087453720E+03  0.26260463881E+04  0.26098872842E+04 0.  0.
        5    1    3    3  502    0  0.84323975954E+03  0.17850741656E+03  0.11312675410E+04  0.14222188753E+04  0.46999998093E+01 0.  1.
       -5    1    3    3    0  502 -0.84323975954E+03 -0.17850741656E+03 -0.84039300383E+03  0.12038275129E+04  0.46999998093E+01 0. -1.
</event>
<event>
 5   0  0.3514294E-05  0.2648037E+04  0.7818609E-02  0.8352065E-01
       -2   -1    0    0    0  501  0.00000000000E+00  0.00000000000E+00  0.10155262795E+04  0.10155262795E+04  0.25500000920E-02 0.  1.
        2   -1    0    0  501    0  0.00000000000E+00  0.00000000000E+00 -0.17262226735E+04  0.17262226735E+04  0.25500000920E-02 0. -1.
    10030    2    1    2    0    0  0.00000000000E+00  0.00000000000E+00 -0.71069639394E+03  0.27417489530E+04  0.26480366230E+04 0.  0.
        2    1    3    3  502    0  0.52492857317E+03 -0.11972077251E+04 -0.13774850313E+03  0.13144698529E+04  0.25500000920E-02 0.  1.
       -2    1    3    3    0  502 -0.52492857317E+03  0.11972077251E+04 -0.57294789081E+03  0.14272791001E+04  0.25500000920E-02 0. -1.
</event>
<event>
 5   0  0.1438701E-05  0.2691832E+04  0.7818609E-02  0.8337660E-01
       -1   -1    0    0    0  501  0.00000000000E+00  0.00000000000E+00  0.17806405833E+04  0.17806405833E+04  0.50400001928E-02 0.  1.
        1   -1    0    0  501    0  0.00000000000E+00  0.00000000000E+00 -0.10173248224E+04  0.10173248224E+04  0.50400001928E-02 0. -1.
    10030    2    1    2    0    0  0.00000000000E+00  0.00000000000E+00  0.76331576086E+03  0.27979654057E+04  0.26918319897E+04 0.  0.
        4    1    3    3  502    0 -0.88594980474E+03  0.59175997128E+03 -0.47320531096E+03  0.11657666144E+04  0.12699999809E+01 0. -1.
       -4    1    3    3    0  502  0.88594980474E+03 -0.59175997128E+03  0.12365210718E+04  0.16321987912E+04  0.12699999809E+01 0.  1.
</event>
<event>
 5   0  0.3652331E-05  0.2883382E+04  0.7818609E-02  0.8277839E-01
        2   -1    0    0  501    0  0.00000000000E+00  0.00000000000E+00  0.10487591447E+04  0.10487591447E+04  0.25500000920E-02 0.  1.
       -2   -1    0    0    0  501  0.00000000000E+00  0.00000000000E+00 -0.19818400952E+04  0.19818400952E+04  0.25500000920E-02 0. -1.
    10030    2    1    2    0    0  0.00000000000E+00  0.00000000000E+00 -0.93308095048E+03  0.30305992399E+04  0.28833819887E+04 0.  0.
        1    1    3    3  502    0  0.14179070653E+04  0.76921683912E+02 -0.72845314305E+03  0.15959390254E+04  0.50400001928E-02 0. -1.
       -1    1    3    3    0  502 -0.14179070653E+04 -0.76921683912E+02 -0.20462780742E+03  0.14346602144E+04  0.50400001928E-02 0.  1.
</event>
<event>
 5   0  0.3497949E-05  0.2673239E+04  0.7818609E-02  0.8343740E-01
       -2   -1    0    0    0  501  0.00000000000E+00  0.00000000000E+00  0.88506083059E+03  0.88506083059E+03  0.25500000920E-02 0.  1.
        2   -1    0    0  501    0  0.00000000000E+00  0.00000000000E+00 -0.20185643235E+04  0.20185643235E+04  0.25500000920E-02 0. -1.
    10030    2    1    2    0    0  0.00000000000E+00  0.00000000000E+00 -0.11335034930E+04  0.29036251541E+04  0.26732393958E+04 0.  0.
        5    1    3    3  502    0  0.10268935084E+04 -0.89520354690E+02  0.35746485755E+03  0.10910212582E+04  0.46999998093E+01 0.  1.
       -5    1    3    3    0  502 -0.10268935084E+04  0.89520354690E+02 -0.14909683505E+04  0.18126038960E+04  0.46999998093E+01 0. -1.
</event>
<event>
 5   0  0.3676724E-05  0.2700790E+04  0.7818609E-02  0.8334749E-01
       -2   -1    0    0    0  501  0.00000000000E+00  0.00000000000E+00  0.96978049873E+03  0.96978049874E+03  0.25500000920E-02 0.  1.
        2   -1    0    0  501    0  0.00000000000E+00  0.00000000000E+00 -0.18803908738E+04  0.18803908738E+04  0.25500000920E-02 0. -1.
    10030    2    1    2    0    0  0.00000000000E+00  0.00000000000E+00 -0.91061037503E+03  0.28501713725E+04  0.27007898099E+04 0.  0.
        4    1    3    3  502    0 -0.52333225389E+03 -0.77472587839E+02  0.85586688170E+03  0.10061751249E+04  0.12699999809E+01 0.  1.
       -4    1    3    3    0  502  0.52333225389E+03  0.77472587839E+02 -0.17664772567E+04  0.18439962476E+04  0.12699999809E+01 0. -1.
</event>
<event>
 5   0  0.3568647E-05  0.2653429E+04  0.7818609E-02  0.8350276E-01
        2   -1    0    0  501    0  0.00000000000E+00  0.00000000000E+00  0.13607472532E+04  0.13607472532E+04  0.25500000920E-02 0.  1.
       -2   -1    0    0    0  501  0.00000000000E+00  0.00000000000E+00 -0.12935325541E+04  0.12935325541E+04  0.25500000920E-02 0. -1.
    10030    2    1    2    0    0  0.00000000000E+00  0.00000000000E+00  0.67214699063E+02  0.26542798073E+04  0.26534286272E+04 0.  0.
        3    1    3    3  502    0 -0.15262116750E+03  0.97458115928E+03  0.92106114771E+03  0.13496130204E+04  0.10100000352E+00 0.  1.
       -3    1    3    3    0  502  0.15262116750E+03 -0.97458115928E+03 -0.85384644865E+03  0.13046667869E+04  0.10100000352E+00 0. -1.
</event>
<event>
 5   0  0.3497949E-05  0.2689648E+04  0.7818609E-02  0.8338372E-01
        2   -1    0    0  501    0  0.00000000000E+00  0.00000000000E+00  0.20384873814E+04  0.20384873814E+04  0.25500000920E-02 0.  1.
       -2   -1    0    0    0  501  0.00000000000E+00  0.00000000000E+00 -0.88720297458E+03  0.88720297459E+03  0.25500000920E-02 0. -1.
    10030    2    1    2    0    0  0.00000000000E+00  0.00000000000E+00  0.11512844068E+04  0.29256903560E+04  0.26896483550E+04 0.  0.
        5    1    3    3  502    0 -0.45460399716E+03  0.63063043309E+03 -0.61800734286E+03  0.99313377910E+03  0.46999998093E+01 0. -1.
       -5    1    3    3    0  502  0.45460399716E+03 -0.63063043309E+03  0.17692917497E+04  0.19325565769E+04  0.46999998093E+01 0.  1.
</event>
<event>
 5   0  0.1438701E-05  0.1966896E+04  0.7818609E-02  0.8622256E-01
        1   -1    0    0  501    0  0.00000000000E+00  0.00000000000E+00  0.22442826450E+04  0.22442826450E+04  0.50400001928E-02 0. -1.
       -1   -1    0    0    0  501  0.00000000000E+00  0.00000000000E+00 -0.43094858509E+03  0.43094858512E+03  0.50400001928E-02 0.  1.
    10030    2    1    2    0    0  0.00000000000E+00  0.00000000000E+00  0.18133340599E+04  0.26752312301E+04  0.19668964695E+04 0.  0.
        4    1    3    3  502    0  0.30885820409E+02 -0.79315862379E+03  0.11695564280E+03  0.80233083680E+03  0.12699999809E+01 0.  1.
       -4    1    3    3    0  502 -0.30885820409E+02  0.79315862379E+03  0.16963784171E+04  0.18729003933E+04  0.12699999809E+01 0. -1.
</event>
<event>
 5   0  0.1449521E-05  0.2734247E+04  0.7818609E-02  0.8323978E-01
       -1   -1    0    0    0  501  0.00000000000E+00  0.00000000000E+00  0.80638408214E+03  0.80638408216E+03  0.50400001928E-02 0.  1.
        1   -1    0    0  501    0  0.00000000000E+00  0.00000000000E+00 -0.23177877721E+04  0.23177877721E+04  0.50400001928E-02 0. -1.
    10030    2    1    2    0    0  0.00000000000E+00  0.00000000000E+00 -0.15114036900E+04  0.31241718543E+04  0.27342473665E+04 0.  0.
        3    1    3    3  502    0 -0.70886847941E+03  0.43043137606E+03  0.48615098478E+03  0.96130561259E+03  0.10100000352E+00 0.  1.
       -3    1    3    3    0  502  0.70886847941E+03 -0.43043137606E+03 -0.19975546748E+04  0.21628662417E+04  0.10100000352E+00 0. -1.
</event>
<event>
 5   0  0.1495517E-05  0.2695662E+04  0.7818609E-02  0.8336414E-01
        1   -1    0    0  501    0  0.00000000000E+00  0.00000000000E+00  0.92624028417E+03  0.92624028419E+03  0.50400001928E-02 0. -1.
       -1   -1    0    0    0  501  0.00000000000E+00  0.00000000000E+00 -0.19613147457E+04  0.19613147457E+04  0.50400001928E-02 0.  1.
    10030    2    1    2    0    0  0.00000000000E+00  0.00000000000E+00 -0.10350744615E+04  0.28875550299E+04  0.26956622396E+04 0.  0.
        5    1    3    3  502    0  0.53456925415E+03 -0.61419474093E+03 -0.16680661316E+04  0.18561966966E+04  0.46999998093E+01 0.  1.
       -5    1    3    3    0  502 -0.53456925415E+03  0.61419474093E+03  0.63299167004E+03  0.10313583333E+04  0.46999998093E+01 0. -1.
</event>
<event>
 5   0  0.3652331E-05  0.1561363E+04  0.7818609E-02  0.8844642E-01
        2   -1    0    0  501    0  0.00000000000E+00  0.00000000000E+00  0.41810039515E+03  0.41810039515E+03  0.25500000920E-02 0. -1.
       -2   -1    0    0    0  501  0.00000000000E+00  0.00000000000E+00 -0.14576963044E+04  0.14576963044E+04  0.25500000920E-02 0.  1.
    10030    2    1    2    0    0  0.00000000000E+00  0.00000000000E+00 -0.10395959092E+04  0.18757966995E+04  0.15613627392E+04 0.  0.
        1    1    3    3  502    0 -0.70503841401E+03 -0.29079480295E+03 -0.72019021977E+03  0.10489588816E+04  0.50400001928E-02 0.  1.
       -1    1    3    3    0  502  0.70503841401E+03  0.29079480295E+03 -0.31940568947E+03  0.82683781792E+03  0.50400001928E-02 0. -1.
</event>
<event>
 5   0  0.3497949E-05  0.2688117E+04  0.7818609E-02  0.8338871E-01
        2   -1    0    0  501    0  0.00000000000E+00  0.00000000000E+00  0.18941677823E+04  0.18941677823E+04  0.25500000920E-02 0.  1.
       -2   -1    0    0    0  501  0.00000000000E+00  0.00000000000E+00 -0.95371360500E+03  0.95371360501E+03  0.25500000920E-02 0. -1.
    10030    2    1    2    0    0  0.00000000000E+00  0.00000000000E+00  0.94045417728E+03  0.28478813873E+04  0.26881172475E+04 0.  0.
        5    1    3    3  502    0  0.89680060598E+03 -0.80887990924E+02  0.15273682738E+04  0.17730397987E+04  0.46999998093E+01 0.  1.
       -5    1    3    3    0  502 -0.89680060598E+03  0.80887990924E+02 -0.58691409649E+03  0.10748415886E+04  0.46999998093E+01 0. -1.
</event>
<event>
 5   0  0.1495517E-05  0.2775125E+04  0.7818609E-02  0.8311033E-01
        1   -1    0    0  501    0  0.00000000000E+00  0.00000000000E+00  0.16098649372E+04  0.16098649373E+04  0.50400001928E-02 0. -1.
       -1   -1    0    0    0  501  0.00000000000E+00  0.00000000000E+00 -0.11959576879E+04  0.11959576879E+04  0.50400001928E-02 0.  1.
    10030    2    1    2    0    0  0.00000000000E+00  0.00000000000E+00  0.41390724938E+03  0.28058226251E+04  0.27751254733E+04 0.  0.
        5    1    3    3  502    0 -0.95259685584E+03  0.84254208591E+03 -0.35415394003E+03  0.13201382653E+04  0.46999998093E+01 0.  1.
       -5    1    3    3    0  502  0.95259685584E+03 -0.84254208591E+03  0.76806118942E+03  0.14856843598E+04  0.46999998093E+01 0. -1.
</event>
<event>
 5   0  0.1484379E-05  0.2681914E+04  0.7818609E-02  0.8340897E-01
       -1   -1    0    0    0  501  0.00000000000E+00  0.00000000000E+00  0.71584305087E+03  0.71584305088E+03  0.50400001928E-02 0.  1.
        1   -1    0    0  501    0  0.00000000000E+00  0.00000000000E+00 -0.25119545351E+04  0.25119545351E+04  0.50400001928E-02 0. -1.
    10030    2    1    2    0    0  0.00000000000E+00  0.00000000000E+00 -0.17961114843E+04  0.32277975860E+04  0.26819136437E+04 0.  0.
        1    1    3    3  502    0  0.12163387026E+04  0.93274261579E+02 -0.15681440374E+04  0.19867701551E+04  0.50400001928E-02 0. -1.
       -1    1    3    3    0  502 -0.12163387026E+04 -0.93274261579E+02 -0.22796744686E+03  0.12410274309E+04  0.50400001928E-02 0.  1.
</event>
<event>
 5   0  0.3514294E-05  0.2608767E+04  0.7818609E-02  0.8365229E-01
       -2   -1    0    0    0  501  0.00000000000E+00  0.00000000000E+00  0.12554805293E+04  0.12554805293E+04  0.25500000920E-02 0.  1.
        2   -1    0    0  501    0  0.00000000000E+00  0.00000000000E+00 -0.13551918172E+04  0.13551918172E+04  0.25500000920E-02 0. -1.
    10030    2    1    2    0    0  0.00000000000E+00  0.00000000000E+00 -0.99711287888E+02  0.26106723465E+04  0.26087674791E+04 0.  0.
        2    1    3    3  502    0  0.19871810503E+02 -0.87628028837E+03  0.91684914305E+03  0.12684141216E+04  0.25500000920E-02 0.  1.
       -2    1    3    3    0  502 -0.19871810503E+02  0.87628028837E+03 -0.10165604309E+04  0.13422582249E+04  0.25500000920E-02 0. -1.
</event>
<event>
 5   0  0.1484379E-05  0.2866923E+04  0.7818609E-02  0.8282788E-01
       -1   -1    0    0    0  501  0.00000000000E+00  0.00000000000E+00  0.13669168078E+04  0.13669168078E+04  0.50400001928E-02 0.  1.
        1   -1    0    0  501    0  0.00000000000E+00  0.00000000000E+00 -0.15032453071E+04  0.15032453071E+04  0.50400001928E-02 0. -1.
    10030    2    1    2    0    0  0.00000000000E+00  0.00000000000E+00 -0.13632849926E+03  0.28701621150E+04  0.28669225847E+04 0.  0.
        1    1    3    3  502    0 -0.70689892829E+02  0.33340176322E+03  0.13257658765E+04  0.13688714169E+04  0.50400001928E-02 0.  1.
       -1    1    3    3    0  502  0.70689892829E+02 -0.33340176322E+03 -0.14620943757E+04  0.15012906981E+04  0.50400001928E-02 0. -1.
</event>
<event>
 5   0  0.3676724E-05  0.2673615E+04  0.7818609E-02  0.8343617E-01
        2   -1    0    0  501    0  0.00000000000E+00  0.00000000000E+00  0.15588364284E+04  0.15588364284E+04  0.25500000920E-02 0.  1.
       -2   -1    0    0    0  501  0.00000000000E+00  0.00000000000E+00 -0.11464027271E+04  0.11464027271E+04  0.25500000920E-02 0. -1.
    10030    2    1    2    0    0  0.00000000000E+00  0.00000000000E+00  0.41243370139E+03  0.27052391555E+04  0.26736150303E+04 0.  0.
        4    1    3    3  502    0 -0.12350203135E+03 -0.13224629619E+04  0.53127265612E+02  0.13292799391E+04  0.12699999809E+01 0. -1.
       -4    1    3    3    0  502  0.12350203135E+03  0.13224629619E+04  0.35930643578E+03  0.13759592164E+04  0.12699999809E+01 0.  1.
</event>
<event>
 5   0  0.3652331E-05  0.2559843E+04  0.7818609E-02  0.8381971E-01
       -2   -1    0    0    0  501  0.00000000000E+00  0.00000000000E+00  0.14146489852E+04  0.14146489852E+04  0.25500000920E-02 0. -1.
        2   -1    0    0  501    0  0.00000000000E+00  0.00000000000E+00 -0.11580251047E+04  0.11580251047E+04  0.25500000920E-02 0.  1.
    10030    2    1    2    0    0  0.00000000000E+00  0.00000000000E+00  0.25662388049E+03  0.25726740899E+04  0.25598429946E+04 0.  0.
        1    1    3    3  502    0  0.59581493718E+02 -0.81596360477E+03 -0.86092487654E+03  0.11876608109E+04  0.50400001928E-02 0.  1.
       -1    1    3    3    0  502 -0.59581493718E+02  0.81596360477E+03  0.11175487570E+04  0.13850132790E+04  0.50400001928E-02 0. -1.
</event>
<event>
 5   0  0.1228050E-05  0.1345080E+04  0.7818609E-02  0.8994561E-01
        4   -1    0    0  501    0  0.00000000000E+00  0.00000000000E+00  0.37171699851E+03  0.37171916803E+03  0.12699999809E+01 0.  1.
       -4   -1    0    0    0  501  0.00000000000E+00  0.00000000000E+00 -0.12168075197E+04  0.12168081824E+04  0.12699999809E+01 0. -1.
    10030    2    1    2    0    0  0.00000000000E+00  0.00000000000E+00 -0.84509052114E+03  0.15885273504E+04  0.13450803523E+04 0.  0.
        2    1    3    3  502    0  0.43493311531E+03  0.48388632079E+03 -0.62365206421E+03  0.90125173145E+03  0.25500000920E-02 0.  1.
       -2    1    3    3    0  502 -0.43493311531E+03 -0.48388632079E+03 -0.22143845693E+03  0.68727561899E+03  0.25500000920E-02 0. -1.
</event>
<event>
 5   0  0.1484379E-05  0.2104025E+04  0.7818609E-02  0.8559473E-01
        1   -1    0    0  501    0  0.00000000000E+00  0.00000000000E+00  0.18154055805E+04  0.18154055805E+04  0.50400001928E-02 0. -1.
       -1   -1    0    0    0  501  0.00000000000E+00  0.00000000000E+00 -0.60963232708E+03  0.60963232710E+03  0.50400001928E-02 0.  1.
    10030    2    1    2    0    0  0.00000000000E+00  0.00000000000E+00  0.12057732534E+04  0.24250379076E+04  0.21040246469E+04 0.  0.
        1    1    3    3  502    0  0.71741987694E+03 -0.26379327760E+03  0.14359744856E+04  0.16267454922E+04  0.50400001928E-02 0. -1.
       -1    1    3    3    0  502 -0.71741987694E+03  0.26379327760E+03 -0.23020123218E+03  0.79829241538E+03  0.50400001928E-02 0.  1.
</event>
<event>
 5   0  0.1228050E-05  0.2697934E+04  0.7818609E-02  0.8335676E-01
       -3   -1    0    0    0  501  0.00000000000E+00  0.00000000000E+00  0.19222006421E+04  0.19222006447E+04  0.10100000352E+00 0. -1.
        3   -1    0    0  501    0  0.00000000000E+00  0.00000000000E+00 -0.94668142777E+03  0.94668143316E+03  0.10100000352E+00 0.  1.
    10030    2    1    2    0    0  0.00000000000E+00  0.00000000000E+00  0.97551921431E+03  0.28688820779E+04  0.26979337722E+04 0.  0.
        2    1    3    3  502    0  0.10605173713E+04 -0.36468477129E+03 -0.30942175578E+03  0.11633717807E+04  0.25500000920E-02 0.  1.
       -2    1    3    3    0  502 -0.10605173713E+04  0.36468477129E+03  0.12849409701E+04  0.17055102972E+04  0.25500000920E-02 0. -1.
</event>
<event>
 5   0  0.3676724E-05  0.2481670E+04  0.7818609E-02  0.8409545E-01
        2   -1    0    0  501    0  0.00000000000E+00  0.00000000000E+00  0.21418129107E+04  0.21418129107E+04  0.25500000920E-02 0. -1.
       -2   -1    0    0    0  501  0.00000000000E+00  0.00000000000E+00 -0.71886385548E+03  0.71886385549E+03  0.25500000920E-02 0.  1.
    10030    2    1    2    0    0  0.00000000000E+00  0.00000000000E+00  0.14229490552E+04  0.28606767661E+04  0.24816703139E+04 0.  0.
        4    1    3    3  502    0  0.12066947024E+04  0.28878674824E+03  0.72607287880E+03  0.14375998501E+04  0.12699999809E+01 0.  1.
       -4    1    3    3    0  502 -0.12066947024E+04 -0.28878674824E+03  0.69687617638E+03  0.14230769160E+04  0.12699999809E+01 0. -1.
</event>
<event>
 5   0  0.1438701E-05  0.2690933E+04  0.7818609E-02  0.8337953E-01
        1   -1    0    0  501    0  0.00000000000E+00  0.00000000000E+00  0.16927097133E+04  0.16927097133E+04  0.50400001928E-02 0.  1.
       -1   -1    0    0    0  501  0.00000000000E+00  0.00000000000E+00 -0.10694573024E+04  0.10694573024E+04  0.50400001928E-02 0. -1.
    10030    2    1    2    0    0  0.00000000000E+00  0.00000000000E+00  0.62325241093E+03  0.27621670158E+04  0.26909334914E+04 0.  0.
        4    1    3    3  502    0  0.73575884072E+03  0.44788739821E+03  0.13725903098E+04  0.16204783135E+04  0.12699999809E+01 0.  1.
       -4    1    3    3    0  502 -0.73575884072E+03 -0.44788739821E+03 -0.74933789888E+03  0.11416887022E+04  0.12699999809E+01 0. -1.
</event>
<event>
 5   0  0.3676724E-05  0.2739219E+04  0.7818609E-02  0.8322391E-01
        2   -1    0    0  501    0  0.00000000000E+00  0.00000000000E+00  0.18149554243E+04  0.18149554243E+04  0.25500000920E-02 0. -1.
       -2   -1    0    0    0  501  0.00000000000E+00  0.00000000000E+00 -0.10335406271E+04  0.10335406271E+04  0.25500000920E-02 0.  1.
    10030    2    1    2    0    0  0.00000000000E+00  0.00000000000E+00  0.78141479718E+03  0.28484960513E+04  0.27392189889E+04 0.  0.
        4    1    3    3  502    0  0.12046680995E+04  0.52060072242E+03  0.79823185051E+03  0.15360423309E+04  0.12699999809E+01 0.  1.
       -4    1    3    3    0  502 -0.12046680995E+04 -0.52060072242E+03 -0.16817053327E+02  0.13124537205E+04  0.12699999809E+01 0. -1.
</event>
<event>
 5   0  0.1474012E-05  0.1722075E+04  0.7818609E-02  0.8748873E-01
        1   -1    0    0  501    0  0.00000000000E+00  0.00000000000E+00  0.15959926563E+04  0.15959926563E+04  0.50400001928E-02 0.  1.
       -1   -1    0    0    0  501  0.00000000000E+00  0.00000000000E+00 -0.46452968886E+03  0.46452968889E+03  0.50400001928E-02 0. -1.
    10030    2    1    2    0    0  0.00000000000E+00  0.00000000000E+00  0.11314629674E+04  0.20605223452E+04  0.17220754595E+04 0.  0.
        2    1    3    3  502    0 -0.52024045393E+03  0.68333623748E+03  0.63936870387E+03  0.10706964476E+04  0.25500000920E-02 0.  1.
       -2    1    3    3    0  502  0.52024045393E+03 -0.68333623748E+03  0.49209426356E+03  0.98982589762E+03  0.25500000920E-02 0. -1.
</event>
<event>
 5   0  0.3652331E-05  0.2724286E+04  0.7818609E-02  0.8327168E-01
        2   -1    0    0  501    0  0.00000000000E+00  0.00000000000E+00  0.18779568411E+04  0.18779568411E+04  0.25500000920E-02 0.  1.
       -2   -1    0    0    0  501  0.00000000000E+00  0.00000000000E+00 -0.98800619799E+03  0.98800619799E+03  0.25500000920E-02 0. -1.
    10030    2    1    2    0    0  0.00000000000E+00  0.00000000000E+00  0.88995064313E+03  0.28659630391E+04  0.27242855934E+04 0.  0.
        1    1    3    3  502    0  0.93303332367E+03 -0.79758471662E+03 -0.17627854414E+03  0.12400672113E+04  0.50400001928E-02 0. -1.
       -1    1    3    3    0  502 -0.93303332367E+03  0.79758471662E+03  0.10662291873E+04  0.16258958279E+04  0.50400001928E-02 0.  1.
</event>
<event>
 5   0  0.1449521E-05  0.2694411E+04  0.7818609E-02  0.8336821E-01
       -1   -1    0    0    0  501  0.00000000000E+00  0.00000000000E+00  0.15749331907E+04  0.15749331907E+04  0.50400001928E-02 0.  1.
        1   -1    0    0  501    0  0.00000000000E+00  0.00000000000E+00 -0.11524058964E+04  0.11524058964E+04  0.50400001928E-02 0. -1.
    10030    2    1    2    0    0  0.00000000000E+00  0.00000000000E+00  0.42252729434E+03  0.27273390871E+04  0.26944107299E+04 0.  0.
        3    1    3    3  502    0 -0.97804709819E+03 -0.92562566978E+03  0.17073334914E+03  0.13573904720E+04  0.10100000352E+00 0.  1.
       -3    1    3    3    0  502  0.97804709819E+03  0.92562566978E+03  0.25179394520E+03  0.13699486150E+04  0.10100000352E+00 0. -1.
</event>
<event>
 5   0  0.1484379E-05  0.2822605E+04  0.7818609E-02  0.8296285E-01
        1   -1    0    0  501    0  0.00000000000E+00  0.00000000000E+00  0.11251267725E+04  0.11251267725E+04  0.50400001928E-02 0. -1.
       -1   -1    0    0    0  501  0.00000000000E+00  0.00000000000E+00 -0.17702671165E+04  0.17702671165E+04  0.50400001928E-02 0.  1.
    10030    2    1    2    0    0  0.00000000000E+00  0.00000000000E+00 -0.64514034395E+03  0.28953938890E+04  0.28226051281E+04 0.  0.
        1    1    3    3  502    0  0.55754279725E+03  0.11054608277E+04 -0.10174437871E+04  0.16025259661E+04  0.50400001928E-02 0.  1.
       -1    1    3    3    0  502 -0.55754279725E+03 -0.11054608277E+04  0.37230344312E+03  0.12928679229E+04  0.50400001928E-02 0. -1.
</event>
<event>
 5   0  0.1449521E-05  0.2802421E+04  0.7818609E-02  0.8302517E-01
        1   -1    0    0  501    0  0.00000000000E+00  0.00000000000E+00  0.14121437435E+04  0.14121437435E+04  0.50400001928E-02 0. -1.
       -1   -1    0    0    0  501  0.00000000000E+00  0.00000000000E+00 -0.13903614435E+04  0.13903614435E+04  0.50400001928E-02 0.  1.
    10030    2    1    2    0    0  0.00000000000E+00  0.00000000000E+00  0.21782299953E+02  0.28025051870E+04  0.28024205349E+04 0.  0.
        3    1    3    3  502    0 -0.85108159489E+03  0.80554739111E+03  0.77912247985E+03  0.14072236245E+04  0.10100000352E+00 0. -1.
       -3    1    3    3    0  502  0.85108159489E+03 -0.80554739111E+03 -0.75734017990E+03  0.13952815625E+04  0.10100000352E+00 0.  1.
</event>
<event>
 5   0  0.3568647E-05  0.2479917E+04  0.7818609E-02  0.8410175E-01
       -2   -1    0    0    0  501  0.00000000000E+00  0.00000000000E+00  0.11979063680E+04  0.11979063680E+04  0.25500000920E-02 0.  1.
        2   -1    0    0  501    0  0.00000000000E+00  0.00000000000E+00 -0.12834873277E+04  0.12834873277E+04  0.25500000920E-02 0. -1.
    10030    2    1    2    0    0  0.00000000000E+00  0.00000000000E+00 -0.85580959698E+02  0.24813936957E+04  0.24799174527E+04 0.  0.
        3    1    3    3  502    0  0.96015271896E+03 -0.15315964306E+03 -0.81275912050E+03  0.12672523498E+04  0.10100000352E+00 0. -1.
       -3    1    3    3    0  502 -0.96015271896E+03  0.15315964306E+03  0.72717816080E+03  0.12141413459E+04  0.10100000352E+00 0.  1.
</event>
<event>
 5   0  0.3514294E-05  0.2868377E+04  0.7818609E-02  0.8282349E-01
        2   -1    0    0  501    0  0.00000000000E+00  0.00000000000E+00  0.14523002723E+04  0.14523002723E+04  0.25500000920E-02 0. -1.
       -2   -1    0    0    0  501  0.00000000000E+00  0.00000000000E+00 -0.14163025151E+04  0.14163025151E+04  0.25500000920E-02 0.  1.
    10030    2    1    2    0    0  0.00000000000E+00  0.00000000000E+00  0.35997757232E+02  0.28686027874E+04  0.28683769127E+04 0.  0.
        2    1    3    3  502    0  0.11267004553E+04 -0.82109577675E+03  0.35454333879E+03  0.14385246503E+04  0.25500000920E-02 0.  1.
       -2    1    3    3    0  502 -0.11267004553E+04  0.82109577675E+03 -0.31854558156E+03  0.14300781371E+04  0.25500000920E-02 0. -1.
</event>
<event>
 5   0  0.1438701E-05  0.2679516E+04  0.7818609E-02  0.8341682E-01
       -1   -1    0    0    0  501  0.00000000000E+00  0.00000000000E+00  0.16739761703E+04  0.16739761703E+04  0.50400001928E-02 0. -1.
        1   -1    0    0  501    0  0.00000000000E+00  0.00000000000E+00 -0.10722684184E+04  0.10722684184E+04  0.50400001928E-02 0.  1.
    10030    2    1    2    0    0  0.00000000000E+00  0.00000000000E+00  0.60170775194E+03  0.27462445887E+04  0.26795162105E+04 0.  0.
        4    1    3    3  502    0 -0.93517624641E+03 -0.12947097467E+03  0.12751227414E+04  0.15865865762E+04  0.12699999809E+01 0. -1.
       -4    1    3    3    0  502  0.93517624641E+03  0.12947097467E+03 -0.67341498945E+03  0.11596580125E+04  0.12699999809E+01 0.  1.
</event>
<event>
 5   0  0.3652331E-05  0.2730770E+04  0.7818609E-02  0.8325090E-01
        2   -1    0    0  501    0  0.00000000000E+00  0.00000000000E+00  0.26235642364E+04  0.26235642364E+04  0.25500000920E-02 0.  1.
       -2   -1    0    0    0  501  0.00000000000E+00  0.00000000000E+00 -0.71058919432E+03  0.71058919432E+03  0.25500000920E-02 0. -1.
    10030    2    1    2    0    0  0.00000000000E+00  0.00000000000E+00  0.19129750421E+04  0.33341534307E+04  0.27307701456E+04 0.  0.
        1    1    3    3  502    0  0.10344861098E+04 -0.72594455095E+03  0.15875220824E+04  0.20291336488E+04  0.50400001928E-02 0.  1.
       -1    1    3    3    0  502 -0.10344861098E+04  0.72594455095E+03  0.32545295967E+03  0.13050197820E+04  0.50400001928E-02 0. -1.
</event>
<event>
 5   0  0.3497949E-05  0.2722881E+04  0.7818609E-02  0.8327619E-01
        2   -1    0    0  501    0  0.00000000000E+00  0.00000000000E+00  0.22689952121E+04  0.22689952121E+04  0.25500000920E-02 0. -1.
       -2   -1    0    0    0  501  0.00000000000E+00  0.00000000000E+00 -0.81689016450E+03  0.81689016450E+03  0.25500000920E-02 0.  1.
    10030    2    1    2    0    0  0.00000000000E+00  0.00000000000E+00  0.14521050476E+04  0.30858853766E+04  0.27228807334E+04 0.  0.
        5    1    3    3  502    0 -0.31957587877E+03 -0.60316768777E+03 -0.60893347203E+03  0.91474699519E+03  0.46999998093E+01 0.  1.
       -5    1    3    3    0  502  0.31957587877E+03  0.60316768777E+03  0.20610385196E+04  0.21711383814E+04  0.46999998093E+01 0. -1.
</event>
<event>
 5   0  0.1438701E-05  0.2706958E+04  0.7818609E-02  0.8332751E-01
        1   -1    0    0  501    0  0.00000000000E+00  0.00000000000E+00  0.20882811990E+04  0.20882811990E+04  0.50400001928E-02 0.  1.
       -1   -1    0    0    0  501  0.00000000000E+00  0.00000000000E+00 -0.87723136534E+03  0.87723136535E+03  0.50400001928E-02 0. -1.
    10030    2    1    2    0    0  0.00000000000E+00  0.00000000000E+00  0.12110498336E+04  0.29655125643E+04  0.27069582689E+04 0.  0.
        4    1    3    3  502    0 -0.93722747481E+02  0.10210135184E+04 -0.36241150927E+03  0.10874724240E+04  0.12699999809E+01 0. -1.
       -4    1    3    3    0  502  0.93722747481E+02 -0.10210135184E+04  0.15734613429E+04  0.18780401403E+04  0.12699999809E+01 0.  1.
</event>
<event>
 5   0  0.3652331E-05  0.2139646E+04  0.7818609E-02  0.8543977E-01
        2   -1    0    0  501    0  0.00000000000E+00  0.00000000000E+00  0.21301197757E+04  0.21301197757E+04  0.25500000920E-02 0. -1.
       -2   -1    0    0    0  501  0.00000000000E+00  0.00000000000E+00 -0.53730377740E+03  0.53730377740E+03  0.25500000920E-02 0.  1.
    10030    2    1    2    0    0  0.00000000000E+00  0.00000000000E+00  0.15928159983E+04  0.26674235531E+04  0.21396461406E+04 0.  0.
        1    1    3    3  502    0  0.10492586340E+04  0.17125113967E+03  0.64758530611E+03  0.12448443126E+04  0.50400001928E-02 0. -1.
       -1    1    3    3    0  502 -0.10492586340E+04 -0.17125113967E+03  0.94523069217E+03  0.14225792405E+04  0.50400001928E-02 0.  1.
</event>
<event>
 5   0  0.1484379E-05  0.1712019E+04  0.7818609E-02  0.8754539E-01
        1   -1    0    0  501    0  0.00000000000E+00  0.00000000000E+00  0.11494034285E+04  0.11494034285E+04  0.50400001928E-02 0. -1.
       -1   -1    0    0    0  501  0.00000000000E+00  0.00000000000E+00 -0.63750641176E+03  0.63750641178E+03  0.50400001928E-02 0.  1.
    10030    2    1    2    0    0  0.00000000000E+00  0.00000000000E+00  0.51189701677E+03  0.17869098403E+04  0.17120187562E+04 0.  0.
        1    1    3    3  502    0  0.51486713118E+03  0.41986980749E+03 -0.30745422775E+03  0.73205663729E+03  0.50400001928E-02 0.  1.
       -1    1    3    3    0  502 -0.51486713118E+03 -0.41986980749E+03  0.81935124452E+03  0.10548532030E+04  0.50400001928E-02 0. -1.
</event>
<event>
 5   0  0.3652331E-05  0.1730413E+04  0.7818609E-02  0.8744206E-01
       -2   -1    0    0    0  501  0.00000000000E+00  0.00000000000E+00  0.39118055201E+03  0.39118055201E+03  0.25500000920E-02 0.  1.
        2   -1    0    0  501    0  0.00000000000E+00  0.00000000000E+00 -0.19136491110E+04  0.19136491110E+04  0.25500000920E-02 0. -1.
    10030    2    1    2    0    0  0.00000000000E+00  0.00000000000E+00 -0.15224685590E+04  0.23048296630E+04  0.17304130323E+04 0.  0.
        1    1    3    3  502    0 -0.63317562187E+03  0.44399141125E+03 -0.12780297830E+04  0.14937870892E+04  0.50400001928E-02 0.  1.
       -1    1    3    3    0  502  0.63317562187E+03 -0.44399141125E+03 -0.24443877596E+03  0.81104257386E+03  0.50400001928E-02 0. -1.
</event>
<event>
 5   0  0.1438701E-05  0.2443462E+04  0.7818609E-02  0.8423409E-01
        1   -1    0    0  501    0  0.00000000000E+00  0.00000000000E+00  0.22914702255E+04  0.22914702255E+04  0.50400001928E-02 0.  1.
       -1   -1    0    0    0  501  0.00000000000E+00  0.00000000000E+00 -0.65138361504E+03  0.65138361506E+03  0.50400001928E-02 0. -1.
    10030    2    1    2    0    0  0.00000000000E+00  0.00000000000E+00  0.16400866105E+04  0.29428538406E+04  0.24434616095E+04 0.  0.
        4    1    3    3  502    0  0.10570477717E+04 -0.30443285325E+03  0.17979924553E+03  0.11146114729E+04  0.12699999809E+01 0. -1.
       -4    1    3    3    0  502 -0.10570477717E+04  0.30443285325E+03  0.14602873649E+04  0.18282423677E+04  0.12699999809E+01 0.  1.
</event>
<event>
 5   0  0.3514294E-05  0.2735980E+04  0.7818609E-02  0.8323424E-01
        2   -1    0    0  501    0  0.00000000000E+00  0.00000000000E+00  0.13663079689E+04  0.13663079689E+04  0.25500000920E-02 0. -1.
       -2   -1    0    0    0  501  0.00000000000E+00  0.00000000000E+00 -0.13696745034E+04  0.13696745034E+04  0.25500000920E-02 0.  1.
    10030    2    1    2    0    0  0.00000000000E+00  0.00000000000E+00 -0.33665344246E+01  0.27359824723E+04  0.27359804011E+04 0.  0.
        2    1    3    3  502    0  0.53947608813E+03  0.49572368521E+03 -0.11569420208E+04  0.13694127432E+04  0.25500000920E-02 0.  1.
       -2    1    3    3    0  502 -0.53947608813E+03 -0.49572368521E+03  0.11535754864E+04  0.13665697291E+04  0.25500000920E-02 0. -1.
</event>
<event>
 5   0  0.3514294E-05  0.2720219E+04  0.7818609E-02  0.8328474E-01
        2   -1    0    0  501    0  0.00000000000E+00  0.00000000000E+00  0.16679766041E+04  0.16679766041E+04  0.25500000920E-02 0.  1.
       -2   -1    0    0    0  501  0.00000000000E+00  0.00000000000E+00 -0.11090673095E+04  0.11090673095E+04  0.25500000920E-02 0. -1.
    10030    2    1    2    0    0  0.00000000000E+00  0.00000000000E+00  0.55890929467E+03  0.27770439136E+04  0.27202193475E+04 0.  0.
        2    1    3    3  502    0  0.79046262024E+03  0.67441443522E+03  0.11754168669E+04  0.15688437766E+04  0.25500000920E-02 0.  1.
       -2    1    3    3    0  502 -0.79046262024E+03 -0.67441443522E+03 -0.61650757222E+03  0.12082001370E+04  0.25500000920E-02 0. -1.
</event>
<event>
 5   0  0.1438701E-05  0.2701952E+04  0.7818609E-02  0.8334372E-01
        1   -1    0    0  501    0  0.00000000000E+00  0.00000000000E+00  0.13399892756E+04  0.13399892756E+04  0.50400001928E-02 0.  1.
       -1   -1    0    0    0  501  0.00000000000E+00  0.00000000000E+00 -0.13620532391E+04  0.13620532391E+04  0.50400001928E-02 0. -1.
    10030    2    1    2    0    0  0.00000000000E+00  0.00000000000E+00 -0.22063963437E+02  0.27020425147E+04  0.27019524298E+04 0.  0.
        4    1    3    3  502    0 -0.50232284308E+03 -0.12248697969E+04  0.25823683718E+03  0.13488224994E+04  0.12699999809E+01 0.  1.
       -4    1    3    3    0  502  0.50232284308E+03  0.12248697969E+04 -0.28030080062E+03  0.13532200153E+04  0.12699999809E+01 0. -1.
</event>
<event>
 5   0  0.1495517E-05  0.2738958E+04  0.7818609E-02  0.8322474E-01
        1   -1    0    0  501    0  0.00000000000E+00  0.00000000000E+00  0.24048122691E+04  0.24048122691E+04  0.50400001928E-02 0. -1.
       -1   -1    0    0    0  501  0.00000000000E+00  0.00000000000E+00 -0.77988332684E+03  0.77988332686E+03  0.50400001928E-02 0.  1.
    10030    2    1    2    0    0  0.00000000000E+00  0.00000000000E+00  0.16249289423E+04  0.31846955960E+04  0.27389581909E+04 0.  0.
        5    1    3    3  502    0  0.21792620813E+02  0.32804488024E+03 -0.73330721234E+03  0.80364788275E+03  0.46999998093E+01 0.  1.
       -5    1    3    3    0  502 -0.21792620813E+02 -0.32804488024E+03  0.23582361546E+04  0.23810477132E+04  0.46999998093E+01 0. -1.
</event>
<event>
 5   0  0.1474012E-05  0.2677433E+04  0.7818609E-02  0.8342365E-01
        1   -1    0    0  501    0  0.00000000000E+00  0.00000000000E+00  0.74951218205E+03  0.74951218207E+03  0.50400001928E-02 0. -1.
       -1   -1    0    0    0  501  0.00000000000E+00  0.00000000000E+00 -0.23911037109E+04  0.23911037109E+04  0.50400001928E-02 0.  1.
    10030    2    1    2    0    0  0.00000000000E+00  0.00000000000E+00 -0.16415915288E+04  0.31406158929E+04  0.26774326209E+04 0.  0.
        2    1    3    3  502    0  0.11885725414E+04 -0.14160139270E+03 -0.15240118002E+04  0.19378770879E+04  0.25500000920E-02 0.  1.
       -2    1    3    3    0  502 -0.11885725414E+04  0.14160139270E+03 -0.11757972864E+03  0.12027388051E+04  0.25500000920E-02 0. -1.
</event>
<event>
 5   0  0.3568647E-05  0.2616966E+04  0.7818609E-02  0.8362461E-01
        2   -1    0    0  501    0  0.00000000000E+00  0.00000000000E+00  0.22858632635E+04  0.22858632635E+04  0.25500000920E-02 0.  1.
       -2   -1    0    0    0  501  0.00000000000E+00  0.00000000000E+00 -0.74900724421E+03  0.74900724421E+03  0.25500000920E-02 0. -1.
    10030    2    1    2    0    0  0.00000000000E+00  0.00000000000E+00  0.15368560193E+04  0.30348705077E+04  0.26169662922E+04 0.  0.
        3    1    3    3  502    0 -0.42973681366E+03  0.19231666336E+03 -0.64737707410E+03  0.80047268179E+03  0.10100000352E+00 0. -1.
       -3    1    3    3    0  502  0.42973681366E+03 -0.19231666336E+03  0.21842330934E+04  0.22343978259E+04  0.10100000352E+00 0.  1.
</event>
<event>
 5   0  0.1474012E-05  0.2692548E+04  0.7818609E-02  0.8337427E-01
       -1   -1    0    0    0  501  0.00000000000E+00  0.00000000000E+00  0.15129469202E+04  0.15129469202E+04  0.50400001928E-02 0. -1.
        1   -1    0    0  501    0  0.00000000000E+00  0.00000000000E+00 -0.11979626186E+04  0.11979626186E+04  0.50400001928E-02 0.  1.
    10030    2    1    2    0    0  0.00000000000E+00  0.00000000000E+00  0.31498430163E+03  0.27109095388E+04  0.26925481272E+04 0.  0.
        2    1    3    3  502    0 -0.47153319083E+03  0.64786728796E+03 -0.93172551893E+03  0.12288970728E+04  0.25500000920E-02 0.  1.
       -2    1    3    3    0  502  0.47153319083E+03 -0.64786728796E+03  0.12467098206E+04  0.14820124661E+04  0.25500000920E-02 0. -1.
</event>
<event>
 5   0  0.1484379E-05  0.2728212E+04  0.7818609E-02  0.8325909E-01
       -1   -1    0    0    0  501  0.00000000000E+00  0.00000000000E+00  0.93632827660E+03  0.93632827662E+03  0.50400001928E-02 0.  1.
        1   -1    0    0  501    0  0.00000000000E+00  0.00000000000E+00 -0.19873217320E+04  0.19873217321E+04  0.50400001928E-02 0. -1.
    10030    2    1    2    0    0  0.00000000000E+00  0.00000000000E+00 -0.10509934554E+04  0.29236500087E+04  0.27282122589E+04 0.  0.
        1    1    3    3  502    0  0.93542628016E+03 -0.76205318925E+03 -0.12075137084E+04  0.17069964103E+04  0.50400001928E-02 0. -1.
       -1    1    3    3    0  502 -0.93542628016E+03  0.76205318925E+03  0.15652025291E+03  0.12166535984E+04  0.50400001928E-02 0.  1.
</event>
<event>
 5   0  0.3652331E-05  0.2654264E+04  0.7818609E-02  0.8349999E-01
       -2   -1    0    0    0  501  0.00000000000E+00  0.00000000000E+00  0.10604902551E+04  0.10604902551E+04  0.25500000920E-02 0. -1.
        2   -1    0    0  501    0  0.00000000000E+00  0.00000000000E+00 -0.16608163754E+04  0.16608163755E+04  0.25500000920E-02 0.  1.
    10030    2    1    2    0    0  0.00000000000E+00  0.00000000000E+00 -0.60032612035E+03  0.27213066306E+04  0.26542641780E+04 0.  0.
        1    1    3    3  502    0 -0.10786162223E+04 -0.98002997209E+02  0.48619210900E+03  0.11871816665E+04  0.50400001928E-02 0. -1.
       -1    1    3    3    0  502  0.10786162223E+04  0.98002997209E+02 -0.10865182294E+04  0.15341249640E+04  0.50400001928E-02 0.  1.
</event>
<event>
 5   0  0.1495517E-05  0.1942119E+04  0.7818609E-02  0.8634171E-01
        1   -1    0    0  501    0  0.00000000000E+00  0.00000000000E+00  0.10419587475E+04  0.10419587475E+04  0.50400001928E-02 0.  1.
       -1   -1    0    0    0  501  0.00000000000E+00  0.00000000000E+00 -0.90498407718E+03  0.90498407719E+03  0.50400001928E-02 0. -1.
    10030    2    1    2    0    0  0.00000000000E+00  0.00000000000E+00  0.13697467030E+03  0.19469428247E+04  0.19421185088E+04 0.  0.
        5    1    3    3  502    0  0.35478937292E+03 -0.13455486722E+03  0.96454965545E+03  0.10365127299E+04  0.46999998093E+01 0.  1.
       -5    1    3    3    0  502 -0.35478937292E+03  0.13455486722E+03 -0.82757498515E+03  0.91043009478E+03  0.46999998093E+01 0. -1.
</event>
<event>
 5   0  0.1495517E-05  0.2681791E+04  0.7818609E-02  0.8340937E-01
       -1   -1    0    0    0  501  0.00000000000E+00  0.00000000000E+00  0.16248335272E+04  0.16248335272E+04  0.50400001928E-02 0.  1.
        1   -1    0    0  501    0  0.00000000000E+00  0.00000000000E+00 -0.11065752935E+04  0.11065752935E+04  0.50400001928E-02 0. -1.
    10030    2    1    2    0    0  0.00000000000E+00  0.00000000000E+00  0.51825823373E+03  0.27314088207E+04  0.26817909219E+04 0.  0.
        5    1    3    3  502    0 -0.80835802672E+03  0.18369986951E+03 -0.81431097606E+03  0.11620296025E+04  0.46999998093E+01 0. -1.
       -5    1    3    3    0  502  0.80835802672E+03 -0.18369986951E+03  0.13325692098E+04  0.15693792181E+04  0.46999998093E+01 0.  1.
</event>
<event>
 5   0  0.3514294E-05  0.2729408E+04  0.7818609E-02  0.8325526E-01
       -2   -1    0    0    0  501  0.00000000000E+00  0.00000000000E+00  0.12170438155E+04  0.12170438155E+04  0.25500000920E-02 0. -1.
        2   -1    0    0  501    0  0.00000000000E+00  0.00000000000E+00 -0.15302798559E+04  0.15302798559E+04  0.25500000920E-02 0.  1.
    10030    2    1    2    0    0  0.00000000000E+00  0.00000000000E+00 -0.31323604040E+03  0.27473236715E+04  0.27294084595E+04 0.  0.
        2    1    3    3  502    0 -0.61687664618E+02  0.12077686286E+04  0.47991495952E+03  0.13010875438E+04  0.25500000920E-02 0. -1.
       -2    1    3    3    0  502  0.61687664618E+02 -0.12077686286E+04 -0.79315099992E+03  0.14462361277E+04  0.25500000920E-02 0.  1.
</event>
<event>
 5   0  0.3514294E-05  0.1837200E+04  0.7818609E-02  0.8686763E-01
        2   -1    0    0  501    0  0.00000000000E+00  0.00000000000E+00  0.85421381866E+03  0.85421381866E+03  0.25500000920E-02 0.  1.
       -2   -1    0    0    0  501  0.00000000000E+00  0.00000000000E+00 -0.98783973934E+03  0.98783973935E+03  0.25500000920E-02 0. -1.
    10030    2    1    2    0    0  0.00000000000E+00  0.00000000000E+00 -0.13362592068E+03  0.18420535580E+04  0.18372004311E+04 0.  0.
        2    1    3    3  502    0  0.64930193882E+03 -0.54235600850E+03 -0.42564563545E+03  0.94705715493E+03  0.25500000920E-02 0. -1.
       -2    1    3    3    0  502 -0.64930193882E+03  0.54235600850E+03  0.29201971477E+03  0.89499640308E+03  0.25500000920E-02 0.  1.
</event>
<event>
 5   0  0.1449521E-05  0.2369146E+04  0.7818609E-02  0.8451146E-01
       -1   -1    0    0    0  501  0.00000000000E+00  0.00000000000E+00  0.13390992100E+04  0.13390992100E+04  0.50400001928E-02 0. -1.
        1   -1    0    0  501    0  0.00000000000E+00  0.00000000000E+00 -0.10478787399E+04  0.10478787399E+04  0.50400001928E-02 0.  1.
    10030    2    1    2    0    0  0.00000000000E+00  0.00000000000E+00  0.29122047009E+03  0.23869779499E+04  0.23691463380E+04 0.  0.
        3    1    3    3  502    0  0.36935867212E+03  0.67226180669E+03  0.10550958601E+04  0.13044497114E+04  0.10100000352E+00 0. -1.
       -3    1    3    3    0  502 -0.36935867212E+03 -0.67226180669E+03 -0.76387539001E+03  0.10825282385E+04  0.10100000352E+00 0.  1.
</event>
<event>
 5   0  0.3497949E-05  0.2709181E+04  0.7818609E-02  0.8332032E-01
       -2   -1    0    0    0  501  0.00000000000E+00  0.00000000000E+00  0.86807702616E+03  0.86807702616E+03  0.25500000920E-02 0.  1.
        2   -1    0    0  501    0  0.00000000000E+00  0.00000000000E+00 -0.21137696512E+04  0.21137696512E+04  0.25500000920E-02 0. -1.
    10030    2    1    2    0    0  0.00000000000E+00  0.00000000000E+00 -0.12456926250E+04  0.29818466774E+04  0.27091805941E+04 0.  0.
        5    1    3    3  502    0  0.74760397887E+03 -0.13747396966E+03 -0.18568860748E+04  0.20064542822E+04  0.46999998093E+01 0. -1.
       -5    1    3    3    0  502 -0.74760397887E+03  0.13747396966E+03  0.61119344978E+03  0.97539239520E+03  0.46999998093E+01 0.  1.
</event>
<event>
 5   0  0.1438701E-05  0.2709881E+04  0.7818609E-02  0.8331806E-01
       -1   -1    0    0    0  501  0.00000000000E+00  0.00000000000E+00  0.10897015961E+04  0.10897015961E+04  0.50400001928E-02 0.  1.
        1   -1    0    0  501    0  0.00000000000E+00  0.00000000000E+00 -0.16847404024E+04  0.16847404024E+04  0.50400001928E-02 0. -1.
    10030    2    1    2    0    0  0.00000000000E+00  0.00000000000E+00 -0.59503880625E+03  0.27744419985E+04  0.27098814037E+04 0.  0.
        4    1    3    3  502    0  0.13631718860E+03  0.81183916579E+03 -0.13993546836E+04  0.16235332921E+04  0.12699999809E+01 0. -1.
       -4    1    3    3    0  502 -0.13631718860E+03 -0.81183916579E+03  0.80431587740E+03  0.11509087064E+04  0.12699999809E+01 0.  1.
</event>
<event>
 5   0  0.3514294E-05  0.1516437E+04  0.7818609E-02  0.8873596E-01
       -2   -1    0    0    0  501  0.00000000000E+00  0.00000000000E+00  0.64896069397E+03  0.64896069398E+03  0.25500000920E-02 0.  1.
        2   -1    0    0  501    0  0.00000000000E+00  0.00000000000E+00 -0.88587048768E+03  0.88587048769E+03  0.25500000920E-02 0. -1.
    10030    2    1    2    0    0  0.00000000000E+00  0.00000000000E+00 -0.23690979371E+03  0.15348311817E+04  0.15164367794E+04 0.  0.
        2    1    3    3  502    0 -0.35664289156E+03 -0.60595503617E+03  0.16874663655E+03  0.72308442475E+03  0.25500000920E-02 0.  1.
       -2    1    3    3    0  502  0.35664289156E+03  0.60595503617E+03 -0.40565643026E+03  0.81174675692E+03  0.25500000920E-02 0. -1.
</event>
<event>
 5   0  0.1449521E-05  0.2670629E+04  0.7818609E-02  0.8344598E-01
        1   -1    0    0  501    0  0.00000000000E+00  0.00000000000E+00  0.14788027634E+04  0.14788027635E+04  0.50400001928E-02 0. -1.
       -1   -1    0    0    0  501  0.00000000000E+00  0.00000000000E+00 -0.12057490871E+04  0.12057490871E+04  0.50400001928E-02 0.  1.
    10030    2    1    2    0    0  0.00000000000E+00  0.00000000000E+00  0.27305367637E+03  0.26845518505E+04  0.26706292008E+04 0.  0.
        3    1    3    3  502    0 -0.12548491505E+04 -0.45402872600E+03  0.88564392909E+02  0.13373975237E+04  0.10100000352E+00 0. -1.
       -3    1    3    3    0  502  0.12548491505E+04  0.45402872600E+03  0.18448928346E+03  0.13471543269E+04  0.10100000352E+00 0.  1.
</event>
<event>
 5   0  0.1495517E-05  0.2679970E+04  0.7818609E-02  0.8341534E-01
        1   -1    0    0  501    0  0.00000000000E+00  0.00000000000E+00  0.10513944147E+04  0.10513944147E+04  0.50400001928E-02 0.  1.
       -1   -1    0    0    0  501  0.00000000000E+00  0.00000000000E+00 -0.17077884896E+04  0.17077884896E+04  0.50400001928E-02 0. -1.
    10030    2    1    2    0    0  0.00000000000E+00  0.00000000000E+00 -0.65639407495E+03  0.27591829043E+04  0.26799696114E+04 0.  0.
        5    1    3    3  502    0  0.42607120523E+03  0.12044477809E+04 -0.74425302091E+03  0.14785688276E+04  0.46999998093E+01 0. -1.
       -5    1    3    3    0  502 -0.42607120523E+03 -0.12044477809E+04  0.87858945967E+02  0.12806140767E+04  0.46999998093E+01 0.  1.
</event>
<event>
 5   0  0.1474012E-05  0.1341296E+04  0.7818609E-02  0.8997443E-01
       -1   -1    0    0    0  501  0.00000000000E+00  0.00000000000E+00  0.54686342659E+03  0.54686342661E+03  0.50400001928E-02 0. -1.
        1   -1    0    0  501    0  0.00000000000E+00  0.00000000000E+00 -0.82245196492E+03  0.82245196494E+03  0.50400001928E-02 0.  1.
    10030    2    1    2    0    0  0.00000000000E+00  0.00000000000E+00 -0.27558853833E+03  0.13693153915E+04  0.13412962384E+04 0.  0.
        2    1    3    3  502    0  0.22986320338E+03 -0.58820139394E+03 -0.36823265847E+03  0.73103574664E+03  0.25500000920E-02 0.  1.
       -2    1    3    3    0  502 -0.22986320338E+03  0.58820139394E+03  0.92644120133E+02  0.63827964491E+03  0.25500000920E-02 0. -1.
</event>
<event>
 5   0  0.1495517E-05  0.2628093E+04  0.7818609E-02  0.8358721E-01
        1   -1    0    0  501    0  0.00000000000E+00  0.00000000000E+00  0.18755998645E+04  0.18755998645E+04  0.50400001928E-02 0.  1.
       -1   -1    0    0    0  501  0.00000000000E+00  0.00000000000E+00 -0.92062156993E+03  0.92062156994E+03  0.50400001928E-02 0. -1.
    10030    2    1    2    0    0  0.00000000000E+00  0.00000000000E+00  0.95497829454E+03  0.27962214344E+04  0.26280926101E+04 0.  0.
        5    1    3    3  502    0 -0.12291448798E+04  0.40856865147E+03  0.71293795434E+03  0.14785222674E+04  0.46999998093E+01 0.  1.
       -5    1    3    3    0  502  0.12291448798E+04 -0.40856865147E+03  0.24204034020E+03  0.13176991670E+04  0.46999998093E+01 0. -1.
</event>
<event>
 5   0  0.3514294E-05  0.2280890E+04  0.7818609E-02  0.8485494E-01
        2   -1    0    0  501    0  0.00000000000E+00  0.00000000000E+00  0.11155339547E+04  0.11155339547E+04  0.25500000920E-02 0.  1.
       -2   -1    0    0    0  501  0.00000000000E+00  0.00000000000E+00 -0.11659122054E+04  0.11659122054E+04  0.25500000920E-02 0. -1.
    10030    2    1    2    0    0  0.00000000000E+00  0.00000000000E+00 -0.50378250659E+02  0.22814461601E+04  0.22808898731E+04 0.  0.
        2    1    3    3  502    0 -0.21080395864E+03 -0.11070465325E+04  0.14985161014E+03  0.11368578799E+04  0.25500000920E-02 0. -1.
       -2    1    3    3    0  502  0.21080395864E+03  0.11070465325E+04 -0.20022986080E+03  0.11445882802E+04  0.25500000920E-02 0.  1.
</event>
<event>
 5   0  0.3514294E-05  0.2681390E+04  0.7818609E-02  0.8341069E-01
       -2   -1    0    0    0  501  0.00000000000E+00  0.00000000000E+00  0.13762435587E+04  0.13762435587E+04  0.25500000920E-02 0. -1.
        2   -1    0    0  501    0  0.00000000000E+00  0.00000000000E+00 -0.13060649187E+04  0.13060649187E+04  0.25500000920E-02 0.  1.
    10030    2    1    2    0    0  0.00000000000E+00  0.00000000000E+00  0.70178640033E+02  0.26823084774E+04  0.26813902600E+04 0.  0.
        2    1    3    3  502    0  0.77150187759E+02  0.11307903066E+04 -0.68127360944E+03  0.13224116606E+04  0.25500000920E-02 0.  1.
       -2    1    3    3    0  502 -0.77150187759E+02 -0.11307903066E+04  0.75145224947E+03  0.13598968168E+04  0.25500000920E-02 0. -1.
</event>
<event>
 5   0  0.1438701E-05  0.2756692E+04  0.7818609E-02  0.8316841E-01
       -1   -1    0    0    0  501  0.00000000000E+00  0.00000000000E+00  0.98075139678E+03  0.98075139680E+03  0.50400001928E-02 0.  1.
        1   -1    0    0  501    0  0.00000000000E+00  0.00000000000E+00 -0.19371243085E+04  0.19371243085E+04  0.50400001928E-02 0. -1.
    10030    2    1    2    0    0  0.00000000000E+00  0.00000000000E+00 -0.95637291168E+03  0.29178757053E+04  0.27566917646E+04 0.  0.
        4    1    3    3  502    0 -0.38274341537E+03  0.98524865979E+03  0.45820266060E+03  0.11520237561E+04  0.12699999809E+01 0.  1.
       -4    1    3    3    0  502  0.38274341537E+03 -0.98524865979E+03 -0.14145755723E+04  0.17658519491E+04  0.12699999809E+01 0. -1.
</event>
<event>
 5   0  0.3676724E-05  0.2669103E+04  0.7818609E-02  0.8345100E-01
        2   -1    0    0  501    0  0.00000000000E+00  0.00000000000E+00  0.12231901386E+04  0.12231901386E+04  0.25500000920E-02 0.  1.
       -2   -1    0    0    0  501  0.00000000000E+00  0.00000000000E+00 -0.14560517710E+04  0.14560517710E+04  0.25500000920E-02 0. -1.
    10030    2    1    2    0    0  0.00000000000E+00  0.00000000000E+00 -0.23286163242E+03  0.26792419096E+04  0.26691033458E+04 0.  0.
        4    1    3    3  502    0 -0.22760403399E+02  0.53799768975E+03 -0.13421616702E+04  0.14461532118E+04  0.12699999809E+01 0. -1.
       -4    1    3    3    0  502  0.22760403399E+02 -0.53799768975E+03  0.11093000377E+04  0.12330886979E+04  0.12699999809E+01 0.  1.
</event>
<event>
 5   0  0.1228050E-05  0.2690557E+04  0.7818609E-02  0.8338075E-01
       -3   -1    0    0    0  501  0.00000000000E+00  0.00000000000E+00  0.12943824716E+04  0.12943824755E+04  0.10100000352E+00 0. -1.
        3   -1    0    0  501    0  0.00000000000E+00  0.00000000000E+00 -0.13981755521E+04  0.13981755558E+04  0.10100000352E+00 0.  1.
    10030    2    1    2    0    0  0.00000000000E+00  0.00000000000E+00 -0.10379308058E+03  0.26925580313E+04  0.26905567729E+04 0.  0.
        4    1    3    3  502    0  0.89020656976E+03  0.25541799472E+03 -0.10283611180E+04  0.13839199004E+04  0.12699999809E+01 0.  1.
       -4    1    3    3    0  502 -0.89020656976E+03 -0.25541799472E+03  0.92456803742E+03  0.13086381309E+04  0.12699999809E+01 0. -1.
</event>
<event>
 5   0  0.1495517E-05  0.2574659E+04  0.7818609E-02  0.8376860E-01
        1   -1    0    0  501    0  0.00000000000E+00  0.00000000000E+00  0.18267053421E+04  0.18267053421E+04  0.50400001928E-02 0. -1.
       -1   -1    0    0    0  501  0.00000000000E+00  0.00000000000E+00 -0.90721658497E+03  0.90721658499E+03  0.50400001928E-02 0.  1.
    10030    2    1    2    0    0  0.00000000000E+00  0.00000000000E+00  0.91948875709E+03  0.27339219271E+04  0.25746591092E+04 0.  0.
        5    1    3    3  502    0 -0.34092452878E+03 -0.53137294832E+03  0.16510185097E+04  0.17676173098E+04  0.46999998093E+01 0. -1.
       -5    1    3    3    0  502  0.34092452878E+03  0.53137294832E+03 -0.73152975256E+03  0.96630461730E+03  0.46999998093E+01 0.  1.
</event>
<event>
 5   0  0.1449521E-05  0.1639175E+04  0.7818609E-02  0.8796836E-01
       -1   -1    0    0    0  501  0.00000000000E+00  0.00000000000E+00  0.30554381495E+03  0.30554381499E+03  0.50400001928E-02 0. -1.
        1   -1    0    0  501    0  0.00000000000E+00  0.00000000000E+00 -0.21984526656E+04  0.21984526656E+04  0.50400001928E-02 0.  1.
    10030    2    1    2    0    0  0.00000000000E+00  0.00000000000E+00 -0.18929088506E+04  0.25039964805E+04  0.16391749321E+04 0.  0.
        3    1    3    3  502    0  0.43411537499E+03  0.62888582119E+03 -0.13990201206E+04  0.15941175750E+04  0.10100000352E+00 0.  1.
       -3    1    3    3    0  502 -0.43411537499E+03 -0.62888582119E+03 -0.49388872996E+03  0.90987890551E+03  0.10100000352E+00 0. -1.
</event>
<event>
 5   0  0.3514294E-05  0.2696701E+04  0.7818609E-02  0.8336076E-01
       -2   -1    0    0    0  501  0.00000000000E+00  0.00000000000E+00  0.11974318087E+04  0.11974318087E+04  0.25500000920E-02 0.  1.
        2   -1    0    0  501    0  0.00000000000E+00  0.00000000000E+00 -0.15182906677E+04  0.15182906677E+04  0.25500000920E-02 0. -1.
    10030    2    1    2    0    0  0.00000000000E+00  0.00000000000E+00 -0.32085885904E+03  0.27157224764E+04  0.26967013482E+04 0.  0.
        2    1    3    3  502    0  0.12352058805E+04 -0.29645515937E+03  0.29489943229E+03  0.13040647622E+04  0.25500000920E-02 0.  1.
       -2    1    3    3    0  502 -0.12352058805E+04  0.29645515937E+03 -0.61575829133E+03  0.14116577142E+04  0.25500000920E-02 0. -1.
</event>
<event>
 5   0  0.1484379E-05  0.2466834E+04  0.7818609E-02  0.8414897E-01
        1   -1    0    0  501    0  0.00000000000E+00  0.00000000000E+00  0.28543947440E+04  0.28543947440E+04  0.50400001928E-02 0. -1.
       -1   -1    0    0    0  501  0.00000000000E+00  0.00000000000E+00 -0.53297358294E+03  0.53297358297E+03  0.50400001928E-02 0.  1.
    10030    2    1    2    0    0  0.00000000000E+00  0.00000000000E+00  0.23214211611E+04  0.33873683270E+04  0.24668335930E+04 0.  0.
        1    1    3    3  502    0  0.80187610376E+03  0.78263889571E+03  0.18686405658E+04  0.21788406300E+04  0.50400001928E-02 0.  1.
       -1    1    3    3    0  502 -0.80187610376E+03 -0.78263889571E+03  0.45278059528E+03  0.12085276970E+04  0.50400001928E-02 0. -1.
</event>
<event>
 5   0  0.3514294E-05  0.2712163E+04  0.7818609E-02  0.8331069E-01
        2   -1    0    0  501    0  0.00000000000E+00  0.00000000000E+00  0.10336585091E+04  0.10336585091E+04  0.25500000920E-02 0.  1.
       -2   -1    0    0    0  501  0.00000000000E+00  0.00000000000E+00 -0.17790753503E+04  0.17790753503E+04  0.25500000920E-02 0. -1.
    10030    2    1    2    0    0  0.00000000000E+00  0.00000000000E+00 -0.74541684125E+03  0.28127338595E+04  0.27121625130E+04 0.  0.
        2    1    3    3  502    0 -0.50615298402E+03  0.46338213084E+03  0.84029697335E+03  0.10849022287E+04  0.25500000920E-02 0.  1.
       -2    1    3    3    0  502  0.50615298402E+03 -0.46338213084E+03 -0.15857138146E+04  0.17278316308E+04  0.25500000920E-02 0. -1.
</event>
<event>
 5   0  0.3514294E-05  0.2727339E+04  0.7818609E-02  0.8326189E-01
       -2   -1    0    0    0  501  0.00000000000E+00  0.00000000000E+00  0.11951238292E+04  0.11951238292E+04  0.25500000920E-02 0. -1.
        2   -1    0    0  501    0  0.00000000000E+00  0.00000000000E+00 -0.15559847436E+04  0.15559847436E+04  0.25500000920E-02 0.  1.
    10030    2    1    2    0    0  0.00000000000E+00  0.00000000000E+00 -0.36086091439E+03  0.27511085729E+04  0.27273389559E+04 0.  0.
        2    1    3    3  502    0 -0.19742045007E+03  0.13279760757E+04 -0.42146731015E+03  0.14071709155E+04  0.25500000920E-02 0.  1.
       -2    1    3    3    0  502  0.19742045007E+03 -0.13279760757E+04  0.60606395758E+02  0.13439376574E+04  0.25500000920E-02 0. -1.
</event>
<event>
 5   0  0.1449521E-05  0.2815703E+04  0.7818609E-02  0.8298410E-01
        1   -1    0    0  501    0  0.00000000000E+00  0.00000000000E+00  0.14001099002E+04  0.14001099002E+04  0.50400001928E-02 0. -1.
       -1   -1    0    0    0  501  0.00000000000E+00  0.00000000000E+00 -0.14156360383E+04  0.14156360383E+04  0.50400001928E-02 0.  1.
    10030    2    1    2    0    0  0.00000000000E+00  0.00000000000E+00 -0.15526138104E+02  0.28157459385E+04  0.28157031323E+04 0.  0.
        3    1    3    3  502    0  0.29137307598E+03 -0.34251514549E+03  0.13263603303E+04  0.14005165583E+04  0.10100000352E+00 0. -1.
       -3    1    3    3    0  502 -0.29137307598E+03  0.34251514549E+03 -0.13418864684E+04  0.14152293802E+04  0.10100000352E+00 0.  1.
</event>
<event>
 5   0  0.1484379E-05  0.2606321E+04  0.7818609E-02  0.8366057E-01
       -1   -1    0    0    0  501  0.00000000000E+00  0.00000000000E+00  0.62797341906E+03  0.62797341908E+03  0.50400001928E-02 0.  1.
        1   -1    0    0  501    0  0.00000000000E+00  0.00000000000E+00 -0.27042980271E+04  0.27042980271E+04  0.50400001928E-02 0. -1.
    10030    2    1    2    0    0  0.00000000000E+00  0.00000000000E+00 -0.20763246081E+04  0.33322714462E+04  0.26063209920E+04 0.  0.
        1    1    3    3  502    0  0.31071735266E+02 -0.80482968629E+03 -0.23479652639E+04  0.24822685506E+04  0.50400001928E-02 0. -1.
       -1    1    3    3    0  502 -0.31071735266E+02  0.80482968629E+03  0.27164065583E+03  0.85000289563E+03  0.50400001928E-02 0.  1.
</event>
<event>
 5   0  0.1449521E-05  0.1459032E+04  0.7818609E-02  0.8912163E-01
        1   -1    0    0  501    0  0.00000000000E+00  0.00000000000E+00  0.16620561354E+04  0.16620561354E+04  0.50400001928E-02 0. -1.
       -1   -1    0    0    0  501  0.00000000000E+00  0.00000000000E+00 -0.32020184238E+03  0.32020184242E+03  0.50400001928E-02 0.  1.
    10030    2    1    2    0    0  0.00000000000E+00  0.00000000000E+00  0.13418542930E+04  0.19822579778E+04  0.14590317841E+04 0.  0.
        3    1    3    3  502    0  0.62381376509E+03 -0.21930713202E+03  0.25227579323E+03  0.70773039904E+03  0.10100000352E+00 0. -1.
       -3    1    3    3    0  502 -0.62381376509E+03  0.21930713202E+03  0.10895784998E+04  0.12745275788E+04  0.10100000352E+00 0.  1.
</event>
<event>
 5   0  0.1228050E-05  0.2071819E+04  0.7818609E-02  0.8573760E-01
        3   -1    0    0  501    0  0.00000000000E+00  0.00000000000E+00  0.14499120802E+04  0.14499120837E+04  0.10100000352E+00 0.  1.
       -3   -1    0    0    0  501  0.00000000000E+00  0.00000000000E+00 -0.74011999992E+03  0.74012000681E+03  0.10100000352E+00 0. -1.
    10030    2    1    2    0    0  0.00000000000E+00  0.00000000000E+00  0.70979208029E+03  0.21900320905E+04  0.20718194324E+04 0.  0.
        2    1    3    3  502    0 -0.66937240789E+03  0.61368150914E+03  0.88177795497E+03  0.12657791186E+04  0.25500000920E-02 0.  1.
       -2    1    3    3    0  502  0.66937240789E+03 -0.61368150914E+03 -0.17198587468E+03  0.92425297198E+03  0.25500000920E-02 0. -1.
</event>
<event>
 5   0  0.1438701E-05  0.2149055E+04  0.7818609E-02  0.8539937E-01
       -1   -1    0    0    0  501  0.00000000000E+00  0.00000000000E+00  0.49092984820E+03  0.49092984823E+03  0.50400001928E-02 0. -1.
        1   -1    0    0  501    0  0.00000000000E+00  0.00000000000E+00 -0.23518824131E+04  0.23518824131E+04  0.50400001928E-02 0.  1.
    10030    2    1    2    0    0  0.00000000000E+00  0.00000000000E+00 -0.18609525649E+04  0.28428122613E+04  0.21490549328E+04 0.  0.
        4    1    3    3  502    0  0.56315347867E+01  0.78063824209E+03 -0.19071973931E+04  0.20607841440E+04  0.12699999809E+01 0.  1.
       -4    1    3    3    0  502 -0.56315347867E+01 -0.78063824209E+03  0.46244828201E+02  0.78202811729E+03  0.12699999809E+01 0. -1.
</event>
<event>
 5   0  0.1438701E-05  0.1885817E+04  0.7818609E-02  0.8661948E-01
       -1   -1    0    0    0  501  0.00000000000E+00  0.00000000000E+00  0.67079259416E+03  0.67079259418E+03  0.50400001928E-02 0. -1.
        1   -1    0    0  501    0  0.00000000000E+00  0.00000000000E+00 -0.13254119894E+04  0.13254119894E+04  0.50400001928E-02 0.  1.
    10030    2    1    2    0    0  0.00000000000E+00  0.00000000000E+00 -0.65461939520E+03  0.19962045836E+04  0.18858171138E+04 0.  0.
        4    1    3    3  502    0 -0.88696575836E+03 -0.14016528285E+03 -0.63175670681E+03  0.10979402135E+04  0.12699999809E+01 0.  1.
       -4    1    3    3    0  502  0.88696575836E+03  0.14016528285E+03 -0.22862688384E+02  0.89826437001E+03  0.12699999809E+01 0. -1.
</event>
<event>
 5   0  0.3652331E-05  0.2737443E+04  0.7818609E-02  0.8322957E-01
        2   -1    0    0  501    0  0.00000000000E+00  0.00000000000E+00  0.17213792391E+04  0.17213792391E+04  0.25500000920E-02 0.  1.
       -2   -1    0    0    0  501  0.00000000000E+00  0.00000000000E+00 -0.10883122955E+04  0.10883122955E+04  0.25500000920E-02 0. -1.
    10030    2    1    2    0    0  0.00000000000E+00  0.00000000000E+00  0.63306694360E+03  0.28096915346E+04  0.27374427417E+04 0.  0.
        1    1    3    3  502    0 -0.27799171753E+03 -0.11659573047E+04 -0.36171133584E+03  0.12520267257E+04  0.50400001928E-02 0. -1.
       -1    1    3    3    0  502  0.27799171753E+03  0.11659573047E+04  0.99477827944E+03  0.15576648088E+04  0.50400001928E-02 0.  1.
</event>
<event>
 5   0  0.3568647E-05  0.2619650E+04  0.7818609E-02  0.8361557E-01
       -2   -1    0    0    0  501  0.00000000000E+00  0.00000000000E+00  0.81969493093E+03  0.81969493093E+03  0.25500000920E-02 0.  1.
        2   -1    0    0  501    0  0.00000000000E+00  0.00000000000E+00 -0.20930240615E+04  0.20930240615E+04  0.25500000920E-02 0. -1.
    10030    2    1    2    0    0  0.00000000000E+00  0.00000000000E+00 -0.12733291306E+04  0.29127189924E+04  0.26196497579E+04 0.  0.
        3    1    3    3  502    0 -0.32604766563E+03 -0.15191331049E+03  0.76370305365E+03  0.84417243411E+03  0.10100000352E+00 0.  1.
       -3    1    3    3    0  502  0.32604766563E+03  0.15191331049E+03 -0.20370321842E+04  0.20685465583E+04  0.10100000352E+00 0. -1.
</event>
<event>
 5   0  0.1495517E-05  0.2680026E+04  0.7818609E-02  0.8341515E-01
       -1   -1    0    0    0  501  0.00000000000E+00  0.00000000000E+00  0.14870796846E+04  0.14870796846E+04  0.50400001928E-02 0.  1.
        1   -1    0    0  501    0  0.00000000000E+00  0.00000000000E+00 -0.12074903754E+04  0.12074903754E+04  0.50400001928E-02 0. -1.
    10030    2    1    2    0    0  0.00000000000E+00  0.00000000000E+00  0.27958930921E+03  0.26945700600E+04  0.26800256765E+04 0.  0.
        5    1    3    3  502    0 -0.10026887347E+04 -0.34068660728E+03  0.96532320408E+03  0.14329420928E+04  0.46999998093E+01 0.  1.
       -5    1    3    3    0  502  0.10026887347E+04  0.34068660728E+03 -0.68573389487E+03  0.12616279672E+04  0.46999998093E+01 0. -1.
</event>
<event>
 5   0  0.3514294E-05  0.2706879E+04  0.7818609E-02  0.8332776E-01
       -2   -1    0    0    0  501  0.00000000000E+00  0.00000000000E+00  0.91116364004E+03  0.91116364004E+03  0.25500000920E-02 0. -1.
        2   -1    0    0  501    0  0.00000000000E+00  0.00000000000E+00 -0.20103944526E+04  0.20103944526E+04  0.25500000920E-02 0.  1.
    10030    2    1    2    0    0  0.00000000000E+00  0.00000000000E+00 -0.10992308125E+04  0.29215580926E+04  0.27068788871E+04 0.  0.
        2    1    3    3  502    0 -0.75857575197E+03  0.65774870945E+03 -0.15291901085E+04  0.18293422108E+04  0.25500000920E-02 0.  1.
       -2    1    3    3    0  502  0.75857575197E+03 -0.65774870945E+03  0.42995929598E+03  0.10922158818E+04  0.25500000920E-02 0. -1.
</event>
<event>
 5   0  0.3676724E-05  0.2742013E+04  0.7818609E-02  0.8321500E-01
       -2   -1    0    0    0  501  0.00000000000E+00  0.00000000000E+00  0.13736520836E+04  0.13736520836E+04  0.25500000920E-02 0. -1.
        2   -1    0    0  501    0  0.00000000000E+00  0.00000000000E+00 -0.13683662516E+04  0.13683662516E+04  0.25500000920E-02 0.  1.
    10030    2    1    2    0    0  0.00000000000E+00  0.00000000000E+00  0.52858320492E+01  0.27420183352E+04  0.27420132404E+04 0.  0.
        4    1    3    3  502    0  0.50944455338E+03  0.81303467918E+03 -0.97669459540E+03  0.13691212832E+04  0.12699999809E+01 0.  1.
       -4    1    3    3    0  502 -0.50944455338E+03 -0.81303467918E+03  0.98198042745E+03  0.13728970520E+04  0.12699999809E+01 0. -1.
</event>
<event>
 5   0  0.1438701E-05  0.2763124E+04  0.7818609E-02  0.8314809E-01
        1   -1    0    0  501    0  0.00000000000E+00  0.00000000000E+00  0.19716204315E+04  0.19716204315E+04  0.50400001928E-02 0. -1.
       -1   -1    0    0    0  501  0.00000000000E+00  0.00000000000E+00 -0.96809353536E+03  0.96809353538E+03  0.50400001928E-02 0.  1.
    10030    2    1    2    0    0  0.00000000000E+00  0.00000000000E+00  0.10035268961E+04  0.29397139668E+04  0.27631235904E+04 0.  0.
        4    1    3    3  502    0  0.11503498647E+04  0.24283515892E+03 -0.27016711840E+03  0.12063439022E+04  0.12699999809E+01 0.  1.
       -4    1    3    3    0  502 -0.11503498647E+04 -0.24283515892E+03  0.12736940145E+04  0.17333700647E+04  0.12699999809E+01 0. -1.
</event>
<event>
 5   0  0.3497949E-05  0.2676681E+04  0.7818609E-02  0.8342611E-01
       -2   -1    0    0    0  501  0.00000000000E+00  0.00000000000E+00  0.12956223217E+04  0.12956223217E+04  0.25500000920E-02 0. -1.
        2   -1    0    0  501    0  0.00000000000E+00  0.00000000000E+00 -0.13824668018E+04  0.13824668018E+04  0.25500000920E-02 0.  1.
    10030    2    1    2    0    0  0.00000000000E+00  0.00000000000E+00 -0.86844480099E+02  0.26780891235E+04  0.26766806664E+04 0.  0.
        5    1    3    3  502    0  0.12739196844E+03 -0.12649767452E+04 -0.46165879859E+03  0.13526070441E+04  0.46999998093E+01 0.  1.
       -5    1    3    3    0  502 -0.12739196844E+03  0.12649767452E+04  0.37481431849E+03  0.13254820794E+04  0.46999998093E+01 0. -1.
</event>
<event>
 5   0  0.3568647E-05  0.1756466E+04  0.7818609E-02  0.8729799E-01
        2   -1    0    0  501    0  0.00000000000E+00  0.00000000000E+00  0.10083780351E+04  0.10083780351E+04  0.25500000920E-02 0.  1.
       -2   -1    0    0    0  501  0.00000000000E+00  0.00000000000E+00 -0.76488533484E+03  0.76488533484E+03  0.25500000920E-02 0. -1.
    10030    2    1    2    0    0  0.00000000000E+00  0.00000000000E+00  0.24349270029E+03  0.17732633700E+04  0.17564664199E+04 0.  0.
        3    1    3    3  502    0  0.83410211711E+03 -0.16936390770E+03 -0.96849285205E+02  0.85661559012E+03  0.10100000352E+00 0. -1.
       -3    1    3    3    0  502 -0.83410211711E+03  0.16936390770E+03  0.34034198549E+03  0.91664777984E+03  0.10100000352E+00 0.  1.
</event>
<event>
 5   0  0.1438701E-05  0.1867336E+04  0.7818609E-02  0.8671288E-01
       -1   -1    0    0    0  501  0.00000000000E+00  0.00000000000E+00  0.13225948281E+04  0.13225948281E+04  0.50400001928E-02 0. -1.
        1   -1    0    0  501    0  0.00000000000E+00  0.00000000000E+00 -0.65911013975E+03  0.65911013977E+03  0.50400001928E-02 0.  1.
    10030    2    1    2    0    0  0.00000000000E+00  0.00000000000E+00  0.66348468836E+03  0.19817049679E+04  0.18673357085E+04 0.  0.
        4    1    3    3  502    0 -0.45393407639E+03  0.66711880319E+03 -0.16673942299E+03  0.82395830681E+03  0.12699999809E+01 0.  1.
       -4    1    3    3    0  502  0.45393407639E+03 -0.66711880319E+03  0.83022411135E+03  0.11577466611E+04  0.12699999809E+01 0. -1.
</event>
<event>
 5   0  0.1449521E-05  0.2663929E+04  0.7818609E-02  0.8346805E-01
        1   -1    0    0  501    0  0.00000000000E+00  0.00000000000E+00  0.16841429354E+04  0.16841429354E+04  0.50400001928E-02 0.  1.
       -1   -1    0    0    0  501  0.00000000000E+00  0.00000000000E+00 -0.10534312321E+04  0.10534312321E+04  0.50400001928E-02 0. -1.
    10030    2    1    2    0    0  0.00000000000E+00  0.00000000000E+00  0.63071170329E+03  0.27375741675E+04  0.26639285032E+04 0.  0.
        3    1    3    3  502    0  0.13675518926E+03 -0.92878926024E+03 -0.65563445758E+03  0.11450799203E+04  0.10100000352E+00 0. -1.
       -3    1    3    3    0  502 -0.13675518926E+03  0.92878926024E+03  0.12863461609E+04  0.15924942472E+04  0.10100000352E+00 0.  1.
</event>
<event>
 5   0  0.3676724E-05  0.2043188E+04  0.7818609E-02  0.8586691E-01
        2   -1    0    0  501    0  0.00000000000E+00  0.00000000000E+00  0.10582338818E+04  0.10582338818E+04  0.25500000920E-02 0. -1.
       -2   -1    0    0    0  501  0.00000000000E+00  0.00000000000E+00 -0.98622241313E+03  0.98622241313E+03  0.25500000920E-02 0.  1.
    10030    2    1    2    0    0  0.00000000000E+00  0.00000000000E+00  0.72011468687E+02  0.20444562949E+04  0.20431876787E+04 0.  0.
        4    1    3    3  502    0  0.80885426612E+03  0.17639218603E+03  0.63495314374E+03  0.10433247504E+04  0.12699999809E+01 0. -1.
       -4    1    3    3    0  502 -0.80885426612E+03 -0.17639218603E+03 -0.56294167505E+03  0.10011315446E+04  0.12699999809E+01 0.  1.
</event>
<event>
 5   0  0.3568647E-05  0.2598401E+04  0.7818609E-02  0.8368745E-01
       -2   -1    0    0    0  501  0.00000000000E+00  0.00000000000E+00  0.75147521439E+03  0.75147521440E+03  0.25500000920E-02 0. -1.
        2   -1    0    0  501    0  0.00000000000E+00  0.00000000000E+00 -0.22461437876E+04  0.22461437876E+04  0.25500000920E-02 0.  1.
    10030    2    1    2    0    0  0.00000000000E+00  0.00000000000E+00 -0.14946685732E+04  0.29976190020E+04  0.25984005730E+04 0.  0.
        3    1    3    3  502    0 -0.71353060824E+03  0.95953049452E+03 -0.13334205397E+04  0.17910430047E+04  0.10100000352E+00 0.  1.
       -3    1    3    3    0  502  0.71353060824E+03 -0.95953049452E+03 -0.16124803355E+03  0.12065759973E+04  0.10100000352E+00 0. -1.
</event>
<event>
 5   0  0.3514294E-05  0.2747851E+04  0.7818609E-02  0.8319644E-01
       -2   -1    0    0    0  501  0.00000000000E+00  0.00000000000E+00  0.11329161163E+04  0.11329161163E+04  0.25500000920E-02 0. -1.
        2   -1    0    0  501    0  0.00000000000E+00  0.00000000000E+00 -0.16662055431E+04  0.16662055432E+04  0.25500000920E-02 0.  1.
    10030    2    1    2    0    0  0.00000000000E+00  0.00000000000E+00 -0.53328942683E+03  0.27991216595E+04  0.27478508787E+04 0.  0.
        2    1    3    3  502    0 -0.10614895435E+04  0.84001014251E+03 -0.27110415551E+02  0.13539246896E+04  0.25500000920E-02 0. -1.
       -2    1    3    3    0  502  0.10614895435E+04 -0.84001014251E+03 -0.50617901128E+03  0.14451969699E+04  0.25500000920E-02 0.  1.
</event>
<event>
 5   0  0.3514294E-05  0.2689574E+04  0.7818609E-02  0.8338396E-01
       -2   -1    0    0    0  501  0.00000000000E+00  0.00000000000E+00  0.20161269937E+04  0.20161269937E+04  0.25500000920E-02 0. -1.
        2   -1    0    0  501    0  0.00000000000E+00  0.00000000000E+00 -0.89699315054E+03  0.89699315054E+03  0.25500000920E-02 0.  1.
    10030    2    1    2    0    0  0.00000000000E+00  0.00000000000E+00  0.11191338432E+04  0.29131201442E+04  0.26895740213E+04 0.  0.
        2    1    3    3  502    0  0.42449017382E+03 -0.11989923698E+04  0.86606703901E+02  0.12748628678E+04  0.25500000920E-02 0.  1.
       -2    1    3    3    0  502 -0.42449017382E+03  0.11989923698E+04  0.10325271393E+04  0.16382572764E+04  0.25500000920E-02 0. -1.
</event>
<event>
 5   0  0.3676724E-05  0.2708829E+04  0.7818609E-02  0.8332146E-01
        2   -1    0    0  501    0  0.00000000000E+00  0.00000000000E+00  0.16474797850E+04  0.16474797850E+04  0.25500000920E-02 0. -1.
       -2   -1    0    0    0  501  0.00000000000E+00  0.00000000000E+00 -0.11134817404E+04  0.11134817404E+04  0.25500000920E-02 0.  1.
    10030    2    1    2    0    0  0.00000000000E+00  0.00000000000E+00  0.53399804456E+03  0.27609615254E+04  0.27088290151E+04 0.  0.
        4    1    3    3  502    0 -0.51281893267E+03  0.45509371356E+03 -0.92353174926E+03  0.11502200010E+04  0.12699999809E+01 0.  1.
       -4    1    3    3    0  502  0.51281893267E+03 -0.45509371356E+03  0.14575297938E+04  0.16107415245E+04  0.12699999809E+01 0. -1.
</event>
<event>
 5   0  0.3497949E-05  0.2630229E+04  0.7818609E-02  0.8358005E-01
       -2   -1    0    0    0  501  0.00000000000E+00  0.00000000000E+00  0.99653794217E+03  0.99653794218E+03  0.25500000920E-02 0.  1.
        2   -1    0    0  501    0  0.00000000000E+00  0.00000000000E+00 -0.17355351985E+04  0.17355351985E+04  0.25500000920E-02 0. -1.
    10030    2    1    2    0    0  0.00000000000E+00  0.00000000000E+00 -0.73899725636E+03  0.27320731407E+04  0.26302294009E+04 0.  0.
        5    1    3    3  502    0 -0.44279038068E+03 -0.12381582799E+04 -0.39041119769E+03  0.13716932020E+04  0.46999998093E+01 0. -1.
       -5    1    3    3    0  502  0.44279038068E+03  0.12381582799E+04 -0.34858605867E+03  0.13603799387E+04  0.46999998093E+01 0.  1.
</event>
<event>
 5   0  0.3497949E-05  0.2460597E+04  0.7818609E-02  0.8417159E-01
        2   -1    0    0  501    0  0.00000000000E+00  0.00000000000E+00  0.16380102117E+04  0.16380102117E+04  0.25500000920E-02 0.  1.
       -2   -1    0    0    0  501  0.00000000000E+00  0.00000000000E+00 -0.92406884700E+03  0.92406884700E+03  0.25500000920E-02 0. -1.
    10030    2    1    2    0    0  0.00000000000E+00  0.00000000000E+00  0.71394136467E+03  0.25620790587E+04  0.24605968444E+04 0.  0.
        5    1    3    3  502    0 -0.93736973971E+03 -0.59594919089E+03 -0.19380120851E+03  0.11275630650E+04  0.46999998093E+01 0.  1.
       -5    1    3    3    0  502  0.93736973971E+03  0.59594919089E+03  0.90774257319E+03  0.14345159937E+04  0.46999998093E+01 0. -1.
</event>
<event>
 5   0  0.3568647E-05  0.2763358E+04  0.7818609E-02  0.8314735E-01
        2   -1    0    0  501    0  0.00000000000E+00  0.00000000000E+00  0.12711961618E+04  0.12711961618E+04  0.25500000920E-02 0.  1.
       -2   -1    0    0    0  501  0.00000000000E+00  0.00000000000E+00 -0.15017643370E+04  0.15017643370E+04  0.25500000920E-02 0. -1.
    10030    2    1    2    0    0  0.00000000000E+00  0.00000000000E+00 -0.23056817517E+03  0.27729604988E+04  0.27633581463E+04 0.  0.
        3    1    3    3  502    0 -0.12120995308E+04  0.99018691388E+01  0.55015954543E+03  0.13311494489E+04  0.10100000352E+00 0.  1.
       -3    1    3    3    0  502  0.12120995308E+04 -0.99018691388E+01 -0.78072772060E+03  0.14418110499E+04  0.10100000352E+00 0. -1.
</event>
<event>
 5   0  0.1484379E-05  0.2723446E+04  0.7818609E-02  0.8327438E-01
       -1   -1    0    0    0  501  0.00000000000E+00  0.00000000000E+00  0.15494509799E+04  0.15494509799E+04  0.50400001928E-02 0.  1.
        1   -1    0    0  501    0  0.00000000000E+00  0.00000000000E+00 -0.11967394298E+04  0.11967394298E+04  0.50400001928E-02 0. -1.
    10030    2    1    2    0    0  0.00000000000E+00  0.00000000000E+00  0.35271155008E+03  0.27461904098E+04  0.27234456721E+04 0.  0.
        1    1    3    3  502    0  0.38978620569E+03 -0.23306363979E+03  0.14708360189E+04  0.15393539361E+04  0.50400001928E-02 0.  1.
       -1    1    3    3    0  502 -0.38978620569E+03  0.23306363979E+03 -0.11181244688E+04  0.12068364736E+04  0.50400001928E-02 0. -1.
</event>
<event>
 5   0  0.1484379E-05  0.2691463E+04  0.7818609E-02  0.8337780E-01
        1   -1    0    0  501    0  0.00000000000E+00  0.00000000000E+00  0.16785332473E+04  0.16785332473E+04  0.50400001928E-02 0.  1.
       -1   -1    0    0    0  501  0.00000000000E+00  0.00000000000E+00 -0.10789141618E+04  0.10789141618E+04  0.50400001928E-02 0. -1.
    10030    2    1    2    0    0  0.00000000000E+00  0.00000000000E+00  0.59961908553E+03  0.27574474091E+04  0.26914630160E+04 0.  0.
        1    1    3    3  502    0 -0.10464856911E+04 -0.84239908564E+03  0.21897806975E+03  0.13611465447E+04  0.50400001928E-02 0.  1.
       -1    1    3    3    0  502  0.10464856911E+04  0.84239908564E+03  0.38064101578E+03  0.13963008644E+04  0.50400001928E-02 0. -1.
</event>
<event>
 5   0  0.3514294E-05  0.2445410E+04  0.7818609E-02  0.8422696E-01
       -2   -1    0    0    0  501  0.00000000000E+00  0.00000000000E+00  0.25013080829E+04  0.25013080829E+04  0.25500000920E-02 0.  1.
        2   -1    0    0  501    0  0.00000000000E+00  0.00000000000E+00 -0.59769010902E+03  0.59769010903E+03  0.25500000920E-02 0. -1.
    10030    2    1    2    0    0  0.00000000000E+00  0.00000000000E+00  0.19036179739E+04  0.30989981919E+04  0.24454096596E+04 0.  0.
        2    1    3    3  502    0  0.72448160146E+03 -0.54293015182E+03 -0.89638755024E+02  0.90977021660E+03  0.25500000920E-02 0. -1.
       -2    1    3    3    0  502 -0.72448160146E+03  0.54293015182E+03  0.19932567289E+04  0.21892279753E+04  0.25500000920E-02 0.  1.
</event>
<event>
 5   0  0.3676724E-05  0.2724087E+04  0.7818609E-02  0.8327232E-01
        2   -1    0    0  501    0  0.00000000000E+00  0.00000000000E+00  0.97217583270E+03  0.97217583270E+03  0.25500000920E-02 0.  1.
       -2   -1    0    0    0  501  0.00000000000E+00  0.00000000000E+00 -0.19082575755E+04  0.19082575755E+04  0.25500000920E-02 0. -1.
    10030    2    1    2    0    0  0.00000000000E+00  0.00000000000E+00 -0.93608174276E+03  0.28804334082E+04  0.27240865606E+04 0.  0.
        4    1    3    3  502    0 -0.53694659354E+03 -0.15100158330E+03  0.84587396467E+03  0.10132213477E+04  0.12699999809E+01 0.  1.
       -4    1    3    3    0  502  0.53694659354E+03  0.15100158330E+03 -0.17819557074E+04  0.18672120604E+04  0.12699999809E+01 0. -1.
</event>
<event>
 5   0  0.1495517E-05  0.2289807E+04  0.7818609E-02  0.8481951E-01
        1   -1    0    0  501    0  0.00000000000E+00  0.00000000000E+00  0.19860735763E+04  0.19860735763E+04  0.50400001928E-02 0.  1.
       -1   -1    0    0    0  501  0.00000000000E+00  0.00000000000E+00 -0.65999781214E+03  0.65999781216E+03  0.50400001928E-02 0. -1.
    10030    2    1    2    0    0  0.00000000000E+00  0.00000000000E+00  0.13260757642E+04  0.26460713885E+04  0.22898071667E+04 0.  0.
        5    1    3    3  502    0  0.22679927211E+03  0.88621774999E+03  0.14586008377E+04  0.17217311939E+04  0.46999998093E+01 0.  1.
       -5    1    3    3    0  502 -0.22679927211E+03 -0.88621774999E+03 -0.13252507353E+03  0.92434019459E+03  0.46999998093E+01 0. -1.
</event>
<event>
 5   0  0.1228050E-05  0.2679276E+04  0.7818609E-02  0.8341761E-01
        3   -1    0    0  501    0  0.00000000000E+00  0.00000000000E+00  0.86653813711E+03  0.86653814299E+03  0.10100000352E+00 0. -1.
       -3   -1    0    0    0  501  0.00000000000E+00  0.00000000000E+00 -0.20710341399E+04  0.20710341424E+04  0.10100000352E+00 0.  1.
    10030    2    1    2    0    0  0.00000000000E+00  0.00000000000E+00 -0.12044960028E+04  0.29375722854E+04  0.26792760797E+04 0.  0.
        5    1    3    3  502    0  0.17632286141E+01 -0.67596626838E+01 -0.20710051336E+04  0.20710222489E+04  0.46999998093E+01 0.  1.
       -5    1    3    3    0  502 -0.17632286141E+01  0.67596626838E+01  0.86650913078E+03  0.86655003649E+03  0.46999998093E+01 0. -1.
</event>
<event>
 5   0  0.3652331E-05  0.2406593E+04  0.7818609E-02  0.8437039E-01
        2   -1    0    0  501    0  0.00000000000E+00  0.00000000000E+00  0.20767030427E+04  0.20767030427E+04  0.25500000920E-02 0. -1.
       -2   -1    0    0    0  501  0.00000000000E+00  0.00000000000E+00 -0.69722183286E+03  0.69722183287E+03  0.25500000920E-02 0.  1.
    10030    2    1    2    0    0  0.00000000000E+00  0.00000000000E+00  0.13794812099E+04  0.27739248756E+04  0.24065931952E+04 0.  0.
        1    1    3    3  502    0 -0.63747056619E+03 -0.64463361985E+03 -0.22222758292E+03  0.93343790647E+03  0.50400001928E-02 0.  1.
       -1    1    3    3    0  502  0.63747056619E+03  0.64463361985E+03  0.16017087928E+04  0.18404869691E+04  0.50400001928E-02 0. -1.
</event>
<event>
 5   0  0.1495517E-05  0.1870992E+04  0.7818609E-02  0.8669432E-01
       -1   -1    0    0    0  501  0.00000000000E+00  0.00000000000E+00  0.12617463093E+04  0.12617463093E+04  0.50400001928E-02 0.  1.
        1   -1    0    0  501    0  0.00000000000E+00  0.00000000000E+00 -0.69360451284E+03  0.69360451286E+03  0.50400001928E-02 0. -1.
    10030    2    1    2    0    0  0.00000000000E+00  0.00000000000E+00  0.56814179641E+03  0.19553508221E+04  0.18709921798E+04 0.  0.
        5    1    3    3  502    0  0.66021568812E+03  0.29591802718E+03  0.90383396710E+03  0.11577522031E+04  0.46999998093E+01 0.  1.
       -5    1    3    3    0  502 -0.66021568812E+03 -0.29591802718E+03 -0.33569217069E+03  0.79759861905E+03  0.46999998093E+01 0. -1.
</event>
<event>
 5   0  0.1438701E-05  0.2058775E+04  0.7818609E-02  0.8579624E-01
        1   -1    0    0  501    0  0.00000000000E+00  0.00000000000E+00  0.82150115794E+03  0.82150115795E+03  0.50400001928E-02 0.  1.
       -1   -1    0    0    0  501  0.00000000000E+00  0.00000000000E+00 -0.12898811180E+04  0.12898811181E+04  0.50400001928E-02 0. -1.
    10030    2    1    2    0    0  0.00000000000E+00  0.00000000000E+00 -0.46837996010E+03  0.21113822760E+04  0.20587752010E+04 0.  0.
        4    1    3    3  502    0 -0.43891681493E+03  0.18752214660E+03  0.70115936722E+03  0.84819726305E+03  0.12699999809E+01 0.  1.
       -4    1    3    3    0  502  0.43891681493E+03 -0.18752214660E+03 -0.11695393273E+04  0.12631850130E+04  0.12699999809E+01 0. -1.
</event>
<event>
 5   0  0.1484379E-05  0.2768893E+04  0.7818609E-02  0.8312991E-01
       -1   -1    0    0    0  501  0.00000000000E+00  0.00000000000E+00  0.16985924856E+04  0.16985924856E+04  0.50400001928E-02 0.  1.
        1   -1    0    0  501    0  0.00000000000E+00  0.00000000000E+00 -0.11284001119E+04  0.11284001119E+04  0.50400001928E-02 0. -1.
    10030    2    1    2    0    0  0.00000000000E+00  0.00000000000E+00  0.57019237367E+03  0.28269925976E+04  0.27688928841E+04 0.  0.
        1    1    3    3  502    0  0.33404409861E+03 -0.11849945422E+04 -0.36135170740E+03  0.12831105102E+04  0.50400001928E-02 0.  1.
       -1    1    3    3    0  502 -0.33404409861E+03  0.11849945422E+04  0.93154408107E+03  0.15438820874E+04  0.50400001928E-02 0. -1.
</event>
<event>
 5   0  0.1484379E-05  0.2367260E+04  0.7818609E-02  0.8451864E-01
       -1   -1    0    0    0  501  0.00000000000E+00  0.00000000000E+00  0.93317231209E+03  0.93317231210E+03  0.50400001928E-02 0. -1.
        1   -1    0    0  501    0  0.00000000000E+00  0.00000000000E+00 -0.15013089825E+04  0.15013089825E+04  0.50400001928E-02 0.  1.
    10030    2    1    2    0    0  0.00000000000E+00  0.00000000000E+00 -0.56813667044E+03  0.24344812946E+04  0.23672599979E+04 0.  0.
        1    1    3    3  502    0  0.61868725351E+03  0.29714679252E+03  0.70763301448E+03  0.98580658203E+03  0.50400001928E-02 0. -1.
       -1    1    3    3    0  502 -0.61868725351E+03 -0.29714679252E+03 -0.12757696849E+04  0.14486747126E+04  0.50400001928E-02 0.  1.
</event>
<event>
 5   0  0.1484379E-05  0.2637551E+04  0.7818609E-02  0.8355557E-01
       -1   -1    0    0    0  501  0.00000000000E+00  0.00000000000E+00  0.12143263921E+04  0.12143263921E+04  0.50400001928E-02 0. -1.
        1   -1    0    0  501    0  0.00000000000E+00  0.00000000000E+00 -0.14322086943E+04  0.14322086943E+04  0.50400001928E-02 0.  1.
    10030    2    1    2    0    0  0.00000000000E+00  0.00000000000E+00 -0.21788230221E+03  0.26465350864E+04  0.26375509978E+04 0.  0.
        1    1    3    3  502    0  0.74291137621E+03  0.10896029333E+04 -0.11307238009E+03  0.13236076565E+04  0.50400001928E-02 0.  1.
       -1    1    3    3    0  502 -0.74291137621E+03 -0.10896029333E+04 -0.10480992212E+03  0.13229274299E+04  0.50400001928E-02 0. -1.
</event>
<event>
 5   0  0.1474012E-05  0.2714680E+04  0.7818609E-02  0.8330257E-01
       -1   -1    0    0    0  501  0.00000000000E+00  0.00000000000E+00  0.97617508479E+03  0.97617508481E+03  0.50400001928E-02 0.  1.
        1   -1    0    0  501    0  0.00000000000E+00  0.00000000000E+00 -0.18873376721E+04  0.18873376721E+04  0.50400001928E-02 0. -1.
    10030    2    1    2    0    0  0.00000000000E+00  0.00000000000E+00 -0.91116258733E+03  0.28635127569E+04  0.27146801006E+04 0.  0.
        2    1    3    3  502    0 -0.32232409331E+03  0.67865241957E+03 -0.16480050272E+04  0.18111826239E+04  0.25500000920E-02 0. -1.
       -2    1    3    3    0  502  0.32232409331E+03 -0.67865241957E+03  0.73684243982E+03  0.10523301330E+04  0.25500000920E-02 0.  1.
</event>
<event>
 5   0  0.1495517E-05  0.2750218E+04  0.7818609E-02  0.8318893E-01
       -1   -1    0    0    0  501  0.00000000000E+00  0.00000000000E+00  0.11996882927E+04  0.11996882927E+04  0.50400001928E-02 0. -1.
        1   -1    0    0  501    0  0.00000000000E+00  0.00000000000E+00 -0.15761798463E+04  0.15761798463E+04  0.50400001928E-02 0.  1.
    10030    2    1    2    0    0  0.00000000000E+00  0.00000000000E+00 -0.37649155358E+03  0.27758681390E+04  0.27502178160E+04 0.  0.
        5    1    3    3  502    0 -0.11391828756E+04  0.70626022368E+03  0.12180204074E+03  0.13458822217E+04  0.46999998093E+01 0. -1.
       -5    1    3    3    0  502  0.11391828756E+04 -0.70626022368E+03 -0.49829359432E+03  0.14299859173E+04  0.46999998093E+01 0.  1.
</event>
<event>
 5   0  0.3568647E-05  0.3034956E+04  0.7818609E-02  0.8233819E-01
       -2   -1    0    0    0  501  0.00000000000E+00  0.00000000000E+00  0.17495286879E+04  0.17495286879E+04  0.25500000920E-02 0.  1.
        2   -1    0    0  501    0  0.00000000000E+00  0.00000000000E+00 -0.13162052406E+04  0.13162052406E+04  0.25500000920E-02 0. -1.
    10030    2    1    2    0    0  0.00000000000E+00  0.00000000000E+00  0.43332344729E+03  0.30657339286E+04  0.30349555698E+04 0.  0.
        3    1    3    3  502    0 -0.61705136182E+01 -0.12768631982E+04  0.10449289903E+04  0.16499376676E+04  0.10100000352E+00 0.  1.
       -3    1    3    3    0  502  0.61705136182E+01  0.12768631982E+04 -0.61160554301E+03  0.14157962610E+04  0.10100000352E+00 0. -1.
</event>
<event>
 5   0  0.1449521E-05  0.2706436E+04  0.7818609E-02  0.8332920E-01
       -1   -1    0    0    0  501  0.00000000000E+00  0.00000000000E+00  0.91139041208E+03  0.91139041209E+03  0.50400001928E-02 0.  1.
        1   -1    0    0  501    0  0.00000000000E+00  0.00000000000E+00 -0.20092359469E+04  0.20092359469E+04  0.50400001928E-02 0. -1.
    10030    2    1    2    0    0  0.00000000000E+00  0.00000000000E+00 -0.10978455349E+04  0.29206263590E+04  0.27064355730E+04 0.  0.
        3    1    3    3  502    0 -0.33454068093E+03  0.12266086565E+04 -0.10489648685E+04  0.16482759383E+04  0.10100000352E+00 0. -1.
       -3    1    3    3    0  502  0.33454068093E+03 -0.12266086565E+04 -0.48880666397E+02  0.12723504207E+04  0.10100000352E+00 0.  1.
</event>
<event>
 5   0  0.1474012E-05  0.2014124E+04  0.7818609E-02  0.8600045E-01
       -1   -1    0    0    0  501  0.00000000000E+00  0.00000000000E+00  0.45300528212E+03  0.45300528215E+03  0.50400001928E-02 0.  1.
        1   -1    0    0  501    0  0.00000000000E+00  0.00000000000E+00 -0.22387693894E+04  0.22387693894E+04  0.50400001928E-02 0. -1.
    10030    2    1    2    0    0  0.00000000000E+00  0.00000000000E+00 -0.17857641073E+04  0.26917746716E+04  0.20141244836E+04 0.  0.
        2    1    3    3  502    0 -0.92311479021E+03  0.18054209197E+03 -0.13737028947E+04  0.16648711679E+04  0.25500000920E-02 0. -1.
       -2    1    3    3    0  502  0.92311479021E+03 -0.18054209197E+03 -0.41206121260E+03  0.10269035037E+04  0.25500000920E-02 0.  1.
</event>
<event>
 5   0  0.3497949E-05  0.2642286E+04  0.7818609E-02  0.8353978E-01
       -2   -1    0    0    0  501  0.00000000000E+00  0.00000000000E+00  0.10490693460E+04  0.10490693460E+04  0.25500000920E-02 0. -1.
        2   -1    0    0  501    0  0.00000000000E+00  0.00000000000E+00 -0.16637778739E+04  0.16637778739E+04  0.25500000920E-02 0.  1.
    10030    2    1    2    0    0  0.00000000000E+00  0.00000000000E+00 -0.61470852786E+03  0.27128472200E+04  0.26422856516E+04 0.  0.
        5    1    3    3  502    0 -0.65648544108E+03  0.20829543606E+03 -0.14648636508E+04  0.16187055719E+04  0.46999998093E+01 0.  1.
       -5    1    3    3    0  502  0.65648544108E+03 -0.20829543606E+03  0.85015512292E+03  0.10941416481E+04  0.46999998093E+01 0. -1.
</event>
<event>
 5   0  0.3568647E-05  0.2800394E+04  0.7818609E-02  0.8303146E-01
        2   -1    0    0  501    0  0.00000000000E+00  0.00000000000E+00  0.18107401837E+04  0.18107401837E+04  0.25500000920E-02 0. -1.
       -2   -1    0    0    0  501  0.00000000000E+00  0.00000000000E+00 -0.10827351134E+04  0.10827351134E+04  0.25500000920E-02 0.  1.
    10030    2    1    2    0    0  0.00000000000E+00  0.00000000000E+00  0.72800507036E+03  0.28934752971E+04  0.28003942423E+04 0.  0.
        3    1    3    3  502    0 -0.16616490961E+03  0.30383762942E+03  0.17657930908E+04  0.17994313913E+04  0.10100000352E+00 0. -1.
       -3    1    3    3    0  502  0.16616490961E+03 -0.30383762942E+03 -0.10377880204E+04  0.10940439058E+04  0.10100000352E+00 0.  1.
</event>
<event>
 5   0  0.1484379E-05  0.2567417E+04  0.7818609E-02  0.8379354E-01
        1   -1    0    0  501    0  0.00000000000E+00  0.00000000000E+00  0.12714759518E+04  0.12714759518E+04  0.50400001928E-02 0. -1.
       -1   -1    0    0    0  501  0.00000000000E+00  0.00000000000E+00 -0.12960584637E+04  0.12960584638E+04  0.50400001928E-02 0.  1.
    10030    2    1    2    0    0  0.00000000000E+00  0.00000000000E+00 -0.24582511960E+02  0.25675344156E+04  0.25674167319E+04 0.  0.
        1    1    3    3  502    0 -0.11993784948E+04 -0.36411433175E+03 -0.28946663541E+03  0.12864209861E+04  0.50400001928E-02 0.  1.
       -1    1    3    3    0  502  0.11993784948E+04  0.36411433175E+03  0.26488412345E+03  0.12811134295E+04  0.50400001928E-02 0. -1.
</event>
<event>
 5   0  0.3676724E-05  0.2799356E+04  0.7818609E-02  0.8303468E-01
       -2   -1    0    0    0  501  0.00000000000E+00  0.00000000000E+00  0.10703642234E+04  0.10703642234E+04  0.25500000920E-02 0.  1.
        2   -1    0    0  501    0  0.00000000000E+00  0.00000000000E+00 -0.18303100991E+04  0.18303100991E+04  0.25500000920E-02 0. -1.
    10030    2    1    2    0    0  0.00000000000E+00  0.00000000000E+00 -0.75994587568E+03  0.29006743224E+04  0.27993559600E+04 0.  0.
        4    1    3    3  502    0  0.66766098748E+03  0.95585351474E+02  0.89087052850E+03  0.11173896657E+04  0.12699999809E+01 0.  1.
       -4    1    3    3    0  502 -0.66766098748E+03 -0.95585351474E+02 -0.16508164042E+04  0.17832846567E+04  0.12699999809E+01 0. -1.
</event>
<event>
 5   0  0.3652331E-05  0.2766786E+04  0.7818609E-02  0.8313655E-01
       -2   -1    0    0    0  501  0.00000000000E+00  0.00000000000E+00  0.96587719441E+03  0.96587719441E+03  0.25500000920E-02 0. -1.
        2   -1    0    0  501    0  0.00000000000E+00  0.00000000000E+00 -0.19813867996E+04  0.19813867996E+04  0.25500000920E-02 0.  1.
    10030    2    1    2    0    0  0.00000000000E+00  0.00000000000E+00 -0.10155096052E+04  0.29472639941E+04  0.27667860944E+04 0.  0.
        1    1    3    3  502    0 -0.69391298871E+03  0.36113075875E+03  0.70765631428E+03  0.10548498092E+04  0.50400001928E-02 0. -1.
       -1    1    3    3    0  502  0.69391298871E+03 -0.36113075875E+03 -0.17231659195E+04  0.18924141848E+04  0.50400001928E-02 0.  1.
</event>
<event>
 5   0  0.3568647E-05  0.2739090E+04  0.7818609E-02  0.8322432E-01
        2   -1    0    0  501    0  0.00000000000E+00  0.00000000000E+00  0.21688644665E+04  0.21688644665E+04  0.25500000920E-02 0.  1.
       -2   -1    0    0    0  501  0.00000000000E+00  0.00000000000E+00 -0.86480884930E+03  0.86480884931E+03  0.25500000920E-02 0. -1.
    10030    2    1    2    0    0  0.00000000000E+00  0.00000000000E+00  0.13040556172E+04  0.30336733158E+04  0.27390897638E+04 0.  0.
        3    1    3    3  502    0  0.25514549429E+03  0.60059532656E+03  0.19856182257E+04  0.20900941887E+04  0.10100000352E+00 0.  1.
       -3    1    3    3    0  502 -0.25514549429E+03 -0.60059532656E+03 -0.68156260847E+03  0.94357912706E+03  0.10100000352E+00 0. -1.
</event>
<event>
 5   0  0.1495517E-05  0.2680530E+04  0.7818609E-02  0.8341350E-01
       -1   -1    0    0    0  501  0.00000000000E+00  0.00000000000E+00  0.80521593904E+03  0.80521593906E+03  0.50400001928E-02 0. -1.
        1   -1    0    0  501    0  0.00000000000E+00  0.00000000000E+00 -0.22308429411E+04  0.22308429411E+04  0.50400001928E-02 0.  1.
    10030    2    1    2    0    0  0.00000000000E+00  0.00000000000E+00 -0.14256270020E+04  0.30360588801E+04  0.26805300175E+04 0.  0.
        5    1    3    3  502    0 -0.71779638578E+02  0.42153444852E+03 -0.21515012428E+04  0.21935868561E+04  0.46999998093E+01 0.  1.
       -5    1    3    3    0  502  0.71779638578E+02 -0.42153444852E+03  0.72587424076E+03  0.84247202398E+03  0.46999998093E+01 0. -1.
</event>
<event>
 5   0  0.1474012E-05  0.2682516E+04  0.7818609E-02  0.8340700E-01
       -1   -1    0    0    0  501  0.00000000000E+00  0.00000000000E+00  0.15121202886E+04  0.15121202887E+04  0.50400001928E-02 0.  1.
        1   -1    0    0  501    0  0.00000000000E+00  0.00000000000E+00 -0.11897024866E+04  0.11897024866E+04  0.50400001928E-02 0. -1.
    10030    2    1    2    0    0  0.00000000000E+00  0.00000000000E+00  0.32241780208E+03  0.27018227752E+04  0.26825161826E+04 0.  0.
        2    1    3    3  502    0  0.34791805981E+03  0.10430629947E+04 -0.61239846086E+03  0.12585941610E+04  0.25500000920E-02 0. -1.
       -2    1    3    3    0  502 -0.34791805981E+03 -0.10430629947E+04  0.93481626294E+03  0.14432286142E+04  0.25500000920E-02 0.  1.
</event>
<event>
 5   0  0.1484379E-05  0.2750935E+04  0.7818609E-02  0.8318665E-01
       -1   -1    0    0    0  501  0.00000000000E+00  0.00000000000E+00  0.11440089830E+04  0.11440089830E+04  0.50400001928E-02 0.  1.
        1   -1    0    0  501    0  0.00000000000E+00  0.00000000000E+00 -0.16537554224E+04  0.16537554224E+04  0.50400001928E-02 0. -1.
    10030    2    1    2    0    0  0.00000000000E+00  0.00000000000E+00 -0.50974643933E+03  0.27977644054E+04  0.27509351566E+04 0.  0.
        1    1    3    3  502    0 -0.13333207196E+04  0.25539750876E+03 -0.47986075892E+03  0.14398744309E+04  0.50400001928E-02 0.  1.
       -1    1    3    3    0  502  0.13333207196E+04 -0.25539750876E+03 -0.29885680413E+02  0.13578899745E+04  0.50400001928E-02 0. -1.
</event>
<event>
 5   0  0.3514294E-05  0.1375991E+04  0.7818609E-02  0.8971383E-01
       -2   -1    0    0    0  501  0.00000000000E+00  0.00000000000E+00  0.31882027747E+03  0.31882027748E+03  0.25500000920E-02 0.  1.
        2   -1    0    0  501    0  0.00000000000E+00  0.00000000000E+00 -0.14846549463E+04  0.14846549463E+04  0.25500000920E-02 0. -1.
    10030    2    1    2    0    0  0.00000000000E+00  0.00000000000E+00 -0.11658346689E+04  0.18034752238E+04  0.13759914272E+04 0.  0.
        2    1    3    3  502    0 -0.42349681768E+03 -0.12217298623E+03 -0.12752981783E+04  0.13493188047E+04  0.25500000920E-02 0. -1.
       -2    1    3    3    0  502  0.42349681768E+03  0.12217298623E+03  0.10946350940E+03  0.45415641914E+03  0.25500000920E-02 0.  1.
</event>
<event>
 5   0  0.3676724E-05  0.2605097E+04  0.7818609E-02  0.8366472E-01
        2   -1    0    0  501    0  0.00000000000E+00  0.00000000000E+00  0.11892783894E+04  0.11892783894E+04  0.25500000920E-02 0. -1.
       -2   -1    0    0    0  501  0.00000000000E+00  0.00000000000E+00 -0.14266071308E+04  0.14266071308E+04  0.25500000920E-02 0.  1.
    10030    2    1    2    0    0  0.00000000000E+00  0.00000000000E+00 -0.23732874136E+03  0.26158855202E+04  0.26050973347E+04 0.  0.
        4    1    3    3  502    0  0.88598408398E+03 -0.58978418583E+03 -0.87265220439E+03  0.13763490348E+04  0.12699999809E+01 0.  1.
       -4    1    3    3    0  502 -0.88598408398E+03  0.58978418583E+03  0.63532346303E+03  0.12395364853E+04  0.12699999809E+01 0. -1.
</event>
<event>
 5   0  0.1474012E-05  0.2707587E+04  0.7818609E-02  0.8332547E-01
        1   -1    0    0  501    0  0.00000000000E+00  0.00000000000E+00  0.15191099979E+04  0.15191099979E+04  0.50400001928E-02 0. -1.
       -1   -1    0    0    0  501  0.00000000000E+00  0.00000000000E+00 -0.12064677718E+04  0.12064677718E+04  0.50400001928E-02 0.  1.
    10030    2    1    2    0    0  0.00000000000E+00  0.00000000000E+00  0.31264222613E+03  0.27255777697E+04  0.27075873055E+04 0.  0.
        2    1    3    3  502    0  0.12329305677E+04 -0.11208429297E+03  0.70775336131E+03  0.14260418977E+04  0.25500000920E-02 0.  1.
       -2    1    3    3    0  502 -0.12329305677E+04  0.11208429297E+03 -0.39511113518E+03  0.12995358720E+04  0.25500000920E-02 0. -1.
</event>
<event>
 5   0  0.1495517E-05  0.2674054E+04  0.7818609E-02  0.8343473E-01
        1   -1    0    0  501    0  0.00000000000E+00  0.00000000000E+00  0.10633373089E+04  0.10633373089E+04  0.50400001928E-02 0. -1.
       -1   -1    0    0    0  501  0.00000000000E+00  0.00000000000E+00 -0.16811605598E+04  0.16811605598E+04  0.50400001928E-02 0.  1.
    10030    2    1    2    0    0  0.00000000000E+00  0.00000000000E+00 -0.61782325085E+03  0.27444978687E+04  0.26740536610E+04 0.  0.
        5    1    3    3  502    0  0.11761922558E+03  0.57158704444E+03 -0.15435448034E+04  0.16501814087E+04  0.46999998093E+01 0.  1.
       -5    1    3    3    0  502 -0.11761922558E+03 -0.57158704444E+03  0.92572155258E+03  0.10943164599E+04  0.46999998093E+01 0. -1.
</event>
<event>
 5   0  0.1474012E-05  0.2718851E+04  0.7818609E-02  0.8328914E-01
       -1   -1    0    0    0  501  0.00000000000E+00  0.00000000000E+00  0.12869109381E+04  0.12869109381E+04  0.50400001928E-02 0.  1.
        1   -1    0    0  501    0  0.00000000000E+00  0.00000000000E+00 -0.14360258032E+04  0.14360258032E+04  0.50400001928E-02 0. -1.
    10030    2    1    2    0    0  0.00000000000E+00  0.00000000000E+00 -0.14911486505E+03  0.27229367413E+04  0.27188507230E+04 0.  0.
        2    1    3    3  502    0  0.69383661731E+03  0.12793401091E+03 -0.12383110462E+04  0.14251984458E+04  0.25500000920E-02 0. -1.
       -2    1    3    3    0  502 -0.69383661731E+03 -0.12793401091E+03  0.10891961812E+04  0.12977382955E+04  0.25500000920E-02 0.  1.
</event>
<event>
 5   0  0.1228050E-05  0.2560446E+04  0.7818609E-02  0.8381762E-01
        3   -1    0    0  501    0  0.00000000000E+00  0.00000000000E+00  0.85217936743E+03  0.85217937341E+03  0.10100000352E+00 0.  1.
       -3   -1    0    0    0  501  0.00000000000E+00  0.00000000000E+00 -0.19232703337E+04  0.19232703363E+04  0.10100000352E+00 0. -1.
    10030    2    1    2    0    0  0.00000000000E+00  0.00000000000E+00 -0.10710909663E+04  0.27754497098E+04  0.25604462957E+04 0.  0.
        5    1    3    3  502    0 -0.57207655340E+03  0.11192315509E+03  0.69996797672E+03  0.91092021277E+03  0.46999998093E+01 0.  1.
       -5    1    3    3    0  502  0.57207655340E+03 -0.11192315509E+03 -0.17710589430E+04  0.18645294970E+04  0.46999998093E+01 0. -1.
</event>
<event>
 5   0  0.3514294E-05  0.2695610E+04  0.7818609E-02  0.8336431E-01
       -2   -1    0    0    0  501  0.00000000000E+00  0.00000000000E+00  0.97650763803E+03  0.97650763803E+03  0.25500000920E-02 0.  1.
        2   -1    0    0  501    0  0.00000000000E+00  0.00000000000E+00 -0.18602804799E+04  0.18602804799E+04  0.25500000920E-02 0. -1.
    10030    2    1    2    0    0  0.00000000000E+00  0.00000000000E+00 -0.88377284191E+03  0.28367881180E+04  0.26956098364E+04 0.  0.
        2    1    3    3  502    0 -0.49021274908E+03  0.97222062626E+03 -0.12778820899E+04  0.16788401119E+04  0.25500000920E-02 0. -1.
       -2    1    3    3    0  502  0.49021274908E+03 -0.97222062626E+03  0.39410924800E+03  0.11579480061E+04  0.25500000920E-02 0.  1.
</event>
<event>
 5   0  0.3568647E-05  0.2741220E+04  0.7818609E-02  0.8321753E-01
       -2   -1    0    0    0  501  0.00000000000E+00  0.00000000000E+00  0.72280909255E+03  0.72280909255E+03  0.25500000920E-02 0.  1.
        2   -1    0    0  501    0  0.00000000000E+00  0.00000000000E+00 -0.25989880823E+04  0.25989880823E+04  0.25500000920E-02 0. -1.
    10030    2    1    2    0    0  0.00000000000E+00  0.00000000000E+00 -0.18761789897E+04  0.33217971748E+04  0.27412203248E+04 0.  0.
        3    1    3    3  502    0 -0.32455325068E+03 -0.21977785184E+03  0.65344313391E+03  0.76198756955E+03  0.10100000352E+00 0.  1.
       -3    1    3    3    0  502  0.32455325068E+03  0.21977785184E+03 -0.25296221236E+04  0.25598096053E+04  0.10100000352E+00 0. -1.
</event>
<event>
 5   0  0.3514294E-05  0.1595969E+04  0.7818609E-02  0.8823028E-01
       -2   -1    0    0    0  501  0.00000000000E+00  0.00000000000E+00  0.36651859532E+03  0.36651859532E+03  0.25500000920E-02 0. -1.
        2   -1    0    0  501    0  0.00000000000E+00  0.00000000000E+00 -0.17373716028E+04  0.17373716028E+04  0.25500000920E-02 0.  1.
    10030    2    1    2    0    0  0.00000000000E+00  0.00000000000E+00 -0.13708530074E+04  0.21038901981E+04  0.15959686706E+04 0.  0.
        2    1    3    3  502    0 -0.44282263835E+03  0.65074172100E+03 -0.51242711351E+03  0.93922213728E+03  0.25500000920E-02 0.  1.
       -2    1    3    3    0  502  0.44282263835E+03 -0.65074172100E+03 -0.85842589393E+03  0.11646680608E+04  0.25500000920E-02 0. -1.
</event>
<event>
 5   0  0.1449521E-05  0.2677295E+04  0.7818609E-02  0.8342410E-01
       -1   -1    0    0    0  501  0.00000000000E+00  0.00000000000E+00  0.14001437011E+04  0.14001437011E+04  0.50400001928E-02 0.  1.
        1   -1    0    0  501    0  0.00000000000E+00  0.00000000000E+00 -0.12798523878E+04  0.12798523878E+04  0.50400001928E-02 0. -1.
    10030    2    1    2    0    0  0.00000000000E+00  0.00000000000E+00  0.12029131326E+03  0.26799960889E+04  0.26772950970E+04 0.  0.
        3    1    3    3  502    0 -0.57532625334E+03  0.10285415472E+04  0.69567137673E+03  0.13685235426E+04  0.10100000352E+00 0.  1.
       -3    1    3    3    0  502  0.57532625334E+03 -0.10285415472E+04 -0.57538006347E+03  0.13114725463E+04  0.10100000352E+00 0. -1.
</event>
<event>
 5   0  0.1495517E-05  0.2604818E+04  0.7818609E-02  0.8366567E-01
        1   -1    0    0  501    0  0.00000000000E+00  0.00000000000E+00  0.10999774776E+04  0.10999774776E+04  0.50400001928E-02 0.  1.
       -1   -1    0    0    0  501  0.00000000000E+00  0.00000000000E+00 -0.15420940288E+04  0.15420940288E+04  0.50400001928E-02 0. -1.
    10030    2    1    2    0    0  0.00000000000E+00  0.00000000000E+00 -0.44211655119E+03  0.26420715064E+04  0.26048176136E+04 0.  0.
        5    1    3    3  502    0  0.75517610240E+03  0.60101526141E+03 -0.11080572260E+04  0.14694635743E+04  0.46999998093E+01 0. -1.
       -5    1    3    3    0  502 -0.75517610240E+03 -0.60101526141E+03  0.66594067479E+03  0.11726079321E+04  0.46999998093E+01 0.  1.
</event>
<event>
 5   0  0.3497949E-05  0.2770311E+04  0.7818609E-02  0.8312545E-01
       -2   -1    0    0    0  501  0.00000000000E+00  0.00000000000E+00  0.17060741172E+04  0.17060741172E+04  0.25500000920E-02 0. -1.
        2   -1    0    0  501    0  0.00000000000E+00  0.00000000000E+00 -0.11246029157E+04  0.11246029157E+04  0.25500000920E-02 0.  1.
    10030    2    1    2    0    0  0.00000000000E+00  0.00000000000E+00  0.58147120154E+03  0.28306770329E+04  0.27703111209E+04 0.  0.
        5    1    3    3  502    0  0.12267038601E+03  0.73158261497E+03  0.14859999740E+04  0.16608669901E+04  0.46999998093E+01 0. -1.
       -5    1    3    3    0  502 -0.12267038601E+03 -0.73158261497E+03 -0.90452877244E+03  0.11698100428E+04  0.46999998093E+01 0.  1.
</event>
<event>
 5   0  0.1495517E-05  0.2602945E+04  0.7818609E-02  0.8367202E-01
       -1   -1    0    0    0  501  0.00000000000E+00  0.00000000000E+00  0.11408340529E+04  0.11408340529E+04  0.50400001928E-02 0.  1.
        1   -1    0    0  501    0  0.00000000000E+00  0.00000000000E+00 -0.14847299208E+04  0.14847299208E+04  0.50400001928E-02 0. -1.
    10030    2    1    2    0    0  0.00000000000E+00  0.00000000000E+00 -0.34389586789E+03  0.26255639737E+04  0.26029448346E+04 0.  0.
        5    1    3    3  502    0 -0.36856710434E+03  0.62187007162E+03  0.91969693956E+03  0.11697985498E+04  0.46999998093E+01 0.  1.
       -5    1    3    3    0  502  0.36856710434E+03 -0.62187007162E+03 -0.12635928074E+04  0.14557654239E+04  0.46999998093E+01 0. -1.
</event>
<event>
 5   0  0.1474012E-05  0.2810327E+04  0.7818609E-02  0.8300069E-01
       -1   -1    0    0    0  501  0.00000000000E+00  0.00000000000E+00  0.10921761473E+04  0.10921761474E+04  0.50400001928E-02 0. -1.
        1   -1    0    0  501    0  0.00000000000E+00  0.00000000000E+00 -0.18078439958E+04  0.18078439958E+04  0.50400001928E-02 0.  1.
    10030    2    1    2    0    0  0.00000000000E+00  0.00000000000E+00 -0.71566784842E+03  0.29000201431E+04  0.28103267357E+04 0.  0.
        2    1    3    3  502    0  0.39333729982E+01 -0.90934642782E+03 -0.14632644771E+04  0.17228085579E+04  0.25500000920E-02 0.  1.
       -2    1    3    3    0  502 -0.39333729982E+01  0.90934642782E+03  0.74759662867E+03  0.11772115852E+04  0.25500000920E-02 0. -1.
</event>
<event>
 5   0  0.3497949E-05  0.1332935E+04  0.7818609E-02  0.9003848E-01
        2   -1    0    0  501    0  0.00000000000E+00  0.00000000000E+00  0.19397768124E+04  0.19397768124E+04  0.25500000920E-02 0. -1.
       -2   -1    0    0    0  501  0.00000000000E+00  0.00000000000E+00 -0.22898441225E+03  0.22898441227E+03  0.25500000920E-02 0.  1.
    10030    2    1    2    0    0  0.00000000000E+00  0.00000000000E+00  0.17107924002E+04  0.21687612247E+04  0.13329345870E+04 0.  0.
        5    1    3    3  502    0 -0.27380526222E+02 -0.39289801746E+01  0.19388154597E+04  0.19390184648E+04  0.46999998093E+01 0. -1.
       -5    1    3    3    0  502  0.27380526222E+02  0.39289801746E+01 -0.22802305947E+03  0.22974275995E+03  0.46999998093E+01 0.  1.
</event>
<event>
 5   0  0.1484379E-05  0.2694214E+04  0.7818609E-02  0.8336885E-01
       -1   -1    0    0    0  501  0.00000000000E+00  0.00000000000E+00  0.80617832031E+03  0.80617832033E+03  0.50400001928E-02 0.  1.
        1   -1    0    0  501    0  0.00000000000E+00  0.00000000000E+00 -0.22509871838E+04  0.22509871838E+04  0.50400001928E-02 0. -1.
    10030    2    1    2    0    0  0.00000000000E+00  0.00000000000E+00 -0.14448088635E+04  0.30571655041E+04  0.26942138496E+04 0.  0.
        1    1    3    3  502    0  0.12554157876E+04 -0.47146070657E+03 -0.57729804670E+03  0.14600058330E+04  0.50400001928E-02 0. -1.
       -1    1    3    3    0  502 -0.12554157876E+04  0.47146070657E+03 -0.86751081677E+03  0.15971596711E+04  0.50400001928E-02 0.  1.
</event>
<event>
 5   0  0.3568647E-05  0.2702730E+04  0.7818609E-02  0.8334120E-01
        2   -1    0    0  501    0  0.00000000000E+00  0.00000000000E+00  0.16579216091E+04  0.16579216091E+04  0.25500000920E-02 0. -1.
       -2   -1    0    0    0  501  0.00000000000E+00  0.00000000000E+00 -0.11014917503E+04  0.11014917503E+04  0.25500000920E-02 0.  1.
    10030    2    1    2    0    0  0.00000000000E+00  0.00000000000E+00  0.55642985885E+03  0.27594133594E+04  0.27027297128E+04 0.  0.
        3    1    3    3  502    0 -0.10361768157E+04  0.52741644885E+03 -0.42496514604E+03  0.12379119070E+04  0.10100000352E+00 0.  1.
       -3    1    3    3    0  502  0.10361768157E+04 -0.52741644885E+03  0.98139500489E+03  0.15215014524E+04  0.10100000352E+00 0. -1.
</event>
<event>
 5   0  0.3652331E-05  0.1633541E+04  0.7818609E-02  0.8800203E-01
       -2   -1    0    0    0  501  0.00000000000E+00  0.00000000000E+00  0.61414022534E+03  0.61414022534E+03  0.25500000920E-02 0. -1.
        2   -1    0    0  501    0  0.00000000000E+00  0.00000000000E+00 -0.10862571267E+04  0.10862571267E+04  0.25500000920E-02 0.  1.
    10030    2    1    2    0    0  0.00000000000E+00  0.00000000000E+00 -0.47211690139E+03  0.17003973521E+04  0.16335411799E+04 0.  0.
        1    1    3    3  502    0 -0.63573488497E+03 -0.41587454335E+03 -0.54834304147E+03  0.93690478221E+03  0.50400001928E-02 0.  1.
       -1    1    3    3    0  502  0.63573488497E+03  0.41587454335E+03  0.76226140079E+02  0.76349256986E+03  0.50400001928E-02 0. -1.
</event>
<event>
 5   0  0.3568647E-05  0.2404630E+04  0.7818609E-02  0.8437772E-01
       -2   -1    0    0    0  501  0.00000000000E+00  0.00000000000E+00  0.56698989605E+03  0.56698989606E+03  0.25500000920E-02 0. -1.
        2   -1    0    0  501    0  0.00000000000E+00  0.00000000000E+00 -0.25495360141E+04  0.25495360141E+04  0.25500000920E-02 0.  1.
    10030    2    1    2    0    0  0.00000000000E+00  0.00000000000E+00 -0.19825461180E+04  0.31165259101E+04  0.24046298340E+04 0.  0.
        3    1    3    3  502    0 -0.10589218132E+04  0.94508655443E+02 -0.17190428748E+04  0.20212262882E+04  0.10100000352E+00 0.  1.
       -3    1    3    3    0  502  0.10589218132E+04 -0.94508655443E+02 -0.26350324321E+03  0.10952996219E+04  0.10100000352E+00 0. -1.
</event>
<event>
 5   0  0.1474012E-05  0.2537810E+04  0.7818609E-02  0.8389638E-01
       -1   -1    0    0    0  501  0.00000000000E+00  0.00000000000E+00  0.10829460734E+04  0.10829460734E+04  0.50400001928E-02 0. -1.
        1   -1    0    0  501    0  0.00000000000E+00  0.00000000000E+00 -0.14867964511E+04  0.14867964512E+04  0.50400001928E-02 0.  1.
    10030    2    1    2    0    0  0.00000000000E+00  0.00000000000E+00 -0.40385037773E+03  0.25697425246E+04  0.25378103781E+04 0.  0.
        2    1    3    3  502    0  0.15864065214E+03 -0.78506928443E+03  0.79464318402E+03  0.11282545935E+04  0.25500000920E-02 0. -1.
       -2    1    3    3    0  502 -0.15864065214E+03  0.78506928443E+03 -0.11984935617E+04  0.14414879311E+04  0.25500000920E-02 0.  1.
</event>
<event>
 5   0  0.3676724E-05  0.2849853E+04  0.7818609E-02  0.8287956E-01
        2   -1    0    0  501    0  0.00000000000E+00  0.00000000000E+00  0.14902449715E+04  0.14902449715E+04  0.25500000920E-02 0. -1.
       -2   -1    0    0    0  501  0.00000000000E+00  0.00000000000E+00 -0.13624707870E+04  0.13624707870E+04  0.25500000920E-02 0.  1.
    10030    2    1    2    0    0  0.00000000000E+00  0.00000000000E+00  0.12777418447E+03  0.28527157585E+04  0.28498527956E+04 0.  0.
        4    1    3    3  502    0  0.10864168834E+04 -0.77270541719E+03 -0.43964739516E+03  0.14038043850E+04  0.12699999809E+01 0.  1.
       -4    1    3    3    0  502 -0.10864168834E+04  0.77270541719E+03  0.56742157964E+03  0.14489113735E+04  0.12699999809E+01 0. -1.
</event>
<event>
 5   0  0.1495517E-05  0.2629001E+04  0.7818609E-02  0.8358417E-01
       -1   -1    0    0    0  501  0.00000000000E+00  0.00000000000E+00  0.13731784699E+04  0.13731784699E+04  0.50400001928E-02 0.  1.
        1   -1    0    0  501    0  0.00000000000E+00  0.00000000000E+00 -0.12583295788E+04  0.12583295788E+04  0.50400001928E-02 0. -1.
    10030    2    1    2    0    0  0.00000000000E+00  0.00000000000E+00  0.11484889114E+03  0.26315080487E+04  0.26290006357E+04 0.  0.
        5    1    3    3  502    0 -0.42672171205E+03  0.12425783404E+04  0.14997180165E+02  0.13139023392E+04  0.46999998093E+01 0.  1.
       -5    1    3    3    0  502  0.42672171205E+03 -0.12425783404E+04  0.99851710977E+02  0.13176057095E+04  0.46999998093E+01 0. -1.
</event>
<event>
 5   0  0.1228050E-05  0.2648547E+04  0.7818609E-02  0.8351895E-01
       -4   -1    0    0    0  501  0.00000000000E+00  0.00000000000E+00  0.20114707269E+04  0.20114711278E+04  0.12699999809E+01 0. -1.
        4   -1    0    0  501    0  0.00000000000E+00  0.00000000000E+00 -0.87184881287E+03  0.87184973785E+03  0.12699999809E+01 0.  1.
    10030    2    1    2    0    0  0.00000000000E+00  0.00000000000E+00  0.11396219140E+04  0.28833208657E+04  0.26485469804E+04 0.  0.
        3    1    3    3  502    0  0.11231498907E+04  0.36344770434E+02  0.13325708458E+04  0.17431384593E+04  0.10100000352E+00 0. -1.
       -3    1    3    3    0  502 -0.11231498907E+04 -0.36344770434E+02 -0.19294893174E+03  0.11401824063E+04  0.10100000352E+00 0.  1.
</event>
<event>
 5   0  0.1228050E-05  0.2737350E+04  0.7818609E-02  0.8322987E-01
        3   -1    0    0  501    0  0.00000000000E+00  0.00000000000E+00  0.18056847843E+04  0.18056847871E+04  0.10100000352E+00 0.  1.
       -3   -1    0    0    0  501  0.00000000000E+00  0.00000000000E+00 -0.10374296932E+04  0.10374296981E+04  0.10100000352E+00 0. -1.
    10030    2    1    2    0    0  0.00000000000E+00  0.00000000000E+00  0.76825509115E+03  0.28431144852E+04  0.27373498299E+04 0.  0.
        1    1    3    3  502    0 -0.12177098628E+03 -0.61618077470E+03  0.16471570461E+04  0.17628480521E+04  0.50400001928E-02 0.  1.
       -1    1    3    3    0  502  0.12177098628E+03  0.61618077470E+03 -0.87890195493E+03  0.10802664332E+04  0.50400001928E-02 0. -1.
</event>
<event>
 5   0  0.1474012E-05  0.2455997E+04  0.7818609E-02  0.8418832E-01
       -1   -1    0    0    0  501  0.00000000000E+00  0.00000000000E+00  0.11157722997E+04  0.11157722997E+04  0.50400001928E-02 0.  1.
        1   -1    0    0  501    0  0.00000000000E+00  0.00000000000E+00 -0.13515123256E+04  0.13515123256E+04  0.50400001928E-02 0. -1.
    10030    2    1    2    0    0  0.00000000000E+00  0.00000000000E+00 -0.23574002595E+03  0.24672846253E+04  0.24559967553E+04 0.  0.
        2    1    3    3  502    0  0.39278725507E+03  0.74464803208E+03 -0.10159572428E+04  0.13194512642E+04  0.25500000920E-02 0. -1.
       -2    1    3    3    0  502 -0.39278725507E+03 -0.74464803208E+03  0.78021721681E+03  0.11478333611E+04  0.25500000920E-02 0.  1.
</event>
<event>
 5   0  0.1449521E-05  0.2663627E+04  0.7818609E-02  0.8346904E-01
        1   -1    0    0  501    0  0.00000000000E+00  0.00000000000E+00  0.84548366800E+03  0.84548366802E+03  0.50400001928E-02 0. -1.
       -1   -1    0    0    0  501  0.00000000000E+00  0.00000000000E+00 -0.20978840650E+04  0.20978840650E+04  0.50400001928E-02 0.  1.
    10030    2    1    2    0    0  0.00000000000E+00  0.00000000000E+00 -0.12524003970E+04  0.29433677331E+04  0.26636266363E+04 0.  0.
        3    1    3    3  502    0 -0.45135426491E+03  0.43356976842E+03  0.67285874126E+03  0.91893542342E+03  0.10100000352E+00 0. -1.
       -3    1    3    3    0  502  0.45135426491E+03 -0.43356976842E+03 -0.19252591383E+04  0.20244323096E+04  0.10100000352E+00 0.  1.
</event>
<event>
 5   0  0.1495517E-05  0.2817015E+04  0.7818609E-02  0.8298005E-01
       -1   -1    0    0    0  501  0.00000000000E+00  0.00000000000E+00  0.66683163699E+03  0.66683163701E+03  0.50400001928E-02 0. -1.
        1   -1    0    0  501    0  0.00000000000E+00  0.00000000000E+00 -0.29751031955E+04  0.29751031955E+04  0.50400001928E-02 0.  1.
    10030    2    1    2    0    0  0.00000000000E+00  0.00000000000E+00 -0.23082715585E+04  0.36419348325E+04  0.28170146852E+04 0.  0.
        5    1    3    3  502    0 -0.89832014438E+03 -0.90743899334E+03 -0.38552806368E+03  0.13338210473E+04  0.46999998093E+01 0. -1.
       -5    1    3    3    0  502  0.89832014438E+03  0.90743899334E+03 -0.19227434949E+04  0.23081137852E+04  0.46999998093E+01 0.  1.
</event>
<event>
 5   0  0.3497949E-05  0.2760147E+04  0.7818609E-02  0.8315749E-01
        2   -1    0    0  501    0  0.00000000000E+00  0.00000000000E+00  0.31129420041E+04  0.31129420041E+04  0.25500000920E-02 0. -1.
       -2   -1    0    0    0  501  0.00000000000E+00  0.00000000000E+00 -0.61183384346E+03  0.61183384347E+03  0.25500000920E-02 0.  1.
    10030    2    1    2    0    0  0.00000000000E+00  0.00000000000E+00  0.25011081606E+04  0.37247758476E+04  0.27601472938E+04 0.  0.
        5    1    3    3  502    0  0.47708059364E+03  0.70958717897E+03 -0.21129410862E+03  0.88078779949E+03  0.46999998093E+01 0.  1.
       -5    1    3    3    0  502 -0.47708059364E+03 -0.70958717897E+03  0.27124022693E+04  0.28439880481E+04  0.46999998093E+01 0. -1.
</event>
<event>
 5   0  0.1484379E-05  0.2381014E+04  0.7818609E-02  0.8446646E-01
       -1   -1    0    0    0  501  0.00000000000E+00  0.00000000000E+00  0.17538173032E+04  0.17538173032E+04  0.50400001928E-02 0. -1.
        1   -1    0    0  501    0  0.00000000000E+00  0.00000000000E+00 -0.80812707892E+03  0.80812707894E+03  0.50400001928E-02 0.  1.
    10030    2    1    2    0    0  0.00000000000E+00  0.00000000000E+00  0.94569022427E+03  0.25619443821E+04  0.23810142832E+04 0.  0.
        1    1    3    3  502    0  0.54673427713E+03 -0.73495131091E+03  0.12910462051E+04  0.15829946629E+04  0.50400001928E-02 0. -1.
       -1    1    3    3    0  502 -0.54673427713E+03  0.73495131091E+03 -0.34535598082E+03  0.97894971919E+03  0.50400001928E-02 0.  1.
</event>
<event>
 5   0  0.1495517E-05  0.2710161E+04  0.7818609E-02  0.8331716E-01
        1   -1    0    0  501    0  0.00000000000E+00  0.00000000000E+00  0.81166477336E+03  0.81166477338E+03  0.50400001928E-02 0. -1.
       -1   -1    0    0    0  501  0.00000000000E+00  0.00000000000E+00 -0.22623176048E+04  0.22623176048E+04  0.50400001928E-02 0.  1.
    10030    2    1    2    0    0  0.00000000000E+00  0.00000000000E+00 -0.14506528315E+04  0.30739823782E+04  0.27101612543E+04 0.  0.
        5    1    3    3  502    0 -0.66653152438E+03 -0.43644843618E+03  0.51793567081E+03  0.95027941129E+03  0.46999998093E+01 0. -1.
       -5    1    3    3    0  502  0.66653152438E+03  0.43644843618E+03 -0.19685885023E+04  0.21237029669E+04  0.46999998093E+01 0.  1.
</event>
<event>
 5   0  0.1438701E-05  0.2574535E+04  0.7818609E-02  0.8376903E-01
        1   -1    0    0  501    0  0.00000000000E+00  0.00000000000E+00  0.27453833131E+04  0.27453833131E+04  0.50400001928E-02 0.  1.
       -1   -1    0    0    0  501  0.00000000000E+00  0.00000000000E+00 -0.60357989571E+03  0.60357989573E+03  0.50400001928E-02 0. -1.
    10030    2    1    2    0    0  0.00000000000E+00  0.00000000000E+00  0.21418034174E+04  0.33489632089E+04  0.25745354329E+04 0.  0.
        4    1    3    3  502    0 -0.10414219792E+04  0.75414656727E+03  0.11506630708E+04  0.17254923643E+04  0.12699999809E+01 0. -1.
       -4    1    3    3    0  502  0.10414219792E+04 -0.75414656727E+03  0.99114034660E+03  0.16234708446E+04  0.12699999809E+01 0.  1.
</event>
<event>
 5   0  0.1474012E-05  0.2620289E+04  0.7818609E-02  0.8361342E-01
        1   -1    0    0  501    0  0.00000000000E+00  0.00000000000E+00  0.16170025947E+04  0.16170025948E+04  0.50400001928E-02 0.  1.
       -1   -1    0    0    0  501  0.00000000000E+00  0.00000000000E+00 -0.10615190529E+04  0.10615190529E+04  0.50400001928E-02 0. -1.
    10030    2    1    2    0    0  0.00000000000E+00  0.00000000000E+00  0.55548354186E+03  0.26785216477E+04  0.26202893450E+04 0.  0.
        2    1    3    3  502    0 -0.13369515289E+03  0.87553894077E+03  0.12646171350E+04  0.15439233559E+04  0.25500000920E-02 0.  1.
       -2    1    3    3    0  502  0.13369515289E+03 -0.87553894077E+03 -0.70913359316E+03  0.11345982918E+04  0.25500000920E-02 0. -1.
</event>
<event>
 5   0  0.3514294E-05  0.2357163E+04  0.7818609E-02  0.8455717E-01
        2   -1    0    0  501    0  0.00000000000E+00  0.00000000000E+00  0.17337276714E+04  0.17337276714E+04  0.25500000920E-02 0. -1.
       -2   -1    0    0    0  501  0.00000000000E+00  0.00000000000E+00 -0.80119516102E+03  0.80119516103E+03  0.25500000920E-02 0.  1.
    10030    2    1    2    0    0  0.00000000000E+00  0.00000000000E+00  0.93253251037E+03  0.25349228324E+04  0.23571628886E+04 0.  0.
        2    1    3    3  502    0 -0.81291883828E+03  0.65149460169E+03 -0.12645294410E+03  0.10494153614E+04  0.25500000920E-02 0. -1.
       -2    1    3    3    0  502  0.81291883828E+03 -0.65149460169E+03  0.10589854545E+04  0.14855074710E+04  0.25500000920E-02 0.  1.
</event>
<event>
 5   0  0.3568647E-05  0.2654566E+04  0.7818609E-02  0.8349899E-01
        2   -1    0    0  501    0  0.00000000000E+00  0.00000000000E+00  0.24589020393E+04  0.24589020393E+04  0.25500000920E-02 0. -1.
       -2   -1    0    0    0  501  0.00000000000E+00  0.00000000000E+00 -0.71644981030E+03  0.71644981030E+03  0.25500000920E-02 0.  1.
    10030    2    1    2    0    0  0.00000000000E+00  0.00000000000E+00  0.17424522290E+04  0.31753518496E+04  0.26545658022E+04 0.  0.
        3    1    3    3  502    0 -0.24831515117E+03 -0.41819481141E+03 -0.60601762544E+03  0.77704870320E+03  0.10100000352E+00 0.  1.
       -3    1    3    3    0  502  0.24831515117E+03  0.41819481141E+03  0.23484698544E+04  0.23983031464E+04  0.10100000352E+00 0. -1.
</event>
<event>
 5   0  0.3676724E-05  0.1761344E+04  0.7818609E-02  0.8727131E-01
       -2   -1    0    0    0  501  0.00000000000E+00  0.00000000000E+00  0.40781844522E+03  0.40781844522E+03  0.25500000920E-02 0. -1.
        2   -1    0    0  501    0  0.00000000000E+00  0.00000000000E+00 -0.19017852107E+04  0.19017852107E+04  0.25500000920E-02 0.  1.
    10030    2    1    2    0    0  0.00000000000E+00  0.00000000000E+00 -0.14939667655E+04  0.23096036560E+04  0.17613439048E+04 0.  0.
        4    1    3    3  502    0  0.28452931243E+03 -0.67727899402E+03 -0.11007998024E+03  0.74282096115E+03  0.12699999809E+01 0.  1.
       -4    1    3    3    0  502 -0.28452931243E+03  0.67727899402E+03 -0.13838867853E+04  0.15667826948E+04  0.12699999809E+01 0. -1.
</event>
<event>
 5   0  0.1495517E-05  0.2671578E+04  0.7818609E-02  0.8344286E-01
        1   -1    0    0  501    0  0.00000000000E+00  0.00000000000E+00  0.12266834980E+04  0.12266834980E+04  0.50400001928E-02 0.  1.
       -1   -1    0    0    0  501  0.00000000000E+00  0.00000000000E+00 -0.14545984623E+04  0.14545984623E+04  0.50400001928E-02 0. -1.
    10030    2    1    2    0    0  0.00000000000E+00  0.00000000000E+00 -0.22791496421E+03  0.26812819603E+04  0.26715777585E+04 0.  0.
        5    1    3    3  502    0  0.13112738655E+03 -0.87889329579E+03 -0.11149076006E+04  0.14257239792E+04  0.46999998093E+01 0. -1.
       -5    1    3    3    0  502 -0.13112738655E+03  0.87889329579E+03  0.88699263642E+03  0.12555579811E+04  0.46999998093E+01 0.  1.
</event>
<event>
 5   0  0.3652331E-05  0.2695659E+04  0.7818609E-02  0.8336415E-01
        2   -1    0    0  501    0  0.00000000000E+00  0.00000000000E+00  0.12864861485E+04  0.12864861485E+04  0.25500000920E-02 0.  1.
       -2   -1    0    0    0  501  0.00000000000E+00  0.00000000000E+00 -0.14120983348E+04  0.14120983348E+04  0.25500000920E-02 0. -1.
    10030    2    1    2    0    0  0.00000000000E+00  0.00000000000E+00 -0.12561218637E+03  0.26985844833E+04  0.26956594355E+04 0.  0.
        1    1    3    3  502    0  0.61831202653E+03  0.27633272895E+03 -0.12293925982E+04  0.14035938514E+04  0.50400001928E-02 0. -1.
       -1    1    3    3    0  502 -0.61831202653E+03 -0.27633272895E+03  0.11037804118E+04  0.12949906319E+04  0.50400001928E-02 0.  1.
</event>
<event>
 5   0  0.3497949E-05  0.1993734E+04  0.7818609E-02  0.8609556E-01
       -2   -1    0    0    0  501  0.00000000000E+00  0.00000000000E+00  0.20362298780E+04  0.20362298780E+04  0.25500000920E-02 0. -1.
        2   -1    0    0  501    0  0.00000000000E+00  0.00000000000E+00 -0.48803114901E+03  0.48803114902E+03  0.25500000920E-02 0.  1.
    10030    2    1    2    0    0  0.00000000000E+00  0.00000000000E+00  0.15481987290E+04  0.25242610271E+04  0.19937337907E+04 0.  0.
        5    1    3    3  502    0  0.98578787752E+03 -0.10710878423E+03  0.64453927206E+03  0.11826677447E+04  0.46999998093E+01 0.  1.
       -5    1    3    3    0  502 -0.98578787752E+03  0.10710878423E+03  0.90365945696E+03  0.13415932824E+04  0.46999998093E+01 0. -1.
</event>
<event>
 5   0  0.1438701E-05  0.2630073E+04  0.7818609E-02  0.8358057E-01
        1   -1    0    0  501    0  0.00000000000E+00  0.00000000000E+00  0.84410243552E+03  0.84410243553E+03  0.50400001928E-02 0.  1.
       -1   -1    0    0    0  501  0.00000000000E+00  0.00000000000E+00 -0.20487106385E+04  0.20487106385E+04  0.50400001928E-02 0. -1.
    10030    2    1    2    0    0  0.00000000000E+00  0.00000000000E+00 -0.12046082030E+04  0.28928130741E+04  0.26300734892E+04 0.  0.
        4    1    3    3  502    0 -0.73375013757E+03 -0.59608923983E+03 -0.16077388286E+04  0.18650837515E+04  0.12699999809E+01 0. -1.
       -4    1    3    3    0  502  0.73375013757E+03  0.59608923983E+03  0.40313062561E+03  0.10277293225E+04  0.12699999809E+01 0.  1.
</event>
<event>
 5   0  0.1474012E-05  0.2270807E+04  0.7818609E-02  0.8489521E-01
       -1   -1    0    0    0  501  0.00000000000E+00  0.00000000000E+00  0.68026111212E+03  0.68026111214E+03  0.50400001928E-02 0.  1.
        1   -1    0    0  501    0  0.00000000000E+00  0.00000000000E+00 -0.18950678591E+04  0.18950678591E+04  0.50400001928E-02 0. -1.
    10030    2    1    2    0    0  0.00000000000E+00  0.00000000000E+00 -0.12148067470E+04  0.25753289713E+04  0.22708068781E+04 0.  0.
        2    1    3    3  502    0  0.58465120344E+03  0.29416140049E+03 -0.16596120493E+04  0.17840011529E+04  0.25500000920E-02 0. -1.
       -2    1    3    3    0  502 -0.58465120344E+03 -0.29416140049E+03  0.44480530230E+03  0.79132781841E+03  0.25500000920E-02 0.  1.
</event>
<event>
 5   0  0.1474012E-05  0.2766352E+04  0.7818609E-02  0.8313792E-01
        1   -1    0    0  501    0  0.00000000000E+00  0.00000000000E+00  0.17008546790E+04  0.17008546790E+04  0.50400001928E-02 0. -1.
       -1   -1    0    0    0  501  0.00000000000E+00  0.00000000000E+00 -0.11248316755E+04  0.11248316755E+04  0.50400001928E-02 0.  1.
    10030    2    1    2    0    0  0.00000000000E+00  0.00000000000E+00  0.57602300344E+03  0.28256863545E+04  0.27663515455E+04 0.  0.
        2    1    3    3  502    0 -0.36393894772E+03 -0.92018148591E+03  0.12751716790E+04  0.16140781690E+04  0.25500000920E-02 0. -1.
       -2    1    3    3    0  502  0.36393894772E+03  0.92018148591E+03 -0.69914867554E+03  0.12116081855E+04  0.25500000920E-02 0.  1.
</event>
<event>
 5   0  0.1449521E-05  0.2775683E+04  0.7818609E-02  0.8310858E-01
        1   -1    0    0  501    0  0.00000000000E+00  0.00000000000E+00  0.21805017686E+04  0.21805017686E+04  0.50400001928E-02 0.  1.
       -1   -1    0    0    0  501  0.00000000000E+00  0.00000000000E+00 -0.88333090655E+03  0.88333090656E+03  0.50400001928E-02 0. -1.
    10030    2    1    2    0    0  0.00000000000E+00  0.00000000000E+00  0.12971708620E+04  0.30638326751E+04  0.27756834142E+04 0.  0.
        3    1    3    3  502    0  0.68591534975E+03 -0.84182770541E+02  0.19770808394E+04  0.20943770581E+04  0.10100000352E+00 0.  1.
       -3    1    3    3    0  502 -0.68591534975E+03  0.84182770541E+02 -0.67990997736E+03  0.96945561703E+03  0.10100000352E+00 0. -1.
</event>
<event>
 5   0  0.1474012E-05  0.2700100E+04  0.7818609E-02  0.8334973E-01
        1   -1    0    0  501    0  0.00000000000E+00  0.00000000000E+00  0.16017861441E+04  0.16017861441E+04  0.50400001928E-02 0. -1.
       -1   -1    0    0    0  501  0.00000000000E+00  0.00000000000E+00 -0.11378766119E+04  0.11378766119E+04  0.50400001928E-02 0.  1.
    10030    2    1    2    0    0  0.00000000000E+00  0.00000000000E+00  0.46390953219E+03  0.27396627560E+04  0.27000999912E+04 0.  0.
        2    1    3    3  502    0 -0.32524280875E+03 -0.11227650991E+04  0.91731515592E+03  0.14858840626E+04  0.25500000920E-02 0. -1.
       -2    1    3    3    0  502  0.32524280875E+03  0.11227650991E+04 -0.45340562373E+03  0.12537786934E+04  0.25500000920E-02 0.  1.
</event>
<event>
 5   0  0.3514294E-05  0.2701427E+04  0.7818609E-02  0.8334542E-01
       -2   -1    0    0    0  501  0.00000000000E+00  0.00000000000E+00  0.88904439909E+03  0.88904439910E+03  0.25500000920E-02 0. -1.
        2   -1    0    0  501    0  0.00000000000E+00  0.00000000000E+00 -0.20521218446E+04  0.20521218446E+04  0.25500000920E-02 0.  1.
    10030    2    1    2    0    0  0.00000000000E+00  0.00000000000E+00 -0.11630774455E+04  0.29411662437E+04  0.27014273503E+04 0.  0.
        2    1    3    3  502    0  0.13056751599E+04  0.13295080271E+03 -0.92919452708E+03  0.16080628123E+04  0.25500000920E-02 0.  1.
       -2    1    3    3    0  502 -0.13056751599E+04 -0.13295080271E+03 -0.23388291838E+03  0.13331034313E+04  0.25500000920E-02 0. -1.
</event>
<event>
 5   0  0.3514294E-05  0.2622953E+04  0.7818609E-02  0.8360446E-01
        2   -1    0    0  501    0  0.00000000000E+00  0.00000000000E+00  0.17624403851E+04  0.17624403851E+04  0.25500000920E-02 0. -1.
       -2   -1    0    0    0  501  0.00000000000E+00  0.00000000000E+00 -0.97590299888E+03  0.97590299888E+03  0.25500000920E-02 0.  1.
    10030    2    1    2    0    0  0.00000000000E+00  0.00000000000E+00  0.78653738620E+03  0.27383433840E+04  0.26229531884E+04 0.  0.
        2    1    3    3  502    0  0.13922795699E+03 -0.12995476315E+04  0.28004297315E+03  0.13366497437E+04  0.25500000920E-02 0.  1.
       -2    1    3    3    0  502 -0.13922795699E+03  0.12995476315E+04  0.50649441304E+03  0.14016936402E+04  0.25500000920E-02 0. -1.
</event>
<event>
 5   0  0.3568647E-05  0.2495553E+04  0.7818609E-02  0.8404571E-01
       -2   -1    0    0    0  501  0.00000000000E+00  0.00000000000E+00  0.81497713209E+03  0.81497713209E+03  0.25500000920E-02 0. -1.
        2   -1    0    0  501    0  0.00000000000E+00  0.00000000000E+00 -0.19104177787E+04  0.19104177787E+04  0.25500000920E-02 0.  1.
    10030    2    1    2    0    0  0.00000000000E+00  0.00000000000E+00 -0.10954406466E+04  0.27253949107E+04  0.24955534876E+04 0.  0.
        3    1    3    3  502    0  0.37112801993E+03  0.44134680808E+03 -0.17561696270E+04  0.18484195360E+04  0.10100000352E+00 0.  1.
       -3    1    3    3    0  502 -0.37112801993E+03 -0.44134680808E+03  0.66072898040E+03  0.87697537475E+03  0.10100000352E+00 0. -1.
</event>
<event>
 5   0  0.1484379E-05  0.2840737E+04  0.7818609E-02  0.8290732E-01
        1   -1    0    0  501    0  0.00000000000E+00  0.00000000000E+00  0.13910213355E+04  0.13910213355E+04  0.50400001928E-02 0.  1.
       -1   -1    0    0    0  501  0.00000000000E+00  0.00000000000E+00 -0.14503347978E+04  0.14503347978E+04  0.50400001928E-02 0. -1.
    10030    2    1    2    0    0  0.00000000000E+00  0.00000000000E+00 -0.59313462352E+02  0.28413561333E+04  0.28407369800E+04 0.  0.
        1    1    3    3  502    0 -0.79601291487E+03  0.42306941497E+03  0.10682265088E+04  0.13977596949E+04  0.50400001928E-02 0.  1.
       -1    1    3    3    0  502  0.79601291487E+03 -0.42306941497E+03 -0.11275399712E+04  0.14435964384E+04  0.50400001928E-02 0. -1.
</event>
<event>
 5   0  0.1474012E-05  0.2808740E+04  0.7818609E-02  0.8300560E-01
        1   -1    0    0  501    0  0.00000000000E+00  0.00000000000E+00  0.18697589557E+04  0.18697589557E+04  0.50400001928E-02 0.  1.
       -1   -1    0    0    0  501  0.00000000000E+00  0.00000000000E+00 -0.10548176222E+04  0.10548176222E+04  0.50400001928E-02 0. -1.
    10030    2    1    2    0    0  0.00000000000E+00  0.00000000000E+00  0.81494133348E+03  0.29245765779E+04  0.28087397143E+04 0.  0.
        2    1    3    3  502    0 -0.88341616754E+03 -0.28211476107E+03  0.15055939884E+04  0.17682833827E+04  0.25500000920E-02 0.  1.
       -2    1    3    3    0  502  0.88341616754E+03  0.28211476107E+03 -0.69065265493E+03  0.11562931952E+04  0.25500000920E-02 0. -1.
</event>
<event>
 5   0  0.1474012E-05  0.2694735E+04  0.7818609E-02  0.8336715E-01
        1   -1    0    0  501    0  0.00000000000E+00  0.00000000000E+00  0.15627902667E+04  0.15627902667E+04  0.50400001928E-02 0. -1.
       -1   -1    0    0    0  501  0.00000000000E+00  0.00000000000E+00 -0.11616393038E+04  0.11616393038E+04  0.50400001928E-02 0.  1.
    10030    2    1    2    0    0  0.00000000000E+00  0.00000000000E+00  0.40115096297E+03  0.27244295705E+04  0.26947345676E+04 0.  0.
        2    1    3    3  502    0  0.86752114739E+02 -0.13375727727E+04  0.33909530288E+03  0.13826107464E+04  0.25500000920E-02 0. -1.
       -2    1    3    3    0  502 -0.86752114739E+02  0.13375727727E+04  0.62055660094E+02  0.13418188241E+04  0.25500000920E-02 0.  1.
</event>
<event>
 5   0  0.3568647E-05  0.2707800E+04  0.7818609E-02  0.8332479E-01
       -2   -1    0    0    0  501  0.00000000000E+00  0.00000000000E+00  0.19602732029E+04  0.19602732029E+04  0.25500000920E-02 0.  1.
        2   -1    0    0  501    0  0.00000000000E+00  0.00000000000E+00 -0.93509673253E+03  0.93509673253E+03  0.25500000920E-02 0. -1.
    10030    2    1    2    0    0  0.00000000000E+00  0.00000000000E+00  0.10251764704E+04  0.28953699355E+04  0.27077998943E+04 0.  0.
        3    1    3    3  502    0  0.69540074913E+03 -0.64536067964E+03  0.15454017278E+04  0.18133778203E+04  0.10100000352E+00 0.  1.
       -3    1    3    3    0  502 -0.69540074913E+03  0.64536067964E+03 -0.52022525735E+03  0.10819921152E+04  0.10100000352E+00 0. -1.
</event>
<event>
 5   0  0.3514294E-05  0.2481111E+04  0.7818609E-02  0.8409746E-01
        2   -1    0    0  501    0  0.00000000000E+00  0.00000000000E+00  0.26580367094E+04  0.26580367094E+04  0.25500000920E-02 0. -1.
       -2   -1    0    0    0  501  0.00000000000E+00  0.00000000000E+00 -0.57899032950E+03  0.57899032950E+03  0.25500000920E-02 0.  1.
    10030    2    1    2    0    0  0.00000000000E+00  0.00000000000E+00  0.20790463799E+04  0.32370270389E+04  0.24811106789E+04 0.  0.
        2    1    3    3  502    0 -0.38336036181E+03  0.19761367251E+03 -0.47802630087E+03  0.64383652809E+03  0.25500000920E-02 0.  1.
       -2    1    3    3    0  502  0.38336036181E+03 -0.19761367251E+03  0.25570726808E+04  0.25931905108E+04  0.25500000920E-02 0. -1.
</event>
<event>
 5   0  0.3514294E-05  0.1599302E+04  0.7818609E-02  0.8820977E-01
        2   -1    0    0  501    0  0.00000000000E+00  0.00000000000E+00  0.25302124028E+04  0.25302124028E+04  0.25500000920E-02 0.  1.
       -2   -1    0    0    0  501  0.00000000000E+00  0.00000000000E+00 -0.25272261444E+03  0.25272261445E+03  0.25500000920E-02 0. -1.
    10030    2    1    2    0    0  0.00000000000E+00  0.00000000000E+00  0.22774897883E+04  0.27829350172E+04  0.15993022148E+04 0.  0.
        2    1    3    3  502    0 -0.62757569869E+03  0.28423315885E+03  0.18451502120E+04  0.19695733170E+04  0.25500000920E-02 0.  1.
       -2    1    3    3    0  502  0.62757569869E+03 -0.28423315885E+03  0.43233957639E+03  0.81336170028E+03  0.25500000920E-02 0. -1.
</event>
<event>
 5   0  0.1438701E-05  0.1688844E+04  0.7818609E-02  0.8767753E-01
       -1   -1    0    0    0  501  0.00000000000E+00  0.00000000000E+00  0.12651739042E+04  0.12651739042E+04  0.50400001928E-02 0. -1.
        1   -1    0    0  501    0  0.00000000000E+00  0.00000000000E+00 -0.56359722511E+03  0.56359722513E+03  0.50400001928E-02 0.  1.
    10030    2    1    2    0    0  0.00000000000E+00  0.00000000000E+00  0.70157667913E+03  0.18287711294E+04  0.16888439854E+04 0.  0.
        4    1    3    3  502    0 -0.33009867871E+03  0.52063971927E+02 -0.48894442739E+03  0.59223649063E+03  0.12699999809E+01 0.  1.
       -4    1    3    3    0  502  0.33009867871E+03 -0.52063971927E+02  0.11905211065E+04  0.12365346387E+04  0.12699999809E+01 0. -1.
</event>
<event>
 5   0  0.1228050E-05  0.2769994E+04  0.7818609E-02  0.8312645E-01
        3   -1    0    0  501    0  0.00000000000E+00  0.00000000000E+00  0.15675470212E+04  0.15675470245E+04  0.10100000352E+00 0.  1.
       -3   -1    0    0    0  501  0.00000000000E+00  0.00000000000E+00 -0.12237057866E+04  0.12237057908E+04  0.10100000352E+00 0. -1.
    10030    2    1    2    0    0  0.00000000000E+00  0.00000000000E+00  0.34384123457E+03  0.27912528152E+04  0.27699937697E+04 0.  0.
        2    1    3    3  502    0 -0.36324130471E+03 -0.10977644809E+04  0.94012659315E+03  0.14902580690E+04  0.25500000920E-02 0. -1.
       -2    1    3    3    0  502  0.36324130471E+03  0.10977644809E+04 -0.59628535858E+03  0.13009947463E+04  0.25500000920E-02 0.  1.
</event>
<event>
 5   0  0.3652331E-05  0.1763501E+04  0.7818609E-02  0.8725953E-01
       -2   -1    0    0    0  501  0.00000000000E+00  0.00000000000E+00  0.47594165861E+03  0.47594165861E+03  0.25500000920E-02 0.  1.
        2   -1    0    0  501    0  0.00000000000E+00  0.00000000000E+00 -0.16335707437E+04  0.16335707437E+04  0.25500000920E-02 0. -1.
    10030    2    1    2    0    0  0.00000000000E+00  0.00000000000E+00 -0.11576290851E+04  0.21095124023E+04  0.17635014820E+04 0.  0.
        1    1    3    3  502    0 -0.40374647863E+03  0.73204514069E+03 -0.24348584033E+03  0.87073914663E+03  0.50400001928E-02 0.  1.
       -1    1    3    3    0  502  0.40374647863E+03 -0.73204514069E+03 -0.91414324476E+03  0.12387732557E+04  0.50400001928E-02 0. -1.
</event>
<event>
 5   0  0.3568647E-05  0.2701427E+04  0.7818609E-02  0.8334542E-01
       -2   -1    0    0    0  501  0.00000000000E+00  0.00000000000E+00  0.68745971099E+03  0.68745971099E+03  0.25500000920E-02 0. -1.
        2   -1    0    0  501    0  0.00000000000E+00  0.00000000000E+00 -0.26538680838E+04  0.26538680838E+04  0.25500000920E-02 0.  1.
    10030    2    1    2    0    0  0.00000000000E+00  0.00000000000E+00 -0.19664083728E+04  0.33413277948E+04  0.27014273160E+04 0.  0.
        3    1    3    3  502    0  0.50204545231E+03 -0.17155234533E+03  0.55318547293E+03  0.76648158558E+03  0.10100000352E+00 0. -1.
       -3    1    3    3    0  502 -0.50204545231E+03  0.17155234533E+03 -0.25195938457E+04  0.25748462092E+04  0.10100000352E+00 0.  1.
</event>
<event>
 5   0  0.1474012E-05  0.2690176E+04  0.7818609E-02  0.8338199E-01
       -1   -1    0    0    0  501  0.00000000000E+00  0.00000000000E+00  0.99855216170E+03  0.99855216172E+03  0.50400001928E-02 0.  1.
        1   -1    0    0  501    0  0.00000000000E+00  0.00000000000E+00 -0.18118853282E+04  0.18118853282E+04  0.50400001928E-02 0. -1.
    10030    2    1    2    0    0  0.00000000000E+00  0.00000000000E+00 -0.81333316648E+03  0.28104374899E+04  0.26901762108E+04 0.  0.
        2    1    3    3  502    0 -0.11207868656E+04 -0.56244261640E+03  0.10166222527E+03  0.12581097340E+04  0.25500000920E-02 0.  1.
       -2    1    3    3    0  502  0.11207868656E+04  0.56244261640E+03 -0.91499539175E+03  0.15523277559E+04  0.25500000920E-02 0. -1.
</event>
<event>
 5   0  0.3568647E-05  0.2774655E+04  0.7818609E-02  0.8311180E-01
       -2   -1    0    0    0  501  0.00000000000E+00  0.00000000000E+00  0.89987673818E+03  0.89987673818E+03  0.25500000920E-02 0.  1.
        2   -1    0    0  501    0  0.00000000000E+00  0.00000000000E+00 -0.21388234282E+04  0.21388234282E+04  0.25500000920E-02 0. -1.
    10030    2    1    2    0    0  0.00000000000E+00  0.00000000000E+00 -0.12389466900E+04  0.30387001664E+04  0.27746548975E+04 0.  0.
        3    1    3    3  502    0  0.63755974821E+03  0.76965143193E+03  0.43429438238E+03  0.10897051803E+04  0.10100000352E+00 0.  1.
       -3    1    3    3    0  502 -0.63755974821E+03 -0.76965143193E+03 -0.16732410724E+04  0.19489949861E+04  0.10100000352E+00 0. -1.
</event>
<event>
 5   0  0.3514294E-05  0.2723210E+04  0.7818609E-02  0.8327513E-01
        2   -1    0    0  501    0  0.00000000000E+00  0.00000000000E+00  0.14583836017E+04  0.14583836017E+04  0.25500000920E-02 0.  1.
       -2   -1    0    0    0  501  0.00000000000E+00  0.00000000000E+00 -0.12712482256E+04  0.12712482256E+04  0.25500000920E-02 0. -1.
    10030    2    1    2    0    0  0.00000000000E+00  0.00000000000E+00  0.18713537608E+03  0.27296318273E+04  0.27232095519E+04 0.  0.
        2    1    3    3  502    0 -0.52085348298E+03  0.46745139927E+03  0.12642983825E+04  0.14450777008E+04  0.25500000920E-02 0.  1.
       -2    1    3    3    0  502  0.52085348298E+03 -0.46745139927E+03 -0.10771630064E+04  0.12845541265E+04  0.25500000920E-02 0. -1.
</event>
<event>
 5   0  0.3497949E-05  0.2678364E+04  0.7818609E-02  0.8342059E-01
        2   -1    0    0  501    0  0.00000000000E+00  0.00000000000E+00  0.11328825903E+04  0.11328825903E+04  0.25500000920E-02 0.  1.
       -2   -1    0    0    0  501  0.00000000000E+00  0.00000000000E+00 -0.15830490774E+04  0.15830490774E+04  0.25500000920E-02 0. -1.
    10030    2    1    2    0    0  0.00000000000E+00  0.00000000000E+00 -0.45016648708E+03  0.27159316678E+04  0.26783642318E+04 0.  0.
        5    1    3    3  502    0 -0.10534372617E+02  0.78652776607E+03  0.87393119392E+03  0.11758038618E+04  0.46999998093E+01 0.  1.
       -5    1    3    3    0  502  0.10534372617E+02 -0.78652776607E+03 -0.13240976810E+04  0.15401278059E+04  0.46999998093E+01 0. -1.
</event>
<event>
 5   0  0.1449521E-05  0.2642044E+04  0.7818609E-02  0.8354058E-01
       -1   -1    0    0    0  501  0.00000000000E+00  0.00000000000E+00  0.12630551097E+04  0.12630551097E+04  0.50400001928E-02 0.  1.
        1   -1    0    0  501    0  0.00000000000E+00  0.00000000000E+00 -0.13816493879E+04  0.13816493879E+04  0.50400001928E-02 0. -1.
    10030    2    1    2    0    0  0.00000000000E+00  0.00000000000E+00 -0.11859427812E+03  0.26447044976E+04  0.26420441474E+04 0.  0.
        3    1    3    3  502    0 -0.10214698337E+03  0.93591388571E+03  0.86831308774E+03  0.12807561970E+04  0.10100000352E+00 0.  1.
       -3    1    3    3    0  502  0.10214698337E+03 -0.93591388571E+03 -0.98690736586E+03  0.13639483006E+04  0.10100000352E+00 0. -1.
</event>
<event>
 5   0  0.1495517E-05  0.2751821E+04  0.7818609E-02  0.8318384E-01
        1   -1    0    0  501    0  0.00000000000E+00  0.00000000000E+00  0.29766247329E+04  0.29766247329E+04  0.50400001928E-02 0. -1.
       -1   -1    0    0    0  501  0.00000000000E+00  0.00000000000E+00 -0.63599885668E+03  0.63599885670E+03  0.50400001928E-02 0.  1.
    10030    2    1    2    0    0  0.00000000000E+00  0.00000000000E+00  0.23406258762E+04  0.36126235895E+04  0.27518211620E+04 0.  0.
        5    1    3    3  502    0 -0.19879063709E+03 -0.13177996391E+04  0.72127324733E+03  0.15153781025E+04  0.46999998093E+01 0.  1.
       -5    1    3    3    0  502  0.19879063709E+03  0.13177996391E+04  0.16193526288E+04  0.20972454870E+04  0.46999998093E+01 0. -1.
</event>
<event>
 5   0  0.3652331E-05  0.2581032E+04  0.7818609E-02  0.8374673E-01
       -2   -1    0    0    0  501  0.00000000000E+00  0.00000000000E+00  0.75486869347E+03  0.75486869347E+03  0.25500000920E-02 0. -1.
        2   -1    0    0  501    0  0.00000000000E+00  0.00000000000E+00 -0.22062531181E+04  0.22062531181E+04  0.25500000920E-02 0.  1.
    10030    2    1    2    0    0  0.00000000000E+00  0.00000000000E+00 -0.14513844247E+04  0.29611218116E+04  0.25810318934E+04 0.  0.
        1    1    3    3  502    0 -0.40835969497E+03 -0.85060207717E+03  0.28438771972E+03  0.98547344425E+03  0.50400001928E-02 0. -1.
       -1    1    3    3    0  502  0.40835969497E+03  0.85060207717E+03 -0.17357721444E+04  0.19756483673E+04  0.50400001928E-02 0.  1.
</event>
<event>
 5   0  0.1474012E-05  0.2708583E+04  0.7818609E-02  0.8332225E-01
       -1   -1    0    0    0  501  0.00000000000E+00  0.00000000000E+00  0.13663731172E+04  0.13663731172E+04  0.50400001928E-02 0. -1.
        1   -1    0    0  501    0  0.00000000000E+00  0.00000000000E+00 -0.13423168282E+04  0.13423168282E+04  0.50400001928E-02 0.  1.
    10030    2    1    2    0    0  0.00000000000E+00  0.00000000000E+00  0.24056289049E+02  0.27086899454E+04  0.27085831195E+04 0.  0.
        2    1    3    3  502    0  0.53915619538E+03 -0.10980753262E+04 -0.56906860965E+03  0.13491841637E+04  0.25500000920E-02 0.  1.
       -2    1    3    3    0  502 -0.53915619538E+03  0.10980753262E+04  0.59312489870E+03  0.13595057817E+04  0.25500000920E-02 0. -1.
</event>
<event>
 5   0  0.3514294E-05  0.2647481E+04  0.7818609E-02  0.8352249E-01
        2   -1    0    0  501    0  0.00000000000E+00  0.00000000000E+00  0.19144721297E+04  0.19144721297E+04  0.25500000920E-02 0.  1.
       -2   -1    0    0    0  501  0.00000000000E+00  0.00000000000E+00 -0.91528581048E+03  0.91528581048E+03  0.25500000920E-02 0. -1.
    10030    2    1    2    0    0  0.00000000000E+00  0.00000000000E+00  0.99918631920E+03  0.28297579402E+04  0.26474811991E+04 0.  0.
        2    1    3    3  502    0  0.12502241689E+04 -0.18002992907E+03  0.92286001012E+03  0.15643343141E+04  0.25500000920E-02 0.  1.
       -2    1    3    3    0  502 -0.12502241689E+04  0.18002992907E+03  0.76326309080E+02  0.12654236261E+04  0.25500000920E-02 0. -1.
</event>
<event>
 5   0  0.1484379E-05  0.2682931E+04  0.7818609E-02  0.8340565E-01
        1   -1    0    0  501    0  0.00000000000E+00  0.00000000000E+00  0.19978694818E+04  0.19978694818E+04  0.50400001928E-02 0.  1.
       -1   -1    0    0    0  501  0.00000000000E+00  0.00000000000E+00 -0.90072414562E+03  0.90072414563E+03  0.50400001928E-02 0. -1.
    10030    2    1    2    0    0  0.00000000000E+00  0.00000000000E+00  0.10971453361E+04  0.28985936274E+04  0.26829306976E+04 0.  0.
        1    1    3    3  502    0  0.11847264912E+04  0.17845168531E+03  0.12004901730E+04  0.16960538076E+04  0.50400001928E-02 0. -1.
       -1    1    3    3    0  502 -0.11847264912E+04 -0.17845168531E+03 -0.10334483682E+03  0.12025398198E+04  0.50400001928E-02 0.  1.
</event>
<event>
 5   0  0.3676724E-05  0.2907619E+04  0.7818609E-02  0.8270614E-01
        2   -1    0    0  501    0  0.00000000000E+00  0.00000000000E+00  0.15395395002E+04  0.15395395002E+04  0.25500000920E-02 0.  1.
       -2   -1    0    0    0  501  0.00000000000E+00  0.00000000000E+00 -0.13728535035E+04  0.13728535035E+04  0.25500000920E-02 0. -1.
    10030    2    1    2    0    0  0.00000000000E+00  0.00000000000E+00  0.16668599670E+03  0.29123930037E+04  0.29076190924E+04 0.  0.
        4    1    3    3  502    0  0.24345869376E+03 -0.12714562177E+04 -0.57932279996E+03  0.14182699209E+04  0.12699999809E+01 0. -1.
       -4    1    3    3    0  502 -0.24345869376E+03  0.12714562177E+04  0.74600879665E+03  0.14941230828E+04  0.12699999809E+01 0.  1.
</event>
<event>
 5   0  0.1438701E-05  0.2590659E+04  0.7818609E-02  0.8371381E-01
       -1   -1    0    0    0  501  0.00000000000E+00  0.00000000000E+00  0.12914284554E+04  0.12914284554E+04  0.50400001928E-02 0.  1.
        1   -1    0    0  501    0  0.00000000000E+00  0.00000000000E+00 -0.12992421055E+04  0.12992421055E+04  0.50400001928E-02 0. -1.
    10030    2    1    2    0    0  0.00000000000E+00  0.00000000000E+00 -0.78136500415E+01  0.25906705609E+04  0.25906587776E+04 0.  0.
        4    1    3    3  502    0  0.83944878690E+02  0.17361207647E+03  0.12769927190E+04  0.12914719946E+04  0.12699999809E+01 0.  1.
       -4    1    3    3    0  502 -0.83944878690E+02 -0.17361207647E+03 -0.12848063690E+04  0.12991985662E+04  0.12699999809E+01 0. -1.
</event>
<event>
 5   0  0.3497949E-05  0.2686555E+04  0.7818609E-02  0.8339380E-01
        2   -1    0    0  501    0  0.00000000000E+00  0.00000000000E+00  0.13518226144E+04  0.13518226144E+04  0.25500000920E-02 0. -1.
       -2   -1    0    0    0  501  0.00000000000E+00  0.00000000000E+00 -0.13347868542E+04  0.13347868542E+04  0.25500000920E-02 0.  1.
    10030    2    1    2    0    0  0.00000000000E+00  0.00000000000E+00  0.17035760189E+02  0.26866094686E+04  0.26865554563E+04 0.  0.
        5    1    3    3  502    0  0.12750111908E+03  0.45197606508E+03 -0.12500121163E+04  0.13353244099E+04  0.46999998093E+01 0.  1.
       -5    1    3    3    0  502 -0.12750111908E+03 -0.45197606508E+03  0.12670478765E+04  0.13512850588E+04  0.46999998093E+01 0. -1.
</event>
<event>
 5   0  0.1438701E-05  0.1368078E+04  0.7818609E-02  0.8977255E-01
       -1   -1    0    0    0  501  0.00000000000E+00  0.00000000000E+00  0.48520978530E+03  0.48520978533E+03  0.50400001928E-02 0.  1.
        1   -1    0    0  501    0  0.00000000000E+00  0.00000000000E+00 -0.96434382902E+03  0.96434382903E+03  0.50400001928E-02 0. -1.
    10030    2    1    2    0    0  0.00000000000E+00  0.00000000000E+00 -0.47913404371E+03  0.14495536144E+04  0.13680775742E+04 0.  0.
        4    1    3    3  502    0  0.55535857478E+03  0.98025499276E+02  0.17062631188E+03  0.58919190108E+03  0.12699999809E+01 0.  1.
       -4    1    3    3    0  502 -0.55535857478E+03 -0.98025499276E+02 -0.64976035559E+03  0.86036171328E+03  0.12699999809E+01 0. -1.
</event>
<event>
 5   0  0.1495517E-05  0.2722125E+04  0.7818609E-02  0.8327862E-01
        1   -1    0    0  501    0  0.00000000000E+00  0.00000000000E+00  0.16375858392E+04  0.16375858393E+04  0.50400001928E-02 0.  1.
       -1   -1    0    0    0  501  0.00000000000E+00  0.00000000000E+00 -0.11312331756E+04  0.11312331757E+04  0.50400001928E-02 0. -1.
    10030    2    1    2    0    0  0.00000000000E+00  0.00000000000E+00  0.50635266360E+03  0.27688190149E+04  0.27221252207E+04 0.  0.
        5    1    3    3  502    0 -0.62707386221E+03  0.11144957347E+04 -0.22080731087E+03  0.12977289123E+04  0.46999998093E+01 0. -1.
       -5    1    3    3    0  502  0.62707386221E+03 -0.11144957347E+04  0.72715997447E+03  0.14710901026E+04  0.46999998093E+01 0.  1.
</event>
<event>
 5   0  0.3652331E-05  0.2693873E+04  0.7818609E-02  0.8336996E-01
        2   -1    0    0  501    0  0.00000000000E+00  0.00000000000E+00  0.21730646320E+04  0.21730646320E+04  0.25500000920E-02 0.  1.
       -2   -1    0    0    0  501  0.00000000000E+00  0.00000000000E+00 -0.83487517431E+03  0.83487517431E+03  0.25500000920E-02 0. -1.
    10030    2    1    2    0    0  0.00000000000E+00  0.00000000000E+00  0.13381894577E+04  0.30079398063E+04  0.26938728355E+04 0.  0.
        1    1    3    3  502    0  0.75663365635E+03 -0.93535325287E+03  0.13453968671E+04  0.18048470649E+04  0.50400001928E-02 0.  1.
       -1    1    3    3    0  502 -0.75663365635E+03  0.93535325287E+03 -0.72074094833E+01  0.12030927414E+04  0.50400001928E-02 0. -1.
</event>
<event>
 5   0  0.1449521E-05  0.2715943E+04  0.7818609E-02  0.8329851E-01
        1   -1    0    0  501    0  0.00000000000E+00  0.00000000000E+00  0.88756685384E+03  0.88756685386E+03  0.50400001928E-02 0. -1.
       -1   -1    0    0    0  501  0.00000000000E+00  0.00000000000E+00 -0.20776874343E+04  0.20776874343E+04  0.50400001928E-02 0.  1.
    10030    2    1    2    0    0  0.00000000000E+00  0.00000000000E+00 -0.11901205805E+04  0.29652542882E+04  0.27159429297E+04 0.  0.
        3    1    3    3  502    0  0.43715437484E+02  0.39020685563E+03 -0.20143583607E+04  0.20522699738E+04  0.10100000352E+00 0.  1.
       -3    1    3    3    0  502 -0.43715437484E+02 -0.39020685563E+03  0.82423778028E+03  0.91298431438E+03  0.10100000352E+00 0. -1.
</event>
<event>
 5   0  0.3652331E-05  0.2695670E+04  0.7818609E-02  0.8336411E-01
        2   -1    0    0  501    0  0.00000000000E+00  0.00000000000E+00  0.25690417062E+04  0.25690417062E+04  0.25500000920E-02 0.  1.
       -2   -1    0    0    0  501  0.00000000000E+00  0.00000000000E+00 -0.70713504433E+03  0.70713504433E+03  0.25500000920E-02 0. -1.
    10030    2    1    2    0    0  0.00000000000E+00  0.00000000000E+00  0.18619066619E+04  0.32761767506E+04  0.26956701733E+04 0.  0.
        1    1    3    3  502    0 -0.77469493541E+03  0.92117936825E+02  0.22667424331E+04  0.23972399161E+04  0.50400001928E-02 0.  1.
       -1    1    3    3    0  502  0.77469493541E+03 -0.92117936825E+02 -0.40483577124E+03  0.87893683444E+03  0.50400001928E-02 0. -1.
</event>
<event>
 5   0  0.1449521E-05  0.2624537E+04  0.7818609E-02  0.8359914E-01
        1   -1    0    0  501    0  0.00000000000E+00  0.00000000000E+00  0.22723418412E+04  0.22723418412E+04  0.50400001928E-02 0.  1.
       -1   -1    0    0    0  501  0.00000000000E+00  0.00000000000E+00 -0.75782978474E+03  0.75782978475E+03  0.50400001928E-02 0. -1.
    10030    2    1    2    0    0  0.00000000000E+00  0.00000000000E+00  0.15145120565E+04  0.30301716260E+04  0.26245367808E+04 0.  0.
        3    1    3    3  502    0 -0.93761741826E+02 -0.87660103673E+03 -0.36499720933E+03  0.95417169045E+03  0.10100000352E+00 0. -1.
       -3    1    3    3    0  502  0.93761741826E+02  0.87660103673E+03  0.18795092658E+04  0.20759999355E+04  0.10100000352E+00 0.  1.
</event>
<event>
 5   0  0.1495517E-05  0.1782289E+04  0.7818609E-02  0.8715775E-01
       -1   -1    0    0    0  501  0.00000000000E+00  0.00000000000E+00  0.83371155416E+03  0.83371155418E+03  0.50400001928E-02 0.  1.
        1   -1    0    0  501    0  0.00000000000E+00  0.00000000000E+00 -0.95253421015E+03  0.95253421016E+03  0.50400001928E-02 0. -1.
    10030    2    1    2    0    0  0.00000000000E+00  0.00000000000E+00 -0.11882265599E+03  0.17862457643E+04  0.17822892883E+04 0.  0.
        5    1    3    3  502    0  0.28977145407E+03  0.80494597907E+03  0.19056401415E+03  0.87649430022E+03  0.46999998093E+01 0.  1.
       -5    1    3    3    0  502 -0.28977145407E+03 -0.80494597907E+03 -0.30938667014E+03  0.90975146413E+03  0.46999998093E+01 0. -1.
</event>
<event>
 5   0  0.3676724E-05  0.2832740E+04  0.7818609E-02  0.8293175E-01
        2   -1    0    0  501    0  0.00000000000E+00  0.00000000000E+00  0.11343979596E+04  0.11343979596E+04  0.25500000920E-02 0.  1.
       -2   -1    0    0    0  501  0.00000000000E+00  0.00000000000E+00 -0.17684306698E+04  0.17684306698E+04  0.25500000920E-02 0. -1.
    10030    2    1    2    0    0  0.00000000000E+00  0.00000000000E+00 -0.63403271019E+03  0.29028286295E+04  0.28327401177E+04 0.  0.
        4    1    3    3  502    0 -0.25166720708E+03  0.13609865185E+04 -0.62526089070E+03  0.15187407550E+04  0.12699999809E+01 0. -1.
       -4    1    3    3    0  502  0.25166720708E+03 -0.13609865185E+04 -0.87718194939E+01  0.13840878745E+04  0.12699999809E+01 0.  1.
</event>
<event>
 5   0  0.3514294E-05  0.2702157E+04  0.7818609E-02  0.8334305E-01
        2   -1    0    0  501    0  0.00000000000E+00  0.00000000000E+00  0.15795953818E+04  0.15795953818E+04  0.25500000920E-02 0. -1.
       -2   -1    0    0    0  501  0.00000000000E+00  0.00000000000E+00 -0.11556209960E+04  0.11556209960E+04  0.25500000920E-02 0.  1.
    10030    2    1    2    0    0  0.00000000000E+00  0.00000000000E+00  0.42397438579E+03  0.27352163779E+04  0.27021573518E+04 0.  0.
        2    1    3    3  502    0 -0.12278332252E+04  0.35195411838E+03  0.65779276285E+03  0.14367106352E+04  0.25500000920E-02 0. -1.
       -2    1    3    3    0  502  0.12278332252E+04 -0.35195411838E+03 -0.23381837707E+03  0.12985057427E+04  0.25500000920E-02 0.  1.
</event>
<event>
 5   0  0.1438701E-05  0.1484523E+04  0.7818609E-02  0.8894811E-01
        1   -1    0    0  501    0  0.00000000000E+00  0.00000000000E+00  0.98501219120E+03  0.98501219121E+03  0.50400001928E-02 0. -1.
       -1   -1    0    0    0  501  0.00000000000E+00  0.00000000000E+00 -0.55933506762E+03  0.55933506764E+03  0.50400001928E-02 0.  1.
    10030    2    1    2    0    0  0.00000000000E+00  0.00000000000E+00  0.42567712358E+03  0.15443472588E+04  0.14845226311E+04 0.  0.
        4    1    3    3  502    0 -0.53084870244E+02  0.22741289955E+03 -0.52012242127E+03  0.57014346997E+03  0.12699999809E+01 0.  1.
       -4    1    3    3    0  502  0.53084870244E+02 -0.22741289955E+03  0.94579954485E+03  0.97420378888E+03  0.12699999809E+01 0. -1.
</event>
<event>
 5   0  0.3497949E-05  0.2716259E+04  0.7818609E-02  0.8329749E-01
       -2   -1    0    0    0  501  0.00000000000E+00  0.00000000000E+00  0.10979562210E+04  0.10979562210E+04  0.25500000920E-02 0. -1.
        2   -1    0    0  501    0  0.00000000000E+00  0.00000000000E+00 -0.16799541801E+04  0.16799541801E+04  0.25500000920E-02 0.  1.
    10030    2    1    2    0    0  0.00000000000E+00  0.00000000000E+00 -0.58199795913E+03  0.27779104011E+04  0.27162592977E+04 0.  0.
        5    1    3    3  502    0 -0.31271782990E+03 -0.68455984712E+03 -0.14471802511E+04  0.16311858859E+04  0.46999998093E+01 0.  1.
       -5    1    3    3    0  502  0.31271782990E+03  0.68455984712E+03  0.86518229192E+03  0.11467245152E+04  0.46999998093E+01 0. -1.
</event>
<event>
 5   0  0.1484379E-05  0.2827939E+04  0.7818609E-02  0.8294647E-01
       -1   -1    0    0    0  501  0.00000000000E+00  0.00000000000E+00  0.18622746282E+04  0.18622746282E+04  0.50400001928E-02 0. -1.
        1   -1    0    0  501    0  0.00000000000E+00  0.00000000000E+00 -0.10735844474E+04  0.10735844474E+04  0.50400001928E-02 0.  1.
    10030    2    1    2    0    0  0.00000000000E+00  0.00000000000E+00  0.78869018083E+03  0.29358590756E+04  0.28279385266E+04 0.  0.
        1    1    3    3  502    0  0.90266066036E+03 -0.84513594484E+03  0.11062686371E+04  0.16591809216E+04  0.50400001928E-02 0. -1.
       -1    1    3    3    0  502 -0.90266066036E+03  0.84513594484E+03 -0.31757845629E+03  0.12766781540E+04  0.50400001928E-02 0.  1.
</event>
<event>
 5   0  0.3676724E-05  0.2755877E+04  0.7818609E-02  0.8317099E-01
       -2   -1    0    0    0  501  0.00000000000E+00  0.00000000000E+00  0.14391471180E+04  0.14391471180E+04  0.25500000920E-02 0.  1.
        2   -1    0    0  501    0  0.00000000000E+00  0.00000000000E+00 -0.13193327772E+04  0.13193327772E+04  0.25500000920E-02 0. -1.
    10030    2    1    2    0    0  0.00000000000E+00  0.00000000000E+00  0.11981434084E+03  0.27584798952E+04  0.27558766039E+04 0.  0.
        4    1    3    3  502    0 -0.57509446419E+03 -0.84349478297E+03 -0.86643735006E+03  0.13390042517E+04  0.12699999809E+01 0. -1.
       -4    1    3    3    0  502  0.57509446419E+03  0.84349478297E+03  0.98625169090E+03  0.14194756434E+04  0.12699999809E+01 0.  1.
</event>
<event>
 5   0  0.1474012E-05  0.2661099E+04  0.7818609E-02  0.8347738E-01
        1   -1    0    0  501    0  0.00000000000E+00  0.00000000000E+00  0.13602979010E+04  0.13602979010E+04  0.50400001928E-02 0.  1.
       -1   -1    0    0    0  501  0.00000000000E+00  0.00000000000E+00 -0.13014515365E+04  0.13014515366E+04  0.50400001928E-02 0. -1.
    10030    2    1    2    0    0  0.00000000000E+00  0.00000000000E+00  0.58846364490E+02  0.26617494376E+04  0.26610988659E+04 0.  0.
        2    1    3    3  502    0  0.71799846739E+03 -0.11065624929E+04 -0.14485903053E+03  0.13270216609E+04  0.25500000920E-02 0.  1.
       -2    1    3    3    0  502 -0.71799846739E+03  0.11065624929E+04  0.20370539502E+03  0.13347277767E+04  0.25500000920E-02 0. -1.
</event>
<event>
 5   0  0.1474012E-05  0.2644004E+04  0.7818609E-02  0.8353406E-01
       -1   -1    0    0    0  501  0.00000000000E+00  0.00000000000E+00  0.11394670646E+04  0.11394670646E+04  0.50400001928E-02 0.  1.
        1   -1    0    0  501    0  0.00000000000E+00  0.00000000000E+00 -0.15337783647E+04  0.15337783647E+04  0.50400001928E-02 0. -1.
    10030    2    1    2    0    0  0.00000000000E+00  0.00000000000E+00 -0.39431130011E+03  0.26732454293E+04  0.26440044864E+04 0.  0.
        2    1    3    3  502    0 -0.21064113712E+02  0.49222902979E+03  0.10431783947E+04  0.11536699172E+04  0.25500000920E-02 0.  1.
       -2    1    3    3    0  502  0.21064113712E+02 -0.49222902979E+03 -0.14374896948E+04  0.15195755122E+04  0.25500000920E-02 0. -1.
</event>
<event>
 5   0  0.3514294E-05  0.2690913E+04  0.7818609E-02  0.8337960E-01
       -2   -1    0    0    0  501  0.00000000000E+00  0.00000000000E+00  0.84212359502E+03  0.84212359502E+03  0.25500000920E-02 0.  1.
        2   -1    0    0  501    0  0.00000000000E+00  0.00000000000E+00 -0.21496282916E+04  0.21496282916E+04  0.25500000920E-02 0. -1.
    10030    2    1    2    0    0  0.00000000000E+00  0.00000000000E+00 -0.13075046966E+04  0.29917518867E+04  0.26909126370E+04 0.  0.
        2    1    3    3  502    0 -0.10294724669E+03  0.23364287105E+03 -0.21224481431E+04  0.21377495754E+04  0.25500000920E-02 0. -1.
       -2    1    3    3    0  502  0.10294724669E+03 -0.23364287105E+03  0.81494344647E+03  0.85400231132E+03  0.25500000920E-02 0.  1.
</event>
<event>
 5   0  0.1495517E-05  0.2679907E+04  0.7818609E-02  0.8341554E-01
        1   -1    0    0  501    0  0.00000000000E+00  0.00000000000E+00  0.13328080154E+04  0.13328080154E+04  0.50400001928E-02 0.  1.
       -1   -1    0    0    0  501  0.00000000000E+00  0.00000000000E+00 -0.13471371836E+04  0.13471371836E+04  0.50400001928E-02 0. -1.
    10030    2    1    2    0    0  0.00000000000E+00  0.00000000000E+00 -0.14329168197E+02  0.26799451990E+04  0.26799068910E+04 0.  0.
        5    1    3    3  502    0 -0.17664010727E+03  0.10529626928E+04 -0.81681866275E+03  0.13443016692E+04  0.46999998093E+01 0. -1.
       -5    1    3    3    0  502  0.17664010727E+03 -0.10529626928E+04  0.80248949455E+03  0.13356435298E+04  0.46999998093E+01 0.  1.
</event>
<event>
 5   0  0.1438701E-05  0.1679561E+04  0.7818609E-02  0.8773108E-01
       -1   -1    0    0    0  501  0.00000000000E+00  0.00000000000E+00  0.66583398583E+03  0.66583398585E+03  0.50400001928E-02 0. -1.
        1   -1    0    0  501    0  0.00000000000E+00  0.00000000000E+00 -0.10591695660E+04  0.10591695660E+04  0.50400001928E-02 0.  1.
    10030    2    1    2    0    0  0.00000000000E+00  0.00000000000E+00 -0.39333558018E+03  0.17250035519E+04  0.16795607686E+04 0.  0.
        4    1    3    3  502    0  0.42380676826E+03  0.71662138692E+03 -0.30950895224E+03  0.88823183541E+03  0.12699999809E+01 0. -1.
       -4    1    3    3    0  502 -0.42380676826E+03 -0.71662138692E+03 -0.83826627940E+02  0.83677171646E+03  0.12699999809E+01 0.  1.
</event>
<event>
 5   0  0.1495517E-05  0.2771552E+04  0.7818609E-02  0.8312155E-01
       -1   -1    0    0    0  501  0.00000000000E+00  0.00000000000E+00  0.15403416940E+04  0.15403416940E+04  0.50400001928E-02 0.  1.
        1   -1    0    0  501    0  0.00000000000E+00  0.00000000000E+00 -0.12467201877E+04  0.12467201877E+04  0.50400001928E-02 0. -1.
    10030    2    1    2    0    0  0.00000000000E+00  0.00000000000E+00  0.29362150630E+03  0.27870618817E+04  0.27715519738E+04 0.  0.
        5    1    3    3  502    0 -0.11389279703E+04  0.54749811334E+03  0.71871288777E+03  0.14537817617E+04  0.46999998093E+01 0.  1.
       -5    1    3    3    0  502  0.11389279703E+04 -0.54749811334E+03 -0.42509138146E+03  0.13332801200E+04  0.46999998093E+01 0. -1.
</event>
<event>
 5   0  0.3514294E-05  0.2647400E+04  0.7818609E-02  0.8352276E-01
       -2   -1    0    0    0  501  0.00000000000E+00  0.00000000000E+00  0.11187160609E+04  0.11187160609E+04  0.25500000920E-02 0.  1.
        2   -1    0    0  501    0  0.00000000000E+00  0.00000000000E+00 -0.15662434345E+04  0.15662434345E+04  0.25500000920E-02 0. -1.
    10030    2    1    2    0    0  0.00000000000E+00  0.00000000000E+00 -0.44752737361E+03  0.26849594954E+04  0.26473999966E+04 0.  0.
        2    1    3    3  502    0  0.80201288731E+03 -0.10461566533E+04 -0.10158348902E+03  0.13221148286E+04  0.25500000920E-02 0.  1.
       -2    1    3    3    0  502 -0.80201288731E+03  0.10461566533E+04 -0.34594388459E+03  0.13628446669E+04  0.25500000920E-02 0. -1.
</event>
<event>
 5   0  0.3514294E-05  0.2716709E+04  0.7818609E-02  0.8329604E-01
       -2   -1    0    0    0  501  0.00000000000E+00  0.00000000000E+00  0.13757545182E+04  0.13757545182E+04  0.25500000920E-02 0. -1.
        2   -1    0    0  501    0  0.00000000000E+00  0.00000000000E+00 -0.13411748601E+04  0.13411748601E+04  0.25500000920E-02 0.  1.
    10030    2    1    2    0    0  0.00000000000E+00  0.00000000000E+00  0.34579658103E+02  0.27169293782E+04  0.27167093134E+04 0.  0.
        2    1    3    3  502    0 -0.13562073252E+04 -0.75962528576E+02  0.24955873118E+02  0.13585622585E+04  0.25500000920E-02 0. -1.
       -2    1    3    3    0  502  0.13562073252E+04  0.75962528576E+02  0.96237849850E+01  0.13583671197E+04  0.25500000920E-02 0.  1.
</event>
<event>
 5   0  0.1484379E-05  0.2712562E+04  0.7818609E-02  0.8330940E-01
       -1   -1    0    0    0  501  0.00000000000E+00  0.00000000000E+00  0.12359453088E+04  0.12359453088E+04  0.50400001928E-02 0. -1.
        1   -1    0    0  501    0  0.00000000000E+00  0.00000000000E+00 -0.14883334301E+04  0.14883334301E+04  0.50400001928E-02 0.  1.
    10030    2    1    2    0    0  0.00000000000E+00  0.00000000000E+00 -0.25238812129E+03  0.27242787389E+04  0.27125624202E+04 0.  0.
        1    1    3    3  502    0  0.11536893163E+04  0.71262149994E+03 -0.10019246917E+03  0.13597304776E+04  0.50400001928E-02 0.  1.
       -1    1    3    3    0  502 -0.11536893163E+04 -0.71262149994E+03 -0.15219565212E+03  0.13645482613E+04  0.50400001928E-02 0. -1.
</event>
<event>
 5   0  0.3568647E-05  0.2751009E+04  0.7818609E-02  0.8318642E-01
        2   -1    0    0  501    0  0.00000000000E+00  0.00000000000E+00  0.14425315379E+04  0.14425315379E+04  0.25500000920E-02 0.  1.
       -2   -1    0    0    0  501  0.00000000000E+00  0.00000000000E+00 -0.13115915327E+04  0.13115915327E+04  0.25500000920E-02 0. -1.
    10030    2    1    2    0    0  0.00000000000E+00  0.00000000000E+00  0.13094000519E+03  0.27541230706E+04  0.27510086519E+04 0.  0.
        3    1    3    3  502    0  0.26485622811E+03 -0.27375062999E+03  0.13886788062E+04  0.14399712031E+04  0.10100000352E+00 0.  1.
       -3    1    3    3    0  502 -0.26485622811E+03  0.27375062999E+03 -0.12577388010E+04  0.13141518674E+04  0.10100000352E+00 0. -1.
</event>
<event>
 5   0  0.3568647E-05  0.2790079E+04  0.7818609E-02  0.8306355E-01
       -2   -1    0    0    0  501  0.00000000000E+00  0.00000000000E+00  0.82955586949E+03  0.82955586949E+03  0.25500000920E-02 0.  1.
        2   -1    0    0  501    0  0.00000000000E+00  0.00000000000E+00 -0.23459959223E+04  0.23459959223E+04  0.25500000920E-02 0. -1.
    10030    2    1    2    0    0  0.00000000000E+00  0.00000000000E+00 -0.15164400528E+04  0.31755517918E+04  0.27900786277E+04 0.  0.
        3    1    3    3  502    0  0.15783582808E+03 -0.85381911620E+03 -0.20009596047E+04  0.21812286863E+04  0.10100000352E+00 0. -1.
       -3    1    3    3    0  502 -0.15783582808E+03  0.85381911620E+03  0.48451955191E+03  0.99432310554E+03  0.10100000352E+00 0.  1.
</event>
<event>
 5   0  0.3676724E-05  0.1810660E+04  0.7818609E-02  0.8700651E-01
        2   -1    0    0  501    0  0.00000000000E+00  0.00000000000E+00  0.11253587691E+04  0.11253587691E+04  0.25500000920E-02 0. -1.
       -2   -1    0    0    0  501  0.00000000000E+00  0.00000000000E+00 -0.72832061939E+03  0.72832061939E+03  0.25500000920E-02 0.  1.
    10030    2    1    2    0    0  0.00000000000E+00  0.00000000000E+00  0.39703814967E+03  0.18536793884E+04  0.18106595436E+04 0.  0.
        4    1    3    3  502    0 -0.35324526313E+03  0.31522562460E+02 -0.65424500032E+03  0.74418681875E+03  0.12699999809E+01 0.  1.
       -4    1    3    3    0  502  0.35324526313E+03 -0.31522562460E+02  0.10512831500E+04  0.11094925697E+04  0.12699999809E+01 0. -1.
</event>
<event>
 5   0  0.1438701E-05  0.2907487E+04  0.7818609E-02  0.8270653E-01
        1   -1    0    0  501    0  0.00000000000E+00  0.00000000000E+00  0.15105369087E+04  0.15105369087E+04  0.50400001928E-02 0.  1.
       -1   -1    0    0    0  501  0.00000000000E+00  0.00000000000E+00 -0.13990850187E+04  0.13990850187E+04  0.50400001928E-02 0. -1.
    10030    2    1    2    0    0  0.00000000000E+00  0.00000000000E+00  0.11145189000E+03  0.29096219273E+04  0.29074865840E+04 0.  0.
        4    1    3    3  502    0 -0.14336561799E+04  0.21363653342E+03 -0.55519249871E+02  0.14505497615E+04  0.12699999809E+01 0. -1.
       -4    1    3    3    0  502  0.14336561799E+04 -0.21363653342E+03  0.16697113987E+03  0.14590721658E+04  0.12699999809E+01 0.  1.
</event>
<event>
 5   0  0.1438701E-05  0.2690071E+04  0.7818609E-02  0.8338234E-01
       -1   -1    0    0    0  501  0.00000000000E+00  0.00000000000E+00  0.86485068613E+03  0.86485068615E+03  0.50400001928E-02 0.  1.
        1   -1    0    0  501    0  0.00000000000E+00  0.00000000000E+00 -0.20918305183E+04  0.20918305183E+04  0.50400001928E-02 0. -1.
    10030    2    1    2    0    0  0.00000000000E+00  0.00000000000E+00 -0.12269798322E+04  0.29566812044E+04  0.26900714184E+04 0.  0.
        4    1    3    3  502    0 -0.23470772058E+03  0.13129348661E+04 -0.80460142371E+03  0.15576491070E+04  0.12699999809E+01 0. -1.
       -4    1    3    3    0  502  0.23470772058E+03 -0.13129348661E+04 -0.42237840845E+03  0.13990320974E+04  0.12699999809E+01 0.  1.
</event>
<event>
 5   0  0.3497949E-05  0.2730371E+04  0.7818609E-02  0.8325217E-01
       -2   -1    0    0    0  501  0.00000000000E+00  0.00000000000E+00  0.27808008451E+04  0.27808008451E+04  0.25500000920E-02 0.  1.
        2   -1    0    0  501    0  0.00000000000E+00  0.00000000000E+00 -0.67021387824E+03  0.67021387824E+03  0.25500000920E-02 0. -1.
    10030    2    1    2    0    0  0.00000000000E+00  0.00000000000E+00  0.21105869668E+04  0.34510147233E+04  0.27303709045E+04 0.  0.
        5    1    3    3  502    0 -0.12630553679E+04 -0.42901005881E+03  0.14223809891E+04  0.19500123746E+04  0.46999998093E+01 0.  1.
       -5    1    3    3    0  502  0.12630553679E+04  0.42901005881E+03  0.68820597768E+03  0.15010023487E+04  0.46999998093E+01 0. -1.
</event>
<event>
 5   0  0.1438701E-05  0.2699660E+04  0.7818609E-02  0.8335115E-01
       -1   -1    0    0    0  501  0.00000000000E+00  0.00000000000E+00  0.15789277246E+04  0.15789277246E+04  0.50400001928E-02 0.  1.
        1   -1    0    0  501    0  0.00000000000E+00  0.00000000000E+00 -0.11539739670E+04  0.11539739670E+04  0.50400001928E-02 0. -1.
    10030    2    1    2    0    0  0.00000000000E+00  0.00000000000E+00  0.42495375754E+03  0.27329016916E+04  0.26996603416E+04 0.  0.
        4    1    3    3  502    0 -0.16288975329E+03  0.81455458839E+03  0.12895360407E+04  0.15339286367E+04  0.12699999809E+01 0.  1.
       -4    1    3    3    0  502  0.16288975329E+03 -0.81455458839E+03 -0.86458228319E+03  0.11989730550E+04  0.12699999809E+01 0. -1.
</event>
<event>
 5   0  0.3568647E-05  0.1961588E+04  0.7818609E-02  0.8624793E-01
        2   -1    0    0  501    0  0.00000000000E+00  0.00000000000E+00  0.18593747826E+04  0.18593747826E+04  0.25500000920E-02 0. -1.
       -2   -1    0    0    0  501  0.00000000000E+00  0.00000000000E+00 -0.51735505593E+03  0.51735505594E+03  0.25500000920E-02 0.  1.
    10030    2    1    2    0    0  0.00000000000E+00  0.00000000000E+00  0.13420197267E+04  0.23767298385E+04  0.19615880757E+04 0.  0.
        3    1    3    3  502    0  0.87149713560E+02  0.94027093093E+03  0.34986372296E+03  0.10070298560E+04  0.10100000352E+00 0.  1.
       -3    1    3    3    0  502 -0.87149713560E+02 -0.94027093093E+03  0.99215600372E+03  0.13696999825E+04  0.10100000352E+00 0. -1.
</event>
<event>
 5   0  0.3568647E-05  0.2726718E+04  0.7818609E-02  0.8326388E-01
       -2   -1    0    0    0  501  0.00000000000E+00  0.00000000000E+00  0.10221942756E+04  0.10221942756E+04  0.25500000920E-02 0.  1.
        2   -1    0    0  501    0  0.00000000000E+00  0.00000000000E+00 -0.18183894717E+04  0.18183894717E+04  0.25500000920E-02 0. -1.
    10030    2    1    2    0    0  0.00000000000E+00  0.00000000000E+00 -0.79619519606E+03  0.28405837474E+04  0.27267176670E+04 0.  0.
        3    1    3    3  502    0  0.52190109735E+02 -0.21048861958E+03 -0.18003065302E+04  0.18133209533E+04  0.10100000352E+00 0. -1.
       -3    1    3    3    0  502 -0.52190109735E+02  0.21048861958E+03  0.10041113342E+04  0.10272627941E+04  0.10100000352E+00 0.  1.
</event>
<event>
 5   0  0.1438701E-05  0.2479654E+04  0.7818609E-02  0.8410270E-01
        1   -1    0    0  501    0  0.00000000000E+00  0.00000000000E+00  0.17936078699E+04  0.17936078699E+04  0.50400001928E-02 0.  1.
       -1   -1    0    0    0  501  0.00000000000E+00  0.00000000000E+00 -0.85702745291E+03  0.85702745293E+03  0.50400001928E-02 0. -1.
    10030    2    1    2    0    0  0.00000000000E+00  0.00000000000E+00  0.93658041700E+03  0.26506353228E+04  0.24796541568E+04 0.  0.
        4    1    3    3  502    0 -0.60682523159E+03  0.77829146310E+03  0.12705006403E+04  0.16087721881E+04  0.12699999809E+01 0.  1.
       -4    1    3    3    0  502  0.60682523159E+03 -0.77829146310E+03 -0.33392022327E+03  0.10418631348E+04  0.12699999809E+01 0. -1.
</event>
<event>
 5   0  0.1449521E-05  0.2196029E+04  0.7818609E-02  0.8520083E-01
        1   -1    0    0  501    0  0.00000000000E+00  0.00000000000E+00  0.14272132065E+04  0.14272132065E+04  0.50400001928E-02 0.  1.
       -1   -1    0    0    0  501  0.00000000000E+00  0.00000000000E+00 -0.84474846138E+03  0.84474846139E+03  0.50400001928E-02 0. -1.
    10030    2    1    2    0    0  0.00000000000E+00  0.00000000000E+00  0.58246474512E+03  0.22719616679E+04  0.21960292897E+04 0.  0.
        3    1    3    3  502    0 -0.39956802114E+03 -0.66928424924E+03  0.10913024698E+04  0.13410954852E+04  0.10100000352E+00 0.  1.
       -3    1    3    3    0  502  0.39956802114E+03  0.66928424924E+03 -0.50883772465E+03  0.93086618266E+03  0.10100000352E+00 0. -1.
</event>
<event>
 5   0  0.1438701E-05  0.2856007E+04  0.7818609E-02  0.8286088E-01
        1   -1    0    0  501    0  0.00000000000E+00  0.00000000000E+00  0.12622985146E+04  0.12622985146E+04  0.50400001928E-02 0.  1.
       -1   -1    0    0    0  501  0.00000000000E+00  0.00000000000E+00 -0.16154611222E+04  0.16154611222E+04  0.50400001928E-02 0. -1.
    10030    2    1    2    0    0  0.00000000000E+00  0.00000000000E+00 -0.35316260763E+03  0.28777596368E+04  0.28560071253E+04 0.  0.
        4    1    3    3  502    0  0.40442717246E+03 -0.63285232809E+03 -0.14003807537E+04  0.15890661646E+04  0.12699999809E+01 0. -1.
       -4    1    3    3    0  502 -0.40442717246E+03  0.63285232809E+03  0.10472181461E+04  0.12886934723E+04  0.12699999809E+01 0.  1.
</event>
<event>
 5   0  0.3497949E-05  0.1877593E+04  0.7818609E-02  0.8666091E-01
        2   -1    0    0  501    0  0.00000000000E+00  0.00000000000E+00  0.12430118401E+04  0.12430118401E+04  0.25500000920E-02 0. -1.
       -2   -1    0    0    0  501  0.00000000000E+00  0.00000000000E+00 -0.70903514217E+03  0.70903514218E+03  0.25500000920E-02 0.  1.
    10030    2    1    2    0    0  0.00000000000E+00  0.00000000000E+00  0.53397669793E+03  0.19520469823E+04  0.18775932220E+04 0.  0.
        5    1    3    3  502    0 -0.42090291478E+02 -0.21639714235E+03  0.12157074570E+04  0.12355428066E+04  0.46999998093E+01 0. -1.
       -5    1    3    3    0  502  0.42090291478E+02  0.21639714235E+03 -0.68173075911E+03  0.71650417568E+03  0.46999998093E+01 0.  1.
</event>
<event>
 5   0  0.1438701E-05  0.1446813E+04  0.7818609E-02  0.8920613E-01
       -1   -1    0    0    0  501  0.00000000000E+00  0.00000000000E+00  0.29670408640E+03  0.29670408644E+03  0.50400001928E-02 0.  1.
        1   -1    0    0  501    0  0.00000000000E+00  0.00000000000E+00 -0.17637666354E+04  0.17637666355E+04  0.50400001928E-02 0. -1.
    10030    2    1    2    0    0  0.00000000000E+00  0.00000000000E+00 -0.14670625490E+04  0.20604707219E+04  0.14468127291E+04 0.  0.
        4    1    3    3  502    0 -0.20993154216E+03  0.17981073531E+03 -0.16855930655E+04  0.17081067731E+04  0.12699999809E+01 0. -1.
       -4    1    3    3    0  502  0.20993154216E+03 -0.17981073531E+03  0.21853051643E+03  0.35236394883E+03  0.12699999809E+01 0.  1.
</event>
<event>
 5   0  0.1228050E-05  0.1974674E+04  0.7818609E-02  0.8618554E-01
       -3   -1    0    0    0  501  0.00000000000E+00  0.00000000000E+00  0.12637076329E+04  0.12637076370E+04  0.10100000352E+00 0. -1.
        3   -1    0    0  501    0  0.00000000000E+00  0.00000000000E+00 -0.77140796325E+03  0.77140796986E+03  0.10100000352E+00 0.  1.
    10030    2    1    2    0    0  0.00000000000E+00  0.00000000000E+00  0.49229966967E+03  0.20351156068E+04  0.19746737878E+04 0.  0.
        5    1    3    3  502    0  0.65140231730E+03 -0.42497744755E+03 -0.38064423257E+03  0.86593471561E+03  0.46999998093E+01 0.  1.
       -5    1    3    3    0  502 -0.65140231730E+03  0.42497744755E+03  0.87294390224E+03  0.11691808912E+04  0.46999998093E+01 0. -1.
</event>
<event>
 5   0  0.1474012E-05  0.2738570E+04  0.7818609E-02  0.8322598E-01
       -1   -1    0    0    0  501  0.00000000000E+00  0.00000000000E+00  0.74343043120E+03  0.74343043122E+03  0.50400001928E-02 0.  1.
        1   -1    0    0  501    0  0.00000000000E+00  0.00000000000E+00 -0.25220134268E+04  0.25220134268E+04  0.50400001928E-02 0. -1.
    10030    2    1    2    0    0  0.00000000000E+00  0.00000000000E+00 -0.17785829956E+04  0.32654438580E+04  0.27385700863E+04 0.  0.
        2    1    3    3  502    0  0.80118064400E+03  0.10367216145E+04 -0.13636460991E+04  0.18910877330E+04  0.25500000920E-02 0. -1.
       -2    1    3    3    0  502 -0.80118064400E+03 -0.10367216145E+04 -0.41493689651E+03  0.13743561250E+04  0.25500000920E-02 0.  1.
</event>
<event>
 5   0  0.1495517E-05  0.2719130E+04  0.7818609E-02  0.8328824E-01
        1   -1    0    0  501    0  0.00000000000E+00  0.00000000000E+00  0.23196546623E+04  0.23196546623E+04  0.50400001928E-02 0.  1.
       -1   -1    0    0    0  501  0.00000000000E+00  0.00000000000E+00 -0.79685025896E+03  0.79685025898E+03  0.50400001928E-02 0. -1.
    10030    2    1    2    0    0  0.00000000000E+00  0.00000000000E+00  0.15228044034E+04  0.31165049213E+04  0.27191303157E+04 0.  0.
        5    1    3    3  502    0  0.49249311931E+03 -0.19646828931E+03  0.21962518298E+04  0.22593568667E+04  0.46999998093E+01 0.  1.
       -5    1    3    3    0  502 -0.49249311931E+03  0.19646828931E+03 -0.67344742645E+03  0.85714805458E+03  0.46999998093E+01 0. -1.
</event>
<event>
 5   0  0.3514294E-05  0.1962779E+04  0.7818609E-02  0.8624223E-01
       -2   -1    0    0    0  501  0.00000000000E+00  0.00000000000E+00  0.61611210062E+03  0.61611210062E+03  0.25500000920E-02 0.  1.
        2   -1    0    0  501    0  0.00000000000E+00  0.00000000000E+00 -0.15632306635E+04  0.15632306635E+04  0.25500000920E-02 0. -1.
    10030    2    1    2    0    0  0.00000000000E+00  0.00000000000E+00 -0.94711856290E+03  0.21793427641E+04  0.19627789767E+04 0.  0.
        2    1    3    3  502    0  0.79247831021E+03 -0.57840917200E+03 -0.44760769261E+03  0.10783931050E+04  0.25500000920E-02 0.  1.
       -2    1    3    3    0  502 -0.79247831021E+03  0.57840917200E+03 -0.49951087029E+03  0.11009496591E+04  0.25500000920E-02 0. -1.
</event>
<event>
 5   0  0.3676724E-05  0.2558417E+04  0.7818609E-02  0.8382465E-01
       -2   -1    0    0    0  501  0.00000000000E+00  0.00000000000E+00  0.93809074220E+03  0.93809074221E+03  0.25500000920E-02 0. -1.
        2   -1    0    0  501    0  0.00000000000E+00  0.00000000000E+00 -0.17443661733E+04  0.17443661733E+04  0.25500000920E-02 0.  1.
    10030    2    1    2    0    0  0.00000000000E+00  0.00000000000E+00 -0.80627543108E+03  0.26824569155E+04  0.25584165088E+04 0.  0.
        4    1    3    3  502    0  0.32143163978E+03  0.35033596537E+03 -0.16482832538E+04  0.17154861951E+04  0.12699999809E+01 0.  1.
       -4    1    3    3    0  502 -0.32143163978E+03 -0.35033596537E+03  0.84200782275E+03  0.96697072043E+03  0.12699999809E+01 0. -1.
</event>
<event>
 5   0  0.3568647E-05  0.2804227E+04  0.7818609E-02  0.8301957E-01
        2   -1    0    0  501    0  0.00000000000E+00  0.00000000000E+00  0.11141067537E+04  0.11141067537E+04  0.25500000920E-02 0.  1.
       -2   -1    0    0    0  501  0.00000000000E+00  0.00000000000E+00 -0.17645720384E+04  0.17645720384E+04  0.25500000920E-02 0. -1.
    10030    2    1    2    0    0  0.00000000000E+00  0.00000000000E+00 -0.65046528464E+03  0.28786787921E+04  0.28042265425E+04 0.  0.
        3    1    3    3  502    0 -0.10251192160E+03  0.90487391662E+03 -0.14196601934E+04  0.16866358747E+04  0.10100000352E+00 0. -1.
       -3    1    3    3    0  502  0.10251192160E+03 -0.90487391662E+03  0.76919490871E+03  0.11920429174E+04  0.10100000352E+00 0.  1.
</event>
<event>
 5   0  0.1438701E-05  0.2716156E+04  0.7818609E-02  0.8329782E-01
       -1   -1    0    0    0  501  0.00000000000E+00  0.00000000000E+00  0.11211142357E+04  0.11211142358E+04  0.50400001928E-02 0.  1.
        1   -1    0    0  501    0  0.00000000000E+00  0.00000000000E+00 -0.16451277000E+04  0.16451277000E+04  0.50400001928E-02 0. -1.
    10030    2    1    2    0    0  0.00000000000E+00  0.00000000000E+00 -0.52401346421E+03  0.27662419357E+04  0.27161561693E+04 0.  0.
        4    1    3    3  502    0  0.68333681642E+03  0.97570771172E+03 -0.92627611676E+03  0.15089545390E+04  0.12699999809E+01 0. -1.
       -4    1    3    3    0  502 -0.68333681642E+03 -0.97570771172E+03  0.40226265255E+03  0.12572873967E+04  0.12699999809E+01 0.  1.
</event>
<event>
 5   0  0.1449521E-05  0.2811553E+04  0.7818609E-02  0.8299691E-01
       -1   -1    0    0    0  501  0.00000000000E+00  0.00000000000E+00  0.91447501157E+03  0.91447501159E+03  0.50400001928E-02 0. -1.
        1   -1    0    0  501    0  0.00000000000E+00  0.00000000000E+00 -0.21610292470E+04  0.21610292470E+04  0.50400001928E-02 0.  1.
    10030    2    1    2    0    0  0.00000000000E+00  0.00000000000E+00 -0.12465542354E+04  0.30755042586E+04  0.28115527707E+04 0.  0.
        3    1    3    3  502    0 -0.44481796699E+03  0.23605313175E+03 -0.20589821764E+04  0.21196678320E+04  0.10100000352E+00 0.  1.
       -3    1    3    3    0  502  0.44481796699E+03 -0.23605313175E+03  0.81242794106E+03  0.95583642658E+03  0.10100000352E+00 0. -1.
</event>
<event>
 5   0  0.1495517E-05  0.2219612E+04  0.7818609E-02  0.8510309E-01
        1   -1    0    0  501    0  0.00000000000E+00  0.00000000000E+00  0.10292623107E+04  0.10292623107E+04  0.50400001928E-02 0.  1.
       -1   -1    0    0    0  501  0.00000000000E+00  0.00000000000E+00 -0.11966520069E+04  0.11966520069E+04  0.50400001928E-02 0. -1.
    10030    2    1    2    0    0  0.00000000000E+00  0.00000000000E+00 -0.16738969619E+03  0.22259143176E+04  0.22196115063E+04 0.  0.
        5    1    3    3  502    0 -0.65098912804E+02 -0.10167851595E+04  0.35750533271E+03  0.10797787190E+04  0.46999998093E+01 0. -1.
       -5    1    3    3    0  502  0.65098912804E+02  0.10167851595E+04 -0.52489502890E+03  0.11461355986E+04  0.46999998093E+01 0.  1.
</event>
<event>
 5   0  0.1495517E-05  0.2667064E+04  0.7818609E-02  0.8345771E-01
        1   -1    0    0  501    0  0.00000000000E+00  0.00000000000E+00  0.14096222892E+04  0.14096222892E+04  0.50400001928E-02 0. -1.
       -1   -1    0    0    0  501  0.00000000000E+00  0.00000000000E+00 -0.12615487250E+04  0.12615487250E+04  0.50400001928E-02 0.  1.
    10030    2    1    2    0    0  0.00000000000E+00  0.00000000000E+00  0.14807356417E+03  0.26711710143E+04  0.26670637051E+04 0.  0.
        5    1    3    3  502    0  0.20802920468E+02  0.13262258283E+04  0.21200742566E+03  0.13432337651E+04  0.46999998093E+01 0.  1.
       -5    1    3    3    0  502 -0.20802920468E+02 -0.13262258283E+04 -0.63933861493E+02  0.13279372492E+04  0.46999998093E+01 0. -1.
</event>
<event>
 5   0  0.3514294E-05  0.2718667E+04  0.7818609E-02  0.8328974E-01
       -2   -1    0    0    0  501  0.00000000000E+00  0.00000000000E+00  0.10269745287E+04  0.10269745287E+04  0.25500000920E-02 0.  1.
        2   -1    0    0  501    0  0.00000000000E+00  0.00000000000E+00 -0.17992529366E+04  0.17992529366E+04  0.25500000920E-02 0. -1.
    10030    2    1    2    0    0  0.00000000000E+00  0.00000000000E+00 -0.77227840781E+03  0.28262274653E+04  0.27186665383E+04 0.  0.
        2    1    3    3  502    0  0.62243598278E+03  0.52478024195E+03  0.74548995722E+03  0.11038913585E+04  0.25500000920E-02 0.  1.
       -2    1    3    3    0  502 -0.62243598278E+03 -0.52478024195E+03 -0.15177683650E+04  0.17223361068E+04  0.25500000920E-02 0. -1.
</event>
<event>
 5   0  0.3514294E-05  0.2829315E+04  0.7818609E-02  0.8294225E-01
       -2   -1    0    0    0  501  0.00000000000E+00  0.00000000000E+00  0.15452245280E+04  0.15452245280E+04  0.25500000920E-02 0.  1.
        2   -1    0    0  501    0  0.00000000000E+00  0.00000000000E+00 -0.12951231849E+04  0.12951231849E+04  0.25500000920E-02 0. -1.
    10030    2    1    2    0    0  0.00000000000E+00  0.00000000000E+00  0.25010134314E+03  0.28403477129E+04  0.28293151907E+04 0.  0.
        2    1    3    3  502    0  0.13729139974E+04 -0.31073006372E+03  0.26634784077E+03  0.14326155064E+04  0.25500000920E-02 0. -1.
       -2    1    3    3    0  502 -0.13729139974E+04  0.31073006372E+03 -0.16246497629E+02  0.14077322066E+04  0.25500000920E-02 0.  1.
</event>
<event>
 5   0  0.1449521E-05  0.2639745E+04  0.7818609E-02  0.8354825E-01
       -1   -1    0    0    0  501  0.00000000000E+00  0.00000000000E+00  0.30099358819E+04  0.30099358819E+04  0.50400001928E-02 0.  1.
        1   -1    0    0  501    0  0.00000000000E+00  0.00000000000E+00 -0.57877113942E+03  0.57877113944E+03  0.50400001928E-02 0. -1.
    10030    2    1    2    0    0  0.00000000000E+00  0.00000000000E+00  0.24311647425E+04  0.35887070213E+04  0.26397454574E+04 0.  0.
        3    1    3    3  502    0 -0.10082916482E+04  0.65114760681E+03  0.46920048721E+03  0.12887181077E+04  0.10100000352E+00 0. -1.
       -3    1    3    3    0  502  0.10082916482E+04 -0.65114760681E+03  0.19619642553E+04  0.22999889136E+04  0.10100000352E+00 0.  1.
</event>
<event>
 5   0  0.1484379E-05  0.2694251E+04  0.7818609E-02  0.8336873E-01
        1   -1    0    0  501    0  0.00000000000E+00  0.00000000000E+00  0.15389897426E+04  0.15389897426E+04  0.50400001928E-02 0.  1.
       -1   -1    0    0    0  501  0.00000000000E+00  0.00000000000E+00 -0.11791809597E+04  0.11791809597E+04  0.50400001928E-02 0. -1.
    10030    2    1    2    0    0  0.00000000000E+00  0.00000000000E+00  0.35980878288E+03  0.27181707023E+04  0.26942512145E+04 0.  0.
        1    1    3    3  502    0  0.37148396921E+02  0.13232373691E+03  0.15318979291E+04  0.15380509874E+04  0.50400001928E-02 0.  1.
       -1    1    3    3    0  502 -0.37148396921E+02 -0.13232373691E+03 -0.11720891462E+04  0.11801197149E+04  0.50400001928E-02 0. -1.
</event>
<event>
 5   0  0.3652331E-05  0.2593587E+04  0.7818609E-02  0.8370383E-01
       -2   -1    0    0    0  501  0.00000000000E+00  0.00000000000E+00  0.10450073455E+04  0.10450073455E+04  0.25500000920E-02 0. -1.
        2   -1    0    0  501    0  0.00000000000E+00  0.00000000000E+00 -0.16092451176E+04  0.16092451176E+04  0.25500000920E-02 0.  1.
    10030    2    1    2    0    0  0.00000000000E+00  0.00000000000E+00 -0.56423777211E+03  0.26542524630E+04  0.25935866814E+04 0.  0.
        1    1    3    3  502    0 -0.45949063828E+03  0.10477330806E+04 -0.90697136815E+03  0.14599566149E+04  0.50400001928E-02 0.  1.
       -1    1    3    3    0  502  0.45949063828E+03 -0.10477330806E+04  0.34273359605E+03  0.11942958481E+04  0.50400001928E-02 0. -1.
</event>
<event>
 5   0  0.3497949E-05  0.2119018E+04  0.7818609E-02  0.8552912E-01
       -2   -1    0    0    0  501  0.00000000000E+00  0.00000000000E+00  0.85689294376E+03  0.85689294376E+03  0.25500000920E-02 0. -1.
        2   -1    0    0  501    0  0.00000000000E+00  0.00000000000E+00 -0.13100343671E+04  0.13100343671E+04  0.25500000920E-02 0.  1.
    10030    2    1    2    0    0  0.00000000000E+00  0.00000000000E+00 -0.45314142336E+03  0.21669273109E+04  0.21190178907E+04 0.  0.
        5    1    3    3  502    0  0.57001536236E+03  0.37162530408E+02 -0.11390674472E+04  0.12742822710E+04  0.46999998093E+01 0.  1.
       -5    1    3    3    0  502 -0.57001536236E+03 -0.37162530408E+02  0.68592602384E+03  0.89264503985E+03  0.46999998093E+01 0. -1.
</event>
<event>
 5   0  0.1474012E-05  0.2580355E+04  0.7818609E-02  0.8374905E-01
        1   -1    0    0  501    0  0.00000000000E+00  0.00000000000E+00  0.20592298820E+04  0.20592298820E+04  0.50400001928E-02 0.  1.
       -1   -1    0    0    0  501  0.00000000000E+00  0.00000000000E+00 -0.80833974775E+03  0.80833974776E+03  0.50400001928E-02 0. -1.
    10030    2    1    2    0    0  0.00000000000E+00  0.00000000000E+00  0.12508901343E+04  0.28675696298E+04  0.25803545209E+04 0.  0.
        2    1    3    3  502    0 -0.82433263726E+03  0.72648668465E+03 -0.12602472635E+03  0.11059789471E+04  0.25500000920E-02 0. -1.
       -2    1    3    3    0  502  0.82433263726E+03 -0.72648668465E+03  0.13769148606E+04  0.17615906827E+04  0.25500000920E-02 0.  1.
</event>
<event>
 5   0  0.1474012E-05  0.2506915E+04  0.7818609E-02  0.8400526E-01
       -1   -1    0    0    0  501  0.00000000000E+00  0.00000000000E+00  0.10177394944E+04  0.10177394944E+04  0.50400001928E-02 0. -1.
        1   -1    0    0  501    0  0.00000000000E+00  0.00000000000E+00 -0.15437698579E+04  0.15437698579E+04  0.50400001928E-02 0.  1.
    10030    2    1    2    0    0  0.00000000000E+00  0.00000000000E+00 -0.52603036350E+03  0.25615093523E+04  0.25069148806E+04 0.  0.
        2    1    3    3  502    0  0.79196012056E+03 -0.76598123535E+03  0.34768602900E+03  0.11553413609E+04  0.25500000920E-02 0. -1.
       -2    1    3    3    0  502 -0.79196012056E+03  0.76598123535E+03 -0.87371639251E+03  0.14061679914E+04  0.25500000920E-02 0.  1.
</event>
<event>
 5   0  0.1449521E-05  0.2728104E+04  0.7818609E-02  0.8325943E-01
        1   -1    0    0  501    0  0.00000000000E+00  0.00000000000E+00  0.13538724072E+04  0.13538724072E+04  0.50400001928E-02 0.  1.
       -1   -1    0    0    0  501  0.00000000000E+00  0.00000000000E+00 -0.13743079760E+04  0.13743079760E+04  0.50400001928E-02 0. -1.
    10030    2    1    2    0    0  0.00000000000E+00  0.00000000000E+00 -0.20435568804E+02  0.27281803832E+04  0.27281038454E+04 0.  0.
        3    1    3    3  502    0 -0.13227021838E+03 -0.74974295734E+03 -0.11420744914E+04  0.13725684197E+04  0.10100000352E+00 0.  1.
       -3    1    3    3    0  502  0.13227021838E+03  0.74974295734E+03  0.11216389226E+04  0.13556119635E+04  0.10100000352E+00 0. -1.
</event>
<event>
 5   0  0.3568647E-05  0.2144844E+04  0.7818609E-02  0.8541742E-01
       -2   -1    0    0    0  501  0.00000000000E+00  0.00000000000E+00  0.85231003263E+03  0.85231003263E+03  0.25500000920E-02 0. -1.
        2   -1    0    0  501    0  0.00000000000E+00  0.00000000000E+00 -0.13493790263E+04  0.13493790263E+04  0.25500000920E-02 0.  1.
    10030    2    1    2    0    0  0.00000000000E+00  0.00000000000E+00 -0.49706899372E+03  0.22016890590E+04  0.21448443132E+04 0.  0.
        3    1    3    3  502    0 -0.10451314557E+04 -0.12535973600E+03 -0.37977621418E+02  0.10533077105E+04  0.10100000352E+00 0.  1.
       -3    1    3    3    0  502  0.10451314557E+04  0.12535973600E+03 -0.45909137230E+03  0.11483813484E+04  0.10100000352E+00 0. -1.
</event>
<event>
 5   0  0.1495517E-05  0.2708912E+04  0.7818609E-02  0.8332119E-01
        1   -1    0    0  501    0  0.00000000000E+00  0.00000000000E+00  0.18318641732E+04  0.18318641732E+04  0.50400001928E-02 0.  1.
       -1   -1    0    0    0  501  0.00000000000E+00  0.00000000000E+00 -0.10014664276E+04  0.10014664276E+04  0.50400001928E-02 0. -1.
    10030    2    1    2    0    0  0.00000000000E+00  0.00000000000E+00  0.83039774555E+03  0.28333306008E+04  0.27089115670E+04 0.  0.
        5    1    3    3  502    0 -0.10320753500E+04 -0.81006519994E+03  0.76701577294E+03  0.15197764448E+04  0.46999998093E+01 0.  1.
       -5    1    3    3    0  502  0.10320753500E+04  0.81006519994E+03  0.63381972609E+02  0.13135541560E+04  0.46999998093E+01 0. -1.
</event>
<event>
 5   0  0.1474012E-05  0.2420796E+04  0.7818609E-02  0.8431759E-01
        1   -1    0    0  501    0  0.00000000000E+00  0.00000000000E+00  0.28424714325E+04  0.28424714325E+04  0.50400001928E-02 0. -1.
       -1   -1    0    0    0  501  0.00000000000E+00  0.00000000000E+00 -0.51541883057E+03  0.51541883059E+03  0.50400001928E-02 0.  1.
    10030    2    1    2    0    0  0.00000000000E+00  0.00000000000E+00  0.23270526019E+04  0.33578902631E+04  0.24207959862E+04 0.  0.
        2    1    3    3  502    0  0.12463634873E+03 -0.11728673755E+04  0.78642030240E+03  0.14176067832E+04  0.25500000920E-02 0.  1.
       -2    1    3    3    0  502 -0.12463634873E+03  0.11728673755E+04  0.15406322995E+04  0.19402834798E+04  0.25500000920E-02 0. -1.
</event>
<event>
 5   0  0.3568647E-05  0.1819783E+04  0.7818609E-02  0.8695849E-01
       -2   -1    0    0    0  501  0.00000000000E+00  0.00000000000E+00  0.74454529053E+03  0.74454529054E+03  0.25500000920E-02 0. -1.
        2   -1    0    0  501    0  0.00000000000E+00  0.00000000000E+00 -0.11119574311E+04  0.11119574311E+04  0.25500000920E-02 0.  1.
    10030    2    1    2    0    0  0.00000000000E+00  0.00000000000E+00 -0.36741214056E+03  0.18565027216E+04  0.18197831394E+04 0.  0.
        3    1    3    3  502    0 -0.65287846860E+03  0.17448001823E+03 -0.80526921139E+03  0.10512621388E+04  0.10100000352E+00 0.  1.
       -3    1    3    3    0  502  0.65287846860E+03 -0.17448001823E+03  0.43785707083E+03  0.80524058281E+03  0.10100000352E+00 0. -1.
</event>
<event>
 5   0  0.3497949E-05  0.2634928E+04  0.7818609E-02  0.8356433E-01
       -2   -1    0    0    0  501  0.00000000000E+00  0.00000000000E+00  0.17413004601E+04  0.17413004601E+04  0.25500000920E-02 0. -1.
        2   -1    0    0  501    0  0.00000000000E+00  0.00000000000E+00 -0.99679030674E+03  0.99679030674E+03  0.25500000920E-02 0.  1.
    10030    2    1    2    0    0  0.00000000000E+00  0.00000000000E+00  0.74451015336E+03  0.27380907668E+04  0.26349280216E+04 0.  0.
        5    1    3    3  502    0 -0.65574856377E+02  0.12935246044E+04  0.62291130740E+03  0.14372009431E+04  0.46999998093E+01 0. -1.
       -5    1    3    3    0  502  0.65574856377E+02 -0.12935246044E+04  0.12159884595E+03  0.13008898237E+04  0.46999998093E+01 0.  1.
</event>
<event>
 5   0  0.3497949E-05  0.1443489E+04  0.7818609E-02  0.8922927E-01
       -2   -1    0    0    0  501  0.00000000000E+00  0.00000000000E+00  0.21769223382E+03  0.21769223384E+03  0.25500000920E-02 0.  1.
        2   -1    0    0  501    0  0.00000000000E+00  0.00000000000E+00 -0.23928972357E+04  0.23928972357E+04  0.25500000920E-02 0. -1.
    10030    2    1    2    0    0  0.00000000000E+00  0.00000000000E+00 -0.21752050018E+04  0.26105894695E+04  0.14434890295E+04 0.  0.
        5    1    3    3  502    0  0.22962512341E+03 -0.40804079853E+03 -0.94281168712E+02  0.47763586479E+03  0.46999998093E+01 0.  1.
       -5    1    3    3    0  502 -0.22962512341E+03  0.40804079853E+03 -0.20809238331E+04  0.21329536047E+04  0.46999998093E+01 0. -1.
</event>
<event>
 5   0  0.3497949E-05  0.2682882E+04  0.7818609E-02  0.8340580E-01
       -2   -1    0    0    0  501  0.00000000000E+00  0.00000000000E+00  0.81610668243E+03  0.81610668243E+03  0.25500000920E-02 0.  1.
        2   -1    0    0  501    0  0.00000000000E+00  0.00000000000E+00 -0.22049378217E+04  0.22049378217E+04  0.25500000920E-02 0. -1.
    10030    2    1    2    0    0  0.00000000000E+00  0.00000000000E+00 -0.13888311393E+04  0.30210445041E+04  0.26828823982E+04 0.  0.
        5    1    3    3  502    0  0.38100175050E+03  0.78973862361E+03 -0.18375546585E+04  0.20360448523E+04  0.46999998093E+01 0. -1.
       -5    1    3    3    0  502 -0.38100175050E+03 -0.78973862361E+03  0.44872351921E+03  0.98499965187E+03  0.46999998093E+01 0.  1.
</event>
<event>
 5   0  0.3514294E-05  0.3044147E+04  0.7818609E-02  0.8231235E-01
       -2   -1    0    0    0  501  0.00000000000E+00  0.00000000000E+00  0.14317057047E+04  0.14317057047E+04  0.25500000920E-02 0.  1.
        2   -1    0    0  501    0  0.00000000000E+00  0.00000000000E+00 -0.16181457309E+04  0.16181457309E+04  0.25500000920E-02 0. -1.
    10030    2    1    2    0    0  0.00000000000E+00  0.00000000000E+00 -0.18644002627E+03  0.30498514356E+04  0.30441474826E+04 0.  0.
        2    1    3    3  502    0 -0.93970738643E+03 -0.24002769198E+03 -0.12684675415E+04  0.15967696042E+04  0.25500000920E-02 0. -1.
       -2    1    3    3    0  502  0.93970738643E+03  0.24002769198E+03  0.10820275152E+04  0.14530818314E+04  0.25500000920E-02 0.  1.
</event>
<event>
 5   0  0.3676724E-05  0.2711278E+04  0.7818609E-02  0.8331355E-01
        2   -1    0    0  501    0  0.00000000000E+00  0.00000000000E+00  0.10951156349E+04  0.10951156350E+04  0.25500000920E-02 0. -1.
       -2   -1    0    0    0  501  0.00000000000E+00  0.00000000000E+00 -0.16781393049E+04  0.16781393049E+04  0.25500000920E-02 0.  1.
    10030    2    1    2    0    0  0.00000000000E+00  0.00000000000E+00 -0.58302366999E+03  0.27732549399E+04  0.27112776254E+04 0.  0.
        4    1    3    3  502    0 -0.50332301237E+03  0.10743447863E+04  0.37938096287E+03  0.12455851245E+04  0.12699999809E+01 0. -1.
       -4    1    3    3    0  502  0.50332301237E+03 -0.10743447863E+04 -0.96240463286E+03  0.15276698154E+04  0.12699999809E+01 0.  1.
</event>
<event>
 5   0  0.3568647E-05  0.2690802E+04  0.7818609E-02  0.8337995E-01
        2   -1    0    0  501    0  0.00000000000E+00  0.00000000000E+00  0.18430604386E+04  0.18430604386E+04  0.25500000920E-02 0.  1.
       -2   -1    0    0    0  501  0.00000000000E+00  0.00000000000E+00 -0.98211886172E+03  0.98211886173E+03  0.25500000920E-02 0. -1.
    10030    2    1    2    0    0  0.00000000000E+00  0.00000000000E+00  0.86094157687E+03  0.28251793003E+04  0.26908024231E+04 0.  0.
        3    1    3    3  502    0  0.13233200347E+04  0.23318113109E+03  0.35960917240E+03  0.13909953707E+04  0.10100000352E+00 0. -1.
       -3    1    3    3    0  502 -0.13233200347E+04 -0.23318113109E+03  0.50133240447E+03  0.14341839297E+04  0.10100000352E+00 0.  1.
</event>
<event>
 5   0  0.3497949E-05  0.2700632E+04  0.7818609E-02  0.8334800E-01
       -2   -1    0    0    0  501  0.00000000000E+00  0.00000000000E+00  0.10323601089E+04  0.10323601089E+04  0.25500000920E-02 0.  1.
        2   -1    0    0  501    0  0.00000000000E+00  0.00000000000E+00 -0.17661992584E+04  0.17661992584E+04  0.25500000920E-02 0. -1.
    10030    2    1    2    0    0  0.00000000000E+00  0.00000000000E+00 -0.73383914950E+03  0.27985593672E+04  0.27006322657E+04 0.  0.
        5    1    3    3  502    0 -0.12436882659E+03  0.11709634667E+04 -0.10517213953E+04  0.15788486402E+04  0.46999998093E+01 0. -1.
       -5    1    3    3    0  502  0.12436882659E+03 -0.11709634667E+04  0.31788224577E+03  0.12197107270E+04  0.46999998093E+01 0.  1.
</event>
<event>
 5   0  0.3652331E-05  0.2587097E+04  0.7818609E-02  0.8372597E-01
        2   -1    0    0  501    0  0.00000000000E+00  0.00000000000E+00  0.20613664616E+04  0.20613664616E+04  0.25500000920E-02 0.  1.
       -2   -1    0    0    0  501  0.00000000000E+00  0.00000000000E+00 -0.81172774814E+03  0.81172774814E+03  0.25500000920E-02 0. -1.
    10030    2    1    2    0    0  0.00000000000E+00  0.00000000000E+00  0.12496387134E+04  0.28730942097E+04  0.25870974902E+04 0.  0.
        1    1    3    3  502    0  0.10681407512E+04  0.68111036973E+03  0.91533385970E+03  0.15629050114E+04  0.50400001928E-02 0.  1.
       -1    1    3    3    0  502 -0.10681407512E+04 -0.68111036973E+03  0.33430485375E+03  0.13101891983E+04  0.50400001928E-02 0. -1.
</event>
<event>
 5   0  0.1228050E-05  0.2744863E+04  0.7818609E-02  0.8320594E-01
       -3   -1    0    0    0  501  0.00000000000E+00  0.00000000000E+00  0.17792227293E+04  0.17792227322E+04  0.10100000352E+00 0.  1.
        3   -1    0    0  501    0  0.00000000000E+00  0.00000000000E+00 -0.10586465573E+04  0.10586465621E+04  0.10100000352E+00 0. -1.
    10030    2    1    2    0    0  0.00000000000E+00  0.00000000000E+00  0.72057617206E+03  0.28378692943E+04  0.27448628585E+04 0.  0.
        1    1    3    3  502    0  0.93974560768E+03  0.92844575194E+03 -0.24387151369E+02  0.13212600254E+04  0.50400001928E-02 0. -1.
       -1    1    3    3    0  502 -0.93974560768E+03 -0.92844575194E+03  0.74496332343E+03  0.15166092690E+04  0.50400001928E-02 0.  1.
</event>
<event>
 5   0  0.3652331E-05  0.2740298E+04  0.7818609E-02  0.8322047E-01
        2   -1    0    0  501    0  0.00000000000E+00  0.00000000000E+00  0.18734316304E+04  0.18734316304E+04  0.25500000920E-02 0. -1.
       -2   -1    0    0    0  501  0.00000000000E+00  0.00000000000E+00 -0.10020690748E+04  0.10020690748E+04  0.25500000920E-02 0.  1.
    10030    2    1    2    0    0  0.00000000000E+00  0.00000000000E+00  0.87136255559E+03  0.28755007052E+04  0.27402977215E+04 0.  0.
        1    1    3    3  502    0  0.37644638110E+03  0.75424809302E+02 -0.94447136711E+03  0.10195228997E+04  0.50400001928E-02 0.  1.
       -1    1    3    3    0  502 -0.37644638110E+03 -0.75424809302E+02  0.18158339227E+04  0.18559778055E+04  0.50400001928E-02 0. -1.
</event>
<event>
 5   0  0.1474012E-05  0.2713184E+04  0.7818609E-02  0.8330740E-01
        1   -1    0    0  501    0  0.00000000000E+00  0.00000000000E+00  0.18852029298E+04  0.18852029299E+04  0.50400001928E-02 0.  1.
       -1   -1    0    0    0  501  0.00000000000E+00  0.00000000000E+00 -0.97620387033E+03  0.97620387034E+03  0.50400001928E-02 0. -1.
    10030    2    1    2    0    0  0.00000000000E+00  0.00000000000E+00  0.90899905952E+03  0.28614068002E+04  0.27131843996E+04 0.  0.
        2    1    3    3  502    0  0.46939351031E+02 -0.13447525411E+04  0.63649493828E+03  0.14885188967E+04  0.25500000920E-02 0.  1.
       -2    1    3    3    0  502 -0.46939351031E+02  0.13447525411E+04  0.27250412124E+03  0.13728879035E+04  0.25500000920E-02 0. -1.
</event>
<event>
 5   0  0.3568647E-05  0.2550193E+04  0.7818609E-02  0.8385319E-01
        2   -1    0    0  501    0  0.00000000000E+00  0.00000000000E+00  0.13969869489E+04  0.13969869489E+04  0.25500000920E-02 0. -1.
       -2   -1    0    0    0  501  0.00000000000E+00  0.00000000000E+00 -0.11638408718E+04  0.11638408718E+04  0.25500000920E-02 0.  1.
    10030    2    1    2    0    0  0.00000000000E+00  0.00000000000E+00  0.23314607713E+03  0.25608278207E+04  0.25501925484E+04 0.  0.
        3    1    3    3  502    0  0.59821900607E+03  0.11163871364E+04  0.26444298574E+03  0.12938764703E+04  0.10100000352E+00 0. -1.
       -3    1    3    3    0  502 -0.59821900607E+03 -0.11163871364E+04 -0.31296908610E+02  0.12669513504E+04  0.10100000352E+00 0.  1.
</event>
<event>
 5   0  0.1438701E-05  0.2509700E+04  0.7818609E-02  0.8399538E-01
        1   -1    0    0  501    0  0.00000000000E+00  0.00000000000E+00  0.20265420279E+04  0.20265420279E+04  0.50400001928E-02 0.  1.
       -1   -1    0    0    0  501  0.00000000000E+00  0.00000000000E+00 -0.77701243868E+03  0.77701243869E+03  0.50400001928E-02 0. -1.
    10030    2    1    2    0    0  0.00000000000E+00  0.00000000000E+00  0.12495295892E+04  0.28035544666E+04  0.25096998731E+04 0.  0.
        4    1    3    3  502    0 -0.85551931285E+03  0.19620547363E+03 -0.37703098606E+03  0.95528208394E+03  0.12699999809E+01 0. -1.
       -4    1    3    3    0  502  0.85551931285E+03 -0.19620547363E+03  0.16265605753E+04  0.18482723827E+04  0.12699999809E+01 0.  1.
</event>
<event>
 5   0  0.1484379E-05  0.2707613E+04  0.7818609E-02  0.8332539E-01
        1   -1    0    0  501    0  0.00000000000E+00  0.00000000000E+00  0.12457003613E+04  0.12457003613E+04  0.50400001928E-02 0.  1.
       -1   -1    0    0    0  501  0.00000000000E+00  0.00000000000E+00 -0.14712943729E+04  0.14712943729E+04  0.50400001928E-02 0. -1.
    10030    2    1    2    0    0  0.00000000000E+00  0.00000000000E+00 -0.22559401166E+03  0.27169947342E+04  0.27076129206E+04 0.  0.
        1    1    3    3  502    0  0.33610028073E+03 -0.48056196881E+03 -0.13372252521E+04  0.14601625181E+04  0.50400001928E-02 0. -1.
       -1    1    3    3    0  502 -0.33610028073E+03  0.48056196881E+03  0.11116312404E+04  0.12568322160E+04  0.50400001928E-02 0.  1.
</event>
<event>
 5   0  0.1495517E-05  0.2535872E+04  0.7818609E-02  0.8390316E-01
       -1   -1    0    0    0  501  0.00000000000E+00  0.00000000000E+00  0.11370946632E+04  0.11370946632E+04  0.50400001928E-02 0.  1.
        1   -1    0    0  501    0  0.00000000000E+00  0.00000000000E+00 -0.14138330604E+04  0.14138330604E+04  0.50400001928E-02 0. -1.
    10030    2    1    2    0    0  0.00000000000E+00  0.00000000000E+00 -0.27673839720E+03  0.25509277237E+04  0.25358722584E+04 0.  0.
        5    1    3    3  502    0  0.25428071620E+03  0.12067810886E+04  0.15776037084E+03  0.12433381290E+04  0.46999998093E+01 0. -1.
       -5    1    3    3    0  502 -0.25428071620E+03 -0.12067810886E+04 -0.43449876803E+03  0.13075895946E+04  0.46999998093E+01 0.  1.
</event>
<event>
 5   0  0.3676724E-05  0.2701447E+04  0.7818609E-02  0.8334536E-01
        2   -1    0    0  501    0  0.00000000000E+00  0.00000000000E+00  0.15674259075E+04  0.15674259075E+04  0.25500000920E-02 0. -1.
       -2   -1    0    0    0  501  0.00000000000E+00  0.00000000000E+00 -0.11639811190E+04  0.11639811190E+04  0.25500000920E-02 0.  1.
    10030    2    1    2    0    0  0.00000000000E+00  0.00000000000E+00  0.40344478851E+03  0.27314070265E+04  0.27014471395E+04 0.  0.
        4    1    3    3  502    0  0.70616214824E+03 -0.11278882012E+04 -0.32483696028E+02  0.13311099043E+04  0.12699999809E+01 0. -1.
       -4    1    3    3    0  502 -0.70616214824E+03  0.11278882012E+04  0.43592848454E+03  0.14002971222E+04  0.12699999809E+01 0.  1.
</event>
<event>
 5   0  0.1474012E-05  0.2675877E+04  0.7818609E-02  0.8342875E-01
       -1   -1    0    0    0  501  0.00000000000E+00  0.00000000000E+00  0.94853184525E+03  0.94853184526E+03  0.50400001928E-02 0.  1.
        1   -1    0    0  501    0  0.00000000000E+00  0.00000000000E+00 -0.18872113744E+04  0.18872113744E+04  0.50400001928E-02 0. -1.
    10030    2    1    2    0    0  0.00000000000E+00  0.00000000000E+00 -0.93867952918E+03  0.28357432197E+04  0.26758774915E+04 0.  0.
        2    1    3    3  502    0 -0.98596241951E+03  0.83636470752E+03 -0.10460902175E+03  0.12971394929E+04  0.25500000920E-02 0. -1.
       -2    1    3    3    0  502  0.98596241951E+03 -0.83636470752E+03 -0.83407050743E+03  0.15386037268E+04  0.25500000920E-02 0.  1.
</event>
<event>
 5   0  0.3514294E-05  0.1764620E+04  0.7818609E-02  0.8725344E-01
        2   -1    0    0  501    0  0.00000000000E+00  0.00000000000E+00  0.26918968267E+04  0.26918968267E+04  0.25500000920E-02 0.  1.
       -2   -1    0    0    0  501  0.00000000000E+00  0.00000000000E+00 -0.28919048046E+03  0.28919048047E+03  0.25500000920E-02 0. -1.
    10030    2    1    2    0    0  0.00000000000E+00  0.00000000000E+00  0.24027063463E+04  0.29810873072E+04  0.17646200007E+04 0.  0.
        2    1    3    3  502    0  0.14061487650E+02  0.26211007610E+03  0.26244078464E+04  0.26375018410E+04  0.25500000920E-02 0.  1.
       -2    1    3    3    0  502 -0.14061487650E+02 -0.26211007610E+03 -0.22170150008E+03  0.34358546618E+03  0.25500000920E-02 0. -1.
</event>
<event>
 5   0  0.3652331E-05  0.2723443E+04  0.7818609E-02  0.8327438E-01
        2   -1    0    0  501    0  0.00000000000E+00  0.00000000000E+00  0.24046187100E+04  0.24046187100E+04  0.25500000920E-02 0.  1.
       -2   -1    0    0    0  501  0.00000000000E+00  0.00000000000E+00 -0.77113487709E+03  0.77113487709E+03  0.25500000920E-02 0. -1.
    10030    2    1    2    0    0  0.00000000000E+00  0.00000000000E+00  0.16334838329E+04  0.31757535871E+04  0.27234429338E+04 0.  0.
        1    1    3    3  502    0 -0.74862220128E+03 -0.12783081736E+03 -0.50124341218E+03  0.90995652445E+03  0.50400001928E-02 0. -1.
       -1    1    3    3    0  502  0.74862220128E+03  0.12783081736E+03  0.21347272451E+04  0.22657970626E+04  0.50400001928E-02 0.  1.
</event>
<event>
 5   0  0.3497949E-05  0.2550501E+04  0.7818609E-02  0.8385212E-01
       -2   -1    0    0    0  501  0.00000000000E+00  0.00000000000E+00  0.10522969643E+04  0.10522969643E+04  0.25500000920E-02 0. -1.
        2   -1    0    0  501    0  0.00000000000E+00  0.00000000000E+00 -0.15454424118E+04  0.15454424118E+04  0.25500000920E-02 0.  1.
    10030    2    1    2    0    0  0.00000000000E+00  0.00000000000E+00 -0.49314544753E+03  0.25977393761E+04  0.25505014083E+04 0.  0.
        5    1    3    3  502    0  0.10919447350E+02 -0.57532657565E+03  0.91253930118E+03  0.10788280536E+04  0.46999998093E+01 0. -1.
       -5    1    3    3    0  502 -0.10919447350E+02  0.57532657565E+03 -0.14056847487E+04  0.15189113225E+04  0.46999998093E+01 0.  1.
</event>
<event>
 5   0  0.1474012E-05  0.2703987E+04  0.7818609E-02  0.8333713E-01
       -1   -1    0    0    0  501  0.00000000000E+00  0.00000000000E+00  0.99241840093E+03  0.99241840094E+03  0.50400001928E-02 0. -1.
        1   -1    0    0  501    0  0.00000000000E+00  0.00000000000E+00 -0.18418504337E+04  0.18418504337E+04  0.50400001928E-02 0.  1.
    10030    2    1    2    0    0  0.00000000000E+00  0.00000000000E+00 -0.84943203279E+03  0.28342688347E+04  0.27039868803E+04 0.  0.
        2    1    3    3  502    0 -0.77803681736E+03 -0.32988264299E+03  0.68146179162E+03  0.10856122792E+04  0.25500000920E-02 0. -1.
       -2    1    3    3    0  502  0.77803681736E+03  0.32988264299E+03 -0.15308938244E+04  0.17486565555E+04  0.25500000920E-02 0.  1.
</event>
<event>
 5   0  0.1438701E-05  0.2704489E+04  0.7818609E-02  0.8333550E-01
        1   -1    0    0  501    0  0.00000000000E+00  0.00000000000E+00  0.23581061986E+04  0.23581061986E+04  0.50400001928E-02 0. -1.
       -1   -1    0    0    0  501  0.00000000000E+00  0.00000000000E+00 -0.77543777892E+03  0.77543777894E+03  0.50400001928E-02 0.  1.
    10030    2    1    2    0    0  0.00000000000E+00  0.00000000000E+00  0.15826684196E+04  0.31335439775E+04  0.27044885898E+04 0.  0.
        4    1    3    3  502    0  0.78020483338E+03 -0.95298714757E+03  0.14450379679E+03  0.12400754193E+04  0.12699999809E+01 0.  1.
       -4    1    3    3    0  502 -0.78020483338E+03  0.95298714757E+03  0.14381646229E+04  0.18934685582E+04  0.12699999809E+01 0. -1.
</event>
<event>
 5   0  0.3676724E-05  0.2710543E+04  0.7818609E-02  0.8331592E-01
        2   -1    0    0  501    0  0.00000000000E+00  0.00000000000E+00  0.12571345242E+04  0.12571345242E+04  0.25500000920E-02 0. -1.
       -2   -1    0    0    0  501  0.00000000000E+00  0.00000000000E+00 -0.14610690730E+04  0.14610690730E+04  0.25500000920E-02 0.  1.
    10030    2    1    2    0    0  0.00000000000E+00  0.00000000000E+00 -0.20393454883E+03  0.27182035972E+04  0.27105426570E+04 0.  0.
        4    1    3    3  502    0 -0.10750444385E+02 -0.11089840476E+04 -0.88314104641E+03  0.14177097413E+04  0.12699999809E+01 0.  1.
       -4    1    3    3    0  502  0.10750444385E+02  0.11089840476E+04  0.67920649758E+03  0.13004938559E+04  0.12699999809E+01 0. -1.
</event>
<event>
 5   0  0.3568647E-05  0.2682626E+04  0.7818609E-02  0.8340664E-01
       -2   -1    0    0    0  501  0.00000000000E+00  0.00000000000E+00  0.11834278212E+04  0.11834278212E+04  0.25500000920E-02 0. -1.
        2   -1    0    0  501    0  0.00000000000E+00  0.00000000000E+00 -0.15202619145E+04  0.15202619145E+04  0.25500000920E-02 0.  1.
    10030    2    1    2    0    0  0.00000000000E+00  0.00000000000E+00 -0.33683409332E+03  0.27036897357E+04  0.26826257623E+04 0.  0.
        3    1    3    3  502    0 -0.13218814651E+04 -0.19271794717E+03 -0.29023554661E+03  0.13670213962E+04  0.10100000352E+00 0.  1.
       -3    1    3    3    0  502  0.13218814651E+04  0.19271794717E+03 -0.46598546708E+02  0.13366683395E+04  0.10100000352E+00 0. -1.
</event>
<event>
 5   0  0.1484379E-05  0.2756288E+04  0.7818609E-02  0.8316969E-01
        1   -1    0    0  501    0  0.00000000000E+00  0.00000000000E+00  0.17208792043E+04  0.17208792043E+04  0.50400001928E-02 0. -1.
       -1   -1    0    0    0  501  0.00000000000E+00  0.00000000000E+00 -0.11036685934E+04  0.11036685934E+04  0.50400001928E-02 0.  1.
    10030    2    1    2    0    0  0.00000000000E+00  0.00000000000E+00  0.61721061095E+03  0.28245477977E+04  0.27562875981E+04 0.  0.
        1    1    3    3  502    0 -0.67689733185E+03 -0.11272570289E+04  0.73160120375E+03  0.15047055288E+04  0.50400001928E-02 0. -1.
       -1    1    3    3    0  502  0.67689733185E+03  0.11272570289E+04 -0.11439059279E+03  0.13198422689E+04  0.50400001928E-02 0.  1.
</event>
<event>
 5   0  0.1484379E-05  0.2637423E+04  0.7818609E-02  0.8355599E-01
        1   -1    0    0  501    0  0.00000000000E+00  0.00000000000E+00  0.12500764367E+04  0.12500764367E+04  0.50400001928E-02 0.  1.
       -1   -1    0    0    0  501  0.00000000000E+00  0.00000000000E+00 -0.13911154512E+04  0.13911154513E+04  0.50400001928E-02 0. -1.
    10030    2    1    2    0    0  0.00000000000E+00  0.00000000000E+00 -0.14103901457E+03  0.26411918879E+04  0.26374234748E+04 0.  0.
        1    1    3    3  502    0  0.53563244424E+03 -0.61846303311E+03  0.96517385308E+03  0.12652901665E+04  0.50400001928E-02 0.  1.
       -1    1    3    3    0  502 -0.53563244424E+03  0.61846303311E+03 -0.11062128676E+04  0.13759017215E+04  0.50400001928E-02 0. -1.
</event>
<event>
 5   0  0.1474012E-05  0.2631135E+04  0.7818609E-02  0.8357701E-01
       -1   -1    0    0    0  501  0.00000000000E+00  0.00000000000E+00  0.14465639010E+04  0.14465639010E+04  0.50400001928E-02 0.  1.
        1   -1    0    0  501    0  0.00000000000E+00  0.00000000000E+00 -0.11964341538E+04  0.11964341539E+04  0.50400001928E-02 0. -1.
    10030    2    1    2    0    0  0.00000000000E+00  0.00000000000E+00  0.25012974715E+03  0.26429980549E+04  0.26311354636E+04 0.  0.
        2    1    3    3  502    0  0.31201136761E+03 -0.88838336145E+03 -0.79784965776E+03  0.12341556494E+04  0.25500000920E-02 0. -1.
       -2    1    3    3    0  502 -0.31201136761E+03  0.88838336145E+03  0.10479794049E+04  0.14088424055E+04  0.25500000920E-02 0.  1.
</event>
<event>
 5   0  0.1474012E-05  0.2659601E+04  0.7818609E-02  0.8348233E-01
        1   -1    0    0  501    0  0.00000000000E+00  0.00000000000E+00  0.18232014656E+04  0.18232014656E+04  0.50400001928E-02 0.  1.
       -1   -1    0    0    0  501  0.00000000000E+00  0.00000000000E+00 -0.96992538819E+03  0.96992538821E+03  0.50400001928E-02 0. -1.
    10030    2    1    2    0    0  0.00000000000E+00  0.00000000000E+00  0.85327607742E+03  0.27931268538E+04  0.26596010147E+04 0.  0.
        2    1    3    3  502    0 -0.45588116173E+03  0.78875588025E+03 -0.59070996926E+03  0.10857724163E+04  0.25500000920E-02 0. -1.
       -2    1    3    3    0  502  0.45588116173E+03 -0.78875588025E+03  0.14439860467E+04  0.17073544375E+04  0.25500000920E-02 0.  1.
</event>
<event>
 5   0  0.3497949E-05  0.2398104E+04  0.7818609E-02  0.8440214E-01
       -2   -1    0    0    0  501  0.00000000000E+00  0.00000000000E+00  0.52106277128E+03  0.52106277129E+03  0.25500000920E-02 0. -1.
        2   -1    0    0  501    0  0.00000000000E+00  0.00000000000E+00 -0.27592188396E+04  0.27592188396E+04  0.25500000920E-02 0.  1.
    10030    2    1    2    0    0  0.00000000000E+00  0.00000000000E+00 -0.22381560683E+04  0.32802816109E+04  0.23981044307E+04 0.  0.
        5    1    3    3  502    0 -0.57367034588E+03 -0.63687818213E+02  0.31851444141E+03  0.65926272708E+03  0.46999998093E+01 0. -1.
       -5    1    3    3    0  502  0.57367034588E+03  0.63687818213E+02 -0.25566705097E+04  0.26210188838E+04  0.46999998093E+01 0.  1.
</event>
<event>
 5   0  0.1495517E-05  0.2826119E+04  0.7818609E-02  0.8295205E-01
        1   -1    0    0  501    0  0.00000000000E+00  0.00000000000E+00  0.12558177052E+04  0.12558177052E+04  0.50400001928E-02 0.  1.
       -1   -1    0    0    0  501  0.00000000000E+00  0.00000000000E+00 -0.15899894772E+04  0.15899894772E+04  0.50400001928E-02 0. -1.
    10030    2    1    2    0    0  0.00000000000E+00  0.00000000000E+00 -0.33417177200E+03  0.28458071824E+04  0.28261188485E+04 0.  0.
        5    1    3    3  502    0 -0.73956217125E+03  0.48225002038E+03 -0.12780386300E+04  0.15533583350E+04  0.46999998093E+01 0. -1.
       -5    1    3    3    0  502  0.73956217125E+03 -0.48225002038E+03  0.94386685799E+03  0.12924488473E+04  0.46999998093E+01 0.  1.
</event>
<event>
 5   0  0.1449521E-05  0.2472033E+04  0.7818609E-02  0.8413017E-01
       -1   -1    0    0    0  501  0.00000000000E+00  0.00000000000E+00  0.11773106813E+04  0.11773106813E+04  0.50400001928E-02 0. -1.
        1   -1    0    0  501    0  0.00000000000E+00  0.00000000000E+00 -0.12976499829E+04  0.12976499829E+04  0.50400001928E-02 0.  1.
    10030    2    1    2    0    0  0.00000000000E+00  0.00000000000E+00 -0.12033930156E+03  0.24749606642E+04  0.24720333214E+04 0.  0.
        3    1    3    3  502    0 -0.39446544167E+03  0.65296218597E+03  0.91349140073E+03  0.11901382904E+04  0.10100000352E+00 0. -1.
       -3    1    3    3    0  502  0.39446544167E+03 -0.65296218597E+03 -0.10338307023E+04  0.12848223738E+04  0.10100000352E+00 0.  1.
</event>
<event>
 5   0  0.1495517E-05  0.2781416E+04  0.7818609E-02  0.8309061E-01
        1   -1    0    0  501    0  0.00000000000E+00  0.00000000000E+00  0.13757119984E+04  0.13757119984E+04  0.50400001928E-02 0. -1.
       -1   -1    0    0    0  501  0.00000000000E+00  0.00000000000E+00 -0.14058670108E+04  0.14058670108E+04  0.50400001928E-02 0.  1.
    10030    2    1    2    0    0  0.00000000000E+00  0.00000000000E+00 -0.30155012445E+02  0.27815790092E+04  0.27814155496E+04 0.  0.
        5    1    3    3  502    0 -0.69503927962E+03 -0.23938616433E+03  0.11655259414E+04  0.13779906189E+04  0.46999998093E+01 0. -1.
       -5    1    3    3    0  502  0.69503927962E+03  0.23938616433E+03 -0.11956809538E+04  0.14035883902E+04  0.46999998093E+01 0.  1.
</event>
<event>
 5   0  0.1438701E-05  0.1674137E+04  0.7818609E-02  0.8776254E-01
       -1   -1    0    0    0  501  0.00000000000E+00  0.00000000000E+00  0.64814418302E+03  0.64814418304E+03  0.50400001928E-02 0. -1.
        1   -1    0    0  501    0  0.00000000000E+00  0.00000000000E+00 -0.10810615485E+04  0.10810615485E+04  0.50400001928E-02 0.  1.
    10030    2    1    2    0    0  0.00000000000E+00  0.00000000000E+00 -0.43291736550E+03  0.17292057316E+04  0.16741370962E+04 0.  0.
        4    1    3    3  502    0  0.12376371534E+03 -0.76842788091E+03 -0.53462227528E+03  0.94425709186E+03  0.12699999809E+01 0.  1.
       -4    1    3    3    0  502 -0.12376371534E+03  0.76842788091E+03  0.10170490978E+03  0.78494863970E+03  0.12699999809E+01 0. -1.
</event>
<event>
 5   0  0.3514294E-05  0.2726864E+04  0.7818609E-02  0.8326341E-01
        2   -1    0    0  501    0  0.00000000000E+00  0.00000000000E+00  0.28698147791E+04  0.28698147791E+04  0.25500000920E-02 0.  1.
       -2   -1    0    0    0  501  0.00000000000E+00  0.00000000000E+00 -0.64775859349E+03  0.64775859349E+03  0.25500000920E-02 0. -1.
    10030    2    1    2    0    0  0.00000000000E+00  0.00000000000E+00  0.22220561856E+04  0.35175733726E+04  0.27268642687E+04 0.  0.
        2    1    3    3  502    0  0.12165122642E+04  0.25914890172E+03  0.39062056801E+03  0.13037042112E+04  0.25500000920E-02 0.  1.
       -2    1    3    3    0  502 -0.12165122642E+04 -0.25914890172E+03  0.18314356176E+04  0.22138691614E+04  0.25500000920E-02 0. -1.
</event>
<event>
 5   0  0.3652331E-05  0.2234593E+04  0.7818609E-02  0.8504166E-01
        2   -1    0    0  501    0  0.00000000000E+00  0.00000000000E+00  0.14230913663E+04  0.14230913663E+04  0.25500000920E-02 0.  1.
       -2   -1    0    0    0  501  0.00000000000E+00  0.00000000000E+00 -0.87721073069E+03  0.87721073069E+03  0.25500000920E-02 0. -1.
    10030    2    1    2    0    0  0.00000000000E+00  0.00000000000E+00  0.54588063565E+03  0.23003020970E+04  0.22345925958E+04 0.  0.
        1    1    3    3  502    0 -0.11034308603E+04  0.81912057487E+02  0.11319405405E+03  0.11122419443E+04  0.50400001928E-02 0.  1.
       -1    1    3    3    0  502  0.11034308603E+04 -0.81912057487E+02  0.43268658160E+03  0.11880601528E+04  0.50400001928E-02 0. -1.
</event>
<event>
 5   0  0.1495517E-05  0.2654141E+04  0.7818609E-02  0.8350040E-01
        1   -1    0    0  501    0  0.00000000000E+00  0.00000000000E+00  0.76991350234E+03  0.76991350236E+03  0.50400001928E-02 0.  1.
       -1   -1    0    0    0  501  0.00000000000E+00  0.00000000000E+00 -0.22874211499E+04  0.22874211499E+04  0.50400001928E-02 0. -1.
    10030    2    1    2    0    0  0.00000000000E+00  0.00000000000E+00 -0.15175076475E+04  0.30573346522E+04  0.26541412388E+04 0.  0.
        5    1    3    3  502    0  0.96443825610E+03 -0.90972856637E+03 -0.69211077068E+03  0.14955890556E+04  0.46999998093E+01 0.  1.
       -5    1    3    3    0  502 -0.96443825610E+03  0.90972856637E+03 -0.82539687684E+03  0.15617455966E+04  0.46999998093E+01 0. -1.
</event>
<event>
 5   0  0.1474012E-05  0.2773302E+04  0.7818609E-02  0.8311605E-01
       -1   -1    0    0    0  501  0.00000000000E+00  0.00000000000E+00  0.11310329059E+04  0.11310329060E+04  0.50400001928E-02 0.  1.
        1   -1    0    0  501    0  0.00000000000E+00  0.00000000000E+00 -0.17000397340E+04  0.17000397340E+04  0.50400001928E-02 0. -1.
    10030    2    1    2    0    0  0.00000000000E+00  0.00000000000E+00 -0.56900682807E+03  0.28310726400E+04  0.27733019169E+04 0.  0.
        2    1    3    3  502    0 -0.69731340358E+03  0.69991169086E+03 -0.12777455222E+04  0.16151643809E+04  0.25500000920E-02 0. -1.
       -2    1    3    3    0  502  0.69731340358E+03 -0.69991169086E+03  0.70873869417E+03  0.12159082591E+04  0.25500000920E-02 0.  1.
</event>
<event>
 5   0  0.1449521E-05  0.2703738E+04  0.7818609E-02  0.8333793E-01
        1   -1    0    0  501    0  0.00000000000E+00  0.00000000000E+00  0.12918140255E+04  0.12918140255E+04  0.50400001928E-02 0. -1.
       -1   -1    0    0    0  501  0.00000000000E+00  0.00000000000E+00 -0.14147160089E+04  0.14147160089E+04  0.50400001928E-02 0.  1.
    10030    2    1    2    0    0  0.00000000000E+00  0.00000000000E+00 -0.12290198344E+03  0.27065300344E+04  0.27037381400E+04 0.  0.
        3    1    3    3  502    0  0.13139409611E+04 -0.29329352412E+03 -0.18441117874E+03  0.13588485691E+04  0.10100000352E+00 0.  1.
       -3    1    3    3    0  502 -0.13139409611E+04  0.29329352412E+03  0.61509195300E+02  0.13476814653E+04  0.10100000352E+00 0. -1.
</event>
<event>
 5   0  0.3514294E-05  0.2647587E+04  0.7818609E-02  0.8352214E-01
        2   -1    0    0  501    0  0.00000000000E+00  0.00000000000E+00  0.16047619225E+04  0.16047619225E+04  0.25500000920E-02 0.  1.
       -2   -1    0    0    0  501  0.00000000000E+00  0.00000000000E+00 -0.10920183351E+04  0.10920183351E+04  0.25500000920E-02 0. -1.
    10030    2    1    2    0    0  0.00000000000E+00  0.00000000000E+00  0.51274358736E+03  0.26967802576E+04  0.26475871603E+04 0.  0.
        2    1    3    3  502    0 -0.16934578355E+03 -0.10300752706E+04  0.10855590040E+04  0.15060449557E+04  0.25500000920E-02 0.  1.
       -2    1    3    3    0  502  0.16934578355E+03  0.10300752706E+04 -0.57281541660E+03  0.11907353019E+04  0.25500000920E-02 0. -1.
</event>
<event>
 5   0  0.3652331E-05  0.2684426E+04  0.7818609E-02  0.8340076E-01
        2   -1    0    0  501    0  0.00000000000E+00  0.00000000000E+00  0.30199679609E+04  0.30199679609E+04  0.25500000920E-02 0. -1.
       -2   -1    0    0    0  501  0.00000000000E+00  0.00000000000E+00 -0.59654114364E+03  0.59654114364E+03  0.25500000920E-02 0.  1.
    10030    2    1    2    0    0  0.00000000000E+00  0.00000000000E+00  0.24234268173E+04  0.36165091045E+04  0.26844255558E+04 0.  0.
        1    1    3    3  502    0 -0.88354744097E+03 -0.87921707951E+03  0.54099804253E+03  0.13588074313E+04  0.50400001928E-02 0.  1.
       -1    1    3    3    0  502  0.88354744097E+03  0.87921707951E+03  0.18824287747E+04  0.22577016732E+04  0.50400001928E-02 0. -1.
</event>
<event>
 5   0  0.1484379E-05  0.2710301E+04  0.7818609E-02  0.8331670E-01
        1   -1    0    0  501    0  0.00000000000E+00  0.00000000000E+00  0.17885285194E+04  0.17885285194E+04  0.50400001928E-02 0.  1.
       -1   -1    0    0    0  501  0.00000000000E+00  0.00000000000E+00 -0.10267842142E+04  0.10267842142E+04  0.50400001928E-02 0. -1.
    10030    2    1    2    0    0  0.00000000000E+00  0.00000000000E+00  0.76174430525E+03  0.28153127336E+04  0.27103009798E+04 0.  0.
        1    1    3    3  502    0  0.92088159926E+03  0.21037817744E+03  0.13901943870E+04  0.16807505261E+04  0.50400001928E-02 0.  1.
       -1    1    3    3    0  502 -0.92088159926E+03 -0.21037817744E+03 -0.62845008173E+03  0.11345622075E+04  0.50400001928E-02 0. -1.
</event>
<event>
 5   0  0.3514294E-05  0.2569378E+04  0.7818609E-02  0.8378678E-01
        2   -1    0    0  501    0  0.00000000000E+00  0.00000000000E+00  0.20671674877E+04  0.20671674877E+04  0.25500000920E-02 0.  1.
       -2   -1    0    0    0  501  0.00000000000E+00  0.00000000000E+00 -0.79839981727E+03  0.79839981728E+03  0.25500000920E-02 0. -1.
    10030    2    1    2    0    0  0.00000000000E+00  0.00000000000E+00  0.12687676704E+04  0.28655673050E+04  0.25693782473E+04 0.  0.
        2    1    3    3  502    0 -0.20704161061E+03  0.88552185231E+03 -0.37764035480E+03  0.98469661167E+03  0.25500000920E-02 0. -1.
       -2    1    3    3    0  502  0.20704161061E+03 -0.88552185231E+03  0.16464080252E+04  0.18808706933E+04  0.25500000920E-02 0.  1.
</event>
<event>
 5   0  0.1438701E-05  0.2902378E+04  0.7818609E-02  0.8272170E-01
       -1   -1    0    0    0  501  0.00000000000E+00  0.00000000000E+00  0.14591134016E+04  0.14591134016E+04  0.50400001928E-02 0.  1.
        1   -1    0    0  501    0  0.00000000000E+00  0.00000000000E+00 -0.14433074127E+04  0.14433074127E+04  0.50400001928E-02 0. -1.
    10030    2    1    2    0    0  0.00000000000E+00  0.00000000000E+00  0.15805988952E+02  0.29024208143E+04  0.29023777759E+04 0.  0.
        4    1    3    3  502    0  0.31548106305E+02  0.13972040229E+04 -0.38296493976E+03  0.14490818205E+04  0.12699999809E+01 0. -1.
       -4    1    3    3    0  502 -0.31548106305E+02 -0.13972040229E+04  0.39877092871E+03  0.14533389938E+04  0.12699999809E+01 0.  1.
</event>
<event>
 5   0  0.1449521E-05  0.2098941E+04  0.7818609E-02  0.8561710E-01
        1   -1    0    0  501    0  0.00000000000E+00  0.00000000000E+00  0.18953716560E+04  0.18953716560E+04  0.50400001928E-02 0.  1.
       -1   -1    0    0    0  501  0.00000000000E+00  0.00000000000E+00 -0.58109377273E+03  0.58109377276E+03  0.50400001928E-02 0. -1.
    10030    2    1    2    0    0  0.00000000000E+00  0.00000000000E+00  0.13142778833E+04  0.24764654288E+04  0.20989413202E+04 0.  0.
        3    1    3    3  502    0 -0.99792868516E+03 -0.18892103999E+03  0.34534250964E+03  0.10727601219E+04  0.10100000352E+00 0. -1.
       -3    1    3    3    0  502  0.99792868516E+03  0.18892103999E+03  0.96893537365E+03  0.14037053069E+04  0.10100000352E+00 0.  1.
</event>
<event>
 5   0  0.3497949E-05  0.2679203E+04  0.7818609E-02  0.8341784E-01
        2   -1    0    0  501    0  0.00000000000E+00  0.00000000000E+00  0.22740619563E+04  0.22740619563E+04  0.25500000920E-02 0.  1.
       -2   -1    0    0    0  501  0.00000000000E+00  0.00000000000E+00 -0.78913100472E+03  0.78913100473E+03  0.25500000920E-02 0. -1.
    10030    2    1    2    0    0  0.00000000000E+00  0.00000000000E+00  0.14849309515E+04  0.30631929610E+04  0.26792034610E+04 0.  0.
        5    1    3    3  502    0  0.83898975331E+03  0.15655799308E+03  0.19229679932E+04  0.21038636373E+04  0.46999998093E+01 0.  1.
       -5    1    3    3    0  502 -0.83898975331E+03 -0.15655799308E+03 -0.43803704171E+03  0.95932932367E+03  0.46999998093E+01 0. -1.
</event>
<event>
 5   0  0.3514294E-05  0.1621638E+04  0.7818609E-02  0.8807364E-01
        2   -1    0    0  501    0  0.00000000000E+00  0.00000000000E+00  0.12771766691E+04  0.12771766691E+04  0.25500000920E-02 0. -1.
       -2   -1    0    0    0  501  0.00000000000E+00  0.00000000000E+00 -0.51475075568E+03  0.51475075569E+03  0.25500000920E-02 0.  1.
    10030    2    1    2    0    0  0.00000000000E+00  0.00000000000E+00  0.76242591341E+03  0.17919274248E+04  0.16216382526E+04 0.  0.
        2    1    3    3  502    0 -0.20544156060E+03 -0.55496126008E+03  0.99371128061E+03  0.11565683483E+04  0.25500000920E-02 0. -1.
       -2    1    3    3    0  502  0.20544156060E+03  0.55496126008E+03 -0.23128536720E+03  0.63535907651E+03  0.25500000920E-02 0.  1.
</event>
<event>
 5   0  0.1228050E-05  0.2665029E+04  0.7818609E-02  0.8346442E-01
       -3   -1    0    0    0  501  0.00000000000E+00  0.00000000000E+00  0.11706501413E+04  0.11706501457E+04  0.10100000352E+00 0. -1.
        3   -1    0    0  501    0  0.00000000000E+00  0.00000000000E+00 -0.15167597810E+04  0.15167597844E+04  0.10100000352E+00 0.  1.
    10030    2    1    2    0    0  0.00000000000E+00  0.00000000000E+00 -0.34610963969E+03  0.26874099301E+04  0.26650291273E+04 0.  0.
        4    1    3    3  502    0  0.19784472873E+03 -0.28944646237E+03  0.11233040612E+04  0.11767478141E+04  0.12699999809E+01 0. -1.
       -4    1    3    3    0  502 -0.19784472873E+03  0.28944646237E+03 -0.14694137009E+04  0.15106621159E+04  0.12699999809E+01 0.  1.
</event>
<event>
 5   0  0.1495517E-05  0.2692750E+04  0.7818609E-02  0.8337361E-01
       -1   -1    0    0    0  501  0.00000000000E+00  0.00000000000E+00  0.17477555965E+04  0.17477555965E+04  0.50400001928E-02 0. -1.
        1   -1    0    0  501    0  0.00000000000E+00  0.00000000000E+00 -0.10371733145E+04  0.10371733145E+04  0.50400001928E-02 0.  1.
    10030    2    1    2    0    0  0.00000000000E+00  0.00000000000E+00  0.71058228195E+03  0.27849289110E+04  0.26927498695E+04 0.  0.
        5    1    3    3  502    0 -0.92882232584E+03  0.51335976312E+03  0.12121788006E+04  0.16111017019E+04  0.46999998093E+01 0. -1.
       -5    1    3    3    0  502  0.92882232584E+03 -0.51335976312E+03 -0.50159651860E+03  0.11738272091E+04  0.46999998093E+01 0.  1.
</event>
<event>
 5   0  0.1474012E-05  0.2712547E+04  0.7818609E-02  0.8330946E-01
        1   -1    0    0  501    0  0.00000000000E+00  0.00000000000E+00  0.18008820264E+04  0.18008820264E+04  0.50400001928E-02 0.  1.
       -1   -1    0    0    0  501  0.00000000000E+00  0.00000000000E+00 -0.10214312748E+04  0.10214312748E+04  0.50400001928E-02 0. -1.
    10030    2    1    2    0    0  0.00000000000E+00  0.00000000000E+00  0.77945075163E+03  0.28223133013E+04  0.27125465703E+04 0.  0.
        2    1    3    3  502    0 -0.88577505269E+02 -0.23802790155E+03  0.17759193717E+04  0.17939879796E+04  0.25500000920E-02 0.  1.
       -2    1    3    3    0  502  0.88577505269E+02  0.23802790155E+03 -0.99646862005E+03  0.10283253216E+04  0.25500000920E-02 0. -1.
</event>
<event>
 5   0  0.1484379E-05  0.2690752E+04  0.7818609E-02  0.8338012E-01
        1   -1    0    0  501    0  0.00000000000E+00  0.00000000000E+00  0.15531062883E+04  0.15531062884E+04  0.50400001928E-02 0.  1.
       -1   -1    0    0    0  501  0.00000000000E+00  0.00000000000E+00 -0.11654298563E+04  0.11654298563E+04  0.50400001928E-02 0. -1.
    10030    2    1    2    0    0  0.00000000000E+00  0.00000000000E+00  0.38767643207E+03  0.27185361446E+04  0.26907518938E+04 0.  0.
        1    1    3    3  502    0  0.62596020572E+02  0.13166682317E+04 -0.78205863504E+02  0.13204732679E+04  0.50400001928E-02 0. -1.
       -1    1    3    3    0  502 -0.62596020572E+02 -0.13166682317E+04  0.46588229557E+03  0.13980628768E+04  0.50400001928E-02 0.  1.
</event>
<event>
 5   0  0.3514294E-05  0.2617696E+04  0.7818609E-02  0.8362215E-01
        2   -1    0    0  501    0  0.00000000000E+00  0.00000000000E+00  0.12985839484E+04  0.12985839484E+04  0.25500000920E-02 0. -1.
       -2   -1    0    0    0  501  0.00000000000E+00  0.00000000000E+00 -0.13191933863E+04  0.13191933864E+04  0.25500000920E-02 0.  1.
    10030    2    1    2    0    0  0.00000000000E+00  0.00000000000E+00 -0.20609437921E+02  0.26177773348E+04  0.26176962057E+04 0.  0.
        2    1    3    3  502    0  0.62904421632E+03 -0.33044595726E+03 -0.11095167507E+04  0.13175426281E+04  0.25500000920E-02 0.  1.
       -2    1    3    3    0  502 -0.62904421632E+03  0.33044595726E+03  0.10889073128E+04  0.13002347067E+04  0.25500000920E-02 0. -1.
</event>
<event>
 5   0  0.1484379E-05  0.2669372E+04  0.7818609E-02  0.8345012E-01
       -1   -1    0    0    0  501  0.00000000000E+00  0.00000000000E+00  0.15161069824E+04  0.15161069824E+04  0.50400001928E-02 0. -1.
        1   -1    0    0  501    0  0.00000000000E+00  0.00000000000E+00 -0.11749741807E+04  0.11749741807E+04  0.50400001928E-02 0.  1.
    10030    2    1    2    0    0  0.00000000000E+00  0.00000000000E+00  0.34113280178E+03  0.26910811631E+04  0.26693718808E+04 0.  0.
        1    1    3    3  502    0 -0.34376316740E+03  0.67629222881E+03  0.12776055158E+04  0.14858735303E+04  0.50400001928E-02 0. -1.
       -1    1    3    3    0  502  0.34376316740E+03 -0.67629222881E+03 -0.93647271404E+03  0.12052076328E+04  0.50400001928E-02 0.  1.
</event>
<event>
 5   0  0.3497949E-05  0.1571314E+04  0.7818609E-02  0.8838367E-01
        2   -1    0    0  501    0  0.00000000000E+00  0.00000000000E+00  0.62745445682E+03  0.62745445682E+03  0.25500000920E-02 0. -1.
       -2   -1    0    0    0  501  0.00000000000E+00  0.00000000000E+00 -0.98374756442E+03  0.98374756442E+03  0.25500000920E-02 0.  1.
    10030    2    1    2    0    0  0.00000000000E+00  0.00000000000E+00 -0.35629310761E+03  0.16112020212E+04  0.15713138371E+04 0.  0.
        5    1    3    3  502    0 -0.97166802322E+02 -0.49478289703E+03 -0.79592154925E+03  0.94221266455E+03  0.46999998093E+01 0. -1.
       -5    1    3    3    0  502  0.97166802322E+02  0.49478289703E+03  0.43962844165E+03  0.66898935670E+03  0.46999998093E+01 0.  1.
</event>
<event>
 5   0  0.1449521E-05  0.2723777E+04  0.7818609E-02  0.8327331E-01
       -1   -1    0    0    0  501  0.00000000000E+00  0.00000000000E+00  0.15519569439E+04  0.15519569439E+04  0.50400001928E-02 0. -1.
        1   -1    0    0  501    0  0.00000000000E+00  0.00000000000E+00 -0.11950980135E+04  0.11950980135E+04  0.50400001928E-02 0.  1.
    10030    2    1    2    0    0  0.00000000000E+00  0.00000000000E+00  0.35685893046E+03  0.27470549574E+04  0.27237772748E+04 0.  0.
        3    1    3    3  502    0 -0.30651920735E+03 -0.57680386116E+03 -0.10268079966E+04  0.12169598970E+04  0.10100000352E+00 0.  1.
       -3    1    3    3    0  502  0.30651920735E+03  0.57680386116E+03  0.13836669271E+04  0.15300950604E+04  0.10100000352E+00 0. -1.
</event>
<event>
 5   0  0.1228050E-05  0.2671319E+04  0.7818609E-02  0.8344371E-01
        3   -1    0    0  501    0  0.00000000000E+00  0.00000000000E+00  0.22743807312E+04  0.22743807335E+04  0.10100000352E+00 0. -1.
       -3   -1    0    0    0  501  0.00000000000E+00  0.00000000000E+00 -0.78438310256E+03  0.78438310906E+03  0.10100000352E+00 0.  1.
    10030    2    1    2    0    0  0.00000000000E+00  0.00000000000E+00  0.14899976287E+04  0.30587638425E+04  0.26713186465E+04 0.  0.
        2    1    3    3  502    0 -0.78589153217E+03  0.28513553012E+03  0.19377414401E+04  0.21103956168E+04  0.25500000920E-02 0. -1.
       -2    1    3    3    0  502  0.78589153217E+03 -0.28513553012E+03 -0.44774381142E+03  0.94836822571E+03  0.25500000920E-02 0.  1.
</event>
<event>
 5   0  0.1495517E-05  0.1837378E+04  0.7818609E-02  0.8686671E-01
       -1   -1    0    0    0  501  0.00000000000E+00  0.00000000000E+00  0.10733972569E+04  0.10733972569E+04  0.50400001928E-02 0.  1.
        1   -1    0    0  501    0  0.00000000000E+00  0.00000000000E+00 -0.78627864481E+03  0.78627864483E+03  0.50400001928E-02 0. -1.
    10030    2    1    2    0    0  0.00000000000E+00  0.00000000000E+00  0.28711861212E+03  0.18596759018E+04  0.18373778496E+04 0.  0.
        5    1    3    3  502    0  0.13172642784E+02 -0.12346695130E+03 -0.77773429439E+03  0.78759782202E+03  0.46999998093E+01 0. -1.
       -5    1    3    3    0  502 -0.13172642784E+02  0.12346695130E+03  0.10648529065E+04  0.10720780798E+04  0.46999998093E+01 0.  1.
</event>
<event>
 5   0  0.3514294E-05  0.2721163E+04  0.7818609E-02  0.8328171E-01
        2   -1    0    0  501    0  0.00000000000E+00  0.00000000000E+00  0.12687287841E+04  0.12687287841E+04  0.25500000920E-02 0. -1.
       -2   -1    0    0    0  501  0.00000000000E+00  0.00000000000E+00 -0.14590840674E+04  0.14590840674E+04  0.25500000920E-02 0.  1.
    10030    2    1    2    0    0  0.00000000000E+00  0.00000000000E+00 -0.19035528331E+03  0.27278128516E+04  0.27211629535E+04 0.  0.
        2    1    3    3  502    0 -0.49594091380E+03  0.47576155050E+03 -0.12723025533E+04  0.14460498712E+04  0.25500000920E-02 0.  1.
       -2    1    3    3    0  502  0.49594091380E+03 -0.47576155050E+03  0.10819472700E+04  0.12817629804E+04  0.25500000920E-02 0. -1.
</event>
<event>
 5   0  0.1228050E-05  0.3009336E+04  0.7818609E-02  0.8241070E-01
       -3   -1    0    0    0  501  0.00000000000E+00  0.00000000000E+00  0.10399738720E+04  0.10399738769E+04  0.10100000352E+00 0.  1.
        3   -1    0    0  501    0  0.00000000000E+00  0.00000000000E+00 -0.21770018857E+04  0.21770018881E+04  0.10100000352E+00 0. -1.
    10030    2    1    2    0    0  0.00000000000E+00  0.00000000000E+00 -0.11370280137E+04  0.32169757649E+04  0.30093355360E+04 0.  0.
        4    1    3    3  502    0  0.12924182050E+04  0.34823313998E+03 -0.13032609595E+04  0.18681814360E+04  0.12699999809E+01 0. -1.
       -4    1    3    3    0  502 -0.12924182050E+04 -0.34823313998E+03  0.16623294575E+03  0.13487943289E+04  0.12699999809E+01 0.  1.
</event>
<event>
 5   0  0.1484379E-05  0.2722005E+04  0.7818609E-02  0.8327900E-01
        1   -1    0    0  501    0  0.00000000000E+00  0.00000000000E+00  0.12504298489E+04  0.12504298489E+04  0.50400001928E-02 0. -1.
       -1   -1    0    0    0  501  0.00000000000E+00  0.00000000000E+00 -0.14813524339E+04  0.14813524339E+04  0.50400001928E-02 0.  1.
    10030    2    1    2    0    0  0.00000000000E+00  0.00000000000E+00 -0.23092258492E+03  0.27317822828E+04  0.27220046290E+04 0.  0.
        1    1    3    3  502    0  0.10102135478E+03 -0.12133183461E+04  0.49498391339E+03  0.13142890845E+04  0.50400001928E-02 0.  1.
       -1    1    3    3    0  502 -0.10102135478E+03  0.12133183461E+04 -0.72590649832E+03  0.14174931983E+04  0.50400001928E-02 0. -1.
</event>
<event>
 5   0  0.3514294E-05  0.2731519E+04  0.7818609E-02  0.8324850E-01
       -2   -1    0    0    0  501  0.00000000000E+00  0.00000000000E+00  0.11015037558E+04  0.11015037558E+04  0.25500000920E-02 0. -1.
        2   -1    0    0  501    0  0.00000000000E+00  0.00000000000E+00 -0.16934113166E+04  0.16934113166E+04  0.25500000920E-02 0.  1.
    10030    2    1    2    0    0  0.00000000000E+00  0.00000000000E+00 -0.59190756084E+03  0.27949150724E+04  0.27315189367E+04 0.  0.
        2    1    3    3  502    0  0.47996595342E+02  0.20613721790E+03  0.10846214070E+04  0.11050791023E+04  0.25500000920E-02 0. -1.
       -2    1    3    3    0  502 -0.47996595342E+02 -0.20613721790E+03 -0.16765289679E+04  0.16898359701E+04  0.25500000920E-02 0.  1.
</event>
<event>
 5   0  0.1474012E-05  0.2668480E+04  0.7818609E-02  0.8345305E-01
       -1   -1    0    0    0  501  0.00000000000E+00  0.00000000000E+00  0.20813622670E+04  0.20813622670E+04  0.50400001928E-02 0.  1.
        1   -1    0    0  501    0  0.00000000000E+00  0.00000000000E+00 -0.85530363013E+03  0.85530363015E+03  0.50400001928E-02 0. -1.
    10030    2    1    2    0    0  0.00000000000E+00  0.00000000000E+00  0.12260586369E+04  0.29366658971E+04  0.26684802436E+04 0.  0.
        2    1    3    3  502    0  0.39819964392E+03 -0.83809794953E+03 -0.44209005445E+03  0.10278203859E+04  0.25500000920E-02 0. -1.
       -2    1    3    3    0  502 -0.39819964392E+03  0.83809794953E+03  0.16681486913E+04  0.19088455112E+04  0.25500000920E-02 0.  1.
</event>
<event>
 5   0  0.1474012E-05  0.2764527E+04  0.7818609E-02  0.8314367E-01
       -1   -1    0    0    0  501  0.00000000000E+00  0.00000000000E+00  0.10847194184E+04  0.10847194184E+04  0.50400001928E-02 0. -1.
        1   -1    0    0  501    0  0.00000000000E+00  0.00000000000E+00 -0.17614260198E+04  0.17614260198E+04  0.50400001928E-02 0.  1.
    10030    2    1    2    0    0  0.00000000000E+00  0.00000000000E+00 -0.67670660144E+03  0.28461454382E+04  0.27645274517E+04 0.  0.
        2    1    3    3  502    0  0.89202175357E+03 -0.51786676923E+03  0.60901190083E+03  0.11978248181E+04  0.25500000920E-02 0. -1.
       -2    1    3    3    0  502 -0.89202175357E+03  0.51786676923E+03 -0.12857185023E+04  0.16483206201E+04  0.25500000920E-02 0.  1.
</event>
<event>
 5   0  0.1438701E-05  0.2645764E+04  0.7818609E-02  0.8352820E-01
       -1   -1    0    0    0  501  0.00000000000E+00  0.00000000000E+00  0.76633983149E+03  0.76633983150E+03  0.50400001928E-02 0.  1.
        1   -1    0    0  501    0  0.00000000000E+00  0.00000000000E+00 -0.22836048878E+04  0.22836048878E+04  0.50400001928E-02 0. -1.
    10030    2    1    2    0    0  0.00000000000E+00  0.00000000000E+00 -0.15172650563E+04  0.30499447193E+04  0.26457644528E+04 0.  0.
        4    1    3    3  502    0 -0.94062607528E+03 -0.50196190069E+03 -0.16613826890E+04  0.19740661629E+04  0.12699999809E+01 0. -1.
       -4    1    3    3    0  502  0.94062607528E+03  0.50196190069E+03  0.14411763268E+03  0.10758785564E+04  0.12699999809E+01 0.  1.
</event>
<event>
 5   0  0.1438701E-05  0.2285017E+04  0.7818609E-02  0.8483852E-01
       -1   -1    0    0    0  501  0.00000000000E+00  0.00000000000E+00  0.68764430723E+03  0.68764430725E+03  0.50400001928E-02 0. -1.
        1   -1    0    0  501    0  0.00000000000E+00  0.00000000000E+00 -0.18982574834E+04  0.18982574834E+04  0.50400001928E-02 0.  1.
    10030    2    1    2    0    0  0.00000000000E+00  0.00000000000E+00 -0.12106131761E+04  0.25859017906E+04  0.22850172447E+04 0.  0.
        4    1    3    3  502    0  0.86434032644E+02  0.21825962008E+03 -0.18706695323E+04  0.18853419360E+04  0.12699999809E+01 0.  1.
       -4    1    3    3    0  502 -0.86434032644E+02 -0.21825962008E+03  0.66005635613E+03  0.70055985463E+03  0.12699999809E+01 0. -1.
</event>
<event>
 5   0  0.1495517E-05  0.2799527E+04  0.7818609E-02  0.8303415E-01
        1   -1    0    0  501    0  0.00000000000E+00  0.00000000000E+00  0.16414747079E+04  0.16414747079E+04  0.50400001928E-02 0. -1.
       -1   -1    0    0    0  501  0.00000000000E+00  0.00000000000E+00 -0.11936445418E+04  0.11936445418E+04  0.50400001928E-02 0.  1.
    10030    2    1    2    0    0  0.00000000000E+00  0.00000000000E+00  0.44783016605E+03  0.28351192497E+04  0.27995266211E+04 0.  0.
        5    1    3    3  502    0 -0.84498593902E+02  0.84152124731E+03 -0.90562051880E+03  0.12391402810E+04  0.46999998093E+01 0.  1.
       -5    1    3    3    0  502  0.84498593902E+02 -0.84152124731E+03  0.13534506848E+04  0.15959789686E+04  0.46999998093E+01 0. -1.
</event>
<event>
 5   0  0.1449521E-05  0.2649255E+04  0.7818609E-02  0.8351660E-01
       -1   -1    0    0    0  501  0.00000000000E+00  0.00000000000E+00  0.10654249805E+04  0.10654249805E+04  0.50400001928E-02 0.  1.
        1   -1    0    0  501    0  0.00000000000E+00  0.00000000000E+00 -0.16468907729E+04  0.16468907729E+04  0.50400001928E-02 0. -1.
    10030    2    1    2    0    0  0.00000000000E+00  0.00000000000E+00 -0.58146579238E+03  0.27123157534E+04  0.26492554196E+04 0.  0.
        3    1    3    3  502    0 -0.91719421675E+03 -0.54277518518E+03  0.51462237597E+03  0.11835059497E+04  0.10100000352E+00 0.  1.
       -3    1    3    3    0  502  0.91719421675E+03  0.54277518518E+03 -0.10960881683E+04  0.15288098037E+04  0.10100000352E+00 0. -1.
</event>
<event>
 5   0  0.3497949E-05  0.2695221E+04  0.7818609E-02  0.8336557E-01
       -2   -1    0    0    0  501  0.00000000000E+00  0.00000000000E+00  0.11303439310E+04  0.11303439310E+04  0.25500000920E-02 0.  1.
        2   -1    0    0  501    0  0.00000000000E+00  0.00000000000E+00 -0.16066379064E+04  0.16066379064E+04  0.25500000920E-02 0. -1.
    10030    2    1    2    0    0  0.00000000000E+00  0.00000000000E+00 -0.47629397536E+03  0.27369818374E+04  0.26952205155E+04 0.  0.
        5    1    3    3  502    0 -0.39924315347E+03 -0.10749391698E+04 -0.95702965668E+03  0.14935920354E+04  0.46999998093E+01 0. -1.
       -5    1    3    3    0  502  0.39924315347E+03  0.10749391698E+04  0.48073568132E+03  0.12433898020E+04  0.46999998093E+01 0.  1.
</event>
<event>
 5   0  0.1495517E-05  0.2732598E+04  0.7818609E-02  0.8324505E-01
       -1   -1    0    0    0  501  0.00000000000E+00  0.00000000000E+00  0.11028536539E+04  0.11028536539E+04  0.50400001928E-02 0.  1.
        1   -1    0    0  501    0  0.00000000000E+00  0.00000000000E+00 -0.16926756561E+04  0.16926756561E+04  0.50400001928E-02 0. -1.
    10030    2    1    2    0    0  0.00000000000E+00  0.00000000000E+00 -0.58982200220E+03  0.27955293099E+04  0.27325984206E+04 0.  0.
        5    1    3    3  502    0 -0.32068223535E+02 -0.12130141431E+04  0.34749931633E+03  0.12622240479E+04  0.46999998093E+01 0.  1.
       -5    1    3    3    0  502  0.32068223535E+02  0.12130141431E+04 -0.93732131853E+03  0.15333052620E+04  0.46999998093E+01 0. -1.
</event>
<event>
 5   0  0.3652331E-05  0.2571303E+04  0.7818609E-02  0.8378015E-01
        2   -1    0    0  501    0  0.00000000000E+00  0.00000000000E+00  0.10410403970E+04  0.10410403970E+04  0.25500000920E-02 0. -1.
       -2   -1    0    0    0  501  0.00000000000E+00  0.00000000000E+00 -0.15877379300E+04  0.15877379300E+04  0.25500000920E-02 0.  1.
    10030    2    1    2    0    0  0.00000000000E+00  0.00000000000E+00 -0.54669753303E+03  0.26287783270E+04  0.25713026465E+04 0.  0.
        1    1    3    3  502    0  0.92006171296E+03 -0.43884813546E+03  0.52761622183E+03  0.11478153681E+04  0.50400001928E-02 0. -1.
       -1    1    3    3    0  502 -0.92006171296E+03  0.43884813546E+03 -0.10743137549E+04  0.14809629589E+04  0.50400001928E-02 0.  1.
</event>
<event>
 5   0  0.1449521E-05  0.2659383E+04  0.7818609E-02  0.8348305E-01
        1   -1    0    0  501    0  0.00000000000E+00  0.00000000000E+00  0.14049311820E+04  0.14049311821E+04  0.50400001928E-02 0.  1.
       -1   -1    0    0    0  501  0.00000000000E+00  0.00000000000E+00 -0.12584812775E+04  0.12584812775E+04  0.50400001928E-02 0. -1.
    10030    2    1    2    0    0  0.00000000000E+00  0.00000000000E+00  0.14644990454E+03  0.26634124596E+04  0.26593830779E+04 0.  0.
        3    1    3    3  502    0  0.66545002076E+03  0.14201725409E+03 -0.10709099900E+04  0.12687950376E+04  0.10100000352E+00 0. -1.
       -3    1    3    3    0  502 -0.66545002076E+03 -0.14201725409E+03  0.12173598945E+04  0.13946174220E+04  0.10100000352E+00 0.  1.
</event>
<event>
 5   0  0.1438701E-05  0.2691916E+04  0.7818609E-02  0.8337633E-01
       -1   -1    0    0    0  501  0.00000000000E+00  0.00000000000E+00  0.90485239432E+03  0.90485239433E+03  0.50400001928E-02 0. -1.
        1   -1    0    0  501    0  0.00000000000E+00  0.00000000000E+00 -0.20020980373E+04  0.20020980373E+04  0.50400001928E-02 0.  1.
    10030    2    1    2    0    0  0.00000000000E+00  0.00000000000E+00 -0.10972456429E+04  0.29069504316E+04  0.26919161968E+04 0.  0.
        4    1    3    3  502    0 -0.44686229416E+03  0.99017318075E+03  0.30950779802E+03  0.11295687353E+04  0.12699999809E+01 0. -1.
       -4    1    3    3    0  502  0.44686229416E+03 -0.99017318075E+03 -0.14067534410E+04  0.17773816963E+04  0.12699999809E+01 0.  1.
</event>
<event>
 5   0  0.3652331E-05  0.2744131E+04  0.7818609E-02  0.8320826E-01
       -2   -1    0    0    0  501  0.00000000000E+00  0.00000000000E+00  0.15328590242E+04  0.15328590242E+04  0.25500000920E-02 0. -1.
        2   -1    0    0  501    0  0.00000000000E+00  0.00000000000E+00 -0.12281390838E+04  0.12281390838E+04  0.25500000920E-02 0.  1.
    10030    2    1    2    0    0  0.00000000000E+00  0.00000000000E+00  0.30471994039E+03  0.27609981079E+04  0.27441312487E+04 0.  0.
        1    1    3    3  502    0 -0.35196598237E+03  0.50938071556E+03  0.13843104022E+04  0.15164643272E+04  0.50400001928E-02 0. -1.
       -1    1    3    3    0  502  0.35196598237E+03 -0.50938071556E+03 -0.10795904618E+04  0.12445337807E+04  0.50400001928E-02 0.  1.
</event>
<event>
 5   0  0.3568647E-05  0.2617481E+04  0.7818609E-02  0.8362287E-01
       -2   -1    0    0    0  501  0.00000000000E+00  0.00000000000E+00  0.11722011379E+04  0.11722011379E+04  0.25500000920E-02 0. -1.
        2   -1    0    0  501    0  0.00000000000E+00  0.00000000000E+00 -0.14611845325E+04  0.14611845325E+04  0.25500000920E-02 0.  1.
    10030    2    1    2    0    0  0.00000000000E+00  0.00000000000E+00 -0.28898339467E+03  0.26333856704E+04  0.26174813632E+04 0.  0.
        3    1    3    3  502    0  0.12986679128E+04 -0.15125665383E+03 -0.85955367398E+02  0.13102691550E+04  0.10100000352E+00 0.  1.
       -3    1    3    3    0  502 -0.12986679128E+04  0.15125665383E+03 -0.20302802727E+03  0.13231165154E+04  0.10100000352E+00 0. -1.
</event>
<event>
 5   0  0.3652331E-05  0.2663646E+04  0.7818609E-02  0.8346898E-01
       -2   -1    0    0    0  501  0.00000000000E+00  0.00000000000E+00  0.10220020587E+04  0.10220020587E+04  0.25500000920E-02 0.  1.
        2   -1    0    0  501    0  0.00000000000E+00  0.00000000000E+00 -0.17355667273E+04  0.17355667273E+04  0.25500000920E-02 0. -1.
    10030    2    1    2    0    0  0.00000000000E+00  0.00000000000E+00 -0.71356466855E+03  0.27575687860E+04  0.26636461990E+04 0.  0.
        1    1    3    3  502    0  0.10588201808E+04 -0.25073603115E+03 -0.11518357763E+04  0.15845170836E+04  0.50400001928E-02 0. -1.
       -1    1    3    3    0  502 -0.10588201808E+04  0.25073603115E+03  0.43827110779E+03  0.11730517024E+04  0.50400001928E-02 0.  1.
</event>
<event>
 5   0  0.3568647E-05  0.2669213E+04  0.7818609E-02  0.8345064E-01
        2   -1    0    0  501    0  0.00000000000E+00  0.00000000000E+00  0.19134654495E+04  0.19134654495E+04  0.25500000920E-02 0.  1.
       -2   -1    0    0    0  501  0.00000000000E+00  0.00000000000E+00 -0.93086318583E+03  0.93086318583E+03  0.25500000920E-02 0. -1.
    10030    2    1    2    0    0  0.00000000000E+00  0.00000000000E+00  0.98260226365E+03  0.28443286353E+04  0.26692130258E+04 0.  0.
        3    1    3    3  502    0 -0.36079364587E+03  0.11750278071E+04 -0.62723797136E+02  0.12307707696E+04  0.10100000352E+00 0. -1.
       -3    1    3    3    0  502  0.36079364587E+03 -0.11750278071E+04  0.10453260608E+04  0.16135578657E+04  0.10100000352E+00 0.  1.
</event>
<event>
 5   0  0.3514294E-05  0.2547209E+04  0.7818609E-02  0.8386358E-01
        2   -1    0    0  501    0  0.00000000000E+00  0.00000000000E+00  0.98853905891E+03  0.98853905891E+03  0.25500000920E-02 0.  1.
       -2   -1    0    0    0  501  0.00000000000E+00  0.00000000000E+00 -0.16408739702E+04  0.16408739702E+04  0.25500000920E-02 0. -1.
    10030    2    1    2    0    0  0.00000000000E+00  0.00000000000E+00 -0.65233491133E+03  0.26294130291E+04  0.25472086764E+04 0.  0.
        2    1    3    3  502    0  0.10910949668E+04 -0.62824914807E+03 -0.52441425235E+03  0.13638898513E+04  0.25500000920E-02 0.  1.
       -2    1    3    3    0  502 -0.10910949668E+04  0.62824914807E+03 -0.12792065899E+03  0.12655231778E+04  0.25500000920E-02 0. -1.
</event>
<event>
 5   0  0.3652331E-05  0.1557170E+04  0.7818609E-02  0.8847301E-01
       -2   -1    0    0    0  501  0.00000000000E+00  0.00000000000E+00  0.37862775634E+03  0.37862775635E+03  0.25500000920E-02 0. -1.
        2   -1    0    0  501    0  0.00000000000E+00  0.00000000000E+00 -0.16010300665E+04  0.16010300665E+04  0.25500000920E-02 0.  1.
    10030    2    1    2    0    0  0.00000000000E+00  0.00000000000E+00 -0.12224023102E+04  0.19796578229E+04  0.15571697684E+04 0.  0.
        1    1    3    3  502    0  0.82189220235E+02  0.20908729555E+03  0.33652508645E+03  0.40462538096E+03  0.50400001928E-02 0. -1.
       -1    1    3    3    0  502 -0.82189220235E+02 -0.20908729555E+03 -0.15589273966E+04  0.15750324419E+04  0.50400001928E-02 0.  1.
</event>
<event>
 5   0  0.1495517E-05  0.2750872E+04  0.7818609E-02  0.8318685E-01
       -1   -1    0    0    0  501  0.00000000000E+00  0.00000000000E+00  0.14478525095E+04  0.14478525096E+04  0.50400001928E-02 0.  1.
        1   -1    0    0  501    0  0.00000000000E+00  0.00000000000E+00 -0.13066417827E+04  0.13066417827E+04  0.50400001928E-02 0. -1.
    10030    2    1    2    0    0  0.00000000000E+00  0.00000000000E+00  0.14121072684E+03  0.27544942923E+04  0.27508722865E+04 0.  0.
        5    1    3    3  502    0 -0.11039330199E+04  0.79301638671E+03  0.28126152727E+03  0.13880465550E+04  0.46999998093E+01 0.  1.
       -5    1    3    3    0  502  0.11039330199E+04 -0.79301638671E+03 -0.14005080043E+03  0.13664477373E+04  0.46999998093E+01 0. -1.
</event>
<event>
 5   0  0.1495517E-05  0.1823480E+04  0.7818609E-02  0.8693912E-01
       -1   -1    0    0    0  501  0.00000000000E+00  0.00000000000E+00  0.13817863410E+04  0.13817863410E+04  0.50400001928E-02 0.  1.
        1   -1    0    0  501    0  0.00000000000E+00  0.00000000000E+00 -0.60159053409E+03  0.60159053412E+03  0.50400001928E-02 0. -1.
    10030    2    1    2    0    0  0.00000000000E+00  0.00000000000E+00  0.78019580689E+03  0.19833768751E+04  0.18234797316E+04 0.  0.
        5    1    3    3  502    0 -0.28422810416E+03  0.86602941934E+03  0.41329710489E+03  0.10008142471E+04  0.46999998093E+01 0.  1.
       -5    1    3    3    0  502  0.28422810416E+03 -0.86602941934E+03  0.36689870200E+03  0.98256262797E+03  0.46999998093E+01 0. -1.
</event>
<event>
 5   0  0.3514294E-05  0.1908332E+04  0.7818609E-02  0.8650720E-01
       -2   -1    0    0    0  501  0.00000000000E+00  0.00000000000E+00  0.91635408431E+03  0.91635408432E+03  0.25500000920E-02 0. -1.
        2   -1    0    0  501    0  0.00000000000E+00  0.00000000000E+00 -0.99353808715E+03  0.99353808715E+03  0.25500000920E-02 0.  1.
    10030    2    1    2    0    0  0.00000000000E+00  0.00000000000E+00 -0.77184002833E+02  0.19098921715E+04  0.19083319251E+04 0.  0.
        2    1    3    3  502    0  0.89391816420E+03  0.30074681321E+03 -0.18325897906E+03  0.96079247674E+03  0.25500000920E-02 0. -1.
       -2    1    3    3    0  502 -0.89391816420E+03 -0.30074681321E+03  0.10607497623E+03  0.94909969473E+03  0.25500000920E-02 0.  1.
</event>
<event>
 5   0  0.1449521E-05  0.2722856E+04  0.7818609E-02  0.8327627E-01
        1   -1    0    0  501    0  0.00000000000E+00  0.00000000000E+00  0.24501789344E+04  0.24501789344E+04  0.50400001928E-02 0. -1.
       -1   -1    0    0    0  501  0.00000000000E+00  0.00000000000E+00 -0.75646978722E+03  0.75646978724E+03  0.50400001928E-02 0.  1.
    10030    2    1    2    0    0  0.00000000000E+00  0.00000000000E+00  0.16937091472E+04  0.32066487216E+04  0.27228561014E+04 0.  0.
        3    1    3    3  502    0 -0.96567694436E+03 -0.77808230705E+03  0.15083936201E+04  0.19527404745E+04  0.10100000352E+00 0. -1.
       -3    1    3    3    0  502  0.96567694436E+03  0.77808230705E+03  0.18531552706E+03  0.12539082471E+04  0.10100000352E+00 0.  1.
</event>
<event>
 5   0  0.1495517E-05  0.1697327E+04  0.7818609E-02  0.8762890E-01
        1   -1    0    0  501    0  0.00000000000E+00  0.00000000000E+00  0.57356537088E+03  0.57356537091E+03  0.50400001928E-02 0. -1.
       -1   -1    0    0    0  501  0.00000000000E+00  0.00000000000E+00 -0.12557062002E+04  0.12557062002E+04  0.50400001928E-02 0.  1.
    10030    2    1    2    0    0  0.00000000000E+00  0.00000000000E+00 -0.68214082930E+03  0.18292715711E+04  0.16973268306E+04 0.  0.
        5    1    3    3  502    0  0.13120544796E+02 -0.19290803011E+03 -0.12316370330E+04  0.12467307359E+04  0.46999998093E+01 0.  1.
       -5    1    3    3    0  502 -0.13120544796E+02  0.19290803011E+03  0.54949620371E+03  0.58254083519E+03  0.46999998093E+01 0. -1.
</event>
<event>
 5   0  0.3497949E-05  0.2702161E+04  0.7818609E-02  0.8334304E-01
       -2   -1    0    0    0  501  0.00000000000E+00  0.00000000000E+00  0.19186090231E+04  0.19186090231E+04  0.25500000920E-02 0. -1.
        2   -1    0    0  501    0  0.00000000000E+00  0.00000000000E+00 -0.95142833512E+03  0.95142833513E+03  0.25500000920E-02 0.  1.
    10030    2    1    2    0    0  0.00000000000E+00  0.00000000000E+00  0.96718068797E+03  0.28700373582E+04  0.27021613487E+04 0.  0.
        5    1    3    3  502    0  0.69841783044E+03 -0.22830406387E+03  0.16878220677E+04  0.18408355803E+04  0.46999998093E+01 0. -1.
       -5    1    3    3    0  502 -0.69841783044E+03  0.22830406387E+03 -0.72064137975E+03  0.10292017779E+04  0.46999998093E+01 0.  1.
</event>
<event>
 5   0  0.3568647E-05  0.2664169E+04  0.7818609E-02  0.8346725E-01
        2   -1    0    0  501    0  0.00000000000E+00  0.00000000000E+00  0.11285853451E+04  0.11285853451E+04  0.25500000920E-02 0. -1.
       -2   -1    0    0    0  501  0.00000000000E+00  0.00000000000E+00 -0.15722775923E+04  0.15722775923E+04  0.25500000920E-02 0.  1.
    10030    2    1    2    0    0  0.00000000000E+00  0.00000000000E+00 -0.44369224717E+03  0.27008629374E+04  0.26641692507E+04 0.  0.
        3    1    3    3  502    0  0.23222369032E+03 -0.54612364063E+03 -0.14308615576E+04  0.15490460549E+04  0.10100000352E+00 0.  1.
       -3    1    3    3    0  502 -0.23222369032E+03  0.54612364063E+03  0.98716931039E+03  0.11518168825E+04  0.10100000352E+00 0. -1.
</event>
<event>
 5   0  0.1495517E-05  0.2475418E+04  0.7818609E-02  0.8411796E-01
        1   -1    0    0  501    0  0.00000000000E+00  0.00000000000E+00  0.14545850279E+04  0.14545850279E+04  0.50400001928E-02 0.  1.
       -1   -1    0    0    0  501  0.00000000000E+00  0.00000000000E+00 -0.10531687551E+04  0.10531687551E+04  0.50400001928E-02 0. -1.
    10030    2    1    2    0    0  0.00000000000E+00  0.00000000000E+00  0.40141627286E+03  0.25077537830E+04  0.24754179470E+04 0.  0.
        5    1    3    3  502    0  0.98589048390E+03 -0.24759601860E+03 -0.51464444965E+03  0.11393703675E+04  0.46999998093E+01 0. -1.
       -5    1    3    3    0  502 -0.98589048390E+03  0.24759601860E+03  0.91606072251E+03  0.13683834156E+04  0.46999998093E+01 0.  1.
</event>
<event>
 5   0  0.3514294E-05  0.2726515E+04  0.7818609E-02  0.8326453E-01
        2   -1    0    0  501    0  0.00000000000E+00  0.00000000000E+00  0.16530643826E+04  0.16530643826E+04  0.25500000920E-02 0. -1.
       -2   -1    0    0    0  501  0.00000000000E+00  0.00000000000E+00 -0.11242580189E+04  0.11242580189E+04  0.25500000920E-02 0.  1.
    10030    2    1    2    0    0  0.00000000000E+00  0.00000000000E+00  0.52880636366E+03  0.27773224015E+04  0.27265149094E+04 0.  0.
        2    1    3    3  502    0 -0.43034213994E+03 -0.12654245986E+04  0.53768808456E+03  0.14406950574E+04  0.25500000920E-02 0. -1.
       -2    1    3    3    0  502  0.43034213994E+03  0.12654245986E+04 -0.88817208943E+01  0.13366273441E+04  0.25500000920E-02 0.  1.
</event>
<event>
 5   0  0.1484379E-05  0.2609042E+04  0.7818609E-02  0.8365136E-01
       -1   -1    0    0    0  501  0.00000000000E+00  0.00000000000E+00  0.10057335611E+04  0.10057335611E+04  0.50400001928E-02 0. -1.
        1   -1    0    0  501    0  0.00000000000E+00  0.00000000000E+00 -0.16920737581E+04  0.16920737581E+04  0.50400001928E-02 0.  1.
    10030    2    1    2    0    0  0.00000000000E+00  0.00000000000E+00 -0.68634019699E+03  0.26978073193E+04  0.26090422507E+04 0.  0.
        1    1    3    3  502    0 -0.10353552766E+04 -0.73330769657E+03 -0.29408469695E+02  0.12690806061E+04  0.50400001928E-02 0.  1.
       -1    1    3    3    0  502  0.10353552766E+04  0.73330769657E+03 -0.65693172729E+03  0.14287267132E+04  0.50400001928E-02 0. -1.
</event>
<event>
 5   0  0.1228050E-05  0.2745430E+04  0.7818609E-02  0.8320413E-01
        3   -1    0    0  501    0  0.00000000000E+00  0.00000000000E+00  0.14410345547E+04  0.14410345582E+04  0.10100000352E+00 0.  1.
       -3   -1    0    0    0  501  0.00000000000E+00  0.00000000000E+00 -0.13076345922E+04  0.13076345961E+04  0.10100000352E+00 0. -1.
    10030    2    1    2    0    0  0.00000000000E+00  0.00000000000E+00  0.13339996251E+03  0.27486691543E+04  0.27454301248E+04 0.  0.
        5    1    3    3  502    0  0.87969799566E+03  0.59580740259E+03  0.93690292854E+03  0.14165677577E+04  0.46999998093E+01 0.  1.
       -5    1    3    3    0  502 -0.87969799566E+03 -0.59580740259E+03 -0.80350296603E+03  0.13321013967E+04  0.46999998093E+01 0. -1.
</event>
<event>
 5   0  0.3568647E-05  0.2690249E+04  0.7818609E-02  0.8338176E-01
        2   -1    0    0  501    0  0.00000000000E+00  0.00000000000E+00  0.27016889771E+04  0.27016889771E+04  0.25500000920E-02 0.  1.
       -2   -1    0    0    0  501  0.00000000000E+00  0.00000000000E+00 -0.66971434016E+03  0.66971434017E+03  0.25500000920E-02 0. -1.
    10030    2    1    2    0    0  0.00000000000E+00  0.00000000000E+00  0.20319746369E+04  0.33714033172E+04  0.26902489480E+04 0.  0.
        3    1    3    3  502    0 -0.56221537295E+02  0.38920839685E+03 -0.59606802254E+03  0.71410162802E+03  0.10100000352E+00 0. -1.
       -3    1    3    3    0  502  0.56221537295E+02 -0.38920839685E+03  0.26280426594E+04  0.26573016892E+04  0.10100000352E+00 0.  1.
</event>
<event>
 5   0  0.1474012E-05  0.2647691E+04  0.7818609E-02  0.8352180E-01
       -1   -1    0    0    0  501  0.00000000000E+00  0.00000000000E+00  0.10849245998E+04  0.10849245998E+04  0.50400001928E-02 0.  1.
        1   -1    0    0  501    0  0.00000000000E+00  0.00000000000E+00 -0.16153818383E+04  0.16153818383E+04  0.50400001928E-02 0. -1.
    10030    2    1    2    0    0  0.00000000000E+00  0.00000000000E+00 -0.53045723853E+03  0.27003064381E+04  0.26476914431E+04 0.  0.
        2    1    3    3  502    0 -0.10062814466E+04  0.29425357014E+03  0.55915355430E+03  0.11882088245E+04  0.25500000920E-02 0.  1.
       -2    1    3    3    0  502  0.10062814466E+04 -0.29425357014E+03 -0.10896107928E+04  0.15120976136E+04  0.25500000920E-02 0. -1.
</event>
<event>
 5   0  0.1449521E-05  0.2708077E+04  0.7818609E-02  0.8332389E-01
       -1   -1    0    0    0  501  0.00000000000E+00  0.00000000000E+00  0.12855238116E+04  0.12855238116E+04  0.50400001928E-02 0. -1.
        1   -1    0    0  501    0  0.00000000000E+00  0.00000000000E+00 -0.14262043235E+04  0.14262043235E+04  0.50400001928E-02 0.  1.
    10030    2    1    2    0    0  0.00000000000E+00  0.00000000000E+00 -0.14068051188E+03  0.27117281351E+04  0.27080765263E+04 0.  0.
        3    1    3    3  502    0 -0.13200034429E+04  0.16145281952E+03 -0.32552404292E+03  0.13691026313E+04  0.10100000352E+00 0.  1.
       -3    1    3    3    0  502  0.13200034429E+04 -0.16145281952E+03  0.18484353105E+03  0.13426255038E+04  0.10100000352E+00 0. -1.
</event>
<event>
 5   0  0.1495517E-05  0.2726417E+04  0.7818609E-02  0.8326484E-01
        1   -1    0    0  501    0  0.00000000000E+00  0.00000000000E+00  0.68993624640E+03  0.68993624642E+03  0.50400001928E-02 0.  1.
       -1   -1    0    0    0  501  0.00000000000E+00  0.00000000000E+00 -0.26934924809E+04  0.26934924809E+04  0.50400001928E-02 0. -1.
    10030    2    1    2    0    0  0.00000000000E+00  0.00000000000E+00 -0.20035562345E+04  0.33834287273E+04  0.27264174970E+04 0.  0.
        5    1    3    3  502    0  0.88400882661E+03  0.30471724961E+03 -0.22327848000E+04  0.24206764056E+04  0.46999998093E+01 0. -1.
       -5    1    3    3    0  502 -0.88400882661E+03 -0.30471724961E+03  0.22922856547E+03  0.96275232171E+03  0.46999998093E+01 0.  1.
</event>
<event>
 5   0  0.1474012E-05  0.2654831E+04  0.7818609E-02  0.8349811E-01
       -1   -1    0    0    0  501  0.00000000000E+00  0.00000000000E+00  0.85491982802E+03  0.85491982803E+03  0.50400001928E-02 0.  1.
        1   -1    0    0  501    0  0.00000000000E+00  0.00000000000E+00 -0.20610491397E+04  0.20610491397E+04  0.50400001928E-02 0. -1.
    10030    2    1    2    0    0  0.00000000000E+00  0.00000000000E+00 -0.12061293117E+04  0.29159689678E+04  0.26548308994E+04 0.  0.
        2    1    3    3  502    0 -0.33066866072E+03  0.99679585353E+03  0.28863325537E+03  0.10891523736E+04  0.25500000920E-02 0.  1.
       -2    1    3    3    0  502  0.33066866072E+03 -0.99679585353E+03 -0.14947625671E+04  0.18268165942E+04  0.25500000920E-02 0. -1.
</event>
<event>
 5   0  0.3676724E-05  0.2578417E+04  0.7818609E-02  0.8375570E-01
        2   -1    0    0  501    0  0.00000000000E+00  0.00000000000E+00  0.13656612344E+04  0.13656612344E+04  0.25500000920E-02 0. -1.
       -2   -1    0    0    0  501  0.00000000000E+00  0.00000000000E+00 -0.12170357190E+04  0.12170357190E+04  0.25500000920E-02 0.  1.
    10030    2    1    2    0    0  0.00000000000E+00  0.00000000000E+00  0.14862551542E+03  0.25826969534E+04  0.25784169580E+04 0.  0.
        4    1    3    3  502    0  0.72402909235E+03 -0.41026832805E+03 -0.91196306694E+03  0.12345916231E+04  0.12699999809E+01 0.  1.
       -4    1    3    3    0  502 -0.72402909235E+03  0.41026832805E+03  0.10605885824E+04  0.13481053303E+04  0.12699999809E+01 0. -1.
</event>
<event>
 5   0  0.1438701E-05  0.2710209E+04  0.7818609E-02  0.8331700E-01
       -1   -1    0    0    0  501  0.00000000000E+00  0.00000000000E+00  0.16523624959E+04  0.16523624959E+04  0.50400001928E-02 0. -1.
        1   -1    0    0  501    0  0.00000000000E+00  0.00000000000E+00 -0.11113226087E+04  0.11113226087E+04  0.50400001928E-02 0.  1.
    10030    2    1    2    0    0  0.00000000000E+00  0.00000000000E+00  0.54103988723E+03  0.27636851046E+04  0.27102087001E+04 0.  0.
        4    1    3    3  502    0 -0.11547099439E+04  0.70160578910E+03  0.16503588783E+03  0.13611921962E+04  0.12699999809E+01 0.  1.
       -4    1    3    3    0  502  0.11547099439E+04 -0.70160578910E+03  0.37600399940E+03  0.14024929084E+04  0.12699999809E+01 0. -1.
</event>
<event>
 5   0  0.1449521E-05  0.2660258E+04  0.7818609E-02  0.8348016E-01
       -1   -1    0    0    0  501  0.00000000000E+00  0.00000000000E+00  0.13407713563E+04  0.13407713563E+04  0.50400001928E-02 0.  1.
        1   -1    0    0  501    0  0.00000000000E+00  0.00000000000E+00 -0.13195712240E+04  0.13195712241E+04  0.50400001928E-02 0. -1.
    10030    2    1    2    0    0  0.00000000000E+00  0.00000000000E+00  0.21200132298E+02  0.26603425804E+04  0.26602581077E+04 0.  0.
        3    1    3    3  502    0  0.93565536696E+03  0.93719297205E+03 -0.11374879407E+03  0.13291803606E+04  0.10100000352E+00 0. -1.
       -3    1    3    3    0  502 -0.93565536696E+03 -0.93719297205E+03  0.13494892637E+03  0.13311622198E+04  0.10100000352E+00 0.  1.
</event>
<event>
 5   0  0.1228050E-05  0.2628381E+04  0.7818609E-02  0.8358624E-01
       -4   -1    0    0    0  501  0.00000000000E+00  0.00000000000E+00  0.11469878923E+04  0.11469885954E+04  0.12699999809E+01 0.  1.
        4   -1    0    0  501    0  0.00000000000E+00  0.00000000000E+00 -0.15057654341E+04  0.15057659697E+04  0.12699999809E+01 0. -1.
    10030    2    1    2    0    0  0.00000000000E+00  0.00000000000E+00 -0.35877754183E+03  0.26527545650E+04  0.26283807673E+04 0.  0.
        3    1    3    3  502    0  0.75318620111E+03  0.55814986993E+03  0.75017092118E+03  0.12006569668E+04  0.10100000352E+00 0.  1.
       -3    1    3    3    0  502 -0.75318620111E+03 -0.55814986993E+03 -0.11089484630E+04  0.14520975982E+04  0.10100000352E+00 0. -1.
</event>
<event>
 5   0  0.3652331E-05  0.2769246E+04  0.7818609E-02  0.8312880E-01
       -2   -1    0    0    0  501  0.00000000000E+00  0.00000000000E+00  0.12537285128E+04  0.12537285128E+04  0.25500000920E-02 0. -1.
        2   -1    0    0  501    0  0.00000000000E+00  0.00000000000E+00 -0.15291830158E+04  0.15291830158E+04  0.25500000920E-02 0.  1.
    10030    2    1    2    0    0  0.00000000000E+00  0.00000000000E+00 -0.27545450303E+03  0.27829115286E+04  0.27692456361E+04 0.  0.
        1    1    3    3  502    0  0.70408470380E+03 -0.11097751746E+04 -0.57558850689E+03  0.14347955734E+04  0.50400001928E-02 0.  1.
       -1    1    3    3    0  502 -0.70408470380E+03  0.11097751746E+04  0.30013400387E+03  0.13481159552E+04  0.50400001928E-02 0. -1.
</event>
<event>
 5   0  0.3568647E-05  0.2682100E+04  0.7818609E-02  0.8340836E-01
       -2   -1    0    0    0  501  0.00000000000E+00  0.00000000000E+00  0.97805742296E+03  0.97805742297E+03  0.25500000920E-02 0. -1.
        2   -1    0    0  501    0  0.00000000000E+00  0.00000000000E+00 -0.18387627844E+04  0.18387627844E+04  0.25500000920E-02 0.  1.
    10030    2    1    2    0    0  0.00000000000E+00  0.00000000000E+00 -0.86070536145E+03  0.28168202074E+04  0.26821003638E+04 0.  0.
        3    1    3    3  502    0  0.25572801742E+02 -0.12950016253E+04 -0.79527130081E+03  0.15199143495E+04  0.10100000352E+00 0.  1.
       -3    1    3    3    0  502 -0.25572801742E+02  0.12950016253E+04 -0.65434060636E+02  0.12969058579E+04  0.10100000352E+00 0. -1.
</event>
<event>
 5   0  0.3568647E-05  0.2599588E+04  0.7818609E-02  0.8368341E-01
        2   -1    0    0  501    0  0.00000000000E+00  0.00000000000E+00  0.20371463540E+04  0.20371463540E+04  0.25500000920E-02 0.  1.
       -2   -1    0    0    0  501  0.00000000000E+00  0.00000000000E+00 -0.82932872807E+03  0.82932872807E+03  0.25500000920E-02 0. -1.
    10030    2    1    2    0    0  0.00000000000E+00  0.00000000000E+00  0.12078176260E+04  0.28664750821E+04  0.25995876555E+04 0.  0.
        3    1    3    3  502    0 -0.51106672420E+03 -0.62169820338E+02  0.19199248036E+04  0.19877538944E+04  0.10100000352E+00 0.  1.
       -3    1    3    3    0  502  0.51106672420E+03  0.62169820338E+02 -0.71210717760E+03  0.87872118771E+03  0.10100000352E+00 0. -1.
</event>
<event>
 5   0  0.1438701E-05  0.2758774E+04  0.7818609E-02  0.8316183E-01
        1   -1    0    0  501    0  0.00000000000E+00  0.00000000000E+00  0.10300386758E+04  0.10300386758E+04  0.50400001928E-02 0. -1.
       -1   -1    0    0    0  501  0.00000000000E+00  0.00000000000E+00 -0.18472197832E+04  0.18472197832E+04  0.50400001928E-02 0.  1.
    10030    2    1    2    0    0  0.00000000000E+00  0.00000000000E+00 -0.81718110740E+03  0.28772584589E+04  0.27587735096E+04 0.  0.
        4    1    3    3  502    0 -0.60310604006E+03  0.12925486889E+03  0.87819922164E+03  0.10731631761E+04  0.12699999809E+01 0. -1.
       -4    1    3    3    0  502  0.60310604006E+03 -0.12925486889E+03 -0.16953803290E+04  0.18040952829E+04  0.12699999809E+01 0.  1.
</event>
<event>
 5   0  0.3652331E-05  0.2679995E+04  0.7818609E-02  0.8341525E-01
       -2   -1    0    0    0  501  0.00000000000E+00  0.00000000000E+00  0.14452714809E+04  0.14452714809E+04  0.25500000920E-02 0. -1.
        2   -1    0    0  501    0  0.00000000000E+00  0.00000000000E+00 -0.12423916405E+04  0.12423916405E+04  0.25500000920E-02 0.  1.
    10030    2    1    2    0    0  0.00000000000E+00  0.00000000000E+00  0.20287984033E+03  0.26876631214E+04  0.26799949299E+04 0.  0.
        1    1    3    3  502    0  0.77526388483E+01 -0.49336562424E+03 -0.11479672440E+04  0.12495193220E+04  0.50400001928E-02 0.  1.
       -1    1    3    3    0  502 -0.77526388483E+01  0.49336562424E+03  0.13508470843E+04  0.14381437994E+04  0.50400001928E-02 0. -1.
</event>
<event>
 5   0  0.1474012E-05  0.2570544E+04  0.7818609E-02  0.8378276E-01
        1   -1    0    0  501    0  0.00000000000E+00  0.00000000000E+00  0.18515147493E+04  0.18515147493E+04  0.50400001928E-02 0. -1.
       -1   -1    0    0    0  501  0.00000000000E+00  0.00000000000E+00 -0.89220136189E+03  0.89220136191E+03  0.50400001928E-02 0.  1.
    10030    2    1    2    0    0  0.00000000000E+00  0.00000000000E+00  0.95931338738E+03  0.27437161112E+04  0.25705438964E+04 0.  0.
        2    1    3    3  502    0 -0.39163911455E+03 -0.21863929932E+03  0.17652656462E+04  0.18213585976E+04  0.25500000920E-02 0. -1.
       -2    1    3    3    0  502  0.39163911455E+03  0.21863929932E+03 -0.80595225887E+03  0.92235751357E+03  0.25500000920E-02 0.  1.
</event>
<event>
 5   0  0.1484379E-05  0.2402608E+04  0.7818609E-02  0.8438528E-01
       -1   -1    0    0    0  501  0.00000000000E+00  0.00000000000E+00  0.14187899450E+04  0.14187899450E+04  0.50400001928E-02 0.  1.
        1   -1    0    0  501    0  0.00000000000E+00  0.00000000000E+00 -0.10171562357E+04  0.10171562357E+04  0.50400001928E-02 0. -1.
    10030    2    1    2    0    0  0.00000000000E+00  0.00000000000E+00  0.40163370933E+03  0.24359461807E+04  0.24026077829E+04 0.  0.
        1    1    3    3  502    0 -0.29472023518E+03 -0.72871504804E+03 -0.72021863675E+03  0.10661146857E+04  0.50400001928E-02 0. -1.
       -1    1    3    3    0  502  0.29472023518E+03  0.72871504804E+03  0.11218523461E+04  0.13698314950E+04  0.50400001928E-02 0.  1.
</event>
<event>
 5   0  0.1495517E-05  0.2693408E+04  0.7818609E-02  0.8337147E-01
       -1   -1    0    0    0  501  0.00000000000E+00  0.00000000000E+00  0.14720433383E+04  0.14720433384E+04  0.50400001928E-02 0.  1.
        1   -1    0    0  501    0  0.00000000000E+00  0.00000000000E+00 -0.12320364629E+04  0.12320364629E+04  0.50400001928E-02 0. -1.
    10030    2    1    2    0    0  0.00000000000E+00  0.00000000000E+00  0.24000687543E+03  0.27040798013E+04  0.26934075576E+04 0.  0.
        5    1    3    3  502    0  0.25575748878E+03  0.87178562586E+03  0.11180081286E+04  0.14406201221E+04  0.46999998093E+01 0.  1.
       -5    1    3    3    0  502 -0.25575748878E+03 -0.87178562586E+03 -0.87800125314E+03  0.12634596792E+04  0.46999998093E+01 0. -1.
</event>
<event>
 5   0  0.3514294E-05  0.2396323E+04  0.7818609E-02  0.8440881E-01
       -2   -1    0    0    0  501  0.00000000000E+00  0.00000000000E+00  0.14848286410E+04  0.14848286410E+04  0.25500000920E-02 0.  1.
        2   -1    0    0  501    0  0.00000000000E+00  0.00000000000E+00 -0.96683982556E+03  0.96683982556E+03  0.25500000920E-02 0. -1.
    10030    2    1    2    0    0  0.00000000000E+00  0.00000000000E+00  0.51798881547E+03  0.24516684666E+04  0.23963234041E+04 0.  0.
        2    1    3    3  502    0  0.67603319953E+03  0.19927873784E+03  0.12503201809E+04  0.14352816647E+04  0.25500000920E-02 0.  1.
       -2    1    3    3    0  502 -0.67603319953E+03 -0.19927873784E+03 -0.73233136545E+03  0.10163868019E+04  0.25500000920E-02 0. -1.
</event>
<event>
 5   0  0.3652331E-05  0.2678403E+04  0.7818609E-02  0.8342047E-01
       -2   -1    0    0    0  501  0.00000000000E+00  0.00000000000E+00  0.75394813649E+03  0.75394813649E+03  0.25500000920E-02 0. -1.
        2   -1    0    0  501    0  0.00000000000E+00  0.00000000000E+00 -0.23787585203E+04  0.23787585203E+04  0.25500000920E-02 0.  1.
    10030    2    1    2    0    0  0.00000000000E+00  0.00000000000E+00 -0.16248103838E+04  0.31327066568E+04  0.26784029223E+04 0.  0.
        1    1    3    3  502    0 -0.72214376608E+03 -0.58260839795E+03  0.31707004488E+03  0.98053943197E+03  0.50400001928E-02 0. -1.
       -1    1    3    3    0  502  0.72214376608E+03  0.58260839795E+03 -0.19418804287E+04  0.21521672248E+04  0.50400001928E-02 0.  1.
</event>
<event>
 5   0  0.3497949E-05  0.2720453E+04  0.7818609E-02  0.8328399E-01
        2   -1    0    0  501    0  0.00000000000E+00  0.00000000000E+00  0.20781173895E+04  0.20781173895E+04  0.25500000920E-02 0.  1.
       -2   -1    0    0    0  501  0.00000000000E+00  0.00000000000E+00 -0.89033257720E+03  0.89033257720E+03  0.25500000920E-02 0. -1.
    10030    2    1    2    0    0  0.00000000000E+00  0.00000000000E+00  0.11877848123E+04  0.29684499667E+04  0.27204526176E+04 0.  0.
        5    1    3    3  502    0 -0.11338038570E+04 -0.51497211611E+03  0.11910333765E+04  0.17231628072E+04  0.46999998093E+01 0.  1.
       -5    1    3    3    0  502  0.11338038570E+04  0.51497211611E+03 -0.32485641120E+01  0.12452871595E+04  0.46999998093E+01 0. -1.
</event>
<event>
 5   0  0.1228050E-05  0.2732867E+04  0.7818609E-02  0.8324419E-01
        3   -1    0    0  501    0  0.00000000000E+00  0.00000000000E+00  0.83201481297E+03  0.83201481910E+03  0.10100000352E+00 0. -1.
       -3   -1    0    0    0  501  0.00000000000E+00  0.00000000000E+00 -0.22441185563E+04  0.22441185586E+04  0.10100000352E+00 0.  1.
    10030    2    1    2    0    0  0.00000000000E+00  0.00000000000E+00 -0.14121037433E+04  0.30761333777E+04  0.27328665491E+04 0.  0.
        1    1    3    3  502    0  0.49472303333E+03  0.12705243753E+04 -0.80771122271E+03  0.15847335698E+04  0.50400001928E-02 0. -1.
       -1    1    3    3    0  502 -0.49472303333E+03 -0.12705243753E+04 -0.60439252061E+03  0.14913998079E+04  0.50400001928E-02 0.  1.
</event>
<event>
 5   0  0.1228050E-05  0.2699040E+04  0.7818609E-02  0.8335316E-01
       -4   -1    0    0    0  501  0.00000000000E+00  0.00000000000E+00  0.14570302139E+04  0.14570307674E+04  0.12699999809E+01 0. -1.
        4   -1    0    0  501    0  0.00000000000E+00  0.00000000000E+00 -0.12499419484E+04  0.12499425936E+04  0.12699999809E+01 0.  1.
    10030    2    1    2    0    0  0.00000000000E+00  0.00000000000E+00  0.20708826543E+03  0.27069733610E+04  0.26990404271E+04 0.  0.
        1    1    3    3  502    0  0.18695234777E+02 -0.46312752394E+03  0.13746951234E+04  0.14507319868E+04  0.50400001928E-02 0. -1.
       -1    1    3    3    0  502 -0.18695234777E+02  0.46312752394E+03 -0.11676068580E+04  0.12562413741E+04  0.50400001928E-02 0.  1.
</event>
<event>
 5   0  0.3676724E-05  0.2654069E+04  0.7818609E-02  0.8350064E-01
       -2   -1    0    0    0  501  0.00000000000E+00  0.00000000000E+00  0.98646720232E+03  0.98646720232E+03  0.25500000920E-02 0. -1.
        2   -1    0    0  501    0  0.00000000000E+00  0.00000000000E+00 -0.17851788072E+04  0.17851788072E+04  0.25500000920E-02 0.  1.
    10030    2    1    2    0    0  0.00000000000E+00  0.00000000000E+00 -0.79871160490E+03  0.27716460095E+04  0.26540688338E+04 0.  0.
        4    1    3    3  502    0  0.96585860172E+03 -0.85329592974E+03 -0.72962892705E+03  0.14809985707E+04  0.12699999809E+01 0.  1.
       -4    1    3    3    0  502 -0.96585860172E+03  0.85329592974E+03 -0.69082677855E+02  0.12906474389E+04  0.12699999809E+01 0. -1.
</event>
<event>
 5   0  0.3652331E-05  0.2610764E+04  0.7818609E-02  0.8364554E-01
       -2   -1    0    0    0  501  0.00000000000E+00  0.00000000000E+00  0.19435567964E+04  0.19435567964E+04  0.25500000920E-02 0. -1.
        2   -1    0    0  501    0  0.00000000000E+00  0.00000000000E+00 -0.87675423431E+03  0.87675423431E+03  0.25500000920E-02 0.  1.
    10030    2    1    2    0    0  0.00000000000E+00  0.00000000000E+00  0.10668025621E+04  0.28203110307E+04  0.26107636054E+04 0.  0.
        1    1    3    3  502    0 -0.32322586878E+03 -0.81050916965E+03 -0.51541191721E+03  0.10134345173E+04  0.50400001928E-02 0.  1.
       -1    1    3    3    0  502  0.32322586878E+03  0.81050916965E+03  0.15822144793E+04  0.18068765135E+04  0.50400001928E-02 0. -1.
</event>
<event>
 5   0  0.1484379E-05  0.2660010E+04  0.7818609E-02  0.8348098E-01
       -1   -1    0    0    0  501  0.00000000000E+00  0.00000000000E+00  0.75747042516E+03  0.75747042517E+03  0.50400001928E-02 0.  1.
        1   -1    0    0  501    0  0.00000000000E+00  0.00000000000E+00 -0.23352901281E+04  0.23352901281E+04  0.50400001928E-02 0. -1.
    10030    2    1    2    0    0  0.00000000000E+00  0.00000000000E+00 -0.15778197030E+04  0.30927605533E+04  0.26600099295E+04 0.  0.
        1    1    3    3  502    0  0.38387455540E+03 -0.86494208807E+03 -0.18755275462E+04  0.21007351252E+04  0.50400001928E-02 0. -1.
       -1    1    3    3    0  502 -0.38387455540E+03  0.86494208807E+03  0.29770784320E+03  0.99202542806E+03  0.50400001928E-02 0.  1.
</event>
<event>
 5   0  0.1495517E-05  0.2076204E+04  0.7818609E-02  0.8571799E-01
        1   -1    0    0  501    0  0.00000000000E+00  0.00000000000E+00  0.25551347878E+04  0.25551347878E+04  0.50400001928E-02 0. -1.
       -1   -1    0    0    0  501  0.00000000000E+00  0.00000000000E+00 -0.42176091310E+03  0.42176091313E+03  0.50400001928E-02 0.  1.
    10030    2    1    2    0    0  0.00000000000E+00  0.00000000000E+00  0.21333738747E+04  0.29768957009E+04  0.20762042108E+04 0.  0.
        5    1    3    3  502    0  0.42207314798E+03  0.44270205599E+03 -0.13592785155E+03  0.62660140715E+03  0.46999998093E+01 0.  1.
       -5    1    3    3    0  502 -0.42207314798E+03 -0.44270205599E+03  0.22693017262E+04  0.23502942937E+04  0.46999998093E+01 0. -1.
</event>
<event>
 5   0  0.3497949E-05  0.2693977E+04  0.7818609E-02  0.8336962E-01
        2   -1    0    0  501    0  0.00000000000E+00  0.00000000000E+00  0.20920730348E+04  0.20920730348E+04  0.25500000920E-02 0. -1.
       -2   -1    0    0    0  501  0.00000000000E+00  0.00000000000E+00 -0.86726337995E+03  0.86726337996E+03  0.25500000920E-02 0.  1.
    10030    2    1    2    0    0  0.00000000000E+00  0.00000000000E+00  0.12248096549E+04  0.29593364148E+04  0.26939772318E+04 0.  0.
        5    1    3    3  502    0  0.72866583539E+03 -0.11227961751E+04  0.44678567596E+03  0.14111217810E+04  0.46999998093E+01 0. -1.
       -5    1    3    3    0  502 -0.72866583539E+03  0.11227961751E+04  0.77802397893E+03  0.15482146338E+04  0.46999998093E+01 0.  1.
</event>
<event>
 5   0  0.3497949E-05  0.2767769E+04  0.7818609E-02  0.8313345E-01
        2   -1    0    0  501    0  0.00000000000E+00  0.00000000000E+00  0.11701080114E+04  0.11701080114E+04  0.25500000920E-02 0.  1.
       -2   -1    0    0    0  501  0.00000000000E+00  0.00000000000E+00 -0.16367170158E+04  0.16367170158E+04  0.25500000920E-02 0. -1.
    10030    2    1    2    0    0  0.00000000000E+00  0.00000000000E+00 -0.46660900444E+03  0.28068250272E+04  0.27677685543E+04 0.  0.
        5    1    3    3  502    0 -0.10210893872E+03  0.13098988495E+04 -0.67400829742E+03  0.14766754912E+04  0.46999998093E+01 0. -1.
       -5    1    3    3    0  502  0.10210893872E+03 -0.13098988495E+04  0.20739929299E+03  0.13301495360E+04  0.46999998093E+01 0.  1.
</event>
<event>
 5   0  0.3497949E-05  0.2645426E+04  0.7818609E-02  0.8352933E-01
       -2   -1    0    0    0  501  0.00000000000E+00  0.00000000000E+00  0.70251652654E+03  0.70251652654E+03  0.25500000920E-02 0.  1.
        2   -1    0    0  501    0  0.00000000000E+00  0.00000000000E+00 -0.24904325283E+04  0.24904325283E+04  0.25500000920E-02 0. -1.
    10030    2    1    2    0    0  0.00000000000E+00  0.00000000000E+00 -0.17879160017E+04  0.31929490548E+04  0.26454262487E+04 0.  0.
        5    1    3    3  502    0 -0.87066558210E+03 -0.80662029172E+03 -0.15986185124E+04  0.19910545169E+04  0.46999998093E+01 0. -1.
       -5    1    3    3    0  502  0.87066558210E+03  0.80662029172E+03 -0.18929748930E+03  0.12018945379E+04  0.46999998093E+01 0.  1.
</event>
<event>
 5   0  0.3676724E-05  0.2669558E+04  0.7818609E-02  0.8344951E-01
        2   -1    0    0  501    0  0.00000000000E+00  0.00000000000E+00  0.15766436836E+04  0.15766436836E+04  0.25500000920E-02 0. -1.
       -2   -1    0    0    0  501  0.00000000000E+00  0.00000000000E+00 -0.11300171682E+04  0.11300171682E+04  0.25500000920E-02 0.  1.
    10030    2    1    2    0    0  0.00000000000E+00  0.00000000000E+00  0.44662651545E+03  0.27066608518E+04  0.26695575893E+04 0.  0.
        4    1    3    3  502    0 -0.53727519281E+03  0.68382321461E+03  0.12499846517E+04  0.15227416275E+04  0.12699999809E+01 0. -1.
       -4    1    3    3    0  502  0.53727519281E+03 -0.68382321461E+03 -0.80335813629E+03  0.11839192243E+04  0.12699999809E+01 0.  1.
</event>
<event>
 5   0  0.3676724E-05  0.2834039E+04  0.7818609E-02  0.8292778E-01
       -2   -1    0    0    0  501  0.00000000000E+00  0.00000000000E+00  0.11632367797E+04  0.11632367797E+04  0.25500000920E-02 0. -1.
        2   -1    0    0  501    0  0.00000000000E+00  0.00000000000E+00 -0.17261695843E+04  0.17261695843E+04  0.25500000920E-02 0.  1.
    10030    2    1    2    0    0  0.00000000000E+00  0.00000000000E+00 -0.56293280463E+03  0.28894063640E+04  0.28340387777E+04 0.  0.
        4    1    3    3  502    0  0.68140716233E+03 -0.73830469493E+03 -0.13002548284E+04  0.16431901214E+04  0.12699999809E+01 0.  1.
       -4    1    3    3    0  502 -0.68140716233E+03  0.73830469493E+03  0.73732202380E+03  0.12462162425E+04  0.12699999809E+01 0. -1.
</event>
<event>
 5   0  0.1495517E-05  0.2649891E+04  0.7818609E-02  0.8351449E-01
       -1   -1    0    0    0  501  0.00000000000E+00  0.00000000000E+00  0.15942754009E+04  0.15942754009E+04  0.50400001928E-02 0.  1.
        1   -1    0    0  501    0  0.00000000000E+00  0.00000000000E+00 -0.11011148112E+04  0.11011148112E+04  0.50400001928E-02 0. -1.
    10030    2    1    2    0    0  0.00000000000E+00  0.00000000000E+00  0.49316058975E+03  0.26953902121E+04  0.26498907578E+04 0.  0.
        5    1    3    3  502    0  0.59723097393E+03  0.84645589804E+03 -0.59360838313E+03  0.11939704461E+04  0.46999998093E+01 0. -1.
       -5    1    3    3    0  502 -0.59723097393E+03 -0.84645589804E+03  0.10867689729E+04  0.15014197661E+04  0.46999998093E+01 0.  1.
</event>
<event>
 5   0  0.3568647E-05  0.2722083E+04  0.7818609E-02  0.8327875E-01
       -2   -1    0    0    0  501  0.00000000000E+00  0.00000000000E+00  0.14552359609E+04  0.14552359609E+04  0.25500000920E-02 0.  1.
        2   -1    0    0  501    0  0.00000000000E+00  0.00000000000E+00 -0.12729437157E+04  0.12729437157E+04  0.25500000920E-02 0. -1.
    10030    2    1    2    0    0  0.00000000000E+00  0.00000000000E+00  0.18229224519E+03  0.27281796766E+04  0.27220826374E+04 0.  0.
        3    1    3    3  502    0 -0.12610290311E+04 -0.34993734741E+03  0.46585932302E+03  0.13891275259E+04  0.10100000352E+00 0. -1.
       -3    1    3    3    0  502  0.12610290311E+04  0.34993734741E+03 -0.28356707784E+03  0.13390521506E+04  0.10100000352E+00 0.  1.
</event>
<event>
 5   0  0.3514294E-05  0.2671541E+04  0.7818609E-02  0.8344299E-01
       -2   -1    0    0    0  501  0.00000000000E+00  0.00000000000E+00  0.17490824525E+04  0.17490824525E+04  0.25500000920E-02 0.  1.
        2   -1    0    0  501    0  0.00000000000E+00  0.00000000000E+00 -0.10201247477E+04  0.10201247477E+04  0.25500000920E-02 0. -1.
    10030    2    1    2    0    0  0.00000000000E+00  0.00000000000E+00  0.72895770480E+03  0.27692072002E+04  0.26715406009E+04 0.  0.
        2    1    3    3  502    0 -0.71471950046E+03  0.11265212581E+03  0.15283669654E+04  0.16909819771E+04  0.25500000920E-02 0.  1.
       -2    1    3    3    0  502  0.71471950046E+03 -0.11265212581E+03 -0.79940926061E+03  0.10782252231E+04  0.25500000920E-02 0. -1.
</event>
<event>
 5   0  0.1449521E-05  0.2648768E+04  0.7818609E-02  0.8351822E-01
        1   -1    0    0  501    0  0.00000000000E+00  0.00000000000E+00  0.17510699717E+04  0.17510699717E+04  0.50400001928E-02 0. -1.
       -1   -1    0    0    0  501  0.00000000000E+00  0.00000000000E+00 -0.10016691713E+04  0.10016691713E+04  0.50400001928E-02 0.  1.
    10030    2    1    2    0    0  0.00000000000E+00  0.00000000000E+00  0.74940080039E+03  0.27527391429E+04  0.26487678701E+04 0.  0.
        3    1    3    3  502    0 -0.35267393451E+03 -0.12761863880E+04  0.34246352275E+03  0.13675934614E+04  0.10100000352E+00 0. -1.
       -3    1    3    3    0  502  0.35267393451E+03  0.12761863880E+04  0.40693727764E+03  0.13851456816E+04  0.10100000352E+00 0.  1.
</event>
<event>
 5   0  0.3497949E-05  0.2658636E+04  0.7818609E-02  0.8348552E-01
       -2   -1    0    0    0  501  0.00000000000E+00  0.00000000000E+00  0.14103813406E+04  0.14103813406E+04  0.25500000920E-02 0. -1.
        2   -1    0    0  501    0  0.00000000000E+00  0.00000000000E+00 -0.12529134273E+04  0.12529134273E+04  0.25500000920E-02 0.  1.
    10030    2    1    2    0    0  0.00000000000E+00  0.00000000000E+00  0.15746791328E+03  0.26632947680E+04  0.26586355292E+04 0.  0.
        5    1    3    3  502    0  0.11936138563E+04 -0.58491004023E+03  0.63547037477E+02  0.13307494539E+04  0.46999998093E+01 0.  1.
       -5    1    3    3    0  502 -0.11936138563E+04  0.58491004023E+03  0.93920875803E+02  0.13325453141E+04  0.46999998093E+01 0. -1.
</event>
<event>
 5   0  0.3514294E-05  0.2668103E+04  0.7818609E-02  0.8345429E-01
       -2   -1    0    0    0  501  0.00000000000E+00  0.00000000000E+00  0.97263310688E+03  0.97263310688E+03  0.25500000920E-02 0.  1.
        2   -1    0    0  501    0  0.00000000000E+00  0.00000000000E+00 -0.18297686160E+04  0.18297686160E+04  0.25500000920E-02 0. -1.
    10030    2    1    2    0    0  0.00000000000E+00  0.00000000000E+00 -0.85713550914E+03  0.28024017229E+04  0.26681030969E+04 0.  0.
        2    1    3    3  502    0 -0.10278578546E+04 -0.85796970370E+02  0.46009291813E+03  0.11293973538E+04  0.25500000920E-02 0.  1.
       -2    1    3    3    0  502  0.10278578546E+04  0.85796970370E+02 -0.13172284273E+04  0.16730043691E+04  0.25500000920E-02 0. -1.
</event>
<event>
 5   0  0.1484379E-05  0.2717208E+04  0.7818609E-02  0.8329443E-01
       -1   -1    0    0    0  501  0.00000000000E+00  0.00000000000E+00  0.14024196692E+04  0.14024196692E+04  0.50400001928E-02 0. -1.
        1   -1    0    0  501    0  0.00000000000E+00  0.00000000000E+00 -0.13161574566E+04  0.13161574566E+04  0.50400001928E-02 0.  1.
    10030    2    1    2    0    0  0.00000000000E+00  0.00000000000E+00  0.86262212619E+02  0.27185771258E+04  0.27172082032E+04 0.  0.
        1    1    3    3  502    0 -0.19718464959E+03  0.13247802219E+04  0.27101917163E+03  0.13665195988E+04  0.50400001928E-02 0.  1.
       -1    1    3    3    0  502  0.19718464959E+03 -0.13247802219E+04 -0.18475695901E+03  0.13520575270E+04  0.50400001928E-02 0. -1.
</event>
<event>
 5   0  0.3497949E-05  0.2746921E+04  0.7818609E-02  0.8319939E-01
       -2   -1    0    0    0  501  0.00000000000E+00  0.00000000000E+00  0.16913976262E+04  0.16913976262E+04  0.25500000920E-02 0. -1.
        2   -1    0    0  501    0  0.00000000000E+00  0.00000000000E+00 -0.11152868557E+04  0.11152868557E+04  0.25500000920E-02 0.  1.
    10030    2    1    2    0    0  0.00000000000E+00  0.00000000000E+00  0.57611077050E+03  0.28066844819E+04  0.27469208508E+04 0.  0.
        5    1    3    3  502    0 -0.12929378558E+04 -0.14155178322E+03 -0.16273065795E+03  0.13108121769E+04  0.46999998093E+01 0.  1.
       -5    1    3    3    0  502  0.12929378558E+04  0.14155178322E+03  0.73884142845E+03  0.14958723049E+04  0.46999998093E+01 0. -1.
</event>
<event>
 5   0  0.3497949E-05  0.2695696E+04  0.7818609E-02  0.8336403E-01
        2   -1    0    0  501    0  0.00000000000E+00  0.00000000000E+00  0.15745781647E+04  0.15745781647E+04  0.25500000920E-02 0. -1.
       -2   -1    0    0    0  501  0.00000000000E+00  0.00000000000E+00 -0.11537653397E+04  0.11537653397E+04  0.25500000920E-02 0.  1.
    10030    2    1    2    0    0  0.00000000000E+00  0.00000000000E+00  0.42081282492E+03  0.27283435044E+04  0.26956956142E+04 0.  0.
        5    1    3    3  502    0 -0.97526881539E+03  0.17069765941E+03 -0.71521038543E+03  0.12214069505E+04  0.46999998093E+01 0.  1.
       -5    1    3    3    0  502  0.97526881539E+03 -0.17069765941E+03  0.11360232104E+04  0.15069365540E+04  0.46999998093E+01 0. -1.
</event>
<event>
 5   0  0.3568647E-05  0.2714476E+04  0.7818609E-02  0.8330323E-01
        2   -1    0    0  501    0  0.00000000000E+00  0.00000000000E+00  0.65423362888E+03  0.65423362888E+03  0.25500000920E-02 0.  1.
       -2   -1    0    0    0  501  0.00000000000E+00  0.00000000000E+00 -0.28156525237E+04  0.28156525237E+04  0.25500000920E-02 0. -1.
    10030    2    1    2    0    0  0.00000000000E+00  0.00000000000E+00 -0.21614188948E+04  0.34698861526E+04  0.27144756903E+04 0.  0.
        3    1    3    3  502    0  0.45042499971E+03  0.72838843264E+03  0.26524041760E+03  0.89654050578E+03  0.10100000352E+00 0.  1.
       -3    1    3    3    0  502 -0.45042499971E+03 -0.72838843264E+03 -0.24266593124E+04  0.25733456468E+04  0.10100000352E+00 0. -1.
</event>
<event>
 5   0  0.1474012E-05  0.2439318E+04  0.7818609E-02  0.8424929E-01
        1   -1    0    0  501    0  0.00000000000E+00  0.00000000000E+00  0.12414339476E+04  0.12414339476E+04  0.50400001928E-02 0. -1.
       -1   -1    0    0    0  501  0.00000000000E+00  0.00000000000E+00 -0.11982658308E+04  0.11982658309E+04  0.50400001928E-02 0.  1.
    10030    2    1    2    0    0  0.00000000000E+00  0.00000000000E+00  0.43168116722E+02  0.24396997784E+04  0.24393178396E+04 0.  0.
        2    1    3    3  502    0 -0.13007617575E+03  0.11956368064E+04  0.22434886830E+03  0.12234376155E+04  0.25500000920E-02 0. -1.
       -2    1    3    3    0  502  0.13007617575E+03 -0.11956368064E+04 -0.18118075158E+03  0.12162621629E+04  0.25500000920E-02 0.  1.
</event>
<event>
 5   0  0.1495517E-05  0.2698929E+04  0.7818609E-02  0.8335353E-01
       -1   -1    0    0    0  501  0.00000000000E+00  0.00000000000E+00  0.14189395680E+04  0.14189395680E+04  0.50400001928E-02 0.  1.
        1   -1    0    0  501    0  0.00000000000E+00  0.00000000000E+00 -0.12833911618E+04  0.12833911618E+04  0.50400001928E-02 0. -1.
    10030    2    1    2    0    0  0.00000000000E+00  0.00000000000E+00  0.13554840619E+03  0.27023307298E+04  0.26989290474E+04 0.  0.
        5    1    3    3  502    0  0.10904044877E+04 -0.61257855679E+02 -0.72587731253E+03  0.13113559527E+04  0.46999998093E+01 0. -1.
       -5    1    3    3    0  502 -0.10904044877E+04  0.61257855679E+02  0.86142571873E+03  0.13909747771E+04  0.46999998093E+01 0.  1.
</event>
<event>
 5   0  0.3514294E-05  0.2734023E+04  0.7818609E-02  0.8324049E-01
        2   -1    0    0  501    0  0.00000000000E+00  0.00000000000E+00  0.14691650054E+04  0.14691650054E+04  0.25500000920E-02 0.  1.
       -2   -1    0    0    0  501  0.00000000000E+00  0.00000000000E+00 -0.12719611483E+04  0.12719611483E+04  0.25500000920E-02 0. -1.
    10030    2    1    2    0    0  0.00000000000E+00  0.00000000000E+00  0.19720385709E+03  0.27411261538E+04  0.27340232679E+04 0.  0.
        2    1    3    3  502    0 -0.13388130725E+03  0.29388216660E+03  0.14303712870E+04  0.14663740828E+04  0.25500000920E-02 0.  1.
       -2    1    3    3    0  502  0.13388130725E+03 -0.29388216660E+03 -0.12331674299E+04  0.12747520709E+04  0.25500000920E-02 0. -1.
</event>
<event>
 5   0  0.3652331E-05  0.1482360E+04  0.7818609E-02  0.8896269E-01
        2   -1    0    0  501    0  0.00000000000E+00  0.00000000000E+00  0.92029411021E+03  0.92029411022E+03  0.25500000920E-02 0.  1.
       -2   -1    0    0    0  501  0.00000000000E+00  0.00000000000E+00 -0.59692661235E+03  0.59692661236E+03  0.25500000920E-02 0. -1.
    10030    2    1    2    0    0  0.00000000000E+00  0.00000000000E+00  0.32336749786E+03  0.15172207226E+04  0.14823603416E+04 0.  0.
        1    1    3    3  502    0 -0.59568287001E+03 -0.12112922775E+03  0.59572930768E+03  0.85111913355E+03  0.50400001928E-02 0.  1.
       -1    1    3    3    0  502  0.59568287001E+03  0.12112922775E+03 -0.27236180982E+03  0.66610158903E+03  0.50400001928E-02 0. -1.
</event>
<event>
 5   0  0.1474012E-05  0.2493987E+04  0.7818609E-02  0.8405131E-01
        1   -1    0    0  501    0  0.00000000000E+00  0.00000000000E+00  0.19160101058E+04  0.19160101059E+04  0.50400001928E-02 0.  1.
       -1   -1    0    0    0  501  0.00000000000E+00  0.00000000000E+00 -0.81157833791E+03  0.81157833792E+03  0.50400001928E-02 0. -1.
    10030    2    1    2    0    0  0.00000000000E+00  0.00000000000E+00  0.11044317679E+04  0.27275884438E+04  0.24939866055E+04 0.  0.
        2    1    3    3  502    0 -0.84921714443E+03 -0.52456258688E+03 -0.26522659835E+03  0.10328024082E+04  0.25500000920E-02 0.  1.
       -2    1    3    3    0  502  0.84921714443E+03  0.52456258688E+03  0.13696583663E+04  0.16947860356E+04  0.25500000920E-02 0. -1.
</event>
<event>
 5   0  0.1449521E-05  0.2605362E+04  0.7818609E-02  0.8366382E-01
        1   -1    0    0  501    0  0.00000000000E+00  0.00000000000E+00  0.15104244989E+04  0.15104244989E+04  0.50400001928E-02 0.  1.
       -1   -1    0    0    0  501  0.00000000000E+00  0.00000000000E+00 -0.11235106112E+04  0.11235106112E+04  0.50400001928E-02 0. -1.
    10030    2    1    2    0    0  0.00000000000E+00  0.00000000000E+00  0.38691388771E+03  0.26339351101E+04  0.26053621260E+04 0.  0.
        3    1    3    3  502    0  0.69230039702E+03  0.31467128382E+03  0.12627332150E+04  0.14740397006E+04  0.10100000352E+00 0.  1.
       -3    1    3    3    0  502 -0.69230039702E+03 -0.31467128382E+03 -0.87581932729E+03  0.11598954094E+04  0.10100000352E+00 0. -1.
</event>
<event>
 5   0  0.3514294E-05  0.2920397E+04  0.7818609E-02  0.8266835E-01
        2   -1    0    0  501    0  0.00000000000E+00  0.00000000000E+00  0.22903354086E+04  0.22903354086E+04  0.25500000920E-02 0. -1.
       -2   -1    0    0    0  501  0.00000000000E+00  0.00000000000E+00 -0.93094619597E+03  0.93094619597E+03  0.25500000920E-02 0.  1.
    10030    2    1    2    0    0  0.00000000000E+00  0.00000000000E+00  0.13593892126E+04  0.32212816045E+04  0.29203965731E+04 0.  0.
        2    1    3    3  502    0 -0.11852223323E+04 -0.60640944496E+03  0.13412311624E+04  0.18898109490E+04  0.25500000920E-02 0. -1.
       -2    1    3    3    0  502  0.11852223323E+04  0.60640944496E+03  0.18158050203E+02  0.13314706556E+04  0.25500000920E-02 0.  1.
</event>
<event>
 5   0  0.1484379E-05  0.2484003E+04  0.7818609E-02  0.8408707E-01
        1   -1    0    0  501    0  0.00000000000E+00  0.00000000000E+00  0.13707153810E+04  0.13707153811E+04  0.50400001928E-02 0. -1.
       -1   -1    0    0    0  501  0.00000000000E+00  0.00000000000E+00 -0.11253745918E+04  0.11253745918E+04  0.50400001928E-02 0.  1.
    10030    2    1    2    0    0  0.00000000000E+00  0.00000000000E+00  0.24534078928E+03  0.24960899728E+04  0.24840034319E+04 0.  0.
        1    1    3    3  502    0 -0.30926988868E+03 -0.11221236804E+04  0.55809026663E+03  0.12908424241E+04  0.50400001928E-02 0.  1.
       -1    1    3    3    0  502  0.30926988868E+03  0.11221236804E+04 -0.31274947735E+03  0.12052475487E+04  0.50400001928E-02 0. -1.
</event>
<event>
 5   0  0.1484379E-05  0.2716050E+04  0.7818609E-02  0.8329816E-01
       -1   -1    0    0    0  501  0.00000000000E+00  0.00000000000E+00  0.11327629084E+04  0.11327629084E+04  0.50400001928E-02 0.  1.
        1   -1    0    0  501    0  0.00000000000E+00  0.00000000000E+00 -0.16280823233E+04  0.16280823233E+04  0.50400001928E-02 0. -1.
    10030    2    1    2    0    0  0.00000000000E+00  0.00000000000E+00 -0.49531941498E+03  0.27608452317E+04  0.27160495339E+04 0.  0.
        1    1    3    3  502    0  0.10540050896E+04  0.10276646179E+03  0.61650494997E+03  0.12253840329E+04  0.50400001928E-02 0.  1.
       -1    1    3    3    0  502 -0.10540050896E+04 -0.10276646179E+03 -0.11118243649E+04  0.15354611988E+04  0.50400001928E-02 0. -1.
</event>
<event>
 5   0  0.1474012E-05  0.2319304E+04  0.7818609E-02  0.8470348E-01
        1   -1    0    0  501    0  0.00000000000E+00  0.00000000000E+00  0.14016401985E+04  0.14016401985E+04  0.50400001928E-02 0. -1.
       -1   -1    0    0    0  501  0.00000000000E+00  0.00000000000E+00 -0.95944259846E+03  0.95944259848E+03  0.50400001928E-02 0.  1.
    10030    2    1    2    0    0  0.00000000000E+00  0.00000000000E+00  0.44219760004E+03  0.23610827970E+04  0.23193044769E+04 0.  0.
        2    1    3    3  502    0  0.11030064291E+04 -0.63945360363E+02  0.57969551541E+03  0.12477015197E+04  0.25500000920E-02 0. -1.
       -2    1    3    3    0  502 -0.11030064291E+04  0.63945360363E+02 -0.13749791537E+03  0.11133812772E+04  0.25500000920E-02 0.  1.
</event>
<event>
 5   0  0.3676724E-05  0.2696479E+04  0.7818609E-02  0.8336148E-01
        2   -1    0    0  501    0  0.00000000000E+00  0.00000000000E+00  0.19742170902E+04  0.19742170902E+04  0.25500000920E-02 0. -1.
       -2   -1    0    0    0  501  0.00000000000E+00  0.00000000000E+00 -0.92074491164E+03  0.92074491165E+03  0.25500000920E-02 0.  1.
    10030    2    1    2    0    0  0.00000000000E+00  0.00000000000E+00  0.10534721785E+04  0.28949620018E+04  0.26964794383E+04 0.  0.
        4    1    3    3  502    0 -0.85739393123E+03 -0.32108307578E+03 -0.53582677300E+03  0.10608160248E+04  0.12699999809E+01 0. -1.
       -4    1    3    3    0  502  0.85739393123E+03  0.32108307578E+03  0.15892989515E+04  0.18341459770E+04  0.12699999809E+01 0.  1.
</event>
<event>
 5   0  0.3497949E-05  0.2611884E+04  0.7818609E-02  0.8364176E-01
       -2   -1    0    0    0  501  0.00000000000E+00  0.00000000000E+00  0.12596280345E+04  0.12596280345E+04  0.25500000920E-02 0.  1.
        2   -1    0    0  501    0  0.00000000000E+00  0.00000000000E+00 -0.13539584536E+04  0.13539584536E+04  0.25500000920E-02 0. -1.
    10030    2    1    2    0    0  0.00000000000E+00  0.00000000000E+00 -0.94330419111E+02  0.26135864882E+04  0.26118836312E+04 0.  0.
        5    1    3    3  502    0  0.92645359822E+03  0.80688581209E+03 -0.49026419578E+03  0.13227857177E+04  0.46999998093E+01 0. -1.
       -5    1    3    3    0  502 -0.92645359822E+03 -0.80688581209E+03  0.39593377667E+03  0.12908007704E+04  0.46999998093E+01 0.  1.
</event>
<event>
 5   0  0.3676724E-05  0.2851078E+04  0.7818609E-02  0.8287584E-01
       -2   -1    0    0    0  501  0.00000000000E+00  0.00000000000E+00  0.76613100422E+03  0.76613100422E+03  0.25500000920E-02 0.  1.
        2   -1    0    0  501    0  0.00000000000E+00  0.00000000000E+00 -0.26524977966E+04  0.26524977966E+04  0.25500000920E-02 0. -1.
    10030    2    1    2    0    0  0.00000000000E+00  0.00000000000E+00 -0.18863667924E+04  0.34186288008E+04  0.28510775511E+04 0.  0.
        4    1    3    3  502    0 -0.10475558797E+04  0.37915815365E+03 -0.20096272867E+04  0.22977679759E+04  0.12699999809E+01 0. -1.
       -4    1    3    3    0  502  0.10475558797E+04 -0.37915815365E+03  0.12326049435E+03  0.11208608249E+04  0.12699999809E+01 0.  1.
</event>
<event>
 5   0  0.3652331E-05  0.2609318E+04  0.7818609E-02  0.8365043E-01
       -2   -1    0    0    0  501  0.00000000000E+00  0.00000000000E+00  0.92906125306E+03  0.92906125306E+03  0.25500000920E-02 0. -1.
        2   -1    0    0  501    0  0.00000000000E+00  0.00000000000E+00 -0.18321025633E+04  0.18321025633E+04  0.25500000920E-02 0.  1.
    10030    2    1    2    0    0  0.00000000000E+00  0.00000000000E+00 -0.90304131027E+03  0.27611638164E+04  0.26093183043E+04 0.  0.
        1    1    3    3  502    0 -0.76736038830E+03 -0.75759062080E+03  0.32562146854E+03  0.11264168212E+04  0.50400001928E-02 0. -1.
       -1    1    3    3    0  502  0.76736038830E+03  0.75759062080E+03 -0.12286627788E+04  0.16347469952E+04  0.50400001928E-02 0.  1.
</event>
<event>
 5   0  0.3497949E-05  0.2577563E+04  0.7818609E-02  0.8375863E-01
       -2   -1    0    0    0  501  0.00000000000E+00  0.00000000000E+00  0.10943543397E+04  0.10943543397E+04  0.25500000920E-02 0. -1.
        2   -1    0    0  501    0  0.00000000000E+00  0.00000000000E+00 -0.15177514601E+04  0.15177514601E+04  0.25500000920E-02 0.  1.
    10030    2    1    2    0    0  0.00000000000E+00  0.00000000000E+00 -0.42339712033E+03  0.26121057998E+04  0.25775631104E+04 0.  0.
        5    1    3    3  502    0  0.54524079031E+03 -0.82855585110E+03 -0.10456136056E+04  0.14412224742E+04  0.46999998093E+01 0.  1.
       -5    1    3    3    0  502 -0.54524079031E+03  0.82855585110E+03  0.62221648526E+03  0.11708833257E+04  0.46999998093E+01 0. -1.
</event>
<event>
 5   0  0.3568647E-05  0.2636283E+04  0.7818609E-02  0.8355980E-01
        2   -1    0    0  501    0  0.00000000000E+00  0.00000000000E+00  0.15017628305E+04  0.15017628305E+04  0.25500000920E-02 0.  1.
       -2   -1    0    0    0  501  0.00000000000E+00  0.00000000000E+00 -0.11569717930E+04  0.11569717930E+04  0.25500000920E-02 0. -1.
    10030    2    1    2    0    0  0.00000000000E+00  0.00000000000E+00  0.34479103747E+03  0.26587346235E+04  0.26362831674E+04 0.  0.
        3    1    3    3  502    0 -0.10562313337E+04 -0.31781674622E+03  0.90025168939E+03  0.14237574333E+04  0.10100000352E+00 0.  1.
       -3    1    3    3    0  502  0.10562313337E+04  0.31781674622E+03 -0.55546065192E+03  0.12349771902E+04  0.10100000352E+00 0. -1.
</event>
<event>
 5   0  0.3676724E-05  0.2535130E+04  0.7818609E-02  0.8390576E-01
        2   -1    0    0  501    0  0.00000000000E+00  0.00000000000E+00  0.15175250673E+04  0.15175250673E+04  0.25500000920E-02 0. -1.
       -2   -1    0    0    0  501  0.00000000000E+00  0.00000000000E+00 -0.10587773507E+04  0.10587773507E+04  0.25500000920E-02 0.  1.
    10030    2    1    2    0    0  0.00000000000E+00  0.00000000000E+00  0.45874771656E+03  0.25763024180E+04  0.25351301113E+04 0.  0.
        4    1    3    3  502    0  0.18323765851E+03 -0.99014245466E+03  0.10117877607E+04  0.14274712627E+04  0.12699999809E+01 0. -1.
       -4    1    3    3    0  502 -0.18323765851E+03  0.99014245466E+03 -0.55304004418E+03  0.11488311553E+04  0.12699999809E+01 0.  1.
</event>
<event>
 5   0  0.1449521E-05  0.1470279E+04  0.7818609E-02  0.8904461E-01
        1   -1    0    0  501    0  0.00000000000E+00  0.00000000000E+00  0.10926216898E+04  0.10926216898E+04  0.50400001928E-02 0. -1.
       -1   -1    0    0    0  501  0.00000000000E+00  0.00000000000E+00 -0.49461744761E+03  0.49461744764E+03  0.50400001928E-02 0.  1.
    10030    2    1    2    0    0  0.00000000000E+00  0.00000000000E+00  0.59800424222E+03  0.15872391375E+04  0.14702785470E+04 0.  0.
        3    1    3    3  502    0  0.55956479922E+03  0.44538963197E+03  0.11533563650E+03  0.72442184399E+03  0.10100000352E+00 0.  1.
       -3    1    3    3    0  502 -0.55956479922E+03 -0.44538963197E+03  0.48266860571E+03  0.86281729349E+03  0.10100000352E+00 0. -1.
</event>
<event>
 5   0  0.1474012E-05  0.2702446E+04  0.7818609E-02  0.8334212E-01
       -1   -1    0    0    0  501  0.00000000000E+00  0.00000000000E+00  0.14152598616E+04  0.14152598616E+04  0.50400001928E-02 0.  1.
        1   -1    0    0  501    0  0.00000000000E+00  0.00000000000E+00 -0.12900835090E+04  0.12900835090E+04  0.50400001928E-02 0. -1.
    10030    2    1    2    0    0  0.00000000000E+00  0.00000000000E+00  0.12517635254E+03  0.27053433706E+04  0.27024458614E+04 0.  0.
        2    1    3    3  502    0 -0.24890854875E+03  0.11712252114E+04 -0.56424565923E+03  0.13236680571E+04  0.25500000920E-02 0. -1.
       -2    1    3    3    0  502  0.24890854875E+03 -0.11712252114E+04  0.68942201176E+03  0.13816753135E+04  0.25500000920E-02 0.  1.
</event>
<event>
 5   0  0.1495517E-05  0.2698319E+04  0.7818609E-02  0.8335551E-01
        1   -1    0    0  501    0  0.00000000000E+00  0.00000000000E+00  0.15606394442E+04  0.15606394443E+04  0.50400001928E-02 0. -1.
       -1   -1    0    0    0  501  0.00000000000E+00  0.00000000000E+00 -0.11663366538E+04  0.11663366538E+04  0.50400001928E-02 0.  1.
    10030    2    1    2    0    0  0.00000000000E+00  0.00000000000E+00  0.39430279043E+03  0.27269760981E+04  0.26983187264E+04 0.  0.
        5    1    3    3  502    0  0.62668793081E+03 -0.66330401513E+03 -0.80713226847E+03  0.12182752431E+04  0.46999998093E+01 0.  1.
       -5    1    3    3    0  502 -0.62668793081E+03  0.66330401513E+03  0.12014350589E+04  0.15087008550E+04  0.46999998093E+01 0. -1.
</event>
<event>
 5   0  0.3676724E-05  0.2688720E+04  0.7818609E-02  0.8338674E-01
       -2   -1    0    0    0  501  0.00000000000E+00  0.00000000000E+00  0.11724632470E+04  0.11724632470E+04  0.25500000920E-02 0.  1.
        2   -1    0    0  501    0  0.00000000000E+00  0.00000000000E+00 -0.15414589716E+04  0.15414589716E+04  0.25500000920E-02 0. -1.
    10030    2    1    2    0    0  0.00000000000E+00  0.00000000000E+00 -0.36899572456E+03  0.27139222186E+04  0.26887201349E+04 0.  0.
        4    1    3    3  502    0  0.42979114561E+03 -0.12676379001E+04 -0.58120043278E+02  0.13397782753E+04  0.12699999809E+01 0. -1.
       -4    1    3    3    0  502 -0.42979114561E+03  0.12676379001E+04 -0.31087568128E+03  0.13741439433E+04  0.12699999809E+01 0.  1.
</event>
<event>
 5   0  0.1484379E-05  0.2689063E+04  0.7818609E-02  0.8338563E-01
        1   -1    0    0  501    0  0.00000000000E+00  0.00000000000E+00  0.21029373565E+04  0.21029373565E+04  0.50400001928E-02 0.  1.
       -1   -1    0    0    0  501  0.00000000000E+00  0.00000000000E+00 -0.85963773310E+03  0.85963773311E+03  0.50400001928E-02 0. -1.
    10030    2    1    2    0    0  0.00000000000E+00  0.00000000000E+00  0.12432996234E+04  0.29625750896E+04  0.26890625147E+04 0.  0.
        1    1    3    3  502    0  0.23427426557E+03  0.13239157216E+04  0.60923254643E+03  0.14760764090E+04  0.50400001928E-02 0.  1.
       -1    1    3    3    0  502 -0.23427426557E+03 -0.13239157216E+04  0.63406707700E+03  0.14864986807E+04  0.50400001928E-02 0. -1.
</event>
<event>
 5   0  0.1495517E-05  0.2669000E+04  0.7818609E-02  0.8345134E-01
        1   -1    0    0  501    0  0.00000000000E+00  0.00000000000E+00  0.17234311526E+04  0.17234311526E+04  0.50400001928E-02 0. -1.
       -1   -1    0    0    0  501  0.00000000000E+00  0.00000000000E+00 -0.10333402974E+04  0.10333402974E+04  0.50400001928E-02 0.  1.
    10030    2    1    2    0    0  0.00000000000E+00  0.00000000000E+00  0.69009085526E+03  0.27567714500E+04  0.26690004570E+04 0.  0.
        5    1    3    3  502    0  0.15260774040E+03  0.13242629085E+04  0.40961023534E+03  0.13945479583E+04  0.46999998093E+01 0.  1.
       -5    1    3    3    0  502 -0.15260774040E+03 -0.13242629085E+04  0.28048061992E+03  0.13622234917E+04  0.46999998093E+01 0. -1.
</event>
<event>
 5   0  0.1484379E-05  0.2803603E+04  0.7818609E-02  0.8302151E-01
        1   -1    0    0  501    0  0.00000000000E+00  0.00000000000E+00  0.12239994270E+04  0.12239994270E+04  0.50400001928E-02 0.  1.
       -1   -1    0    0    0  501  0.00000000000E+00  0.00000000000E+00 -0.16054312858E+04  0.16054312858E+04  0.50400001928E-02 0. -1.
    10030    2    1    2    0    0  0.00000000000E+00  0.00000000000E+00 -0.38143185877E+03  0.28294307129E+04  0.28036026637E+04 0.  0.
        1    1    3    3  502    0  0.45065726392E+03  0.11713065575E+04  0.43953377334E+03  0.13297522172E+04  0.50400001928E-02 0.  1.
       -1    1    3    3    0  502 -0.45065726392E+03 -0.11713065575E+04 -0.82096563211E+03  0.14996784957E+04  0.50400001928E-02 0. -1.
</event>
<event>
 5   0  0.1474012E-05  0.2635514E+04  0.7818609E-02  0.8356237E-01
       -1   -1    0    0    0  501  0.00000000000E+00  0.00000000000E+00  0.10828451798E+04  0.10828451799E+04  0.50400001928E-02 0. -1.
        1   -1    0    0  501    0  0.00000000000E+00  0.00000000000E+00 -0.16036300052E+04  0.16036300052E+04  0.50400001928E-02 0.  1.
    10030    2    1    2    0    0  0.00000000000E+00  0.00000000000E+00 -0.52078482535E+03  0.26864751851E+04  0.26355136284E+04 0.  0.
        2    1    3    3  502    0 -0.11237091539E+04 -0.33172925142E+03  0.35435830767E+03  0.12240655085E+04  0.25500000920E-02 0. -1.
       -2    1    3    3    0  502  0.11237091539E+04  0.33172925142E+03 -0.87514313303E+03  0.14624096766E+04  0.25500000920E-02 0.  1.
</event>
<event>
 5   0  0.3497949E-05  0.2782015E+04  0.7818609E-02  0.8308874E-01
        2   -1    0    0  501    0  0.00000000000E+00  0.00000000000E+00  0.15319122011E+04  0.15319122011E+04  0.25500000920E-02 0. -1.
       -2   -1    0    0    0  501  0.00000000000E+00  0.00000000000E+00 -0.12630633551E+04  0.12630633551E+04  0.25500000920E-02 0.  1.
    10030    2    1    2    0    0  0.00000000000E+00  0.00000000000E+00  0.26884884599E+03  0.27949755562E+04  0.27820152152E+04 0.  0.
        5    1    3    3  502    0  0.67234096656E+02 -0.13449222012E+04  0.48468006415E+03  0.14311788867E+04  0.46999998093E+01 0. -1.
       -5    1    3    3    0  502 -0.67234096656E+02  0.13449222012E+04 -0.21583121816E+03  0.13637966695E+04  0.46999998093E+01 0.  1.
</event>
<event>
 5   0  0.3676724E-05  0.2463069E+04  0.7818609E-02  0.8416262E-01
        2   -1    0    0  501    0  0.00000000000E+00  0.00000000000E+00  0.14143783657E+04  0.14143783657E+04  0.25500000920E-02 0. -1.
       -2   -1    0    0    0  501  0.00000000000E+00  0.00000000000E+00 -0.10723276769E+04  0.10723276769E+04  0.25500000920E-02 0.  1.
    10030    2    1    2    0    0  0.00000000000E+00  0.00000000000E+00  0.34205068887E+03  0.24867060426E+04  0.24630688721E+04 0.  0.
        4    1    3    3  502    0 -0.10134050499E+04  0.66493661000E+02 -0.53226886827E+03  0.11466136939E+04  0.12699999809E+01 0.  1.
       -4    1    3    3    0  502  0.10134050499E+04 -0.66493661000E+02  0.87431955714E+03  0.13400923487E+04  0.12699999809E+01 0. -1.
</event>
<event>
 5   0  0.1449521E-05  0.2667934E+04  0.7818609E-02  0.8345485E-01
       -1   -1    0    0    0  501  0.00000000000E+00  0.00000000000E+00  0.13313755274E+04  0.13313755274E+04  0.50400001928E-02 0.  1.
        1   -1    0    0  501    0  0.00000000000E+00  0.00000000000E+00 -0.13365638277E+04  0.13365638277E+04  0.50400001928E-02 0. -1.
    10030    2    1    2    0    0  0.00000000000E+00  0.00000000000E+00 -0.51883003521E+01  0.26679393551E+04  0.26679343103E+04 0.  0.
        3    1    3    3  502    0  0.95068239324E+02  0.10967789050E+03  0.13234555476E+04  0.13313909292E+04  0.10100000352E+00 0.  1.
       -3    1    3    3    0  502 -0.95068239324E+02 -0.10967789050E+03 -0.13286438480E+04  0.13365484259E+04  0.10100000352E+00 0. -1.
</event>
<event>
 5   0  0.1474012E-05  0.2702603E+04  0.7818609E-02  0.8334161E-01
        1   -1    0    0  501    0  0.00000000000E+00  0.00000000000E+00  0.11823613255E+04  0.11823613255E+04  0.50400001928E-02 0.  1.
       -1   -1    0    0    0  501  0.00000000000E+00  0.00000000000E+00 -0.15443806861E+04  0.15443806861E+04  0.50400001928E-02 0. -1.
    10030    2    1    2    0    0  0.00000000000E+00  0.00000000000E+00 -0.36201936062E+03  0.27267420116E+04  0.27026031859E+04 0.  0.
        2    1    3    3  502    0  0.13124690458E+04  0.99255715382E+02  0.12764642305E+03  0.13223918869E+04  0.25500000920E-02 0.  1.
       -2    1    3    3    0  502 -0.13124690458E+04 -0.99255715382E+02 -0.48966578366E+03  0.14043501247E+04  0.25500000920E-02 0. -1.
</event>
<event>
 5   0  0.3676724E-05  0.2689467E+04  0.7818609E-02  0.8338431E-01
       -2   -1    0    0    0  501  0.00000000000E+00  0.00000000000E+00  0.13313278092E+04  0.13313278092E+04  0.25500000920E-02 0.  1.
        2   -1    0    0  501    0  0.00000000000E+00  0.00000000000E+00 -0.13582739120E+04  0.13582739120E+04  0.25500000920E-02 0. -1.
    10030    2    1    2    0    0  0.00000000000E+00  0.00000000000E+00 -0.26946102885E+02  0.26896017212E+04  0.26894667364E+04 0.  0.
        4    1    3    3  502    0 -0.38497535338E+03 -0.32983574429E+03  0.12321048476E+04  0.13323218865E+04  0.12699999809E+01 0.  1.
       -4    1    3    3    0  502  0.38497535338E+03  0.32983574429E+03 -0.12590509505E+04  0.13572798347E+04  0.12699999809E+01 0. -1.
</event>
<event>
 5   0  0.1484379E-05  0.1992335E+04  0.7818609E-02  0.8610213E-01
       -1   -1    0    0    0  501  0.00000000000E+00  0.00000000000E+00  0.52523706895E+03  0.52523706897E+03  0.50400001928E-02 0.  1.
        1   -1    0    0  501    0  0.00000000000E+00  0.00000000000E+00 -0.18893359322E+04  0.18893359322E+04  0.50400001928E-02 0. -1.
    10030    2    1    2    0    0  0.00000000000E+00  0.00000000000E+00 -0.13640988632E+04  0.24145730011E+04  0.19923345776E+04 0.  0.
        1    1    3    3  502    0 -0.22517489334E+03  0.24708302352E+03 -0.18193265523E+04  0.18497845434E+04  0.50400001928E-02 0. -1.
       -1    1    3    3    0  502  0.22517489334E+03 -0.24708302352E+03  0.45522768906E+03  0.56478845776E+03  0.50400001928E-02 0.  1.
</event>
<event>
 5   0  0.3652331E-05  0.2659021E+04  0.7818609E-02  0.8348425E-01
        2   -1    0    0  501    0  0.00000000000E+00  0.00000000000E+00  0.12613437858E+04  0.12613437858E+04  0.25500000920E-02 0. -1.
       -2   -1    0    0    0  501  0.00000000000E+00  0.00000000000E+00 -0.14013614627E+04  0.14013614627E+04  0.25500000920E-02 0.  1.
    10030    2    1    2    0    0  0.00000000000E+00  0.00000000000E+00 -0.14001767692E+03  0.26627052486E+04  0.26590213032E+04 0.  0.
        1    1    3    3  502    0 -0.11082262431E+04  0.36099594179E+03  0.57049838283E+03  0.12976717153E+04  0.50400001928E-02 0. -1.
       -1    1    3    3    0  502  0.11082262431E+04 -0.36099594179E+03 -0.71051605975E+03  0.13650335333E+04  0.50400001928E-02 0.  1.
</event>
<event>
 5   0  0.1484379E-05  0.1995103E+04  0.7818609E-02  0.8608913E-01
        1   -1    0    0  501    0  0.00000000000E+00  0.00000000000E+00  0.16421942805E+04  0.16421942805E+04  0.50400001928E-02 0.  1.
       -1   -1    0    0    0  501  0.00000000000E+00  0.00000000000E+00 -0.60596328692E+03  0.60596328694E+03  0.50400001928E-02 0. -1.
    10030    2    1    2    0    0  0.00000000000E+00  0.00000000000E+00  0.10362309936E+04  0.22481575674E+04  0.19951034499E+04 0.  0.
        1    1    3    3  502    0 -0.41174915560E+03 -0.17759632435E+02  0.15417757695E+04  0.15959089245E+04  0.50400001928E-02 0.  1.
       -1    1    3    3    0  502  0.41174915560E+03  0.17759632435E+02 -0.50554477597E+03  0.65224864294E+03  0.50400001928E-02 0. -1.
</event>
<event>
 5   0  0.1484379E-05  0.2571766E+04  0.7818609E-02  0.8377855E-01
       -1   -1    0    0    0  501  0.00000000000E+00  0.00000000000E+00  0.16268542235E+04  0.16268542235E+04  0.50400001928E-02 0.  1.
        1   -1    0    0  501    0  0.00000000000E+00  0.00000000000E+00 -0.10163754177E+04  0.10163754178E+04  0.50400001928E-02 0. -1.
    10030    2    1    2    0    0  0.00000000000E+00  0.00000000000E+00  0.61047880579E+03  0.26432296413E+04  0.25717656511E+04 0.  0.
        1    1    3    3  502    0  0.30329644583E+03  0.11864060860E+04  0.70850244551E+03  0.14147522223E+04  0.50400001928E-02 0. -1.
       -1    1    3    3    0  502 -0.30329644583E+03 -0.11864060860E+04 -0.98023639728E+02  0.12284774190E+04  0.50400001928E-02 0.  1.
</event>
<event>
 5   0  0.3568647E-05  0.1445250E+04  0.7818609E-02  0.8921700E-01
       -2   -1    0    0    0  501  0.00000000000E+00  0.00000000000E+00  0.60331334614E+03  0.60331334615E+03  0.25500000920E-02 0. -1.
        2   -1    0    0  501    0  0.00000000000E+00  0.00000000000E+00 -0.86553156783E+03  0.86553156784E+03  0.25500000920E-02 0.  1.
    10030    2    1    2    0    0  0.00000000000E+00  0.00000000000E+00 -0.26221822169E+03  0.14688449140E+04  0.14452498004E+04 0.  0.
        3    1    3    3  502    0  0.14393890434E+03  0.13900776558E+03 -0.83681206522E+03  0.86040456169E+03  0.10100000352E+00 0.  1.
       -3    1    3    3    0  502 -0.14393890434E+03 -0.13900776558E+03  0.57459384353E+03  0.60844035229E+03  0.10100000352E+00 0. -1.
</event>
<event>
 5   0  0.1495517E-05  0.2012156E+04  0.7818609E-02  0.8600959E-01
       -1   -1    0    0    0  501  0.00000000000E+00  0.00000000000E+00  0.83880563191E+03  0.83880563192E+03  0.50400001928E-02 0. -1.
        1   -1    0    0  501    0  0.00000000000E+00  0.00000000000E+00 -0.12067068417E+04  0.12067068417E+04  0.50400001928E-02 0.  1.
    10030    2    1    2    0    0  0.00000000000E+00  0.00000000000E+00 -0.36790120977E+03  0.20455124736E+04  0.20121555555E+04 0.  0.
        5    1    3    3  502    0  0.50301364364E+02  0.99412948917E+03 -0.33247791767E+03  0.10494700206E+04  0.46999998093E+01 0.  1.
       -5    1    3    3    0  502 -0.50301364364E+02 -0.99412948917E+03 -0.35423292099E+02  0.99604245297E+03  0.46999998093E+01 0. -1.
</event>
<event>
 5   0  0.3568647E-05  0.2442967E+04  0.7818609E-02  0.8423590E-01
       -2   -1    0    0    0  501  0.00000000000E+00  0.00000000000E+00  0.73713186193E+03  0.73713186194E+03  0.25500000920E-02 0.  1.
        2   -1    0    0  501    0  0.00000000000E+00  0.00000000000E+00 -0.20240911716E+04  0.20240911717E+04  0.25500000920E-02 0. -1.
    10030    2    1    2    0    0  0.00000000000E+00  0.00000000000E+00 -0.12869593097E+04  0.27612230336E+04  0.24429671255E+04 0.  0.
        3    1    3    3  502    0 -0.33760654212E+03  0.64453854948E+03 -0.17524244927E+04  0.18974719318E+04  0.10100000352E+00 0. -1.
       -3    1    3    3    0  502  0.33760654212E+03 -0.64453854948E+03  0.46546518301E+03  0.86375110179E+03  0.10100000352E+00 0.  1.
</event>
<event>
 5   0  0.3676724E-05  0.2166753E+04  0.7818609E-02  0.8532395E-01
       -2   -1    0    0    0  501  0.00000000000E+00  0.00000000000E+00  0.52263476946E+03  0.52263476947E+03  0.25500000920E-02 0. -1.
        2   -1    0    0  501    0  0.00000000000E+00  0.00000000000E+00 -0.22457463847E+04  0.22457463847E+04  0.25500000920E-02 0.  1.
    10030    2    1    2    0    0  0.00000000000E+00  0.00000000000E+00 -0.17231116153E+04  0.27683811542E+04  0.21667534646E+04 0.  0.
        4    1    3    3  502    0 -0.98945204960E+03 -0.22457900339E+03 -0.13468196966E+04  0.16862312994E+04  0.12699999809E+01 0.  1.
       -4    1    3    3    0  502  0.98945204960E+03  0.22457900339E+03 -0.37629191870E+03  0.10821498548E+04  0.12699999809E+01 0. -1.
</event>
<event>
 5   0  0.3568647E-05  0.1390130E+04  0.7818609E-02  0.8960994E-01
        2   -1    0    0  501    0  0.00000000000E+00  0.00000000000E+00  0.16662014068E+04  0.16662014068E+04  0.25500000920E-02 0.  1.
       -2   -1    0    0    0  501  0.00000000000E+00  0.00000000000E+00 -0.28995009627E+03  0.28995009628E+03  0.25500000920E-02 0. -1.
    10030    2    1    2    0    0  0.00000000000E+00  0.00000000000E+00  0.13762513105E+04  0.19561515031E+04  0.13901298620E+04 0.  0.
        3    1    3    3  502    0  0.65626704504E+02  0.18553177719E+02  0.16614819066E+04  0.16628810002E+04  0.10100000352E+00 0.  1.
       -3    1    3    3    0  502 -0.65626704504E+02 -0.18553177719E+02 -0.28523059604E+03  0.29327050289E+03  0.10100000352E+00 0. -1.
</event>
<event>
 5   0  0.3652331E-05  0.2609017E+04  0.7818609E-02  0.8365145E-01
        2   -1    0    0  501    0  0.00000000000E+00  0.00000000000E+00  0.21532846130E+04  0.21532846130E+04  0.25500000920E-02 0.  1.
       -2   -1    0    0    0  501  0.00000000000E+00  0.00000000000E+00 -0.79030055437E+03  0.79030055437E+03  0.25500000920E-02 0. -1.
    10030    2    1    2    0    0  0.00000000000E+00  0.00000000000E+00  0.13629840586E+04  0.29435851674E+04  0.26090166909E+04 0.  0.
        1    1    3    3  502    0  0.53578664025E+03  0.80447232396E+03  0.16699054912E+04  0.19294629806E+04  0.50400001928E-02 0.  1.
       -1    1    3    3    0  502 -0.53578664025E+03 -0.80447232396E+03 -0.30692143259E+03  0.10141221868E+04  0.50400001928E-02 0. -1.
</event>
<event>
 5   0  0.1474012E-05  0.2897190E+04  0.7818609E-02  0.8273714E-01
       -1   -1    0    0    0  501  0.00000000000E+00  0.00000000000E+00  0.18744564466E+04  0.18744564466E+04  0.50400001928E-02 0.  1.
        1   -1    0    0  501    0  0.00000000000E+00  0.00000000000E+00 -0.11194855475E+04  0.11194855475E+04  0.50400001928E-02 0. -1.
    10030    2    1    2    0    0  0.00000000000E+00  0.00000000000E+00  0.75497089911E+03  0.29939419941E+04  0.28971896047E+04 0.  0.
        2    1    3    3  502    0 -0.25430033304E+03  0.97649183096E+03 -0.69656074766E+03  0.12261328764E+04  0.25500000920E-02 0. -1.
       -2    1    3    3    0  502  0.25430033304E+03 -0.97649183096E+03  0.14515316468E+04  0.17678091178E+04  0.25500000920E-02 0.  1.
</event>
<event>
 5   0  0.1438701E-05  0.2717569E+04  0.7818609E-02  0.8329327E-01
       -1   -1    0    0    0  501  0.00000000000E+00  0.00000000000E+00  0.17303355547E+04  0.17303355547E+04  0.50400001928E-02 0.  1.
        1   -1    0    0  501    0  0.00000000000E+00  0.00000000000E+00 -0.10670157856E+04  0.10670157856E+04  0.50400001928E-02 0. -1.
    10030    2    1    2    0    0  0.00000000000E+00  0.00000000000E+00  0.66331976913E+03  0.27973513403E+04  0.27175690249E+04 0.  0.
        4    1    3    3  502    0 -0.13498625456E+04  0.53052990016E+02  0.48206675557E+03  0.14343407829E+04  0.12699999809E+01 0.  1.
       -4    1    3    3    0  502  0.13498625456E+04 -0.53052990016E+02  0.18125301356E+03  0.13630105574E+04  0.12699999809E+01 0. -1.
</event>
<event>
 5   0  0.3497949E-05  0.2831078E+04  0.7818609E-02  0.8293684E-01
       -2   -1    0    0    0  501  0.00000000000E+00  0.00000000000E+00  0.11724000228E+04  0.11724000228E+04  0.25500000920E-02 0. -1.
        2   -1    0    0  501    0  0.00000000000E+00  0.00000000000E+00 -0.17091012942E+04  0.17091012942E+04  0.25500000920E-02 0.  1.
    10030    2    1    2    0    0  0.00000000000E+00  0.00000000000E+00 -0.53670127134E+03  0.28815013170E+04  0.28310778133E+04 0.  0.
        5    1    3    3  502    0  0.60949117021E+03 -0.19545424587E+03 -0.15533931715E+04  0.16800994863E+04  0.46999998093E+01 0.  1.
       -5    1    3    3    0  502 -0.60949117021E+03  0.19545424587E+03  0.10166919002E+04  0.12014018306E+04  0.46999998093E+01 0. -1.
</event>
<event>
 5   0  0.1484379E-05  0.2540925E+04  0.7818609E-02  0.8388549E-01
       -1   -1    0    0    0  501  0.00000000000E+00  0.00000000000E+00  0.13918359909E+04  0.13918359909E+04  0.50400001928E-02 0.  1.
        1   -1    0    0  501    0  0.00000000000E+00  0.00000000000E+00 -0.11596734938E+04  0.11596734938E+04  0.50400001928E-02 0. -1.
    10030    2    1    2    0    0  0.00000000000E+00  0.00000000000E+00  0.23216249715E+03  0.25515094847E+04  0.25409252695E+04 0.  0.
        1    1    3    3  502    0  0.87941137106E+03 -0.91650403636E+03  0.14323641814E+03  0.12782255981E+04  0.50400001928E-02 0. -1.
       -1    1    3    3    0  502 -0.87941137106E+03  0.91650403636E+03  0.88926079001E+02  0.12732838866E+04  0.50400001928E-02 0.  1.
</event>
<event>
 5   0  0.1438701E-05  0.2843485E+04  0.7818609E-02  0.8289894E-01
       -1   -1    0    0    0  501  0.00000000000E+00  0.00000000000E+00  0.18692102890E+04  0.18692102890E+04  0.50400001928E-02 0.  1.
        1   -1    0    0  501    0  0.00000000000E+00  0.00000000000E+00 -0.10813930683E+04  0.10813930683E+04  0.50400001928E-02 0. -1.
    10030    2    1    2    0    0  0.00000000000E+00  0.00000000000E+00  0.78781722069E+03  0.29506033573E+04  0.28434845171E+04 0.  0.
        4    1    3    3  502    0  0.66134352454E+03  0.12187607315E+04  0.68078944448E+02  0.13883044816E+04  0.12699999809E+01 0. -1.
       -4    1    3    3    0  502 -0.66134352454E+03 -0.12187607315E+04  0.71973827624E+03  0.15622988758E+04  0.12699999809E+01 0.  1.
</event>
<event>
 5   0  0.1495517E-05  0.2685178E+04  0.7818609E-02  0.8339830E-01
       -1   -1    0    0    0  501  0.00000000000E+00  0.00000000000E+00  0.10029156653E+04  0.10029156653E+04  0.50400001928E-02 0.  1.
        1   -1    0    0  501    0  0.00000000000E+00  0.00000000000E+00 -0.17973053624E+04  0.17973053624E+04  0.50400001928E-02 0. -1.
    10030    2    1    2    0    0  0.00000000000E+00  0.00000000000E+00 -0.79438969712E+03  0.28002210277E+04  0.26851783578E+04 0.  0.
        5    1    3    3  502    0 -0.13699965770E+03  0.67678204283E+03  0.80353471910E+03  0.10594776895E+04  0.46999998093E+01 0.  1.
       -5    1    3    3    0  502  0.13699965770E+03 -0.67678204283E+03 -0.15979244162E+04  0.17407433383E+04  0.46999998093E+01 0. -1.
</event>
<event>
 5   0  0.3676724E-05  0.2776813E+04  0.7818609E-02  0.8310503E-01
        2   -1    0    0  501    0  0.00000000000E+00  0.00000000000E+00  0.19093997335E+04  0.19093997335E+04  0.25500000920E-02 0.  1.
       -2   -1    0    0    0  501  0.00000000000E+00  0.00000000000E+00 -0.10095697837E+04  0.10095697837E+04  0.25500000920E-02 0. -1.
    10030    2    1    2    0    0  0.00000000000E+00  0.00000000000E+00  0.89982994977E+03  0.29189695172E+04  0.27768127600E+04 0.  0.
        4    1    3    3  502    0  0.39398135499E+03  0.40756240549E+03 -0.88238494949E+03  0.10487770184E+04  0.12699999809E+01 0. -1.
       -4    1    3    3    0  502 -0.39398135499E+03 -0.40756240549E+03  0.17822148993E+04  0.18701924988E+04  0.12699999809E+01 0.  1.
</event>
<event>
 5   0  0.1484379E-05  0.2658675E+04  0.7818609E-02  0.8348539E-01
        1   -1    0    0  501    0  0.00000000000E+00  0.00000000000E+00  0.18104596917E+04  0.18104596917E+04  0.50400001928E-02 0. -1.
       -1   -1    0    0    0  501  0.00000000000E+00  0.00000000000E+00 -0.97607182424E+03  0.97607182426E+03  0.50400001928E-02 0.  1.
    10030    2    1    2    0    0  0.00000000000E+00  0.00000000000E+00  0.83438786749E+03  0.27865315160E+04  0.26586753800E+04 0.  0.
        1    1    3    3  502    0 -0.43773709633E+03 -0.92397339761E+03 -0.47324985611E+03  0.11266348261E+04  0.50400001928E-02 0.  1.
       -1    1    3    3    0  502  0.43773709633E+03  0.92397339761E+03  0.13076377236E+04  0.16598966899E+04  0.50400001928E-02 0. -1.
</event>
<event>
 5   0  0.3514294E-05  0.2703794E+04  0.7818609E-02  0.8333775E-01
        2   -1    0    0  501    0  0.00000000000E+00  0.00000000000E+00  0.15282334064E+04  0.15282334065E+04  0.25500000920E-02 0. -1.
       -2   -1    0    0    0  501  0.00000000000E+00  0.00000000000E+00 -0.11959074460E+04  0.11959074460E+04  0.25500000920E-02 0.  1.
    10030    2    1    2    0    0  0.00000000000E+00  0.00000000000E+00  0.33232596042E+03  0.27241408525E+04  0.27037941564E+04 0.  0.
        2    1    3    3  502    0 -0.10982771068E+04  0.77690573717E+03  0.31626922933E+02  0.13456579766E+04  0.25500000920E-02 0.  1.
       -2    1    3    3    0  502  0.10982771068E+04 -0.77690573717E+03  0.30069903749E+03  0.13784828758E+04  0.25500000920E-02 0. -1.
</event>
<event>
 5   0  0.3497949E-05  0.2684695E+04  0.7818609E-02  0.8339988E-01
       -2   -1    0    0    0  501  0.00000000000E+00  0.00000000000E+00  0.96545737543E+03  0.96545737543E+03  0.25500000920E-02 0.  1.
        2   -1    0    0  501    0  0.00000000000E+00  0.00000000000E+00 -0.18663655017E+04  0.18663655017E+04  0.25500000920E-02 0. -1.
    10030    2    1    2    0    0  0.00000000000E+00  0.00000000000E+00 -0.90090812622E+03  0.28318228771E+04  0.26846946484E+04 0.  0.
        5    1    3    3  502    0  0.12260799509E+03  0.13095870861E+04 -0.16776855756E+03  0.13259786708E+04  0.46999998093E+01 0.  1.
       -5    1    3    3    0  502 -0.12260799509E+03 -0.13095870861E+04 -0.73313956867E+03  0.15058442063E+04  0.46999998093E+01 0. -1.
</event>
<event>
 5   0  0.1449521E-05  0.2718473E+04  0.7818609E-02  0.8329036E-01
        1   -1    0    0  501    0  0.00000000000E+00  0.00000000000E+00  0.18380068504E+04  0.18380068504E+04  0.50400001928E-02 0.  1.
       -1   -1    0    0    0  501  0.00000000000E+00  0.00000000000E+00 -0.10051777820E+04  0.10051777820E+04  0.50400001928E-02 0. -1.
    10030    2    1    2    0    0  0.00000000000E+00  0.00000000000E+00  0.83282906840E+03  0.28431846324E+04  0.27184728427E+04 0.  0.
        3    1    3    3  502    0  0.10333316248E+04  0.39223175372E+03 -0.41102030726E+03  0.11792191054E+04  0.10100000352E+00 0. -1.
       -3    1    3    3    0  502 -0.10333316248E+04 -0.39223175372E+03  0.12438493757E+04  0.16639655270E+04  0.10100000352E+00 0.  1.
</event>
<event>
 5   0  0.1495517E-05  0.1543845E+04  0.7818609E-02  0.8855809E-01
        1   -1    0    0  501    0  0.00000000000E+00  0.00000000000E+00  0.78036975304E+03  0.78036975306E+03  0.50400001928E-02 0. -1.
       -1   -1    0    0    0  501  0.00000000000E+00  0.00000000000E+00 -0.76356688782E+03  0.76356688784E+03  0.50400001928E-02 0.  1.
    10030    2    1    2    0    0  0.00000000000E+00  0.00000000000E+00  0.16802865221E+02  0.15439366409E+04  0.15438452043E+04 0.  0.
        5    1    3    3  502    0  0.56600278380E+03  0.48912543716E+03  0.19877964034E+03  0.77404023149E+03  0.46999998093E+01 0. -1.
       -5    1    3    3    0  502 -0.56600278380E+03 -0.48912543716E+03 -0.18197677512E+03  0.76989640941E+03  0.46999998093E+01 0.  1.
</event>
<event>
 5   0  0.3514294E-05  0.2714672E+04  0.7818609E-02  0.8330260E-01
       -2   -1    0    0    0  501  0.00000000000E+00  0.00000000000E+00  0.99623409127E+03  0.99623409127E+03  0.25500000920E-02 0. -1.
        2   -1    0    0  501    0  0.00000000000E+00  0.00000000000E+00 -0.18493255038E+04  0.18493255039E+04  0.25500000920E-02 0.  1.
    10030    2    1    2    0    0  0.00000000000E+00  0.00000000000E+00 -0.85309141258E+03  0.28455595951E+04  0.27146720706E+04 0.  0.
        2    1    3    3  502    0  0.63336552491E+03 -0.11911178714E+04 -0.58359418396E+03  0.14698625253E+04  0.25500000920E-02 0. -1.
       -2    1    3    3    0  502 -0.63336552491E+03  0.11911178714E+04 -0.26949722862E+03  0.13756970698E+04  0.25500000920E-02 0.  1.
</event>
<event>
 5   0  0.1438701E-05  0.2653830E+04  0.7818609E-02  0.8350143E-01
       -1   -1    0    0    0  501  0.00000000000E+00  0.00000000000E+00  0.60660286875E+03  0.60660286877E+03  0.50400001928E-02 0.  1.
        1   -1    0    0  501    0  0.00000000000E+00  0.00000000000E+00 -0.29025632883E+04  0.29025632883E+04  0.50400001928E-02 0. -1.
    10030    2    1    2    0    0  0.00000000000E+00  0.00000000000E+00 -0.22959604196E+04  0.35091661571E+04  0.26538298495E+04 0.  0.
        4    1    3    3  502    0  0.89857596764E+03  0.70521196111E+03 -0.25511851151E+03  0.11704058046E+04  0.12699999809E+01 0.  1.
       -4    1    3    3    0  502 -0.89857596764E+03 -0.70521196111E+03 -0.20408419081E+04  0.23387603525E+04  0.12699999809E+01 0. -1.
</event>
<event>
 5   0  0.3568647E-05  0.2748543E+04  0.7818609E-02  0.8319424E-01
       -2   -1    0    0    0  501  0.00000000000E+00  0.00000000000E+00  0.96330867740E+03  0.96330867740E+03  0.25500000920E-02 0. -1.
        2   -1    0    0  501    0  0.00000000000E+00  0.00000000000E+00 -0.19605574282E+04  0.19605574282E+04  0.25500000920E-02 0.  1.
    10030    2    1    2    0    0  0.00000000000E+00  0.00000000000E+00 -0.99724875082E+03  0.29238661056E+04  0.27485428744E+04 0.  0.
        3    1    3    3  502    0  0.43206444035E+03 -0.68467859244E+03 -0.16799353599E+04  0.18648451087E+04  0.10100000352E+00 0.  1.
       -3    1    3    3    0  502 -0.43206444035E+03  0.68467859244E+03  0.68268660910E+03  0.10590209970E+04  0.10100000352E+00 0. -1.
</event>
<event>
 5   0  0.3497949E-05  0.2289370E+04  0.7818609E-02  0.8482124E-01
        2   -1    0    0  501    0  0.00000000000E+00  0.00000000000E+00  0.18087849603E+04  0.18087849603E+04  0.25500000920E-02 0. -1.
       -2   -1    0    0    0  501  0.00000000000E+00  0.00000000000E+00 -0.72441115359E+03  0.72441115359E+03  0.25500000920E-02 0.  1.
    10030    2    1    2    0    0  0.00000000000E+00  0.00000000000E+00  0.10843738067E+04  0.25331961139E+04  0.22893702188E+04 0.  0.
        5    1    3    3  502    0  0.87211618939E+03  0.73843192358E+03  0.46867678668E+03  0.12351309137E+04  0.46999998093E+01 0. -1.
       -5    1    3    3    0  502 -0.87211618939E+03 -0.73843192358E+03  0.61569702006E+03  0.12980652002E+04  0.46999998093E+01 0.  1.
</event>
<event>
 5   0  0.3652331E-05  0.2685115E+04  0.7818609E-02  0.8339851E-01
        2   -1    0    0  501    0  0.00000000000E+00  0.00000000000E+00  0.12394080343E+04  0.12394080343E+04  0.25500000920E-02 0.  1.
       -2   -1    0    0    0  501  0.00000000000E+00  0.00000000000E+00 -0.14542915215E+04  0.14542915215E+04  0.25500000920E-02 0. -1.
    10030    2    1    2    0    0  0.00000000000E+00  0.00000000000E+00 -0.21488348723E+03  0.26936995558E+04  0.26851149666E+04 0.  0.
        1    1    3    3  502    0 -0.44688290296E+03 -0.80947136062E+03  0.86907280194E+03  0.12689506483E+04  0.50400001928E-02 0.  1.
       -1    1    3    3    0  502  0.44688290296E+03  0.80947136062E+03 -0.10839562892E+04  0.14247489075E+04  0.50400001928E-02 0. -1.
</event>
<event>
 5   0  0.1438701E-05  0.2679743E+04  0.7818609E-02  0.8341608E-01
        1   -1    0    0  501    0  0.00000000000E+00  0.00000000000E+00  0.16304353294E+04  0.16304353294E+04  0.50400001928E-02 0. -1.
       -1   -1    0    0    0  501  0.00000000000E+00  0.00000000000E+00 -0.11010897101E+04  0.11010897101E+04  0.50400001928E-02 0.  1.
    10030    2    1    2    0    0  0.00000000000E+00  0.00000000000E+00  0.52934561924E+03  0.27315250395E+04  0.26797429460E+04 0.  0.
        4    1    3    3  502    0  0.10349107534E+04  0.38407521658E+02 -0.60189521188E+03  0.11978292300E+04  0.12699999809E+01 0.  1.
       -4    1    3    3    0  502 -0.10349107534E+04 -0.38407521658E+02  0.11312408311E+04  0.15336958095E+04  0.12699999809E+01 0. -1.
</event>
<event>
 5   0  0.3652331E-05  0.2644217E+04  0.7818609E-02  0.8353335E-01
        2   -1    0    0  501    0  0.00000000000E+00  0.00000000000E+00  0.12365368011E+04  0.12365368011E+04  0.25500000920E-02 0.  1.
       -2   -1    0    0    0  501  0.00000000000E+00  0.00000000000E+00 -0.14136017282E+04  0.14136017282E+04  0.25500000920E-02 0. -1.
    10030    2    1    2    0    0  0.00000000000E+00  0.00000000000E+00 -0.17706492709E+03  0.26501385294E+04  0.26442167529E+04 0.  0.
        1    1    3    3  502    0 -0.69170089439E+00  0.13047017930E+04  0.12577651411E+03  0.13107505402E+04  0.50400001928E-02 0.  1.
       -1    1    3    3    0  502  0.69170089439E+00 -0.13047017930E+04 -0.30284144120E+03  0.13393879892E+04  0.50400001928E-02 0. -1.
</event>
<event>
 5   0  0.1438701E-05  0.2579598E+04  0.7818609E-02  0.8375164E-01
        1   -1    0    0  501    0  0.00000000000E+00  0.00000000000E+00  0.14503608965E+04  0.14503608965E+04  0.50400001928E-02 0. -1.
       -1   -1    0    0    0  501  0.00000000000E+00  0.00000000000E+00 -0.11470121598E+04  0.11470121598E+04  0.50400001928E-02 0.  1.
    10030    2    1    2    0    0  0.00000000000E+00  0.00000000000E+00  0.30334873670E+03  0.25973730562E+04  0.25795980961E+04 0.  0.
        4    1    3    3  502    0  0.12555155169E+04  0.24463702589E+03 -0.15036685847E+02  0.12792162454E+04  0.12699999809E+01 0.  1.
       -4    1    3    3    0  502 -0.12555155169E+04 -0.24463702589E+03  0.31838542255E+03  0.13181568108E+04  0.12699999809E+01 0. -1.
</event>
<event>
 5   0  0.3676724E-05  0.2675575E+04  0.7818609E-02  0.8342974E-01
        2   -1    0    0  501    0  0.00000000000E+00  0.00000000000E+00  0.26523953031E+04  0.26523953031E+04  0.25500000920E-02 0.  1.
       -2   -1    0    0    0  501  0.00000000000E+00  0.00000000000E+00 -0.67473931989E+03  0.67473931989E+03  0.25500000920E-02 0. -1.
    10030    2    1    2    0    0  0.00000000000E+00  0.00000000000E+00  0.19776559833E+04  0.33271346230E+04  0.26755750058E+04 0.  0.
        4    1    3    3  502    0 -0.41604102135E+03 -0.11104366760E+04  0.17589222426E+04  0.21213129923E+04  0.12699999809E+01 0. -1.
       -4    1    3    3    0  502  0.41604102135E+03  0.11104366760E+04  0.21873374069E+03  0.12058216307E+04  0.12699999809E+01 0.  1.
</event>
<event>
 5   0  0.1484379E-05  0.1812984E+04  0.7818609E-02  0.8699425E-01
        1   -1    0    0  501    0  0.00000000000E+00  0.00000000000E+00  0.15277966924E+04  0.15277966924E+04  0.50400001928E-02 0.  1.
       -1   -1    0    0    0  501  0.00000000000E+00  0.00000000000E+00 -0.53785125580E+03  0.53785125582E+03  0.50400001928E-02 0. -1.
    10030    2    1    2    0    0  0.00000000000E+00  0.00000000000E+00  0.98994543660E+03  0.20656479482E+04  0.18129835848E+04 0.  0.
        1    1    3    3  502    0 -0.24852866675E+02 -0.26762799072E+03  0.14813518967E+04  0.15055383915E+04  0.50400001928E-02 0.  1.
       -1    1    3    3    0  502  0.24852866675E+02  0.26762799072E+03 -0.49140646015E+03  0.56010955669E+03  0.50400001928E-02 0. -1.
</event>
<event>
 5   0  0.3497949E-05  0.2664898E+04  0.7818609E-02  0.8346485E-01
       -2   -1    0    0    0  501  0.00000000000E+00  0.00000000000E+00  0.12546536965E+04  0.12546536965E+04  0.25500000920E-02 0.  1.
        2   -1    0    0  501    0  0.00000000000E+00  0.00000000000E+00 -0.14150679546E+04  0.14150679546E+04  0.25500000920E-02 0. -1.
    10030    2    1    2    0    0  0.00000000000E+00  0.00000000000E+00 -0.16041425806E+03  0.26697216511E+04  0.26648979268E+04 0.  0.
        5    1    3    3  502    0 -0.76863525830E+03 -0.10442059557E+03  0.10051256201E+04  0.12696469679E+04  0.46999998093E+01 0.  1.
       -5    1    3    3    0  502  0.76863525830E+03  0.10442059557E+03 -0.11655398781E+04  0.14000746832E+04  0.46999998093E+01 0. -1.
</event>
<event>
 5   0  0.3497949E-05  0.2659861E+04  0.7818609E-02  0.8348147E-01
        2   -1    0    0  501    0  0.00000000000E+00  0.00000000000E+00  0.12775127601E+04  0.12775127601E+04  0.25500000920E-02 0.  1.
       -2   -1    0    0    0  501  0.00000000000E+00  0.00000000000E+00 -0.13844994753E+04  0.13844994754E+04  0.25500000920E-02 0. -1.
    10030    2    1    2    0    0  0.00000000000E+00  0.00000000000E+00 -0.10698671530E+03  0.26620122354E+04  0.26598614596E+04 0.  0.
        5    1    3    3  502    0  0.13435023185E+03  0.64287064235E+03 -0.12108717206E+04  0.13775213470E+04  0.46999998093E+01 0. -1.
       -5    1    3    3    0  502 -0.13435023185E+03 -0.64287064235E+03  0.11038850053E+04  0.12844908884E+04  0.46999998093E+01 0.  1.
</event>
<event>
 5   0  0.3514294E-05  0.2618662E+04  0.7818609E-02  0.8361890E-01
        2   -1    0    0  501    0  0.00000000000E+00  0.00000000000E+00  0.19678691526E+04  0.19678691526E+04  0.25500000920E-02 0.  1.
       -2   -1    0    0    0  501  0.00000000000E+00  0.00000000000E+00 -0.87116981392E+03  0.87116981393E+03  0.25500000920E-02 0. -1.
    10030    2    1    2    0    0  0.00000000000E+00  0.00000000000E+00  0.10966993386E+04  0.28390389665E+04  0.26186624093E+04 0.  0.
        2    1    3    3  502    0 -0.11682922690E+03  0.51648774164E+03  0.18465964691E+04  0.19210224297E+04  0.25500000920E-02 0.  1.
       -2    1    3    3    0  502  0.11682922690E+03 -0.51648774164E+03 -0.74989713049E+03  0.91801653681E+03  0.25500000920E-02 0. -1.
</event>
<event>
 5   0  0.3514294E-05  0.2706351E+04  0.7818609E-02  0.8332947E-01
       -2   -1    0    0    0  501  0.00000000000E+00  0.00000000000E+00  0.12122136486E+04  0.12122136486E+04  0.25500000920E-02 0. -1.
        2   -1    0    0  501    0  0.00000000000E+00  0.00000000000E+00 -0.15105290207E+04  0.15105290207E+04  0.25500000920E-02 0.  1.
    10030    2    1    2    0    0  0.00000000000E+00  0.00000000000E+00 -0.29831537203E+03  0.27227426693E+04  0.27063509717E+04 0.  0.
        2    1    3    3  502    0 -0.23748700832E+03 -0.10315127072E+04  0.69895791313E+03  0.12684481497E+04  0.25500000920E-02 0. -1.
       -2    1    3    3    0  502  0.23748700832E+03  0.10315127072E+04 -0.99727328515E+03  0.14542945195E+04  0.25500000920E-02 0.  1.
</event>
<event>
 5   0  0.3652331E-05  0.2548883E+04  0.7818609E-02  0.8385775E-01
       -2   -1    0    0    0  501  0.00000000000E+00  0.00000000000E+00  0.10749446432E+04  0.10749446432E+04  0.25500000920E-02 0.  1.
        2   -1    0    0  501    0  0.00000000000E+00  0.00000000000E+00 -0.15109621234E+04  0.15109621234E+04  0.25500000920E-02 0. -1.
    10030    2    1    2    0    0  0.00000000000E+00  0.00000000000E+00 -0.43601748018E+03  0.25859067665E+04  0.25488826105E+04 0.  0.
        1    1    3    3  502    0  0.68646691885E+03 -0.90967379372E+03 -0.79678419204E+03  0.13905424446E+04  0.50400001928E-02 0. -1.
       -1    1    3    3    0  502 -0.68646691885E+03  0.90967379372E+03  0.36076671186E+03  0.11953643219E+04  0.50400001928E-02 0.  1.
</event>
<event>
 5   0  0.1449521E-05  0.2739435E+04  0.7818609E-02  0.8322322E-01
        1   -1    0    0  501    0  0.00000000000E+00  0.00000000000E+00  0.21012543528E+04  0.21012543528E+04  0.50400001928E-02 0.  1.
       -1   -1    0    0    0  501  0.00000000000E+00  0.00000000000E+00 -0.89286024381E+03  0.89286024383E+03  0.50400001928E-02 0. -1.
    10030    2    1    2    0    0  0.00000000000E+00  0.00000000000E+00  0.12083941090E+04  0.29941145967E+04  0.27394353242E+04 0.  0.
        3    1    3    3  502    0  0.10298408256E+04 -0.71658170547E+03  0.12048969662E+04  0.17394936551E+04  0.10100000352E+00 0.  1.
       -3    1    3    3    0  502 -0.10298408256E+04  0.71658170547E+03  0.34971428196E+01  0.12546209416E+04  0.10100000352E+00 0. -1.
</event>
<event>
 5   0  0.1449521E-05  0.1738184E+04  0.7818609E-02  0.8739882E-01
       -1   -1    0    0    0  501  0.00000000000E+00  0.00000000000E+00  0.63660667364E+03  0.63660667366E+03  0.50400001928E-02 0.  1.
        1   -1    0    0  501    0  0.00000000000E+00  0.00000000000E+00 -0.11864792181E+04  0.11864792181E+04  0.50400001928E-02 0. -1.
    10030    2    1    2    0    0  0.00000000000E+00  0.00000000000E+00 -0.54987254443E+03  0.18230858917E+04  0.17381836363E+04 0.  0.
        3    1    3    3  502    0  0.85922093902E+03  0.12639528685E+03 -0.30947160876E+03  0.92195936863E+03  0.10100000352E+00 0.  1.
       -3    1    3    3    0  502 -0.85922093902E+03 -0.12639528685E+03 -0.24040093567E+03  0.90112652311E+03  0.10100000352E+00 0. -1.
</event>
<event>
 5   0  0.1228050E-05  0.1531549E+04  0.7818609E-02  0.8863740E-01
        3   -1    0    0  501    0  0.00000000000E+00  0.00000000000E+00  0.77887173276E+03  0.77887173931E+03  0.10100000352E+00 0.  1.
       -3   -1    0    0    0  501  0.00000000000E+00  0.00000000000E+00 -0.75289776542E+03  0.75289777220E+03  0.10100000352E+00 0. -1.
    10030    2    1    2    0    0  0.00000000000E+00  0.00000000000E+00  0.25973967341E+02  0.15317695115E+04  0.15315492775E+04 0.  0.
        5    1    3    3  502    0  0.52080926237E+03  0.54410185295E+03  0.15120813462E+03  0.76822854941E+03  0.46999998093E+01 0.  1.
       -5    1    3    3    0  502 -0.52080926237E+03 -0.54410185295E+03 -0.12523416728E+03  0.76354096210E+03  0.46999998093E+01 0. -1.
</event>
<event>
 5   0  0.3568647E-05  0.2373792E+04  0.7818609E-02  0.8449381E-01
        2   -1    0    0  501    0  0.00000000000E+00  0.00000000000E+00  0.17066840285E+04  0.17066840285E+04  0.25500000920E-02 0.  1.
       -2   -1    0    0    0  501  0.00000000000E+00  0.00000000000E+00 -0.82541457534E+03  0.82541457534E+03  0.25500000920E-02 0. -1.
    10030    2    1    2    0    0  0.00000000000E+00  0.00000000000E+00  0.88126945315E+03  0.25320986038E+04  0.23737917959E+04 0.  0.
        3    1    3    3  502    0 -0.41187452714E+03 -0.10758270265E+04  0.74548673624E+03  0.13721497371E+04  0.10100000352E+00 0.  1.
       -3    1    3    3    0  502  0.41187452714E+03  0.10758270265E+04  0.13578271691E+03  0.11599488667E+04  0.10100000352E+00 0. -1.
</event>
<event>
 5   0  0.1484379E-05  0.2761124E+04  0.7818609E-02  0.8315440E-01
       -1   -1    0    0    0  501  0.00000000000E+00  0.00000000000E+00  0.87358521571E+03  0.87358521573E+03  0.50400001928E-02 0.  1.
        1   -1    0    0  501    0  0.00000000000E+00  0.00000000000E+00 -0.21817577522E+04  0.21817577522E+04  0.50400001928E-02 0. -1.
    10030    2    1    2    0    0  0.00000000000E+00  0.00000000000E+00 -0.13081725365E+04  0.30553429680E+04  0.27611239137E+04 0.  0.
        1    1    3    3  502    0  0.83153711993E+03 -0.92172546017E+03 -0.13225419398E+04  0.18138767842E+04  0.50400001928E-02 0.  1.
       -1    1    3    3    0  502 -0.83153711993E+03  0.92172546017E+03  0.14369403228E+02  0.12414661838E+04  0.50400001928E-02 0. -1.
</event>
<event>
 5   0  0.3514294E-05  0.2325403E+04  0.7818609E-02  0.8467972E-01
       -2   -1    0    0    0  501  0.00000000000E+00  0.00000000000E+00  0.11002566220E+04  0.11002566220E+04  0.25500000920E-02 0.  1.
        2   -1    0    0  501    0  0.00000000000E+00  0.00000000000E+00 -0.12286906746E+04  0.12286906746E+04  0.25500000920E-02 0. -1.
    10030    2    1    2    0    0  0.00000000000E+00  0.00000000000E+00 -0.12843405260E+03  0.23289472966E+04  0.23254032348E+04 0.  0.
        2    1    3    3  502    0 -0.65546117889E+03 -0.14925431470E+03 -0.10143297318E+04  0.12168693489E+04  0.25500000920E-02 0. -1.
       -2    1    3    3    0  502  0.65546117889E+03  0.14925431470E+03  0.88589567915E+03  0.11120779477E+04  0.25500000920E-02 0.  1.
</event>
<event>
 5   0  0.1438701E-05  0.2542748E+04  0.7818609E-02  0.8387913E-01
        1   -1    0    0  501    0  0.00000000000E+00  0.00000000000E+00  0.31885882014E+04  0.31885882014E+04  0.50400001928E-02 0.  1.
       -1   -1    0    0    0  501  0.00000000000E+00  0.00000000000E+00 -0.50693019852E+03  0.50693019855E+03  0.50400001928E-02 0. -1.
    10030    2    1    2    0    0  0.00000000000E+00  0.00000000000E+00  0.26816580029E+04  0.36955183999E+04  0.25427478443E+04 0.  0.
        4    1    3    3  502    0  0.52719118208E+03  0.56251419031E+03  0.28101119651E+04  0.29139464007E+04  0.12699999809E+01 0.  1.
       -4    1    3    3    0  502 -0.52719118208E+03 -0.56251419031E+03 -0.12845396220E+03  0.78157199928E+03  0.12699999809E+01 0. -1.
</event>
<event>
 5   0  0.1484379E-05  0.2699674E+04  0.7818609E-02  0.8335111E-01
       -1   -1    0    0    0  501  0.00000000000E+00  0.00000000000E+00  0.12831767941E+04  0.12831767941E+04  0.50400001928E-02 0. -1.
        1   -1    0    0  501    0  0.00000000000E+00  0.00000000000E+00 -0.14199606028E+04  0.14199606028E+04  0.50400001928E-02 0.  1.
    10030    2    1    2    0    0  0.00000000000E+00  0.00000000000E+00 -0.13678380867E+03  0.27031373969E+04  0.26996744204E+04 0.  0.
        1    1    3    3  502    0 -0.13035699835E+03  0.13422138994E+04 -0.12787682413E+03  0.13545787467E+04  0.50400001928E-02 0. -1.
       -1    1    3    3    0  502  0.13035699835E+03 -0.13422138994E+04 -0.89069845386E+01  0.13485586502E+04  0.50400001928E-02 0.  1.
</event>
<event>
 5   0  0.1474012E-05  0.2960499E+04  0.7818609E-02  0.8255101E-01
       -1   -1    0    0    0  501  0.00000000000E+00  0.00000000000E+00  0.15112247185E+04  0.15112247186E+04  0.50400001928E-02 0. -1.
        1   -1    0    0  501    0  0.00000000000E+00  0.00000000000E+00 -0.14499094341E+04  0.14499094341E+04  0.50400001928E-02 0.  1.
    10030    2    1    2    0    0  0.00000000000E+00  0.00000000000E+00  0.61315284425E+02  0.29611341527E+04  0.29604992664E+04 0.  0.
        2    1    3    3  502    0  0.79707131234E+03  0.12463363451E+04 -0.18971689577E+02  0.14795394172E+04  0.25500000920E-02 0.  1.
       -2    1    3    3    0  502 -0.79707131234E+03 -0.12463363451E+04  0.80286974001E+02  0.14815947355E+04  0.25500000920E-02 0. -1.
</event>
<event>
 5   0  0.1449521E-05  0.2633716E+04  0.7818609E-02  0.8356838E-01
        1   -1    0    0  501    0  0.00000000000E+00  0.00000000000E+00  0.10986914205E+04  0.10986914205E+04  0.50400001928E-02 0. -1.
       -1   -1    0    0    0  501  0.00000000000E+00  0.00000000000E+00 -0.15783459656E+04  0.15783459656E+04  0.50400001928E-02 0.  1.
    10030    2    1    2    0    0  0.00000000000E+00  0.00000000000E+00 -0.47965454508E+03  0.26770373861E+04  0.26337161358E+04 0.  0.
        3    1    3    3  502    0  0.44351053288E+03  0.51609737754E+02  0.10194004992E+04  0.11128982639E+04  0.10100000352E+00 0. -1.
       -3    1    3    3    0  502 -0.44351053288E+03 -0.51609737754E+02 -0.14990550443E+04  0.15641391222E+04  0.10100000352E+00 0.  1.
</event>
<event>
 5   0  0.3676724E-05  0.2615729E+04  0.7818609E-02  0.8362878E-01
        2   -1    0    0  501    0  0.00000000000E+00  0.00000000000E+00  0.15343449656E+04  0.15343449656E+04  0.25500000920E-02 0. -1.
       -2   -1    0    0    0  501  0.00000000000E+00  0.00000000000E+00 -0.11148139356E+04  0.11148139356E+04  0.25500000920E-02 0.  1.
    10030    2    1    2    0    0  0.00000000000E+00  0.00000000000E+00  0.41953102998E+03  0.26491589012E+04  0.26157286936E+04 0.  0.
        4    1    3    3  502    0 -0.62756944031E+03 -0.60924173750E+03 -0.77502412207E+03  0.11686243622E+04  0.12699999809E+01 0.  1.
       -4    1    3    3    0  502  0.62756944031E+03  0.60924173750E+03  0.11945551521E+04  0.14805345391E+04  0.12699999809E+01 0. -1.
</event>
<event>
 5   0  0.3676724E-05  0.2671169E+04  0.7818609E-02  0.8344421E-01
       -2   -1    0    0    0  501  0.00000000000E+00  0.00000000000E+00  0.74365096814E+03  0.74365096814E+03  0.25500000920E-02 0. -1.
        2   -1    0    0  501    0  0.00000000000E+00  0.00000000000E+00 -0.23986867869E+04  0.23986867869E+04  0.25500000920E-02 0.  1.
    10030    2    1    2    0    0  0.00000000000E+00  0.00000000000E+00 -0.16550358188E+04  0.31423377550E+04  0.26711688463E+04 0.  0.
        4    1    3    3  502    0  0.86947375704E+02 -0.38306178925E+03  0.67416106551E+03  0.78025055955E+03  0.12699999809E+01 0. -1.
       -4    1    3    3    0  502 -0.86947375704E+02  0.38306178925E+03 -0.23291968843E+04  0.23620871955E+04  0.12699999809E+01 0.  1.
</event>
<event>
 5   0  0.1474012E-05  0.2628199E+04  0.7818609E-02  0.8358685E-01
       -1   -1    0    0    0  501  0.00000000000E+00  0.00000000000E+00  0.11060644308E+04  0.11060644308E+04  0.50400001928E-02 0. -1.
        1   -1    0    0  501    0  0.00000000000E+00  0.00000000000E+00 -0.15612625011E+04  0.15612625012E+04  0.50400001928E-02 0.  1.
    10030    2    1    2    0    0  0.00000000000E+00  0.00000000000E+00 -0.45519807034E+03  0.26673269320E+04  0.26281985615E+04 0.  0.
        2    1    3    3  502    0  0.35332347042E+03 -0.12189828680E+04 -0.57340667504E+03  0.13926779679E+04  0.25500000920E-02 0. -1.
       -2    1    3    3    0  502 -0.35332347042E+03  0.12189828680E+04  0.11820860469E+03  0.12746489641E+04  0.25500000920E-02 0.  1.
</event>
<event>
 5   0  0.3676724E-05  0.2714634E+04  0.7818609E-02  0.8330272E-01
        2   -1    0    0  501    0  0.00000000000E+00  0.00000000000E+00  0.20219765362E+04  0.20219765362E+04  0.25500000920E-02 0.  1.
       -2   -1    0    0    0  501  0.00000000000E+00  0.00000000000E+00 -0.91114305689E+03  0.91114305690E+03  0.25500000920E-02 0. -1.
    10030    2    1    2    0    0  0.00000000000E+00  0.00000000000E+00  0.11108334793E+04  0.29331195931E+04  0.27146343269E+04 0.  0.
        4    1    3    3  502    0  0.75125823025E+03  0.11270596963E+04  0.46087725960E+03  0.14307557265E+04  0.12699999809E+01 0. -1.
       -4    1    3    3    0  502 -0.75125823025E+03 -0.11270596963E+04  0.64995621974E+03  0.15023638667E+04  0.12699999809E+01 0.  1.
</event>
<event>
 5   0  0.3652331E-05  0.2552705E+04  0.7818609E-02  0.8384446E-01
        2   -1    0    0  501    0  0.00000000000E+00  0.00000000000E+00  0.21189669886E+04  0.21189669886E+04  0.25500000920E-02 0. -1.
       -2   -1    0    0    0  501  0.00000000000E+00  0.00000000000E+00 -0.76880684009E+03  0.76880684010E+03  0.25500000920E-02 0.  1.
    10030    2    1    2    0    0  0.00000000000E+00  0.00000000000E+00  0.13501601485E+04  0.28877738287E+04  0.25527054784E+04 0.  0.
        1    1    3    3  502    0  0.61150326230E+03  0.11203262039E+04  0.67163541152E+03  0.14422763844E+04  0.50400001928E-02 0. -1.
       -1    1    3    3    0  502 -0.61150326230E+03 -0.11203262039E+04  0.67852473703E+03  0.14454974444E+04  0.50400001928E-02 0.  1.
</event>
<event>
 5   0  0.3676724E-05  0.2549088E+04  0.7818609E-02  0.8385703E-01
       -2   -1    0    0    0  501  0.00000000000E+00  0.00000000000E+00  0.12450011506E+04  0.12450011506E+04  0.25500000920E-02 0.  1.
        2   -1    0    0  501    0  0.00000000000E+00  0.00000000000E+00 -0.13047881418E+04  0.13047881418E+04  0.25500000920E-02 0. -1.
    10030    2    1    2    0    0  0.00000000000E+00  0.00000000000E+00 -0.59786991154E+02  0.25497892924E+04  0.25490882589E+04 0.  0.
        4    1    3    3  502    0  0.63339328911E+03  0.11655817926E+03  0.10702672698E+04  0.12490982786E+04  0.12699999809E+01 0.  1.
       -4    1    3    3    0  502 -0.63339328911E+03 -0.11655817926E+03 -0.11300542610E+04  0.13006910138E+04  0.12699999809E+01 0. -1.
</event>
<event>
 5   0  0.1449521E-05  0.2810850E+04  0.7818609E-02  0.8299908E-01
       -1   -1    0    0    0  501  0.00000000000E+00  0.00000000000E+00  0.12447421750E+04  0.12447421750E+04  0.50400001928E-02 0.  1.
        1   -1    0    0  501    0  0.00000000000E+00  0.00000000000E+00 -0.15868502796E+04  0.15868502796E+04  0.50400001928E-02 0. -1.
    10030    2    1    2    0    0  0.00000000000E+00  0.00000000000E+00 -0.34210810461E+03  0.28315924546E+04  0.28108500268E+04 0.  0.
        3    1    3    3  502    0  0.31230225732E+03  0.13336217440E+04  0.14613420158E+03  0.13774740909E+04  0.10100000352E+00 0.  1.
       -3    1    3    3    0  502 -0.31230225732E+03 -0.13336217440E+04 -0.48824230619E+03  0.14541183637E+04  0.10100000352E+00 0. -1.
</event>
<event>
 5   0  0.3497949E-05  0.2724769E+04  0.7818609E-02  0.8327013E-01
        2   -1    0    0  501    0  0.00000000000E+00  0.00000000000E+00  0.18584862405E+04  0.18584862405E+04  0.25500000920E-02 0.  1.
       -2   -1    0    0    0  501  0.00000000000E+00  0.00000000000E+00 -0.99871137375E+03  0.99871137375E+03  0.25500000920E-02 0. -1.
    10030    2    1    2    0    0  0.00000000000E+00  0.00000000000E+00  0.85977486672E+03  0.28571976142E+04  0.27247688682E+04 0.  0.
        5    1    3    3  502    0  0.12658361225E+04 -0.12011673189E+03  0.94284576088E+03  0.15829558860E+04  0.46999998093E+01 0.  1.
       -5    1    3    3    0  502 -0.12658361225E+04  0.12011673189E+03 -0.83070894159E+02  0.12742417282E+04  0.46999998093E+01 0. -1.
</event>
<event>
 5   0  0.1449521E-05  0.2693135E+04  0.7818609E-02  0.8337236E-01
        1   -1    0    0  501    0  0.00000000000E+00  0.00000000000E+00  0.11177887477E+04  0.11177887477E+04  0.50400001928E-02 0.  1.
       -1   -1    0    0    0  501  0.00000000000E+00  0.00000000000E+00 -0.16221702489E+04  0.16221702489E+04  0.50400001928E-02 0. -1.
    10030    2    1    2    0    0  0.00000000000E+00  0.00000000000E+00 -0.50438150113E+03  0.27399589966E+04  0.26931347171E+04 0.  0.
        3    1    3    3  502    0  0.30789623518E+03 -0.48044598798E+03  0.98869354757E+03  0.11415530562E+04  0.10100000352E+00 0.  1.
       -3    1    3    3    0  502 -0.30789623518E+03  0.48044598798E+03 -0.14930750487E+04  0.15984059404E+04  0.10100000352E+00 0. -1.
</event>
<event>
 5   0  0.1449521E-05  0.2691833E+04  0.7818609E-02  0.8337660E-01
       -1   -1    0    0    0  501  0.00000000000E+00  0.00000000000E+00  0.10990467396E+04  0.10990467396E+04  0.50400001928E-02 0.  1.
        1   -1    0    0  501    0  0.00000000000E+00  0.00000000000E+00 -0.16482385787E+04  0.16482385787E+04  0.50400001928E-02 0. -1.
    10030    2    1    2    0    0  0.00000000000E+00  0.00000000000E+00 -0.54919183914E+03  0.27472853183E+04  0.26918330082E+04 0.  0.
        3    1    3    3  502    0 -0.13429953226E+04  0.88620320520E+02 -0.27572696329E+03  0.13738687587E+04  0.10100000352E+00 0. -1.
       -3    1    3    3    0  502  0.13429953226E+04 -0.88620320520E+02 -0.27346487585E+03  0.13734165596E+04  0.10100000352E+00 0.  1.
</event>
<event>
 5   0  0.3568647E-05  0.2732428E+04  0.7818609E-02  0.8324559E-01
        2   -1    0    0  501    0  0.00000000000E+00  0.00000000000E+00  0.15893394897E+04  0.15893394897E+04  0.25500000920E-02 0.  1.
       -2   -1    0    0    0  501  0.00000000000E+00  0.00000000000E+00 -0.11744129241E+04  0.11744129241E+04  0.25500000920E-02 0. -1.
    10030    2    1    2    0    0  0.00000000000E+00  0.00000000000E+00  0.41492656555E+03  0.27637524138E+04  0.27324281052E+04 0.  0.
        3    1    3    3  502    0 -0.10150749435E+04  0.51787083699E+02  0.11308815201E+04  0.15205104622E+04  0.10100000352E+00 0.  1.
       -3    1    3    3    0  502  0.10150749435E+04 -0.51787083699E+02 -0.71595495458E+03  0.12432419516E+04  0.10100000352E+00 0. -1.
</event>
<event>
 5   0  0.1484379E-05  0.2694082E+04  0.7818609E-02  0.8336928E-01
       -1   -1    0    0    0  501  0.00000000000E+00  0.00000000000E+00  0.12150617175E+04  0.12150617175E+04  0.50400001928E-02 0.  1.
        1   -1    0    0  501    0  0.00000000000E+00  0.00000000000E+00 -0.14933553901E+04  0.14933553901E+04  0.50400001928E-02 0. -1.
    10030    2    1    2    0    0  0.00000000000E+00  0.00000000000E+00 -0.27829367260E+03  0.27084171076E+04  0.26940816358E+04 0.  0.
        1    1    3    3  502    0  0.12929539094E+04 -0.20653444539E+03  0.17897443413E+03  0.13215211452E+04  0.50400001928E-02 0. -1.
       -1    1    3    3    0  502 -0.12929539094E+04  0.20653444539E+03 -0.45726810672E+03  0.13868959624E+04  0.50400001928E-02 0.  1.
</event>
<event>
 5   0  0.1438701E-05  0.2773525E+04  0.7818609E-02  0.8311535E-01
        1   -1    0    0  501    0  0.00000000000E+00  0.00000000000E+00  0.16093630211E+04  0.16093630211E+04  0.50400001928E-02 0.  1.
       -1   -1    0    0    0  501  0.00000000000E+00  0.00000000000E+00 -0.11949515257E+04  0.11949515257E+04  0.50400001928E-02 0. -1.
    10030    2    1    2    0    0  0.00000000000E+00  0.00000000000E+00  0.41441149544E+03  0.28043145468E+04  0.27735254082E+04 0.  0.
        4    1    3    3  502    0 -0.11533415968E+04  0.57025902536E+03 -0.31595185674E+03  0.13248469284E+04  0.12699999809E+01 0. -1.
       -4    1    3    3    0  502  0.11533415968E+04 -0.57025902536E+03  0.73036335217E+03  0.14794676184E+04  0.12699999809E+01 0.  1.
</event>
<event>
 5   0  0.1495517E-05  0.2745909E+04  0.7818609E-02  0.8320261E-01
        1   -1    0    0  501    0  0.00000000000E+00  0.00000000000E+00  0.14393460500E+04  0.14393460500E+04  0.50400001928E-02 0.  1.
       -1   -1    0    0    0  501  0.00000000000E+00  0.00000000000E+00 -0.13096251932E+04  0.13096251932E+04  0.50400001928E-02 0. -1.
    10030    2    1    2    0    0  0.00000000000E+00  0.00000000000E+00  0.12972085681E+03  0.27489712432E+04  0.27459088468E+04 0.  0.
        5    1    3    3  502    0  0.10364704057E+04 -0.53162677146E+03 -0.66264379066E+03  0.13401555169E+04  0.46999998093E+01 0. -1.
       -5    1    3    3    0  502 -0.10364704057E+04  0.53162677146E+03  0.79236464747E+03  0.14088157263E+04  0.46999998093E+01 0.  1.
</event>
<event>
 5   0  0.1438701E-05  0.2731260E+04  0.7818609E-02  0.8324933E-01
       -1   -1    0    0    0  501  0.00000000000E+00  0.00000000000E+00  0.15654394368E+04  0.15654394368E+04  0.50400001928E-02 0. -1.
        1   -1    0    0  501    0  0.00000000000E+00  0.00000000000E+00 -0.11913235889E+04  0.11913235889E+04  0.50400001928E-02 0.  1.
    10030    2    1    2    0    0  0.00000000000E+00  0.00000000000E+00  0.37411584788E+03  0.27567630257E+04  0.27312597299E+04 0.  0.
        4    1    3    3  502    0  0.26581113878E+03 -0.44689402606E+03 -0.10874974332E+04  0.12054136684E+04  0.12699999809E+01 0.  1.
       -4    1    3    3    0  502 -0.26581113878E+03  0.44689402606E+03  0.14616132810E+04  0.15513493572E+04  0.12699999809E+01 0. -1.
</event>
<event>
 5   0  0.1484379E-05  0.2621780E+04  0.7818609E-02  0.8360841E-01
       -1   -1    0    0    0  501  0.00000000000E+00  0.00000000000E+00  0.12669257915E+04  0.12669257915E+04  0.50400001928E-02 0. -1.
        1   -1    0    0  501    0  0.00000000000E+00  0.00000000000E+00 -0.13563794716E+04  0.13563794716E+04  0.50400001928E-02 0.  1.
    10030    2    1    2    0    0  0.00000000000E+00  0.00000000000E+00 -0.89453680076E+02  0.26233052631E+04  0.26217796518E+04 0.  0.
        1    1    3    3  502    0 -0.94020481489E+03 -0.57720705005E+03  0.66369578842E+03  0.12874956979E+04  0.50400001928E-02 0. -1.
       -1    1    3    3    0  502  0.94020481489E+03  0.57720705005E+03 -0.75314946850E+03  0.13358095652E+04  0.50400001928E-02 0.  1.
</event>
<event>
 5   0  0.3676724E-05  0.2781740E+04  0.7818609E-02  0.8308960E-01
       -2   -1    0    0    0  501  0.00000000000E+00  0.00000000000E+00  0.12845542795E+04  0.12845542795E+04  0.25500000920E-02 0.  1.
        2   -1    0    0  501    0  0.00000000000E+00  0.00000000000E+00 -0.15059851669E+04  0.15059851669E+04  0.25500000920E-02 0. -1.
    10030    2    1    2    0    0  0.00000000000E+00  0.00000000000E+00 -0.22143088739E+03  0.27905394464E+04  0.27817402402E+04 0.  0.
        4    1    3    3  502    0  0.35531130644E+03 -0.67189643709E+02 -0.14580041478E+04  0.15021778458E+04  0.12699999809E+01 0. -1.
       -4    1    3    3    0  502 -0.35531130644E+03  0.67189643709E+02  0.12365732604E+04  0.12883616006E+04  0.12699999809E+01 0.  1.
</event>
<event>
 5   0  0.1438701E-05  0.2763085E+04  0.7818609E-02  0.8314821E-01
        1   -1    0    0  501    0  0.00000000000E+00  0.00000000000E+00  0.12058317239E+04  0.12058317239E+04  0.50400001928E-02 0.  1.
       -1   -1    0    0    0  501  0.00000000000E+00  0.00000000000E+00 -0.15828576106E+04  0.15828576106E+04  0.50400001928E-02 0. -1.
    10030    2    1    2    0    0  0.00000000000E+00  0.00000000000E+00 -0.37702588666E+03  0.27886893345E+04  0.27630851751E+04 0.  0.
        4    1    3    3  502    0  0.42002145342E+03  0.41398409699E+03  0.10724069147E+04  0.12238705231E+04  0.12699999809E+01 0.  1.
       -4    1    3    3    0  502 -0.42002145342E+03 -0.41398409699E+03 -0.14494328013E+04  0.15648188113E+04  0.12699999809E+01 0. -1.
</event>
<event>
 5   0  0.1484379E-05  0.2583304E+04  0.7818609E-02  0.8373895E-01
       -1   -1    0    0    0  501  0.00000000000E+00  0.00000000000E+00  0.14876180190E+04  0.14876180190E+04  0.50400001928E-02 0.  1.
        1   -1    0    0  501    0  0.00000000000E+00  0.00000000000E+00 -0.11215009543E+04  0.11215009543E+04  0.50400001928E-02 0. -1.
    10030    2    1    2    0    0  0.00000000000E+00  0.00000000000E+00  0.36611706474E+03  0.26091189734E+04  0.25833041075E+04 0.  0.
        1    1    3    3  502    0  0.43425307571E+03  0.11777640035E+04 -0.12438645529E+03  0.12614181591E+04  0.50400001928E-02 0. -1.
       -1    1    3    3    0  502 -0.43425307571E+03 -0.11777640035E+04  0.49050352003E+03  0.13477008143E+04  0.50400001928E-02 0.  1.
</event>
<event>
 5   0  0.1449521E-05  0.2673603E+04  0.7818609E-02  0.8343621E-01
       -1   -1    0    0    0  501  0.00000000000E+00  0.00000000000E+00  0.97303897359E+03  0.97303897361E+03  0.50400001928E-02 0. -1.
        1   -1    0    0  501    0  0.00000000000E+00  0.00000000000E+00 -0.18365536561E+04  0.18365536561E+04  0.50400001928E-02 0.  1.
    10030    2    1    2    0    0  0.00000000000E+00  0.00000000000E+00 -0.86351468249E+03  0.28095926297E+04  0.26736030255E+04 0.  0.
        3    1    3    3  502    0  0.49939824269E+03  0.68607819256E+03  0.65370733128E+03  0.10711840067E+04  0.10100000352E+00 0. -1.
       -3    1    3    3    0  502 -0.49939824269E+03 -0.68607819256E+03 -0.15172220138E+04  0.17384086230E+04  0.10100000352E+00 0.  1.
</event>
<event>
 5   0  0.1449521E-05  0.2084761E+04  0.7818609E-02  0.8567986E-01
        1   -1    0    0  501    0  0.00000000000E+00  0.00000000000E+00  0.12072402696E+04  0.12072402696E+04  0.50400001928E-02 0. -1.
       -1   -1    0    0    0  501  0.00000000000E+00  0.00000000000E+00 -0.90003347050E+03  0.90003347051E+03  0.50400001928E-02 0.  1.
    10030    2    1    2    0    0  0.00000000000E+00  0.00000000000E+00  0.30720679914E+03  0.21072737402E+04  0.20847605614E+04 0.  0.
        3    1    3    3  502    0 -0.77444727354E+03  0.58049606700E+03 -0.23763242809E+03  0.99660094540E+03  0.10100000352E+00 0.  1.
       -3    1    3    3    0  502  0.77444727354E+03 -0.58049606700E+03  0.54483922723E+03  0.11106727948E+04  0.10100000352E+00 0. -1.
</event>
<event>
 5   0  0.3676724E-05  0.1454304E+04  0.7818609E-02  0.8915422E-01
        2   -1    0    0  501    0  0.00000000000E+00  0.00000000000E+00  0.12524104793E+04  0.12524104794E+04  0.25500000920E-02 0.  1.
       -2   -1    0    0    0  501  0.00000000000E+00  0.00000000000E+00 -0.42218563938E+03  0.42218563939E+03  0.25500000920E-02 0. -1.
    10030    2    1    2    0    0  0.00000000000E+00  0.00000000000E+00  0.83022483997E+03  0.16745961187E+04  0.14543035708E+04 0.  0.
        4    1    3    3  502    0 -0.50497848639E+03 -0.24371433454E+03 -0.11799519640E+03  0.57299601033E+03  0.12699999809E+01 0. -1.
       -4    1    3    3    0  502  0.50497848639E+03  0.24371433454E+03  0.94822003637E+03  0.11016001084E+04  0.12699999809E+01 0.  1.
</event>
<event>
 5   0  0.1474012E-05  0.2495132E+04  0.7818609E-02  0.8404722E-01
       -1   -1    0    0    0  501  0.00000000000E+00  0.00000000000E+00  0.85613643890E+03  0.85613643892E+03  0.50400001928E-02 0. -1.
        1   -1    0    0  501    0  0.00000000000E+00  0.00000000000E+00 -0.18179587713E+04  0.18179587713E+04  0.50400001928E-02 0.  1.
    10030    2    1    2    0    0  0.00000000000E+00  0.00000000000E+00 -0.96182233243E+03  0.26740952103E+04  0.24951318591E+04 0.  0.
        2    1    3    3  502    0 -0.42405056174E+03  0.32879618600E+03  0.72614570819E+03  0.90289168806E+03  0.25500000920E-02 0. -1.
       -2    1    3    3    0  502  0.42405056174E+03 -0.32879618600E+03 -0.16879680406E+04  0.17712035222E+04  0.25500000920E-02 0.  1.
</event>
<event>
 5   0  0.1438701E-05  0.2629938E+04  0.7818609E-02  0.8358103E-01
        1   -1    0    0  501    0  0.00000000000E+00  0.00000000000E+00  0.15241057971E+04  0.15241057971E+04  0.50400001928E-02 0.  1.
       -1   -1    0    0    0  501  0.00000000000E+00  0.00000000000E+00 -0.11345297455E+04  0.11345297455E+04  0.50400001928E-02 0. -1.
    10030    2    1    2    0    0  0.00000000000E+00  0.00000000000E+00  0.38957605158E+03  0.26586355426E+04  0.26299379172E+04 0.  0.
        4    1    3    3  502    0  0.53941391186E+02 -0.11364303604E+04 -0.47176876395E+03  0.12316456541E+04  0.12699999809E+01 0. -1.
       -4    1    3    3    0  502 -0.53941391186E+02  0.11364303604E+04  0.86134481553E+03  0.14269898885E+04  0.12699999809E+01 0.  1.
</event>
<event>
 5   0  0.3676724E-05  0.1391393E+04  0.7818609E-02  0.8960072E-01
        2   -1    0    0  501    0  0.00000000000E+00  0.00000000000E+00  0.15828240401E+04  0.15828240401E+04  0.25500000920E-02 0. -1.
       -2   -1    0    0    0  501  0.00000000000E+00  0.00000000000E+00 -0.30577862376E+03  0.30577862377E+03  0.25500000920E-02 0.  1.
    10030    2    1    2    0    0  0.00000000000E+00  0.00000000000E+00  0.12770454163E+04  0.18886026639E+04  0.13913931962E+04 0.  0.
        4    1    3    3  502    0 -0.11219781310E+03 -0.18718064419E+03  0.15351599482E+04  0.15505942804E+04  0.12699999809E+01 0. -1.
       -4    1    3    3    0  502  0.11219781310E+03  0.18718064419E+03 -0.25811453189E+03  0.33800838347E+03  0.12699999809E+01 0.  1.
</event>
<event>
 5   0  0.3497949E-05  0.2657002E+04  0.7818609E-02  0.8349093E-01
       -2   -1    0    0    0  501  0.00000000000E+00  0.00000000000E+00  0.85600424632E+03  0.85600424632E+03  0.25500000920E-02 0. -1.
        2   -1    0    0  501    0  0.00000000000E+00  0.00000000000E+00 -0.20618055698E+04  0.20618055698E+04  0.25500000920E-02 0.  1.
    10030    2    1    2    0    0  0.00000000000E+00  0.00000000000E+00 -0.12058013235E+04  0.29178098162E+04  0.26570015603E+04 0.  0.
        5    1    3    3  502    0  0.21340632318E+03  0.12732242044E+04 -0.94711715123E+03  0.16011543091E+04  0.46999998093E+01 0.  1.
       -5    1    3    3    0  502 -0.21340632318E+03 -0.12732242044E+04 -0.25868417229E+03  0.13166555071E+04  0.46999998093E+01 0. -1.
</event>
<event>
 5   0  0.1438701E-05  0.1478114E+04  0.7818609E-02  0.8899138E-01
       -1   -1    0    0    0  501  0.00000000000E+00  0.00000000000E+00  0.45328742512E+03  0.45328742515E+03  0.50400001928E-02 0.  1.
        1   -1    0    0  501    0  0.00000000000E+00  0.00000000000E+00 -0.12049872679E+04  0.12049872679E+04  0.50400001928E-02 0. -1.
    10030    2    1    2    0    0  0.00000000000E+00  0.00000000000E+00 -0.75169984279E+03  0.16582746931E+04  0.14781144421E+04 0.  0.
        4    1    3    3  502    0 -0.61767655840E+03 -0.39844626481E+03 -0.46217099549E+03  0.86826689371E+03  0.12699999809E+01 0. -1.
       -4    1    3    3    0  502  0.61767655840E+03  0.39844626481E+03 -0.28952884730E+03  0.79000779937E+03  0.12699999809E+01 0.  1.
</event>
<event>
 5   0  0.3676724E-05  0.2567849E+04  0.7818609E-02  0.8379205E-01
       -2   -1    0    0    0  501  0.00000000000E+00  0.00000000000E+00  0.83120286172E+03  0.83120286173E+03  0.25500000920E-02 0.  1.
        2   -1    0    0  501    0  0.00000000000E+00  0.00000000000E+00 -0.19832244908E+04  0.19832244908E+04  0.25500000920E-02 0. -1.
    10030    2    1    2    0    0  0.00000000000E+00  0.00000000000E+00 -0.11520216291E+04  0.28144273525E+04  0.25678488057E+04 0.  0.
        4    1    3    3  502    0  0.26732453054E+03  0.21686422857E+02 -0.19521785664E+04  0.19705165499E+04  0.12699999809E+01 0. -1.
       -4    1    3    3    0  502 -0.26732453054E+03 -0.21686422857E+02  0.80015693730E+03  0.84391080261E+03  0.12699999809E+01 0.  1.
</event>
<event>
 5   0  0.3568647E-05  0.1677696E+04  0.7818609E-02  0.8774188E-01
       -2   -1    0    0    0  501  0.00000000000E+00  0.00000000000E+00  0.79369353585E+03  0.79369353585E+03  0.25500000920E-02 0. -1.
        2   -1    0    0  501    0  0.00000000000E+00  0.00000000000E+00 -0.88657171691E+03  0.88657171692E+03  0.25500000920E-02 0.  1.
    10030    2    1    2    0    0  0.00000000000E+00  0.00000000000E+00 -0.92878181070E+02  0.16802652528E+04  0.16776963263E+04 0.  0.
        3    1    3    3  502    0 -0.66193868437E+03 -0.31704820363E+03  0.36036489925E+03  0.81764616803E+03  0.10100000352E+00 0. -1.
       -3    1    3    3    0  502  0.66193868437E+03  0.31704820363E+03 -0.45324308032E+03  0.86261908473E+03  0.10100000352E+00 0.  1.
</event>
<event>
 5   0  0.1495517E-05  0.2688395E+04  0.7818609E-02  0.8338780E-01
        1   -1    0    0  501    0  0.00000000000E+00  0.00000000000E+00  0.15435790621E+04  0.15435790621E+04  0.50400001928E-02 0.  1.
       -1   -1    0    0    0  501  0.00000000000E+00  0.00000000000E+00 -0.11705696595E+04  0.11705696596E+04  0.50400001928E-02 0. -1.
    10030    2    1    2    0    0  0.00000000000E+00  0.00000000000E+00  0.37300940255E+03  0.27141487216E+04  0.26883949243E+04 0.  0.
        5    1    3    3  502    0 -0.75166274458E+03 -0.11142623111E+04  0.16999729908E+03  0.13548057246E+04  0.46999998093E+01 0.  1.
       -5    1    3    3    0  502  0.75166274458E+03  0.11142623111E+04  0.20301210347E+03  0.13593429971E+04  0.46999998093E+01 0. -1.
</event>
<event>
 5   0  0.3514294E-05  0.2640340E+04  0.7818609E-02  0.8354626E-01
        2   -1    0    0  501    0  0.00000000000E+00  0.00000000000E+00  0.10833641787E+04  0.10833641787E+04  0.25500000920E-02 0. -1.
       -2   -1    0    0    0  501  0.00000000000E+00  0.00000000000E+00 -0.16087379554E+04  0.16087379554E+04  0.25500000920E-02 0.  1.
    10030    2    1    2    0    0  0.00000000000E+00  0.00000000000E+00 -0.52537377677E+03  0.26921021341E+04  0.26403401855E+04 0.  0.
        2    1    3    3  502    0  0.36971123489E+03 -0.69046841217E+03 -0.13462610086E+04  0.15575145999E+04  0.25500000920E-02 0.  1.
       -2    1    3    3    0  502 -0.36971123489E+03  0.69046841217E+03  0.82088723186E+03  0.11345875342E+04  0.25500000920E-02 0. -1.
</event>
<event>
 5   0  0.1495517E-05  0.2772427E+04  0.7818609E-02  0.8311880E-01
       -1   -1    0    0    0  501  0.00000000000E+00  0.00000000000E+00  0.14539937648E+04  0.14539937648E+04  0.50400001928E-02 0.  1.
        1   -1    0    0  501    0  0.00000000000E+00  0.00000000000E+00 -0.13215926056E+04  0.13215926056E+04  0.50400001928E-02 0. -1.
    10030    2    1    2    0    0  0.00000000000E+00  0.00000000000E+00  0.13240115922E+03  0.27755863703E+04  0.27724266685E+04 0.  0.
        5    1    3    3  502    0 -0.73656193574E+03 -0.56491514306E+03  0.10968945355E+04  0.14369593996E+04  0.46999998093E+01 0.  1.
       -5    1    3    3    0  502  0.73656193574E+03  0.56491514306E+03 -0.96449337626E+03  0.13386269708E+04  0.46999998093E+01 0. -1.
</event>
<event>
 5   0  0.3514294E-05  0.2206537E+04  0.7818609E-02  0.8515712E-01
       -2   -1    0    0    0  501  0.00000000000E+00  0.00000000000E+00  0.72654313383E+03  0.72654313383E+03  0.25500000920E-02 0.  1.
        2   -1    0    0  501    0  0.00000000000E+00  0.00000000000E+00 -0.16753328414E+04  0.16753328414E+04  0.25500000920E-02 0. -1.
    10030    2    1    2    0    0  0.00000000000E+00  0.00000000000E+00 -0.94878970759E+03  0.24018759753E+04  0.22065371720E+04 0.  0.
        2    1    3    3  502    0  0.10397563385E+04 -0.13800312896E+03 -0.84682945179E+03  0.13480572048E+04  0.25500000920E-02 0. -1.
       -2    1    3    3    0  502 -0.10397563385E+04  0.13800312896E+03 -0.10196025580E+03  0.10538187704E+04  0.25500000920E-02 0.  1.
</event>
<event>
 5   0  0.1449521E-05  0.2763158E+04  0.7818609E-02  0.8314798E-01
        1   -1    0    0  501    0  0.00000000000E+00  0.00000000000E+00  0.13610421058E+04  0.13610421059E+04  0.50400001928E-02 0. -1.
       -1   -1    0    0    0  501  0.00000000000E+00  0.00000000000E+00 -0.14024261093E+04  0.14024261093E+04  0.50400001928E-02 0.  1.
    10030    2    1    2    0    0  0.00000000000E+00  0.00000000000E+00 -0.41384003473E+02  0.27634682152E+04  0.27631583271E+04 0.  0.
        3    1    3    3  502    0 -0.11203361408E+04 -0.27150345456E+03  0.74090097238E+03  0.13703289588E+04  0.10100000352E+00 0.  1.
       -3    1    3    3    0  502  0.11203361408E+04  0.27150345456E+03 -0.78228497586E+03  0.13931392564E+04  0.10100000352E+00 0. -1.
</event>
<event>
 5   0  0.3568647E-05  0.2630532E+04  0.7818609E-02  0.8357903E-01
       -2   -1    0    0    0  501  0.00000000000E+00  0.00000000000E+00  0.72870798203E+03  0.72870798203E+03  0.25500000920E-02 0.  1.
        2   -1    0    0  501    0  0.00000000000E+00  0.00000000000E+00 -0.23739617358E+04  0.23739617358E+04  0.25500000920E-02 0. -1.
    10030    2    1    2    0    0  0.00000000000E+00  0.00000000000E+00 -0.16452537538E+04  0.31026697178E+04  0.26305321636E+04 0.  0.
        3    1    3    3  502    0 -0.32239407907E+03  0.51499455836E+03  0.55326370453E+03  0.82174088027E+03  0.10100000352E+00 0.  1.
       -3    1    3    3    0  502  0.32239407907E+03 -0.51499455836E+03 -0.21985174583E+04  0.22809288375E+04  0.10100000352E+00 0. -1.
</event>
<event>
 5   0  0.1438701E-05  0.2706551E+04  0.7818609E-02  0.8332882E-01
       -1   -1    0    0    0  501  0.00000000000E+00  0.00000000000E+00  0.14614503714E+04  0.14614503714E+04  0.50400001928E-02 0. -1.
        1   -1    0    0  501    0  0.00000000000E+00  0.00000000000E+00 -0.12531079848E+04  0.12531079848E+04  0.50400001928E-02 0.  1.
    10030    2    1    2    0    0  0.00000000000E+00  0.00000000000E+00  0.20834238657E+03  0.27145583562E+04  0.27065514071E+04 0.  0.
        4    1    3    3  502    0  0.87331501805E+02  0.11024512429E+04 -0.67809002339E+03  0.12972406203E+04  0.12699999809E+01 0.  1.
       -4    1    3    3    0  502 -0.87331501805E+02 -0.11024512429E+04  0.88643240996E+03  0.14173177359E+04  0.12699999809E+01 0. -1.
</event>
<event>
 5   0  0.1484379E-05  0.2774776E+04  0.7818609E-02  0.8311142E-01
       -1   -1    0    0    0  501  0.00000000000E+00  0.00000000000E+00  0.16212883746E+04  0.16212883746E+04  0.50400001928E-02 0. -1.
        1   -1    0    0  501    0  0.00000000000E+00  0.00000000000E+00 -0.11872322915E+04  0.11872322915E+04  0.50400001928E-02 0.  1.
    10030    2    1    2    0    0  0.00000000000E+00  0.00000000000E+00  0.43405608307E+03  0.28085206661E+04  0.27747763241E+04 0.  0.
        1    1    3    3  502    0 -0.10536695899E+04  0.72699368585E+02  0.11276024573E+04  0.15449893542E+04  0.50400001928E-02 0. -1.
       -1    1    3    3    0  502  0.10536695899E+04 -0.72699368585E+02 -0.69354637420E+03  0.12635313119E+04  0.50400001928E-02 0.  1.
</event>
<event>
 5   0  0.3514294E-05  0.2606165E+04  0.7818609E-02  0.8366110E-01
        2   -1    0    0  501    0  0.00000000000E+00  0.00000000000E+00  0.12486661684E+04  0.12486661684E+04  0.25500000920E-02 0. -1.
       -2   -1    0    0    0  501  0.00000000000E+00  0.00000000000E+00 -0.13598698262E+04  0.13598698262E+04  0.25500000920E-02 0.  1.
    10030    2    1    2    0    0  0.00000000000E+00  0.00000000000E+00 -0.11120365778E+03  0.26085359946E+04  0.26061645730E+04 0.  0.
        2    1    3    3  502    0  0.11719501883E+04  0.46212488486E+03  0.27786313514E+03  0.12900521598E+04  0.25500000920E-02 0.  1.
       -2    1    3    3    0  502 -0.11719501883E+04 -0.46212488486E+03 -0.38906679292E+03  0.13184838348E+04  0.25500000920E-02 0. -1.
</event>
<event>
 5   0  0.1449521E-05  0.2519072E+04  0.7818609E-02  0.8396222E-01
       -1   -1    0    0    0  501  0.00000000000E+00  0.00000000000E+00  0.19997327989E+04  0.19997327989E+04  0.50400001928E-02 0. -1.
        1   -1    0    0  501    0  0.00000000000E+00  0.00000000000E+00 -0.79332160882E+03  0.79332160884E+03  0.50400001928E-02 0.  1.
    10030    2    1    2    0    0  0.00000000000E+00  0.00000000000E+00  0.12064111900E+04  0.27930544077E+04  0.25190722429E+04 0.  0.
        3    1    3    3  502    0 -0.10141083093E+03  0.11221445751E+04 -0.20998134569E+02  0.11269132779E+04  0.10100000352E+00 0.  1.
       -3    1    3    3    0  502  0.10141083093E+03 -0.11221445751E+04  0.12274093246E+04  0.16661411298E+04  0.10100000352E+00 0. -1.
</event>
<event>
 5   0  0.3676724E-05  0.2687915E+04  0.7818609E-02  0.8338937E-01
       -2   -1    0    0    0  501  0.00000000000E+00  0.00000000000E+00  0.14109566301E+04  0.14109566301E+04  0.25500000920E-02 0. -1.
        2   -1    0    0  501    0  0.00000000000E+00  0.00000000000E+00 -0.12801402266E+04  0.12801402266E+04  0.25500000920E-02 0.  1.
    10030    2    1    2    0    0  0.00000000000E+00  0.00000000000E+00  0.13081640347E+03  0.26910968567E+04  0.26879154303E+04 0.  0.
        4    1    3    3  502    0  0.38183499127E+02 -0.31019784804E+03  0.13740666386E+04  0.14091633776E+04  0.12699999809E+01 0. -1.
       -4    1    3    3    0  502 -0.38183499127E+02  0.31019784804E+03 -0.12432502352E+04  0.12819334790E+04  0.12699999809E+01 0.  1.
</event>
<event>
 5   0  0.3568647E-05  0.2728470E+04  0.7818609E-02  0.8325826E-01
       -2   -1    0    0    0  501  0.00000000000E+00  0.00000000000E+00  0.10398989389E+04  0.10398989389E+04  0.25500000920E-02 0.  1.
        2   -1    0    0  501    0  0.00000000000E+00  0.00000000000E+00 -0.17897294785E+04  0.17897294785E+04  0.25500000920E-02 0. -1.
    10030    2    1    2    0    0  0.00000000000E+00  0.00000000000E+00 -0.74983053961E+03  0.28296284174E+04  0.27284704767E+04 0.  0.
        3    1    3    3  502    0 -0.13344553597E+03 -0.10538858473E+03  0.10288657029E+04  0.10428226646E+04  0.10100000352E+00 0.  1.
       -3    1    3    3    0  502  0.13344553597E+03  0.10538858473E+03 -0.17786962425E+04  0.17868057528E+04  0.10100000352E+00 0. -1.
</event>
<event>
 5   0  0.3497949E-05  0.2881149E+04  0.7818609E-02  0.8278508E-01
        2   -1    0    0  501    0  0.00000000000E+00  0.00000000000E+00  0.16579036218E+04  0.16579036218E+04  0.25500000920E-02 0.  1.
       -2   -1    0    0    0  501  0.00000000000E+00  0.00000000000E+00 -0.12517346654E+04  0.12517346654E+04  0.25500000920E-02 0. -1.
    10030    2    1    2    0    0  0.00000000000E+00  0.00000000000E+00  0.40616895641E+03  0.29096382872E+04  0.28811493785E+04 0.  0.
        5    1    3    3  502    0  0.11965652158E+04  0.18455294077E+03 -0.58527867870E+03  0.13447681307E+04  0.46999998093E+01 0. -1.
       -5    1    3    3    0  502 -0.11965652158E+04 -0.18455294077E+03  0.99144763511E+03  0.15648701565E+04  0.46999998093E+01 0.  1.
</event>
<event>
 5   0  0.1438701E-05  0.1490037E+04  0.7818609E-02  0.8891105E-01
       -1   -1    0    0    0  501  0.00000000000E+00  0.00000000000E+00  0.45714570135E+03  0.45714570138E+03  0.50400001928E-02 0.  1.
        1   -1    0    0  501    0  0.00000000000E+00  0.00000000000E+00 -0.12141707171E+04  0.12141707171E+04  0.50400001928E-02 0. -1.
    10030    2    1    2    0    0  0.00000000000E+00  0.00000000000E+00 -0.75702501572E+03  0.16713164185E+04  0.14900374815E+04 0.  0.
        4    1    3    3  502    0 -0.52075172693E+03  0.26148608226E+03 -0.89920229138E+03  0.10715053458E+04  0.12699999809E+01 0. -1.
       -4    1    3    3    0  502  0.52075172693E+03 -0.26148608226E+03  0.14217727565E+03  0.59981107269E+03  0.12699999809E+01 0.  1.
</event>
<event>
 5   0  0.1449521E-05  0.2602116E+04  0.7818609E-02  0.8367483E-01
       -1   -1    0    0    0  501  0.00000000000E+00  0.00000000000E+00  0.77454645812E+03  0.77454645813E+03  0.50400001928E-02 0. -1.
        1   -1    0    0  501    0  0.00000000000E+00  0.00000000000E+00 -0.21854743684E+04  0.21854743684E+04  0.50400001928E-02 0.  1.
    10030    2    1    2    0    0  0.00000000000E+00  0.00000000000E+00 -0.14109279103E+04  0.29600208265E+04  0.26021156249E+04 0.  0.
        3    1    3    3  502    0  0.11200669900E+04  0.65761669648E+03 -0.79165976280E+03  0.15210966346E+04  0.10100000352E+00 0. -1.
       -3    1    3    3    0  502 -0.11200669900E+04 -0.65761669648E+03 -0.61926814747E+03  0.14389241919E+04  0.10100000352E+00 0.  1.
</event>
<event>
 5   0  0.1495517E-05  0.2759424E+04  0.7818609E-02  0.8315977E-01
        1   -1    0    0  501    0  0.00000000000E+00  0.00000000000E+00  0.23978615347E+04  0.23978615347E+04  0.50400001928E-02 0. -1.
       -1   -1    0    0    0  501  0.00000000000E+00  0.00000000000E+00 -0.79387625129E+03  0.79387625131E+03  0.50400001928E-02 0.  1.
    10030    2    1    2    0    0  0.00000000000E+00  0.00000000000E+00  0.16039852834E+04  0.31917377860E+04  0.27594240894E+04 0.  0.
        5    1    3    3  502    0  0.36490332889E+03 -0.13286957591E+04  0.88375178603E+03  0.16369563736E+04  0.46999998093E+01 0. -1.
       -5    1    3    3    0  502 -0.36490332889E+03  0.13286957591E+04  0.72023349738E+03  0.15547814124E+04  0.46999998093E+01 0.  1.
</event>
<event>
 5   0  0.3676724E-05  0.2663461E+04  0.7818609E-02  0.8346959E-01
        2   -1    0    0  501    0  0.00000000000E+00  0.00000000000E+00  0.21154357168E+04  0.21154357168E+04  0.25500000920E-02 0. -1.
       -2   -1    0    0    0  501  0.00000000000E+00  0.00000000000E+00 -0.83836438321E+03  0.83836438321E+03  0.25500000920E-02 0.  1.
    10030    2    1    2    0    0  0.00000000000E+00  0.00000000000E+00  0.12770713336E+04  0.29538001000E+04  0.26634608764E+04 0.  0.
        4    1    3    3  502    0 -0.55589060683E+03 -0.59169793923E+03  0.18092531965E+04  0.19830581333E+04  0.12699999809E+01 0. -1.
       -4    1    3    3    0  502  0.55589060683E+03  0.59169793923E+03 -0.53218186285E+03  0.97074196679E+03  0.12699999809E+01 0.  1.
</event>
<event>
 5   0  0.3652331E-05  0.2745226E+04  0.7818609E-02  0.8320478E-01
        2   -1    0    0  501    0  0.00000000000E+00  0.00000000000E+00  0.89708703407E+03  0.89708703407E+03  0.25500000920E-02 0. -1.
       -2   -1    0    0    0  501  0.00000000000E+00  0.00000000000E+00 -0.21002044593E+04  0.21002044593E+04  0.25500000920E-02 0.  1.
    10030    2    1    2    0    0  0.00000000000E+00  0.00000000000E+00 -0.12031174253E+04  0.29972914934E+04  0.27452258117E+04 0.  0.
        1    1    3    3  502    0 -0.59900783039E+03 -0.44651532169E+03 -0.18587547312E+04  0.20032861663E+04  0.50400001928E-02 0.  1.
       -1    1    3    3    0  502  0.59900783039E+03  0.44651532169E+03  0.65563730592E+03  0.99400532710E+03  0.50400001928E-02 0. -1.
</event>
<event>
 5   0  0.3497949E-05  0.2670073E+04  0.7818609E-02  0.8344781E-01
        2   -1    0    0  501    0  0.00000000000E+00  0.00000000000E+00  0.23653476175E+04  0.23653476175E+04  0.25500000920E-02 0. -1.
       -2   -1    0    0    0  501  0.00000000000E+00  0.00000000000E+00 -0.75351400430E+03  0.75351400430E+03  0.25500000920E-02 0.  1.
    10030    2    1    2    0    0  0.00000000000E+00  0.00000000000E+00  0.16118336132E+04  0.31188616218E+04  0.26700730738E+04 0.  0.
        5    1    3    3  502    0 -0.41375106072E+03  0.90839415697E+02 -0.67292112653E+03  0.79516455669E+03  0.46999998093E+01 0.  1.
       -5    1    3    3    0  502  0.41375106072E+03 -0.90839415697E+02  0.22847547398E+04  0.23236970652E+04  0.46999998093E+01 0. -1.
</event>
<event>
 5   0  0.3676724E-05  0.2734804E+04  0.7818609E-02  0.8323800E-01
       -2   -1    0    0    0  501  0.00000000000E+00  0.00000000000E+00  0.98459924084E+03  0.98459924085E+03  0.25500000920E-02 0. -1.
        2   -1    0    0  501    0  0.00000000000E+00  0.00000000000E+00 -0.18990346898E+04  0.18990346898E+04  0.25500000920E-02 0.  1.
    10030    2    1    2    0    0  0.00000000000E+00  0.00000000000E+00 -0.91443544899E+03  0.28836339307E+04  0.27348039154E+04 0.  0.
        4    1    3    3  502    0  0.83433562827E+03 -0.29384744736E+03  0.64227780702E+03  0.10931535378E+04  0.12699999809E+01 0. -1.
       -4    1    3    3    0  502 -0.83433562827E+03  0.29384744736E+03 -0.15567132560E+04  0.17904803929E+04  0.12699999809E+01 0.  1.
</event>
<event>
 5   0  0.3514294E-05  0.2824924E+04  0.7818609E-02  0.8295572E-01
        2   -1    0    0  501    0  0.00000000000E+00  0.00000000000E+00  0.17791036993E+04  0.17791036993E+04  0.25500000920E-02 0.  1.
       -2   -1    0    0    0  501  0.00000000000E+00  0.00000000000E+00 -0.11213786299E+04  0.11213786299E+04  0.25500000920E-02 0. -1.
    10030    2    1    2    0    0  0.00000000000E+00  0.00000000000E+00  0.65772506938E+03  0.29004823292E+04  0.28249239768E+04 0.  0.
        2    1    3    3  502    0  0.65136535612E+03 -0.18328236899E+03  0.16018548073E+04  0.17389100258E+04  0.25500000920E-02 0.  1.
       -2    1    3    3    0  502 -0.65136535612E+03  0.18328236899E+03 -0.94412973795E+03  0.11615723034E+04  0.25500000920E-02 0. -1.
</event>
<event>
 5   0  0.3497949E-05  0.2671385E+04  0.7818609E-02  0.8344350E-01
       -2   -1    0    0    0  501  0.00000000000E+00  0.00000000000E+00  0.74885263840E+03  0.74885263840E+03  0.25500000920E-02 0. -1.
        2   -1    0    0  501    0  0.00000000000E+00  0.00000000000E+00 -0.23824098888E+04  0.23824098888E+04  0.25500000920E-02 0.  1.
    10030    2    1    2    0    0  0.00000000000E+00  0.00000000000E+00 -0.16335572504E+04  0.31312625272E+04  0.26713846080E+04 0.  0.
        5    1    3    3  502    0 -0.68983604676E+03  0.11435831542E+04 -0.84009347717E+03  0.15777944550E+04  0.46999998093E+01 0. -1.
       -5    1    3    3    0  502  0.68983604676E+03 -0.11435831542E+04 -0.79346377324E+03  0.15534680722E+04  0.46999998093E+01 0.  1.
</event>
<event>
 5   0  0.3497949E-05  0.2660968E+04  0.7818609E-02  0.8347782E-01
       -2   -1    0    0    0  501  0.00000000000E+00  0.00000000000E+00  0.13124160890E+04  0.13124160890E+04  0.25500000920E-02 0.  1.
        2   -1    0    0  501    0  0.00000000000E+00  0.00000000000E+00 -0.13488006136E+04  0.13488006136E+04  0.25500000920E-02 0. -1.
    10030    2    1    2    0    0  0.00000000000E+00  0.00000000000E+00 -0.36384524580E+02  0.26612167026E+04  0.26609679638E+04 0.  0.
        5    1    3    3  502    0  0.69973774922E+02 -0.13285936495E+04 -0.28591385637E+02  0.13307505295E+04  0.46999998093E+01 0. -1.
       -5    1    3    3    0  502 -0.69973774922E+02  0.13285936495E+04 -0.77931389433E+01  0.13304661730E+04  0.46999998093E+01 0.  1.
</event>
<event>
 5   0  0.1474012E-05  0.2729640E+04  0.7818609E-02  0.8325452E-01
       -1   -1    0    0    0  501  0.00000000000E+00  0.00000000000E+00  0.10646328886E+04  0.10646328886E+04  0.50400001928E-02 0. -1.
        1   -1    0    0  501    0  0.00000000000E+00  0.00000000000E+00 -0.17496483151E+04  0.17496483151E+04  0.50400001928E-02 0.  1.
    10030    2    1    2    0    0  0.00000000000E+00  0.00000000000E+00 -0.68501542656E+03  0.28142812037E+04  0.27296396390E+04 0.  0.
        2    1    3    3  502    0 -0.56644442582E+03  0.41484124836E+03  0.86415995954E+03  0.11134293801E+04  0.25500000920E-02 0. -1.
       -2    1    3    3    0  502  0.56644442582E+03 -0.41484124836E+03 -0.15491753861E+04  0.17008518236E+04  0.25500000920E-02 0.  1.
</event>
<event>
 5   0  0.1474012E-05  0.2661266E+04  0.7818609E-02  0.8347683E-01
       -1   -1    0    0    0  501  0.00000000000E+00  0.00000000000E+00  0.83494715620E+03  0.83494715621E+03  0.50400001928E-02 0. -1.
        1   -1    0    0  501    0  0.00000000000E+00  0.00000000000E+00 -0.21205936263E+04  0.21205936263E+04  0.50400001928E-02 0.  1.
    10030    2    1    2    0    0  0.00000000000E+00  0.00000000000E+00 -0.12856464701E+04  0.29555407825E+04  0.26612655769E+04 0.  0.
        2    1    3    3  502    0  0.66447920998E+03 -0.94875331121E+03 -0.13701606905E+04  0.17941587956E+04  0.25500000920E-02 0.  1.
       -2    1    3    3    0  502 -0.66447920998E+03  0.94875331121E+03  0.84514220424E+02  0.11613819869E+04  0.25500000920E-02 0. -1.
</event>
<event>
 5   0  0.1228050E-05  0.2689420E+04  0.7818609E-02  0.8338446E-01
        4   -1    0    0  501    0  0.00000000000E+00  0.00000000000E+00  0.10704215418E+04  0.10704222952E+04  0.12699999809E+01 0.  1.
       -4   -1    0    0    0  501  0.00000000000E+00  0.00000000000E+00 -0.16892811357E+04  0.16892816131E+04  0.12699999809E+01 0. -1.
    10030    2    1    2    0    0  0.00000000000E+00  0.00000000000E+00 -0.61885959398E+03  0.27597039083E+04  0.26894197263E+04 0.  0.
        3    1    3    3  502    0  0.70191023539E+03  0.67596113785E+03 -0.12602759677E+04  0.15930778272E+04  0.10100000352E+00 0. -1.
       -3    1    3    3    0  502 -0.70191023539E+03 -0.67596113785E+03  0.64141637375E+03  0.11666260811E+04  0.10100000352E+00 0.  1.
</event>
<event>
 5   0  0.1495517E-05  0.2115975E+04  0.7818609E-02  0.8554239E-01
        1   -1    0    0  501    0  0.00000000000E+00  0.00000000000E+00  0.12995010284E+04  0.12995010284E+04  0.50400001928E-02 0.  1.
       -1   -1    0    0    0  501  0.00000000000E+00  0.00000000000E+00 -0.86135939950E+03  0.86135939951E+03  0.50400001928E-02 0. -1.
    10030    2    1    2    0    0  0.00000000000E+00  0.00000000000E+00  0.43814162890E+03  0.21608604279E+04  0.21159748822E+04 0.  0.
        5    1    3    3  502    0 -0.19340627705E+03  0.16005293916E+03 -0.83049164030E+03  0.86761822591E+03  0.46999998093E+01 0. -1.
       -5    1    3    3    0  502  0.19340627705E+03 -0.16005293916E+03  0.12686332692E+04  0.12932422020E+04  0.46999998093E+01 0.  1.
</event>
<event>
 5   0  0.3568647E-05  0.2666260E+04  0.7818609E-02  0.8346036E-01
       -2   -1    0    0    0  501  0.00000000000E+00  0.00000000000E+00  0.68211119400E+03  0.68211119401E+03  0.25500000920E-02 0. -1.
        2   -1    0    0  501    0  0.00000000000E+00  0.00000000000E+00 -0.26054925734E+04  0.26054925734E+04  0.25500000920E-02 0.  1.
    10030    2    1    2    0    0  0.00000000000E+00  0.00000000000E+00 -0.19233813794E+04  0.32876037674E+04  0.26662600400E+04 0.  0.
        3    1    3    3  502    0  0.13067111951E+04  0.22425783790E+03 -0.78972737209E+03  0.15431963769E+04  0.10100000352E+00 0.  1.
       -3    1    3    3    0  502 -0.13067111951E+04 -0.22425783790E+03 -0.11336540073E+04  0.17444073904E+04  0.10100000352E+00 0. -1.
</event>
<event>
 5   0  0.1484379E-05  0.2696739E+04  0.7818609E-02  0.8336064E-01
       -1   -1    0    0    0  501  0.00000000000E+00  0.00000000000E+00  0.85891759745E+03  0.85891759747E+03  0.50400001928E-02 0. -1.
        1   -1    0    0  501    0  0.00000000000E+00  0.00000000000E+00 -0.21167345744E+04  0.21167345744E+04  0.50400001928E-02 0.  1.
    10030    2    1    2    0    0  0.00000000000E+00  0.00000000000E+00 -0.12578169769E+04  0.29756521718E+04  0.26967391977E+04 0.  0.
        1    1    3    3  502    0 -0.13007964956E+04 -0.34523855136E+03 -0.53765445829E+03  0.14492527374E+04  0.50400001928E-02 0.  1.
       -1    1    3    3    0  502  0.13007964956E+04  0.34523855136E+03 -0.72016251863E+03  0.15263994345E+04  0.50400001928E-02 0. -1.
</event>
<event>
 5   0  0.1474012E-05  0.2627956E+04  0.7818609E-02  0.8358767E-01
        1   -1    0    0  501    0  0.00000000000E+00  0.00000000000E+00  0.25530847318E+04  0.25530847318E+04  0.50400001928E-02 0. -1.
       -1   -1    0    0    0  501  0.00000000000E+00  0.00000000000E+00 -0.67625553133E+03  0.67625553134E+03  0.50400001928E-02 0.  1.
    10030    2    1    2    0    0  0.00000000000E+00  0.00000000000E+00  0.18768292005E+04  0.32293402632E+04  0.26279556099E+04 0.  0.
        2    1    3    3  502    0  0.50390790727E+03  0.30260229748E+02  0.24291660895E+04  0.24810656482E+04  0.25500000920E-02 0. -1.
       -2    1    3    3    0  502 -0.50390790727E+03 -0.30260229748E+02 -0.55233688895E+03  0.74827461498E+03  0.25500000920E-02 0.  1.
</event>
<event>
 5   0  0.1495517E-05  0.2187929E+04  0.7818609E-02  0.8523469E-01
        1   -1    0    0  501    0  0.00000000000E+00  0.00000000000E+00  0.11296446586E+04  0.11296446586E+04  0.50400001928E-02 0.  1.
       -1   -1    0    0    0  501  0.00000000000E+00  0.00000000000E+00 -0.10594109826E+04  0.10594109826E+04  0.50400001928E-02 0. -1.
    10030    2    1    2    0    0  0.00000000000E+00  0.00000000000E+00  0.70233676006E+02  0.21890556412E+04  0.21879286622E+04 0.  0.
        5    1    3    3  502    0 -0.37185466218E+03  0.87849985082E+03  0.57083450278E+03  0.11117157898E+04  0.46999998093E+01 0.  1.
       -5    1    3    3    0  502  0.37185466218E+03 -0.87849985082E+03 -0.50060082677E+03  0.10773398514E+04  0.46999998093E+01 0. -1.
</event>
<event>
 5   0  0.3514294E-05  0.2716736E+04  0.7818609E-02  0.8329595E-01
       -2   -1    0    0    0  501  0.00000000000E+00  0.00000000000E+00  0.11682169999E+04  0.11682169999E+04  0.25500000920E-02 0.  1.
        2   -1    0    0  501    0  0.00000000000E+00  0.00000000000E+00 -0.15794694811E+04  0.15794694811E+04  0.25500000920E-02 0. -1.
    10030    2    1    2    0    0  0.00000000000E+00  0.00000000000E+00 -0.41125248120E+03  0.27476864810E+04  0.27167356137E+04 0.  0.
        2    1    3    3  502    0  0.85157139348E+03  0.90541560626E+03  0.34853188984E+03  0.12909011335E+04  0.25500000920E-02 0. -1.
       -2    1    3    3    0  502 -0.85157139348E+03 -0.90541560626E+03 -0.75978437105E+03  0.14567853475E+04  0.25500000920E-02 0.  1.
</event>
<event>
 5   0  0.3676724E-05  0.2705610E+04  0.7818609E-02  0.8333187E-01
        2   -1    0    0  501    0  0.00000000000E+00  0.00000000000E+00  0.10183427583E+04  0.10183427583E+04  0.25500000920E-02 0. -1.
       -2   -1    0    0    0  501  0.00000000000E+00  0.00000000000E+00 -0.17971167794E+04  0.17971167794E+04  0.25500000920E-02 0.  1.
    10030    2    1    2    0    0  0.00000000000E+00  0.00000000000E+00 -0.77877402104E+03  0.28154595377E+04  0.27056096231E+04 0.  0.
        4    1    3    3  502    0  0.20923311710E+03  0.12850593472E+04 -0.71546015482E+01  0.13020018526E+04  0.12699999809E+01 0. -1.
       -4    1    3    3    0  502 -0.20923311710E+03 -0.12850593472E+04 -0.77161941949E+03  0.15134576851E+04  0.12699999809E+01 0.  1.
</event>
<event>
 5   0  0.1449521E-05  0.2739096E+04  0.7818609E-02  0.8322430E-01
       -1   -1    0    0    0  501  0.00000000000E+00  0.00000000000E+00  0.11140996934E+04  0.11140996934E+04  0.50400001928E-02 0.  1.
        1   -1    0    0  501    0  0.00000000000E+00  0.00000000000E+00 -0.16835668051E+04  0.16835668051E+04  0.50400001928E-02 0. -1.
    10030    2    1    2    0    0  0.00000000000E+00  0.00000000000E+00 -0.56946711173E+03  0.27976664985E+04  0.27390956620E+04 0.  0.
        3    1    3    3  502    0 -0.78182909538E+03 -0.10617921919E+03 -0.14281038133E+04  0.16315671218E+04  0.10100000352E+00 0. -1.
       -3    1    3    3    0  502  0.78182909538E+03  0.10617921919E+03  0.85863670159E+03  0.11660993768E+04  0.10100000352E+00 0.  1.
</event>
<event>
 5   0  0.3514294E-05  0.2064461E+04  0.7818609E-02  0.8577062E-01
        2   -1    0    0  501    0  0.00000000000E+00  0.00000000000E+00  0.10592889575E+04  0.10592889575E+04  0.25500000920E-02 0. -1.
       -2   -1    0    0    0  501  0.00000000000E+00  0.00000000000E+00 -0.10058630729E+04  0.10058630729E+04  0.25500000920E-02 0.  1.
    10030    2    1    2    0    0  0.00000000000E+00  0.00000000000E+00  0.53425884629E+02  0.20651520305E+04  0.20644608458E+04 0.  0.
        2    1    3    3  502    0 -0.62808486171E+02  0.95921541685E+03 -0.34952536295E+03  0.10228426571E+04  0.25500000920E-02 0.  1.
       -2    1    3    3    0  502  0.62808486171E+02 -0.95921541685E+03  0.40295124758E+03  0.10423093734E+04  0.25500000920E-02 0. -1.
</event>
<event>
 5   0  0.1495517E-05  0.2648148E+04  0.7818609E-02  0.8352028E-01
       -1   -1    0    0    0  501  0.00000000000E+00  0.00000000000E+00  0.12923972095E+04  0.12923972095E+04  0.50400001928E-02 0.  1.
        1   -1    0    0  501    0  0.00000000000E+00  0.00000000000E+00 -0.13565275001E+04  0.13565275001E+04  0.50400001928E-02 0. -1.
    10030    2    1    2    0    0  0.00000000000E+00  0.00000000000E+00 -0.64130290632E+02  0.26489247096E+04  0.26481483008E+04 0.  0.
        5    1    3    3  502    0  0.85382191225E+02 -0.12167432846E+04 -0.54738210790E+03  0.13369381441E+04  0.46999998093E+01 0. -1.
       -5    1    3    3    0  502 -0.85382191225E+02  0.12167432846E+04  0.48325181727E+03  0.13119865655E+04  0.46999998093E+01 0.  1.
</event>
<event>
 5   0  0.1438701E-05  0.2524564E+04  0.7818609E-02  0.8394286E-01
       -1   -1    0    0    0  501  0.00000000000E+00  0.00000000000E+00  0.12640871966E+04  0.12640871966E+04  0.50400001928E-02 0.  1.
        1   -1    0    0  501    0  0.00000000000E+00  0.00000000000E+00 -0.12604794626E+04  0.12604794626E+04  0.50400001928E-02 0. -1.
    10030    2    1    2    0    0  0.00000000000E+00  0.00000000000E+00  0.36077339636E+01  0.25245666592E+04  0.25245640813E+04 0.  0.
        4    1    3    3  502    0 -0.22759209490E+03 -0.97371192451E+02 -0.12359675801E+04  0.12605144913E+04  0.12699999809E+01 0. -1.
       -4    1    3    3    0  502  0.22759209490E+03  0.97371192451E+02  0.12395753141E+04  0.12640521678E+04  0.12699999809E+01 0.  1.
</event>
<event>
 5   0  0.1474012E-05  0.2419556E+04  0.7818609E-02  0.8432218E-01
        1   -1    0    0  501    0  0.00000000000E+00  0.00000000000E+00  0.22422570124E+04  0.22422570124E+04  0.50400001928E-02 0.  1.
       -1   -1    0    0    0  501  0.00000000000E+00  0.00000000000E+00 -0.65271860175E+03  0.65271860177E+03  0.50400001928E-02 0. -1.
    10030    2    1    2    0    0  0.00000000000E+00  0.00000000000E+00  0.15895384106E+04  0.28949756141E+04  0.24195560435E+04 0.  0.
        2    1    3    3  502    0  0.26001899801E+03 -0.11350205346E+04  0.40214279691E+03  0.12319092184E+04  0.25500000920E-02 0.  1.
       -2    1    3    3    0  502 -0.26001899801E+03  0.11350205346E+04  0.11873956137E+04  0.16630663958E+04  0.25500000920E-02 0. -1.
</event>
<event>
 5   0  0.1495517E-05  0.2723406E+04  0.7818609E-02  0.8327450E-01
        1   -1    0    0  501    0  0.00000000000E+00  0.00000000000E+00  0.24647302739E+04  0.24647302739E+04  0.50400001928E-02 0.  1.
       -1   -1    0    0    0  501  0.00000000000E+00  0.00000000000E+00 -0.75230742624E+03  0.75230742626E+03  0.50400001928E-02 0. -1.
    10030    2    1    2    0    0  0.00000000000E+00  0.00000000000E+00  0.17124228476E+04  0.32170377001E+04  0.27234058741E+04 0.  0.
        5    1    3    3  502    0 -0.88538281139E+02 -0.42743031826E+03  0.23798371575E+04  0.24195418348E+04  0.46999998093E+01 0.  1.
       -5    1    3    3    0  502  0.88538281139E+02  0.42743031826E+03 -0.66741430986E+03  0.79749586532E+03  0.46999998093E+01 0. -1.
</event>
<event>
 5   0  0.1484379E-05  0.1399969E+04  0.7818609E-02  0.8953841E-01
       -1   -1    0    0    0  501  0.00000000000E+00  0.00000000000E+00  0.10969790915E+04  0.10969790915E+04  0.50400001928E-02 0.  1.
        1   -1    0    0  501    0  0.00000000000E+00  0.00000000000E+00 -0.44666119868E+03  0.44666119871E+03  0.50400001928E-02 0. -1.
    10030    2    1    2    0    0  0.00000000000E+00  0.00000000000E+00  0.65031789283E+03  0.15436402902E+04  0.13999685653E+04 0.  0.
        1    1    3    3  502    0 -0.36350825866E+03  0.11602777481E+03 -0.32190183510E+03  0.49922088309E+03  0.50400001928E-02 0. -1.
       -1    1    3    3    0  502  0.36350825866E+03 -0.11602777481E+03  0.97221972792E+03  0.10444194072E+04  0.50400001928E-02 0.  1.
</event>
<event>
 5   0  0.3568647E-05  0.2423567E+04  0.7818609E-02  0.8430733E-01
       -2   -1    0    0    0  501  0.00000000000E+00  0.00000000000E+00  0.13459988153E+04  0.13459988153E+04  0.25500000920E-02 0.  1.
        2   -1    0    0  501    0  0.00000000000E+00  0.00000000000E+00 -0.10909510223E+04  0.10909510223E+04  0.25500000920E-02 0. -1.
    10030    2    1    2    0    0  0.00000000000E+00  0.00000000000E+00  0.25504779292E+03  0.24369498376E+04  0.24235666144E+04 0.  0.
        3    1    3    3  502    0 -0.38450765148E+03  0.11471123468E+04  0.58545495632E+02  0.12112557350E+04  0.10100000352E+00 0. -1.
       -3    1    3    3    0  502  0.38450765148E+03 -0.11471123468E+04  0.19650229729E+03  0.12256941027E+04  0.10100000352E+00 0.  1.
</event>
<event>
 5   0  0.3568647E-05  0.2700193E+04  0.7818609E-02  0.8334942E-01
        2   -1    0    0  501    0  0.00000000000E+00  0.00000000000E+00  0.14441350027E+04  0.14441350027E+04  0.25500000920E-02 0.  1.
       -2   -1    0    0    0  501  0.00000000000E+00  0.00000000000E+00 -0.12621813970E+04  0.12621813970E+04  0.25500000920E-02 0. -1.
    10030    2    1    2    0    0  0.00000000000E+00  0.00000000000E+00  0.18195360569E+03  0.27063163996E+04  0.27001928339E+04 0.  0.
        3    1    3    3  502    0 -0.96663020507E+03  0.54563391479E+03  0.86127032688E+03  0.14049472974E+04  0.10100000352E+00 0.  1.
       -3    1    3    3    0  502  0.96663020507E+03 -0.54563391479E+03 -0.67931672118E+03  0.13013691022E+04  0.10100000352E+00 0. -1.
</event>
<event>
 5   0  0.1495517E-05  0.2682472E+04  0.7818609E-02  0.8340715E-01
        1   -1    0    0  501    0  0.00000000000E+00  0.00000000000E+00  0.16324641841E+04  0.16324641841E+04  0.50400001928E-02 0.  1.
       -1   -1    0    0    0  501  0.00000000000E+00  0.00000000000E+00 -0.11019626083E+04  0.11019626083E+04  0.50400001928E-02 0. -1.
    10030    2    1    2    0    0  0.00000000000E+00  0.00000000000E+00  0.53050157580E+03  0.27344267925E+04  0.26824723599E+04 0.  0.
        5    1    3    3  502    0 -0.37122455663E+03 -0.22849245727E+03  0.15582323194E+04  0.16180625840E+04  0.46999998093E+01 0.  1.
       -5    1    3    3    0  502  0.37122455663E+03  0.22849245727E+03 -0.10277307436E+04  0.11163642084E+04  0.46999998093E+01 0. -1.
</event>
<event>
 5   0  0.1449521E-05  0.2789778E+04  0.7818609E-02  0.8306449E-01
       -1   -1    0    0    0  501  0.00000000000E+00  0.00000000000E+00  0.13531042524E+04  0.13531042525E+04  0.50400001928E-02 0. -1.
        1   -1    0    0  501    0  0.00000000000E+00  0.00000000000E+00 -0.14379642637E+04  0.14379642637E+04  0.50400001928E-02 0.  1.
    10030    2    1    2    0    0  0.00000000000E+00  0.00000000000E+00 -0.84860011234E+02  0.27910685161E+04  0.27897781704E+04 0.  0.
        3    1    3    3  502    0  0.16697650126E+03  0.18498636557E+03  0.13306531265E+04  0.13537868594E+04  0.10100000352E+00 0. -1.
       -3    1    3    3    0  502 -0.16697650126E+03 -0.18498636557E+03 -0.14155131377E+04  0.14372816567E+04  0.10100000352E+00 0.  1.
</event>
<event>
 5   0  0.1449521E-05  0.2799564E+04  0.7818609E-02  0.8303404E-01
        1   -1    0    0  501    0  0.00000000000E+00  0.00000000000E+00  0.17164673495E+04  0.17164673495E+04  0.50400001928E-02 0.  1.
       -1   -1    0    0    0  501  0.00000000000E+00  0.00000000000E+00 -0.11415247092E+04  0.11415247092E+04  0.50400001928E-02 0. -1.
    10030    2    1    2    0    0  0.00000000000E+00  0.00000000000E+00  0.57494264027E+03  0.28579920587E+04  0.27995641747E+04 0.  0.
        3    1    3    3  502    0 -0.31683034863E+03 -0.77867148797E+03 -0.85511892166E+03  0.11991409994E+04  0.10100000352E+00 0. -1.
       -3    1    3    3    0  502  0.31683034863E+03  0.77867148797E+03  0.14300615619E+04  0.16588510593E+04  0.10100000352E+00 0.  1.
</event>
<event>
 5   0  0.3514294E-05  0.2667259E+04  0.7818609E-02  0.8345707E-01
       -2   -1    0    0    0  501  0.00000000000E+00  0.00000000000E+00  0.12531591913E+04  0.12531591913E+04  0.25500000920E-02 0.  1.
        2   -1    0    0  501    0  0.00000000000E+00  0.00000000000E+00 -0.14192666225E+04  0.14192666225E+04  0.25500000920E-02 0. -1.
    10030    2    1    2    0    0  0.00000000000E+00  0.00000000000E+00 -0.16610743111E+03  0.26724258138E+04  0.26672585273E+04 0.  0.
        2    1    3    3  502    0 -0.11749874890E+03 -0.13111260374E+04 -0.29726587468E+03  0.13495274885E+04  0.25500000920E-02 0. -1.
       -2    1    3    3    0  502  0.11749874890E+03  0.13111260374E+04  0.13115844356E+03  0.13228983253E+04  0.25500000920E-02 0.  1.
</event>
<event>
 5   0  0.3514294E-05  0.2755443E+04  0.7818609E-02  0.8317236E-01
        2   -1    0    0  501    0  0.00000000000E+00  0.00000000000E+00  0.13001544500E+04  0.13001544500E+04  0.25500000920E-02 0. -1.
       -2   -1    0    0    0  501  0.00000000000E+00  0.00000000000E+00 -0.14599165467E+04  0.14599165467E+04  0.25500000920E-02 0.  1.
    10030    2    1    2    0    0  0.00000000000E+00  0.00000000000E+00 -0.15976209670E+03  0.27600709967E+04  0.27554433362E+04 0.  0.
        2    1    3    3  502    0  0.11874847934E+04  0.30753778306E+03  0.54840227970E+03  0.13436683680E+04  0.25500000920E-02 0. -1.
       -2    1    3    3    0  502 -0.11874847934E+04 -0.30753778306E+03 -0.70816437640E+03  0.14164026287E+04  0.25500000920E-02 0.  1.
</event>
<event>
 5   0  0.1438701E-05  0.2660528E+04  0.7818609E-02  0.8347927E-01
        1   -1    0    0  501    0  0.00000000000E+00  0.00000000000E+00  0.21937282622E+04  0.21937282622E+04  0.50400001928E-02 0.  1.
       -1   -1    0    0    0  501  0.00000000000E+00  0.00000000000E+00 -0.80666410754E+03  0.80666410755E+03  0.50400001928E-02 0. -1.
    10030    2    1    2    0    0  0.00000000000E+00  0.00000000000E+00  0.13870641546E+04  0.30003923697E+04  0.26605276550E+04 0.  0.
        4    1    3    3  502    0  0.88478118954E+03  0.87184339153E+03  0.15663671177E+03  0.12519925419E+04  0.12699999809E+01 0. -1.
       -4    1    3    3    0  502 -0.88478118954E+03 -0.87184339153E+03  0.12304274429E+04  0.17483998278E+04  0.12699999809E+01 0.  1.
</event>
<event>
 5   0  0.3652331E-05  0.2739048E+04  0.7818609E-02  0.8322445E-01
        2   -1    0    0  501    0  0.00000000000E+00  0.00000000000E+00  0.10179665682E+04  0.10179665683E+04  0.25500000920E-02 0.  1.
       -2   -1    0    0    0  501  0.00000000000E+00  0.00000000000E+00 -0.18424930118E+04  0.18424930118E+04  0.25500000920E-02 0. -1.
    10030    2    1    2    0    0  0.00000000000E+00  0.00000000000E+00 -0.82452644358E+03  0.28604595801E+04  0.27390482203E+04 0.  0.
        1    1    3    3  502    0  0.45082885015E+03  0.44362374718E+03  0.85630185261E+03  0.10645663643E+04  0.50400001928E-02 0.  1.
       -1    1    3    3    0  502 -0.45082885015E+03 -0.44362374718E+03 -0.16808282962E+04  0.17958932158E+04  0.50400001928E-02 0. -1.
</event>
<event>
 5   0  0.1228050E-05  0.2725368E+04  0.7818609E-02  0.8326821E-01
        3   -1    0    0  501    0  0.00000000000E+00  0.00000000000E+00  0.10341974841E+04  0.10341974891E+04  0.10100000352E+00 0. -1.
       -3   -1    0    0    0  501  0.00000000000E+00  0.00000000000E+00 -0.17955061689E+04  0.17955061717E+04  0.10100000352E+00 0.  1.
    10030    2    1    2    0    0  0.00000000000E+00  0.00000000000E+00 -0.76130868476E+03  0.28297036608E+04  0.27253682127E+04 0.  0.
        3    1    3    3  502    0  0.11669903726E+04  0.20235961172E+02  0.34957091195E+03  0.12183906830E+04  0.10100000352E+00 0.  1.
       -3    1    3    3    0  502 -0.11669903726E+04 -0.20235961172E+02 -0.11108795967E+04  0.16113129778E+04  0.10100000352E+00 0. -1.
</event>
<event>
 5   0  0.3497949E-05  0.2638387E+04  0.7818609E-02  0.8355278E-01
        2   -1    0    0  501    0  0.00000000000E+00  0.00000000000E+00  0.17003253200E+04  0.17003253200E+04  0.25500000920E-02 0.  1.
       -2   -1    0    0    0  501  0.00000000000E+00  0.00000000000E+00 -0.10234932523E+04  0.10234932523E+04  0.25500000920E-02 0. -1.
    10030    2    1    2    0    0  0.00000000000E+00  0.00000000000E+00  0.67683206771E+03  0.27238185723E+04  0.26383870010E+04 0.  0.
        5    1    3    3  502    0  0.76634610324E+03 -0.10737087082E+04  0.34937394334E+03  0.13646321784E+04  0.46999998093E+01 0. -1.
       -5    1    3    3    0  502 -0.76634610324E+03  0.10737087082E+04  0.32745812437E+03  0.13591863939E+04  0.46999998093E+01 0.  1.
</event>
<event>
 5   0  0.3497949E-05  0.2728196E+04  0.7818609E-02  0.8325914E-01
        2   -1    0    0  501    0  0.00000000000E+00  0.00000000000E+00  0.17366640448E+04  0.17366640448E+04  0.25500000920E-02 0.  1.
       -2   -1    0    0    0  501  0.00000000000E+00  0.00000000000E+00 -0.10714585872E+04  0.10714585872E+04  0.25500000920E-02 0. -1.
    10030    2    1    2    0    0  0.00000000000E+00  0.00000000000E+00  0.66520545756E+03  0.28081226320E+04  0.27281961835E+04 0.  0.
        5    1    3    3  502    0  0.86280554320E+03  0.66948134648E+03  0.11739245050E+04  0.16033588220E+04  0.46999998093E+01 0.  1.
       -5    1    3    3    0  502 -0.86280554320E+03 -0.66948134648E+03 -0.50871904747E+03  0.12047638100E+04  0.46999998093E+01 0. -1.
</event>
<event>
 5   0  0.3514294E-05  0.2832062E+04  0.7818609E-02  0.8293383E-01
        2   -1    0    0  501    0  0.00000000000E+00  0.00000000000E+00  0.15817019271E+04  0.15817019271E+04  0.25500000920E-02 0. -1.
       -2   -1    0    0    0  501  0.00000000000E+00  0.00000000000E+00 -0.12677128860E+04  0.12677128860E+04  0.25500000920E-02 0.  1.
    10030    2    1    2    0    0  0.00000000000E+00  0.00000000000E+00  0.31398904108E+03  0.28494148131E+04  0.28320620860E+04 0.  0.
        2    1    3    3  502    0 -0.13350995801E+04 -0.14756616964E+03  0.60793402834E+03  0.14743983336E+04  0.25500000920E-02 0. -1.
       -2    1    3    3    0  502  0.13350995801E+04  0.14756616964E+03 -0.29394498726E+03  0.13750164795E+04  0.25500000920E-02 0.  1.
</event>
<event>
 5   0  0.1495517E-05  0.2777328E+04  0.7818609E-02  0.8310342E-01
       -1   -1    0    0    0  501  0.00000000000E+00  0.00000000000E+00  0.98954951552E+03  0.98954951554E+03  0.50400001928E-02 0.  1.
        1   -1    0    0  501    0  0.00000000000E+00  0.00000000000E+00 -0.19487535951E+04  0.19487535951E+04  0.50400001928E-02 0. -1.
    10030    2    1    2    0    0  0.00000000000E+00  0.00000000000E+00 -0.95920407953E+03  0.29383031106E+04  0.27773283392E+04 0.  0.
        5    1    3    3  502    0 -0.18182909957E+03  0.60401027305E+01  0.97687840911E+03  0.99368597679E+03  0.46999998093E+01 0.  1.
       -5    1    3    3    0  502  0.18182909957E+03 -0.60401027305E+01 -0.19360824886E+04  0.19446171338E+04  0.46999998093E+01 0. -1.
</event>
<event>
 5   0  0.3568647E-05  0.2898567E+04  0.7818609E-02  0.8273304E-01
       -2   -1    0    0    0  501  0.00000000000E+00  0.00000000000E+00  0.12252073083E+04  0.12252073083E+04  0.25500000920E-02 0. -1.
        2   -1    0    0  501    0  0.00000000000E+00  0.00000000000E+00 -0.17143408217E+04  0.17143408217E+04  0.25500000920E-02 0.  1.
    10030    2    1    2    0    0  0.00000000000E+00  0.00000000000E+00 -0.48913351341E+03  0.29395481301E+04  0.28985671659E+04 0.  0.
        3    1    3    3  502    0  0.49128825521E+03 -0.28907692986E+03  0.11067486323E+04  0.12449185380E+04  0.10100000352E+00 0. -1.
       -3    1    3    3    0  502 -0.49128825521E+03  0.28907692986E+03 -0.15958821457E+04  0.16946295920E+04  0.10100000352E+00 0.  1.
</event>
<event>
 5   0  0.1449521E-05  0.2734164E+04  0.7818609E-02  0.8324004E-01
       -1   -1    0    0    0  501  0.00000000000E+00  0.00000000000E+00  0.85260806472E+03  0.85260806474E+03  0.50400001928E-02 0.  1.
        1   -1    0    0  501    0  0.00000000000E+00  0.00000000000E+00 -0.21919949367E+04  0.21919949367E+04  0.50400001928E-02 0. -1.
    10030    2    1    2    0    0  0.00000000000E+00  0.00000000000E+00 -0.13393868719E+04  0.30446030014E+04  0.27341635363E+04 0.  0.
        3    1    3    3  502    0  0.81001738808E+03  0.99132842318E+03 -0.12037896638E+04  0.17572620114E+04  0.10100000352E+00 0.  1.
       -3    1    3    3    0  502 -0.81001738808E+03 -0.99132842318E+03 -0.13559720809E+03  0.12873409900E+04  0.10100000352E+00 0. -1.
</event>
<event>
 5   0  0.3676724E-05  0.2335434E+04  0.7818609E-02  0.8464079E-01
       -2   -1    0    0    0  501  0.00000000000E+00  0.00000000000E+00  0.14846202541E+04  0.14846202541E+04  0.25500000920E-02 0.  1.
        2   -1    0    0  501    0  0.00000000000E+00  0.00000000000E+00 -0.91845948250E+03  0.91845948251E+03  0.25500000920E-02 0. -1.
    10030    2    1    2    0    0  0.00000000000E+00  0.00000000000E+00  0.56616077157E+03  0.24030797366E+04  0.23354344780E+04 0.  0.
        4    1    3    3  502    0 -0.57013282529E+03  0.50400989411E+03  0.11944460964E+04  0.14162558039E+04  0.12699999809E+01 0.  1.
       -4    1    3    3    0  502  0.57013282529E+03 -0.50400989411E+03 -0.62828532486E+03  0.98682393271E+03  0.12699999809E+01 0. -1.
</event>
<event>
 5   0  0.1474012E-05  0.2033099E+04  0.7818609E-02  0.8591300E-01
       -1   -1    0    0    0  501  0.00000000000E+00  0.00000000000E+00  0.12876485272E+04  0.12876485272E+04  0.50400001928E-02 0. -1.
        1   -1    0    0  501    0  0.00000000000E+00  0.00000000000E+00 -0.80252704070E+03  0.80252704071E+03  0.50400001928E-02 0.  1.
    10030    2    1    2    0    0  0.00000000000E+00  0.00000000000E+00  0.48512148654E+03  0.20901755680E+04  0.20330988781E+04 0.  0.
        2    1    3    3  502    0 -0.99721217420E+03 -0.41776968797E+02  0.44285516988E+02  0.99906888777E+03  0.25500000920E-02 0. -1.
       -2    1    3    3    0  502  0.99721217420E+03  0.41776968797E+02  0.44083596955E+03  0.10911066802E+04  0.25500000920E-02 0.  1.
</event>
<event>
 5   0  0.1484379E-05  0.2733260E+04  0.7818609E-02  0.8324293E-01
        1   -1    0    0  501    0  0.00000000000E+00  0.00000000000E+00  0.11028499101E+04  0.11028499101E+04  0.50400001928E-02 0. -1.
       -1   -1    0    0    0  501  0.00000000000E+00  0.00000000000E+00 -0.16935012541E+04  0.16935012541E+04  0.50400001928E-02 0.  1.
    10030    2    1    2    0    0  0.00000000000E+00  0.00000000000E+00 -0.59065134401E+03  0.27963511641E+04  0.27332601089E+04 0.  0.
        1    1    3    3  502    0 -0.13492395377E+04  0.15846695687E+03 -0.44748183778E+03  0.14303143367E+04  0.50400001928E-02 0.  1.
       -1    1    3    3    0  502  0.13492395377E+04 -0.15846695687E+03 -0.14316950623E+03  0.13660368275E+04  0.50400001928E-02 0. -1.
</event>
<event>
 5   0  0.3497949E-05  0.2661433E+04  0.7818609E-02  0.8347628E-01
        2   -1    0    0  501    0  0.00000000000E+00  0.00000000000E+00  0.12599058374E+04  0.12599058374E+04  0.25500000920E-02 0.  1.
       -2   -1    0    0    0  501  0.00000000000E+00  0.00000000000E+00 -0.14055071837E+04  0.14055071837E+04  0.25500000920E-02 0. -1.
    10030    2    1    2    0    0  0.00000000000E+00  0.00000000000E+00 -0.14560134633E+03  0.26654130210E+04  0.26614332268E+04 0.  0.
        5    1    3    3  502    0 -0.97118509561E+03  0.41100496826E+03  0.73999104409E+03  0.12883067993E+04  0.46999998093E+01 0.  1.
       -5    1    3    3    0  502  0.97118509561E+03 -0.41100496826E+03 -0.88559239042E+03  0.13771062217E+04  0.46999998093E+01 0. -1.
</event>
<event>
 5   0  0.1495517E-05  0.2657634E+04  0.7818609E-02  0.8348884E-01
       -1   -1    0    0    0  501  0.00000000000E+00  0.00000000000E+00  0.11658428849E+04  0.11658428849E+04  0.50400001928E-02 0.  1.
        1   -1    0    0  501    0  0.00000000000E+00  0.00000000000E+00 -0.15145732749E+04  0.15145732750E+04  0.50400001928E-02 0. -1.
    10030    2    1    2    0    0  0.00000000000E+00  0.00000000000E+00 -0.34873039008E+03  0.26804161598E+04  0.26576338922E+04 0.  0.
        5    1    3    3  502    0  0.37027977036E+03  0.89483591942E+03  0.74332148861E+03  0.12208142186E+04  0.46999998093E+01 0.  1.
       -5    1    3    3    0  502 -0.37027977036E+03 -0.89483591942E+03 -0.10920518787E+04  0.14596019412E+04  0.46999998093E+01 0. -1.
</event>
<event>
 5   0  0.3568647E-05  0.2677598E+04  0.7818609E-02  0.8342310E-01
        2   -1    0    0  501    0  0.00000000000E+00  0.00000000000E+00  0.22648570949E+04  0.22648570949E+04  0.25500000920E-02 0. -1.
       -2   -1    0    0    0  501  0.00000000000E+00  0.00000000000E+00 -0.79138917928E+03  0.79138917928E+03  0.25500000920E-02 0.  1.
    10030    2    1    2    0    0  0.00000000000E+00  0.00000000000E+00  0.14734679156E+04  0.30562462742E+04  0.26775984744E+04 0.  0.
        3    1    3    3  502    0  0.11583416273E+04  0.25149783244E+03  0.14471450862E+04  0.18706243332E+04  0.10100000352E+00 0. -1.
       -3    1    3    3    0  502 -0.11583416273E+04 -0.25149783244E+03  0.26322829383E+02  0.11856219409E+04  0.10100000352E+00 0.  1.
</event>
<event>
 5   0  0.3652331E-05  0.2645380E+04  0.7818609E-02  0.8352948E-01
       -2   -1    0    0    0  501  0.00000000000E+00  0.00000000000E+00  0.13130543857E+04  0.13130543858E+04  0.25500000920E-02 0.  1.
        2   -1    0    0  501    0  0.00000000000E+00  0.00000000000E+00 -0.13323966104E+04  0.13323966104E+04  0.25500000920E-02 0. -1.
    10030    2    1    2    0    0  0.00000000000E+00  0.00000000000E+00 -0.19342224648E+02  0.26454509961E+04  0.26453802848E+04 0.  0.
        1    1    3    3  502    0  0.65445390580E+03 -0.11414711683E+04  0.12539866697E+03  0.13217379349E+04  0.50400001928E-02 0.  1.
       -1    1    3    3    0  502 -0.65445390580E+03  0.11414711683E+04 -0.14474089162E+03  0.13237130613E+04  0.50400001928E-02 0. -1.
</event>
<event>
 5   0  0.1474012E-05  0.2741450E+04  0.7818609E-02  0.8321680E-01
        1   -1    0    0  501    0  0.00000000000E+00  0.00000000000E+00  0.22130954083E+04  0.22130954083E+04  0.50400001928E-02 0. -1.
       -1   -1    0    0    0  501  0.00000000000E+00  0.00000000000E+00 -0.84898615128E+03  0.84898615130E+03  0.50400001928E-02 0.  1.
    10030    2    1    2    0    0  0.00000000000E+00  0.00000000000E+00  0.13641092570E+04  0.30620815596E+04  0.27414502389E+04 0.  0.
        2    1    3    3  502    0  0.67821640510E+03 -0.19480304555E+03 -0.63052963579E+03  0.94630509896E+03  0.25500000920E-02 0.  1.
       -2    1    3    3    0  502 -0.67821640510E+03  0.19480304555E+03  0.19946388928E+04  0.21157764606E+04  0.25500000920E-02 0. -1.
</event>
<event>
 5   0  0.1474012E-05  0.2650951E+04  0.7818609E-02  0.8351097E-01
        1   -1    0    0  501    0  0.00000000000E+00  0.00000000000E+00  0.11973256991E+04  0.11973256991E+04  0.50400001928E-02 0. -1.
       -1   -1    0    0    0  501  0.00000000000E+00  0.00000000000E+00 -0.14673410467E+04  0.14673410467E+04  0.50400001928E-02 0.  1.
    10030    2    1    2    0    0  0.00000000000E+00  0.00000000000E+00 -0.27001534760E+03  0.26646667459E+04  0.26509508820E+04 0.  0.
        2    1    3    3  502    0 -0.22786477654E+03 -0.12173829561E+04  0.33960213149E+03  0.12842403303E+04  0.25500000920E-02 0.  1.
       -2    1    3    3    0  502  0.22786477654E+03  0.12173829561E+04 -0.60961747908E+03  0.13804264156E+04  0.25500000920E-02 0. -1.
</event>
<event>
 5   0  0.3568647E-05  0.2667618E+04  0.7818609E-02  0.8345589E-01
       -2   -1    0    0    0  501  0.00000000000E+00  0.00000000000E+00  0.10877582475E+04  0.10877582475E+04  0.25500000920E-02 0. -1.
        2   -1    0    0  501    0  0.00000000000E+00  0.00000000000E+00 -0.16355160793E+04  0.16355160793E+04  0.25500000920E-02 0.  1.
    10030    2    1    2    0    0  0.00000000000E+00  0.00000000000E+00 -0.54775783184E+03  0.27232743268E+04  0.26676177418E+04 0.  0.
        3    1    3    3  502    0 -0.32157884173E+02 -0.67583452514E+03  0.89956376983E+03  0.11256115765E+04  0.10100000352E+00 0. -1.
       -3    1    3    3    0  502  0.32157884173E+02  0.67583452514E+03 -0.14473216017E+04  0.15976627503E+04  0.10100000352E+00 0.  1.
</event>
<event>
 5   0  0.3568647E-05  0.2725379E+04  0.7818609E-02  0.8326817E-01
        2   -1    0    0  501    0  0.00000000000E+00  0.00000000000E+00  0.22449285152E+04  0.22449285152E+04  0.25500000920E-02 0.  1.
       -2   -1    0    0    0  501  0.00000000000E+00  0.00000000000E+00 -0.82716310126E+03  0.82716310126E+03  0.25500000920E-02 0. -1.
    10030    2    1    2    0    0  0.00000000000E+00  0.00000000000E+00  0.14177654140E+04  0.30720916165E+04  0.27253785299E+04 0.  0.
        3    1    3    3  502    0  0.89140635635E+03 -0.21195353267E+03  0.18458594570E+04  0.20607587771E+04  0.10100000352E+00 0.  1.
       -3    1    3    3    0  502 -0.89140635635E+03  0.21195353267E+03 -0.42809404304E+03  0.10113328394E+04  0.10100000352E+00 0. -1.
</event>
<event>
 5   0  0.1438701E-05  0.2719513E+04  0.7818609E-02  0.8328701E-01
        1   -1    0    0  501    0  0.00000000000E+00  0.00000000000E+00  0.14196349937E+04  0.14196349937E+04  0.50400001928E-02 0. -1.
       -1   -1    0    0    0  501  0.00000000000E+00  0.00000000000E+00 -0.13024038832E+04  0.13024038832E+04  0.50400001928E-02 0.  1.
    10030    2    1    2    0    0  0.00000000000E+00  0.00000000000E+00  0.11723111050E+03  0.27220388769E+04  0.27195132863E+04 0.  0.
        4    1    3    3  502    0 -0.12919930654E+03 -0.45491029674E+03 -0.12174412172E+04  0.13060630035E+04  0.12699999809E+01 0.  1.
       -4    1    3    3    0  502  0.12919930654E+03  0.45491029674E+03  0.13346723277E+04  0.14159758734E+04  0.12699999809E+01 0. -1.
</event>
<event>
 5   0  0.1438701E-05  0.2727419E+04  0.7818609E-02  0.8326163E-01
        1   -1    0    0  501    0  0.00000000000E+00  0.00000000000E+00  0.10821815160E+04  0.10821815160E+04  0.50400001928E-02 0.  1.
       -1   -1    0    0    0  501  0.00000000000E+00  0.00000000000E+00 -0.17184764593E+04  0.17184764593E+04  0.50400001928E-02 0. -1.
    10030    2    1    2    0    0  0.00000000000E+00  0.00000000000E+00 -0.63629494333E+03  0.28006579754E+04  0.27274188971E+04 0.  0.
        4    1    3    3  502    0 -0.13017513159E+04 -0.34184478845E+02  0.97666814740E+02  0.13058581419E+04  0.12699999809E+01 0.  1.
       -4    1    3    3    0  502  0.13017513159E+04  0.34184478845E+02 -0.73396175807E+03  0.14947998335E+04  0.12699999809E+01 0. -1.
</event>
<event>
 5   0  0.1484379E-05  0.2612732E+04  0.7818609E-02  0.8363889E-01
       -1   -1    0    0    0  501  0.00000000000E+00  0.00000000000E+00  0.95538342243E+03  0.95538342244E+03  0.50400001928E-02 0. -1.
        1   -1    0    0  501    0  0.00000000000E+00  0.00000000000E+00 -0.17862909325E+04  0.17862909325E+04  0.50400001928E-02 0.  1.
    10030    2    1    2    0    0  0.00000000000E+00  0.00000000000E+00 -0.83090751009E+03  0.27416743550E+04  0.26127324736E+04 0.  0.
        1    1    3    3  502    0  0.68343473262E+03  0.10735605113E+04 -0.10597952935E+03  0.12770461487E+04  0.50400001928E-02 0. -1.
       -1    1    3    3    0  502 -0.68343473262E+03 -0.10735605113E+04 -0.72492798074E+03  0.14646282063E+04  0.50400001928E-02 0.  1.
</event>
<event>
 5   0  0.1484379E-05  0.2582878E+04  0.7818609E-02  0.8374041E-01
        1   -1    0    0  501    0  0.00000000000E+00  0.00000000000E+00  0.15522739693E+04  0.15522739693E+04  0.50400001928E-02 0. -1.
       -1   -1    0    0    0  501  0.00000000000E+00  0.00000000000E+00 -0.10744328360E+04  0.10744328360E+04  0.50400001928E-02 0.  1.
    10030    2    1    2    0    0  0.00000000000E+00  0.00000000000E+00  0.47784113334E+03  0.26267068053E+04  0.25828775604E+04 0.  0.
        1    1    3    3  502    0 -0.12491433884E+04 -0.24284409083E+03  0.14998678960E+02  0.12726183315E+04  0.50400001928E-02 0. -1.
       -1    1    3    3    0  502  0.12491433884E+04  0.24284409083E+03  0.46284245438E+03  0.13540884738E+04  0.50400001928E-02 0.  1.
</event>
<event>
 5   0  0.1474012E-05  0.2493075E+04  0.7818609E-02  0.8405457E-01
       -1   -1    0    0    0  501  0.00000000000E+00  0.00000000000E+00  0.89145614525E+03  0.89145614527E+03  0.50400001928E-02 0. -1.
        1   -1    0    0  501    0  0.00000000000E+00  0.00000000000E+00 -0.17430529374E+04  0.17430529374E+04  0.50400001928E-02 0.  1.
    10030    2    1    2    0    0  0.00000000000E+00  0.00000000000E+00 -0.85159679217E+03  0.26345090827E+04  0.24930746099E+04 0.  0.
        2    1    3    3  502    0  0.57720884591E+03  0.96742859311E+03 -0.98970780954E+03  0.14995364893E+04  0.25500000920E-02 0.  1.
       -2    1    3    3    0  502 -0.57720884591E+03 -0.96742859311E+03  0.13811101737E+03  0.11349725934E+04  0.25500000920E-02 0. -1.
</event>
<event>
 5   0  0.1495517E-05  0.2562206E+04  0.7818609E-02  0.8381153E-01
        1   -1    0    0  501    0  0.00000000000E+00  0.00000000000E+00  0.18980479123E+04  0.18980479123E+04  0.50400001928E-02 0.  1.
       -1   -1    0    0    0  501  0.00000000000E+00  0.00000000000E+00 -0.86469106032E+03  0.86469106033E+03  0.50400001928E-02 0. -1.
    10030    2    1    2    0    0  0.00000000000E+00  0.00000000000E+00  0.10333568520E+04  0.27627389727E+04  0.25622061290E+04 0.  0.
        5    1    3    3  502    0  0.98890952995E+02 -0.60927206085E+03 -0.69377320492E+03  0.92862005932E+03  0.46999998093E+01 0. -1.
       -5    1    3    3    0  502 -0.98890952995E+02  0.60927206085E+03  0.17271300569E+04  0.18341189133E+04  0.46999998093E+01 0.  1.
</event>
<event>
 5   0  0.1474012E-05  0.2088373E+04  0.7818609E-02  0.8566383E-01
       -1   -1    0    0    0  501  0.00000000000E+00  0.00000000000E+00  0.58137709055E+03  0.58137709058E+03  0.50400001928E-02 0.  1.
        1   -1    0    0  501    0  0.00000000000E+00  0.00000000000E+00 -0.18754178397E+04  0.18754178397E+04  0.50400001928E-02 0. -1.
    10030    2    1    2    0    0  0.00000000000E+00  0.00000000000E+00 -0.12940407491E+04  0.24567949303E+04  0.20883725408E+04 0.  0.
        2    1    3    3  502    0  0.34720948261E+03 -0.45382501862E+03  0.38112509975E+03  0.68685363361E+03  0.25500000920E-02 0.  1.
       -2    1    3    3    0  502 -0.34720948261E+03  0.45382501862E+03 -0.16751658489E+04  0.17699412967E+04  0.25500000920E-02 0. -1.
</event>
<event>
 5   0  0.3652331E-05  0.1709842E+04  0.7818609E-02  0.8755771E-01
        2   -1    0    0  501    0  0.00000000000E+00  0.00000000000E+00  0.15459277688E+04  0.15459277688E+04  0.25500000920E-02 0.  1.
       -2   -1    0    0    0  501  0.00000000000E+00  0.00000000000E+00 -0.47278417783E+03  0.47278417783E+03  0.25500000920E-02 0. -1.
    10030    2    1    2    0    0  0.00000000000E+00  0.00000000000E+00  0.10731435909E+04  0.20187119466E+04  0.17098423192E+04 0.  0.
        1    1    3    3  502    0  0.23425954526E+03  0.81396206850E+03  0.67364026141E+03  0.10822213199E+04  0.50400001928E-02 0.  1.
       -1    1    3    3    0  502 -0.23425954526E+03 -0.81396206850E+03  0.39950332952E+03  0.93649062666E+03  0.50400001928E-02 0. -1.
</event>
<event>
 5   0  0.3652331E-05  0.2402382E+04  0.7818609E-02  0.8438612E-01
       -2   -1    0    0    0  501  0.00000000000E+00  0.00000000000E+00  0.10000299626E+04  0.10000299626E+04  0.25500000920E-02 0.  1.
        2   -1    0    0  501    0  0.00000000000E+00  0.00000000000E+00 -0.14428167378E+04  0.14428167378E+04  0.25500000920E-02 0. -1.
    10030    2    1    2    0    0  0.00000000000E+00  0.00000000000E+00 -0.44278677529E+03  0.24428467004E+04  0.24023821247E+04 0.  0.
        1    1    3    3  502    0  0.77922573335E+02  0.55678624280E+03 -0.13007703293E+04  0.14170696162E+04  0.50400001928E-02 0. -1.
       -1    1    3    3    0  502 -0.77922573335E+02 -0.55678624280E+03  0.85798355397E+03  0.10257770842E+04  0.50400001928E-02 0.  1.
</event>
<event>
 5   0  0.3514294E-05  0.2808552E+04  0.7818609E-02  0.8300618E-01
        2   -1    0    0  501    0  0.00000000000E+00  0.00000000000E+00  0.17950743061E+04  0.17950743061E+04  0.25500000920E-02 0.  1.
       -2   -1    0    0    0  501  0.00000000000E+00  0.00000000000E+00 -0.10985567266E+04  0.10985567266E+04  0.25500000920E-02 0. -1.
    10030    2    1    2    0    0  0.00000000000E+00  0.00000000000E+00  0.69651757943E+03  0.28936310327E+04  0.28085519071E+04 0.  0.
        2    1    3    3  502    0  0.30102228245E+03 -0.13233009858E+04  0.72009467343E+03  0.15363190594E+04  0.25500000920E-02 0.  1.
       -2    1    3    3    0  502 -0.30102228245E+03  0.13233009858E+04 -0.23577094001E+02  0.13573119733E+04  0.25500000920E-02 0. -1.
</event>
<event>
 5   0  0.1438701E-05  0.2622592E+04  0.7818609E-02  0.8360568E-01
       -1   -1    0    0    0  501  0.00000000000E+00  0.00000000000E+00  0.13353671828E+04  0.13353671828E+04  0.50400001928E-02 0. -1.
        1   -1    0    0  501    0  0.00000000000E+00  0.00000000000E+00 -0.12876585204E+04  0.12876585204E+04  0.50400001928E-02 0.  1.
    10030    2    1    2    0    0  0.00000000000E+00  0.00000000000E+00  0.47708662425E+02  0.26230257032E+04  0.26225917950E+04 0.  0.
        4    1    3    3  502    0  0.10592995565E+03 -0.15086934690E+03  0.13223420613E+04  0.13351302766E+04  0.12699999809E+01 0. -1.
       -4    1    3    3    0  502 -0.10592995565E+03  0.15086934690E+03 -0.12746333989E+04  0.12878954266E+04  0.12699999809E+01 0.  1.
</event>
<event>
 5   0  0.1438701E-05  0.2671711E+04  0.7818609E-02  0.8344243E-01
       -1   -1    0    0    0  501  0.00000000000E+00  0.00000000000E+00  0.96851945681E+03  0.96851945682E+03  0.50400001928E-02 0.  1.
        1   -1    0    0  501    0  0.00000000000E+00  0.00000000000E+00 -0.18425130925E+04  0.18425130925E+04  0.50400001928E-02 0. -1.
    10030    2    1    2    0    0  0.00000000000E+00  0.00000000000E+00 -0.87399363567E+03  0.28110325493E+04  0.26717108972E+04 0.  0.
        4    1    3    3  502    0  0.54156375705E+03  0.89567632318E+03 -0.13103300141E+04  0.16770491160E+04  0.12699999809E+01 0. -1.
       -4    1    3    3    0  502 -0.54156375705E+03 -0.89567632318E+03  0.43633637844E+03  0.11339834333E+04  0.12699999809E+01 0.  1.
</event>
<event>
 5   0  0.1484379E-05  0.2727105E+04  0.7818609E-02  0.8326263E-01
       -1   -1    0    0    0  501  0.00000000000E+00  0.00000000000E+00  0.95208171080E+03  0.95208171081E+03  0.50400001928E-02 0. -1.
        1   -1    0    0  501    0  0.00000000000E+00  0.00000000000E+00 -0.19528534047E+04  0.19528534047E+04  0.50400001928E-02 0.  1.
    10030    2    1    2    0    0  0.00000000000E+00  0.00000000000E+00 -0.10007716939E+04  0.29049351155E+04  0.27271054329E+04 0.  0.
        1    1    3    3  502    0 -0.55574628800E+03 -0.17539240192E+03  0.81274397308E+03  0.10000845950E+04  0.50400001928E-02 0. -1.
       -1    1    3    3    0  502  0.55574628800E+03  0.17539240192E+03 -0.18135156669E+04  0.19048505205E+04  0.50400001928E-02 0.  1.
</event>
<event>
 5   0  0.1474012E-05  0.2710441E+04  0.7818609E-02  0.8331625E-01
       -1   -1    0    0    0  501  0.00000000000E+00  0.00000000000E+00  0.17097007625E+04  0.17097007625E+04  0.50400001928E-02 0. -1.
        1   -1    0    0  501    0  0.00000000000E+00  0.00000000000E+00 -0.10742361875E+04  0.10742361875E+04  0.50400001928E-02 0.  1.
    10030    2    1    2    0    0  0.00000000000E+00  0.00000000000E+00  0.63546457500E+03  0.27839369501E+04  0.27104408711E+04 0.  0.
        2    1    3    3  502    0  0.95724134419E+03  0.70346925465E+03  0.98767839179E+03  0.15448911253E+04  0.25500000920E-02 0. -1.
       -2    1    3    3    0  502 -0.95724134419E+03 -0.70346925465E+03 -0.35221381679E+03  0.12390458248E+04  0.25500000920E-02 0.  1.
</event>
<event>
 5   0  0.1474012E-05  0.2641571E+04  0.7818609E-02  0.8354216E-01
       -1   -1    0    0    0  501  0.00000000000E+00  0.00000000000E+00  0.17321024274E+04  0.17321024274E+04  0.50400001928E-02 0. -1.
        1   -1    0    0  501    0  0.00000000000E+00  0.00000000000E+00 -0.10071429347E+04  0.10071429347E+04  0.50400001928E-02 0.  1.
    10030    2    1    2    0    0  0.00000000000E+00  0.00000000000E+00  0.72495949267E+03  0.27392453622E+04  0.26415712915E+04 0.  0.
        2    1    3    3  502    0  0.98851478778E+03 -0.77228522311E+03  0.79115198755E+03  0.14830736391E+04  0.25500000920E-02 0.  1.
       -2    1    3    3    0  502 -0.98851478778E+03  0.77228522311E+03 -0.66192494880E+02  0.12561717231E+04  0.25500000920E-02 0. -1.
</event>
<event>
 5   0  0.3568647E-05  0.2602804E+04  0.7818609E-02  0.8367249E-01
        2   -1    0    0  501    0  0.00000000000E+00  0.00000000000E+00  0.26999279780E+04  0.26999279780E+04  0.25500000920E-02 0.  1.
       -2   -1    0    0    0  501  0.00000000000E+00  0.00000000000E+00 -0.62729360396E+03  0.62729360397E+03  0.25500000920E-02 0. -1.
    10030    2    1    2    0    0  0.00000000000E+00  0.00000000000E+00  0.20726343740E+04  0.33272215820E+04  0.26028042967E+04 0.  0.
        3    1    3    3  502    0 -0.72862072940E+03 -0.89733606819E+03  0.27194127208E+03  0.11874562107E+04  0.10100000352E+00 0. -1.
       -3    1    3    3    0  502  0.72862072940E+03  0.89733606819E+03  0.18006931019E+04  0.21397653713E+04  0.10100000352E+00 0.  1.
</event>
<event>
 5   0  0.3652331E-05  0.2715318E+04  0.7818609E-02  0.8330052E-01
       -2   -1    0    0    0  501  0.00000000000E+00  0.00000000000E+00  0.15711969188E+04  0.15711969188E+04  0.25500000920E-02 0.  1.
        2   -1    0    0  501    0  0.00000000000E+00  0.00000000000E+00 -0.11731429595E+04  0.11731429596E+04  0.25500000920E-02 0. -1.
    10030    2    1    2    0    0  0.00000000000E+00  0.00000000000E+00  0.39805395925E+03  0.27443398783E+04  0.27153184737E+04 0.  0.
        1    1    3    3  502    0  0.18148839653E+03 -0.43865283045E+03 -0.10865285685E+04  0.11857059812E+04  0.50400001928E-02 0. -1.
       -1    1    3    3    0  502 -0.18148839653E+03  0.43865283045E+03  0.14845825277E+04  0.15586338972E+04  0.50400001928E-02 0.  1.
</event>
<event>
 5   0  0.3568647E-05  0.2591760E+04  0.7818609E-02  0.8371006E-01
        2   -1    0    0  501    0  0.00000000000E+00  0.00000000000E+00  0.22001874325E+04  0.22001874325E+04  0.25500000920E-02 0.  1.
       -2   -1    0    0    0  501  0.00000000000E+00  0.00000000000E+00 -0.76325520329E+03  0.76325520329E+03  0.25500000920E-02 0. -1.
    10030    2    1    2    0    0  0.00000000000E+00  0.00000000000E+00  0.14369322292E+04  0.29634426358E+04  0.25917596386E+04 0.  0.
        3    1    3    3  502    0  0.31330184661E+03  0.12570519761E+03  0.21490284598E+04  0.21753811562E+04  0.10100000352E+00 0.  1.
       -3    1    3    3    0  502 -0.31330184661E+03 -0.12570519761E+03 -0.71209623056E+03  0.78806147956E+03  0.10100000352E+00 0. -1.
</event>
<event>
 5   0  0.1484379E-05  0.2242219E+04  0.7818609E-02  0.8501058E-01
        1   -1    0    0  501    0  0.00000000000E+00  0.00000000000E+00  0.15862269261E+04  0.15862269261E+04  0.50400001928E-02 0. -1.
       -1   -1    0    0    0  501  0.00000000000E+00  0.00000000000E+00 -0.79237530149E+03  0.79237530150E+03  0.50400001928E-02 0.  1.
    10030    2    1    2    0    0  0.00000000000E+00  0.00000000000E+00  0.79385162465E+03  0.23786022276E+04  0.22422194708E+04 0.  0.
        1    1    3    3  502    0  0.37203971100E+03 -0.72833657165E+03  0.12103781613E+04  0.14607884862E+04  0.50400001928E-02 0. -1.
       -1    1    3    3    0  502 -0.37203971100E+03  0.72833657165E+03 -0.41652653664E+03  0.91781374141E+03  0.50400001928E-02 0.  1.
</event>
<event>
 5   0  0.3514294E-05  0.1371269E+04  0.7818609E-02  0.8974882E-01
        2   -1    0    0  501    0  0.00000000000E+00  0.00000000000E+00  0.12107625854E+04  0.12107625854E+04  0.25500000920E-02 0.  1.
       -2   -1    0    0    0  501  0.00000000000E+00  0.00000000000E+00 -0.38826352679E+03  0.38826352680E+03  0.25500000920E-02 0. -1.
    10030    2    1    2    0    0  0.00000000000E+00  0.00000000000E+00  0.82249905865E+03  0.15990261122E+04  0.13712694141E+04 0.  0.
        2    1    3    3  502    0 -0.68474010957E+03  0.11755681953E+02  0.44970825431E+03  0.81929526284E+03  0.25500000920E-02 0.  1.
       -2    1    3    3    0  502  0.68474010957E+03 -0.11755681953E+02  0.37279080434E+03  0.77973084941E+03  0.25500000920E-02 0. -1.
</event>
<event>
 5   0  0.3514294E-05  0.2630475E+04  0.7818609E-02  0.8357923E-01
       -2   -1    0    0    0  501  0.00000000000E+00  0.00000000000E+00  0.12185489739E+04  0.12185489739E+04  0.25500000920E-02 0.  1.
        2   -1    0    0  501    0  0.00000000000E+00  0.00000000000E+00 -0.14195976428E+04  0.14195976428E+04  0.25500000920E-02 0. -1.
    10030    2    1    2    0    0  0.00000000000E+00  0.00000000000E+00 -0.20104866894E+03  0.26381466167E+04  0.26304746728E+04 0.  0.
        2    1    3    3  502    0  0.65565449240E+02 -0.49809560780E+03  0.11185252600E+04  0.12261716111E+04  0.25500000920E-02 0.  1.
       -2    1    3    3    0  502 -0.65565449240E+02  0.49809560780E+03 -0.13195739289E+04  0.14119750056E+04  0.25500000920E-02 0. -1.
</event>
<event>
 5   0  0.1438701E-05  0.2489112E+04  0.7818609E-02  0.8406875E-01
        1   -1    0    0  501    0  0.00000000000E+00  0.00000000000E+00  0.11363167702E+04  0.11363167702E+04  0.50400001928E-02 0. -1.
       -1   -1    0    0    0  501  0.00000000000E+00  0.00000000000E+00 -0.13631058034E+04  0.13631058034E+04  0.50400001928E-02 0.  1.
    10030    2    1    2    0    0  0.00000000000E+00  0.00000000000E+00 -0.22678903316E+03  0.24994225736E+04  0.24891122786E+04 0.  0.
        4    1    3    3  502    0  0.22980281415E+03  0.40994397469E+03 -0.12705806671E+04  0.13547103898E+04  0.12699999809E+01 0.  1.
       -4    1    3    3    0  502 -0.22980281415E+03 -0.40994397469E+03  0.10437916339E+04  0.11447121838E+04  0.12699999809E+01 0. -1.
</event>
<event>
 5   0  0.1438701E-05  0.2560156E+04  0.7818609E-02  0.8381863E-01
       -1   -1    0    0    0  501  0.00000000000E+00  0.00000000000E+00  0.84673676342E+03  0.84673676343E+03  0.50400001928E-02 0.  1.
        1   -1    0    0  501    0  0.00000000000E+00  0.00000000000E+00 -0.19351942780E+04  0.19351942780E+04  0.50400001928E-02 0. -1.
    10030    2    1    2    0    0  0.00000000000E+00  0.00000000000E+00 -0.10884575145E+04  0.27819310414E+04  0.25601563542E+04 0.  0.
        4    1    3    3  502    0 -0.93266305113E+03  0.10759969724E+03  0.40129802676E+03  0.10210189915E+04  0.12699999809E+01 0.  1.
       -4    1    3    3    0  502  0.93266305113E+03 -0.10759969724E+03 -0.14897555413E+04  0.17609120499E+04  0.12699999809E+01 0. -1.
</event>
<event>
 5   0  0.1495517E-05  0.1720658E+04  0.7818609E-02  0.8749670E-01
        1   -1    0    0  501    0  0.00000000000E+00  0.00000000000E+00  0.11287792634E+04  0.11287792634E+04  0.50400001928E-02 0.  1.
       -1   -1    0    0    0  501  0.00000000000E+00  0.00000000000E+00 -0.65572215958E+03  0.65572215960E+03  0.50400001928E-02 0. -1.
    10030    2    1    2    0    0  0.00000000000E+00  0.00000000000E+00  0.47305710384E+03  0.17845014230E+04  0.17206575212E+04 0.  0.
        5    1    3    3  502    0 -0.17511426682E+03  0.10764030723E+03 -0.62986774056E+03  0.66257596001E+03  0.46999998093E+01 0. -1.
       -5    1    3    3    0  502  0.17511426682E+03 -0.10764030723E+03  0.11029248444E+04  0.11219254630E+04  0.46999998093E+01 0.  1.
</event>
<event>
 5   0  0.3676724E-05  0.2767385E+04  0.7818609E-02  0.8313466E-01
        2   -1    0    0  501    0  0.00000000000E+00  0.00000000000E+00  0.14360871025E+04  0.14360871025E+04  0.25500000920E-02 0.  1.
       -2   -1    0    0    0  501  0.00000000000E+00  0.00000000000E+00 -0.13332093678E+04  0.13332093678E+04  0.25500000920E-02 0. -1.
    10030    2    1    2    0    0  0.00000000000E+00  0.00000000000E+00  0.10287773471E+03  0.27692964703E+04  0.27673848869E+04 0.  0.
        4    1    3    3  502    0  0.69143339311E+03 -0.35880061482E+03 -0.10929354104E+04  0.13421354040E+04  0.12699999809E+01 0. -1.
       -4    1    3    3    0  502 -0.69143339311E+03  0.35880061482E+03  0.11958131451E+04  0.14271610663E+04  0.12699999809E+01 0.  1.
</event>
<event>
 5   0  0.1495517E-05  0.2689255E+04  0.7818609E-02  0.8338500E-01
        1   -1    0    0  501    0  0.00000000000E+00  0.00000000000E+00  0.20262049007E+04  0.20262049007E+04  0.50400001928E-02 0. -1.
       -1   -1    0    0    0  501  0.00000000000E+00  0.00000000000E+00 -0.89232028545E+03  0.89232028547E+03  0.50400001928E-02 0.  1.
    10030    2    1    2    0    0  0.00000000000E+00  0.00000000000E+00  0.11338846152E+04  0.29185251861E+04  0.26892554623E+04 0.  0.
        5    1    3    3  502    0 -0.58105647728E+03  0.10700178140E+04 -0.52163358508E+02  0.12187320699E+04  0.46999998093E+01 0. -1.
       -5    1    3    3    0  502  0.58105647728E+03 -0.10700178140E+04  0.11860479737E+04  0.16997931163E+04  0.46999998093E+01 0.  1.
</event>
<event>
 5   0  0.3652331E-05  0.2704974E+04  0.7818609E-02  0.8333393E-01
        2   -1    0    0  501    0  0.00000000000E+00  0.00000000000E+00  0.10605582277E+04  0.10605582277E+04  0.25500000920E-02 0.  1.
       -2   -1    0    0    0  501  0.00000000000E+00  0.00000000000E+00 -0.17247725548E+04  0.17247725548E+04  0.25500000920E-02 0. -1.
    10030    2    1    2    0    0  0.00000000000E+00  0.00000000000E+00 -0.66421432713E+03  0.27853307825E+04  0.27049744723E+04 0.  0.
        1    1    3    3  502    0 -0.28154747162E+03  0.97343868718E+03 -0.12544681249E+04  0.16126196492E+04  0.50400001928E-02 0. -1.
       -1    1    3    3    0  502  0.28154747162E+03 -0.97343868718E+03  0.59025379780E+03  0.11727111334E+04  0.50400001928E-02 0.  1.
</event>
<event>
 5   0  0.1495517E-05  0.2635843E+04  0.7818609E-02  0.8356127E-01
       -1   -1    0    0    0  501  0.00000000000E+00  0.00000000000E+00  0.12841269571E+04  0.12841269571E+04  0.50400001928E-02 0. -1.
        1   -1    0    0  501    0  0.00000000000E+00  0.00000000000E+00 -0.13526058309E+04  0.13526058309E+04  0.50400001928E-02 0.  1.
    10030    2    1    2    0    0  0.00000000000E+00  0.00000000000E+00 -0.68478873804E+02  0.26367327881E+04  0.26358434020E+04 0.  0.
        5    1    3    3  502    0  0.60899147834E+03  0.64045402995E+03 -0.10122418320E+04  0.13437662005E+04  0.46999998093E+01 0.  1.
       -5    1    3    3    0  502 -0.60899147834E+03 -0.64045402995E+03  0.94376295824E+03  0.12929665875E+04  0.46999998093E+01 0. -1.
</event>
<event>
 5   0  0.1449521E-05  0.1403984E+04  0.7818609E-02  0.8950940E-01
        1   -1    0    0  501    0  0.00000000000E+00  0.00000000000E+00  0.72155260104E+03  0.72155260105E+03  0.50400001928E-02 0. -1.
       -1   -1    0    0    0  501  0.00000000000E+00  0.00000000000E+00 -0.68296135019E+03  0.68296135021E+03  0.50400001928E-02 0.  1.
    10030    2    1    2    0    0  0.00000000000E+00  0.00000000000E+00  0.38591250847E+02  0.14045139513E+04  0.14039836732E+04 0.  0.
        3    1    3    3  502    0  0.20698157835E+03  0.13881321000E+03 -0.63721594495E+03  0.68421827785E+03  0.10100000352E+00 0.  1.
       -3    1    3    3    0  502 -0.20698157835E+03 -0.13881321000E+03  0.67580719579E+03  0.72029567341E+03  0.10100000352E+00 0. -1.
</event>
<event>
 5   0  0.1449521E-05  0.2791302E+04  0.7818609E-02  0.8305974E-01
        1   -1    0    0  501    0  0.00000000000E+00  0.00000000000E+00  0.12939068882E+04  0.12939068882E+04  0.50400001928E-02 0. -1.
       -1   -1    0    0    0  501  0.00000000000E+00  0.00000000000E+00 -0.15053958100E+04  0.15053958100E+04  0.50400001928E-02 0.  1.
    10030    2    1    2    0    0  0.00000000000E+00  0.00000000000E+00 -0.21148892179E+03  0.27993026983E+04  0.27913022109E+04 0.  0.
        3    1    3    3  502    0  0.32832538043E+03 -0.11009037161E+04  0.68902651277E+03  0.13396059470E+04  0.10100000352E+00 0. -1.
       -3    1    3    3    0  502 -0.32832538043E+03  0.11009037161E+04 -0.90051543456E+03  0.14596967513E+04  0.10100000352E+00 0.  1.
</event>
<event>
 5   0  0.1495517E-05  0.2699304E+04  0.7818609E-02  0.8335231E-01
        1   -1    0    0  501    0  0.00000000000E+00  0.00000000000E+00  0.22736134947E+04  0.22736134947E+04  0.50400001928E-02 0.  1.
       -1   -1    0    0    0  501  0.00000000000E+00  0.00000000000E+00 -0.80117404696E+03  0.80117404698E+03  0.50400001928E-02 0. -1.
    10030    2    1    2    0    0  0.00000000000E+00  0.00000000000E+00  0.14724394477E+04  0.30747875417E+04  0.26993037064E+04 0.  0.
        5    1    3    3  502    0 -0.28534875546E+03 -0.13145576400E+04  0.61116533581E+03  0.14775083278E+04  0.46999998093E+01 0. -1.
       -5    1    3    3    0  502  0.28534875546E+03  0.13145576400E+04  0.86127411191E+03  0.15972792138E+04  0.46999998093E+01 0.  1.
</event>
<event>
 5   0  0.3676724E-05  0.2635385E+04  0.7818609E-02  0.8356280E-01
        2   -1    0    0  501    0  0.00000000000E+00  0.00000000000E+00  0.80703094653E+03  0.80703094653E+03  0.25500000920E-02 0.  1.
       -2   -1    0    0    0  501  0.00000000000E+00  0.00000000000E+00 -0.21514828681E+04  0.21514828681E+04  0.25500000920E-02 0. -1.
    10030    2    1    2    0    0  0.00000000000E+00  0.00000000000E+00 -0.13444519216E+04  0.29585138147E+04  0.26353847958E+04 0.  0.
        4    1    3    3  502    0  0.17930388833E+03  0.19224203882E+03  0.77729345130E+03  0.82054470213E+03  0.12699999809E+01 0.  1.
       -4    1    3    3    0  502 -0.17930388833E+03 -0.19224203882E+03 -0.21217453729E+04  0.21379691126E+04  0.12699999809E+01 0. -1.
</event>
<event>
 5   0  0.3568647E-05  0.2622357E+04  0.7818609E-02  0.8360647E-01
        2   -1    0    0  501    0  0.00000000000E+00  0.00000000000E+00  0.20963410136E+04  0.20963410136E+04  0.25500000920E-02 0.  1.
       -2   -1    0    0    0  501  0.00000000000E+00  0.00000000000E+00 -0.82009019132E+03  0.82009019133E+03  0.25500000920E-02 0. -1.
    10030    2    1    2    0    0  0.00000000000E+00  0.00000000000E+00  0.12762508223E+04  0.29164312049E+04  0.26223567285E+04 0.  0.
        3    1    3    3  502    0 -0.12265965283E+04  0.62436966463E+02  0.11486833945E+04  0.16816393695E+04  0.10100000352E+00 0.  1.
       -3    1    3    3    0  502  0.12265965283E+04 -0.62436966463E+02  0.12756742783E+03  0.12347918355E+04  0.10100000352E+00 0. -1.
</event>
<event>
 5   0  0.3514294E-05  0.2519654E+04  0.7818609E-02  0.8396017E-01
        2   -1    0    0  501    0  0.00000000000E+00  0.00000000000E+00  0.11236455615E+04  0.11236455615E+04  0.25500000920E-02 0.  1.
       -2   -1    0    0    0  501  0.00000000000E+00  0.00000000000E+00 -0.14125128663E+04  0.14125128663E+04  0.25500000920E-02 0. -1.
    10030    2    1    2    0    0  0.00000000000E+00  0.00000000000E+00 -0.28886730485E+03  0.25361584278E+04  0.25196537959E+04 0.  0.
        2    1    3    3  502    0 -0.55511539318E+03 -0.35214944575E+03 -0.12261833383E+04  0.13912900168E+04  0.25500000920E-02 0. -1.
       -2    1    3    3    0  502  0.55511539318E+03  0.35214944575E+03  0.93731603343E+03  0.11448684110E+04  0.25500000920E-02 0.  1.
</event>
<event>
 5   0  0.3652331E-05  0.2743458E+04  0.7818609E-02  0.8321040E-01
       -2   -1    0    0    0  501  0.00000000000E+00  0.00000000000E+00  0.89280483262E+03  0.89280483262E+03  0.25500000920E-02 0. -1.
        2   -1    0    0  501    0  0.00000000000E+00  0.00000000000E+00 -0.21075611943E+04  0.21075611943E+04  0.25500000920E-02 0.  1.
    10030    2    1    2    0    0  0.00000000000E+00  0.00000000000E+00 -0.12147563617E+04  0.30003660269E+04  0.27434582696E+04 0.  0.
        1    1    3    3  502    0  0.51043433856E+03 -0.66935787942E+03  0.57712315789E+03  0.10206146796E+04  0.50400001928E-02 0. -1.
       -1    1    3    3    0  502 -0.51043433856E+03  0.66935787942E+03 -0.17918795196E+04  0.19797513474E+04  0.50400001928E-02 0.  1.
</event>
<event>
 5   0  0.3497949E-05  0.2586335E+04  0.7818609E-02  0.8372858E-01
        2   -1    0    0  501    0  0.00000000000E+00  0.00000000000E+00  0.15820868181E+04  0.15820868181E+04  0.25500000920E-02 0.  1.
       -2   -1    0    0    0  501  0.00000000000E+00  0.00000000000E+00 -0.10570104243E+04  0.10570104243E+04  0.25500000920E-02 0. -1.
    10030    2    1    2    0    0  0.00000000000E+00  0.00000000000E+00  0.52507639380E+03  0.26390972424E+04  0.25863350586E+04 0.  0.
        5    1    3    3  502    0 -0.99773387115E+03 -0.63084519178E+03 -0.27626956200E+03  0.12123471015E+04  0.46999998093E+01 0.  1.
       -5    1    3    3    0  502  0.99773387115E+03  0.63084519178E+03  0.80134595580E+03  0.14267501409E+04  0.46999998093E+01 0. -1.
</event>
<event>
 5   0  0.3568647E-05  0.2671995E+04  0.7818609E-02  0.8344149E-01
       -2   -1    0    0    0  501  0.00000000000E+00  0.00000000000E+00  0.10709002921E+04  0.10709002921E+04  0.25500000920E-02 0. -1.
        2   -1    0    0  501    0  0.00000000000E+00  0.00000000000E+00 -0.16667180871E+04  0.16667180871E+04  0.25500000920E-02 0.  1.
    10030    2    1    2    0    0  0.00000000000E+00  0.00000000000E+00 -0.59581779500E+03  0.27376183792E+04  0.26719946754E+04 0.  0.
        3    1    3    3  502    0  0.30306780756E+03 -0.28645110639E+03 -0.15983269997E+04  0.16518333876E+04  0.10100000352E+00 0.  1.
       -3    1    3    3    0  502 -0.30306780756E+03  0.28645110639E+03  0.10025092047E+04  0.10857849916E+04  0.10100000352E+00 0. -1.
</event>
<event>
 5   0  0.1484379E-05  0.2644465E+04  0.7818609E-02  0.8353252E-01
       -1   -1    0    0    0  501  0.00000000000E+00  0.00000000000E+00  0.13901486939E+04  0.13901486939E+04  0.50400001928E-02 0. -1.
        1   -1    0    0  501    0  0.00000000000E+00  0.00000000000E+00 -0.12576348363E+04  0.12576348363E+04  0.50400001928E-02 0.  1.
    10030    2    1    2    0    0  0.00000000000E+00  0.00000000000E+00  0.13251385754E+03  0.26477835302E+04  0.26444654848E+04 0.  0.
        1    1    3    3  502    0  0.10246978995E+04  0.78164438660E+03  0.36213691729E+03  0.13386996972E+04  0.50400001928E-02 0.  1.
       -1    1    3    3    0  502 -0.10246978995E+04 -0.78164438660E+03 -0.22962305975E+03  0.13090838330E+04  0.50400001928E-02 0. -1.
</event>
<event>
 5   0  0.1449521E-05  0.2410708E+04  0.7818609E-02  0.8435505E-01
       -1   -1    0    0    0  501  0.00000000000E+00  0.00000000000E+00  0.15119967394E+04  0.15119967394E+04  0.50400001928E-02 0.  1.
        1   -1    0    0  501    0  0.00000000000E+00  0.00000000000E+00 -0.96090059549E+03  0.96090059551E+03  0.50400001928E-02 0. -1.
    10030    2    1    2    0    0  0.00000000000E+00  0.00000000000E+00  0.55109614388E+03  0.24728973349E+04  0.24107082505E+04 0.  0.
        3    1    3    3  502    0  0.10417670969E+04  0.52448590351E+03  0.58755635529E+03  0.13059810978E+04  0.10100000352E+00 0. -1.
       -3    1    3    3    0  502 -0.10417670969E+04 -0.52448590351E+03 -0.36460211415E+02  0.11669162370E+04  0.10100000352E+00 0.  1.
</event>
<event>
 5   0  0.1495517E-05  0.2023349E+04  0.7818609E-02  0.8595782E-01
       -1   -1    0    0    0  501  0.00000000000E+00  0.00000000000E+00  0.74598352430E+03  0.74598352432E+03  0.50400001928E-02 0. -1.
        1   -1    0    0  501    0  0.00000000000E+00  0.00000000000E+00 -0.13719941137E+04  0.13719941137E+04  0.50400001928E-02 0.  1.
    10030    2    1    2    0    0  0.00000000000E+00  0.00000000000E+00 -0.62601058942E+03  0.21179776380E+04  0.20233487137E+04 0.  0.
        5    1    3    3  502    0 -0.91387269114E+02 -0.39605691307E+03 -0.12827503866E+04  0.13456163479E+04  0.46999998093E+01 0.  1.
       -5    1    3    3    0  502  0.91387269114E+02  0.39605691307E+03  0.65673979719E+03  0.77236129017E+03  0.46999998093E+01 0. -1.
</event>
<event>
 5   0  0.1449521E-05  0.2582924E+04  0.7818609E-02  0.8374025E-01
       -1   -1    0    0    0  501  0.00000000000E+00  0.00000000000E+00  0.78234427738E+03  0.78234427740E+03  0.50400001928E-02 0.  1.
        1   -1    0    0  501    0  0.00000000000E+00  0.00000000000E+00 -0.21318931834E+04  0.21318931834E+04  0.50400001928E-02 0. -1.
    10030    2    1    2    0    0  0.00000000000E+00  0.00000000000E+00 -0.13495489061E+04  0.29142374608E+04  0.25829242591E+04 0.  0.
        3    1    3    3  502    0  0.14004874152E+03  0.12721694736E+04 -0.47985578281E+03  0.13668541992E+04  0.10100000352E+00 0. -1.
       -3    1    3    3    0  502 -0.14004874152E+03 -0.12721694736E+04 -0.86969312324E+03  0.15473832616E+04  0.10100000352E+00 0.  1.
</event>
<event>
 5   0  0.3514294E-05  0.2775375E+04  0.7818609E-02  0.8310955E-01
        2   -1    0    0  501    0  0.00000000000E+00  0.00000000000E+00  0.13436909008E+04  0.13436909008E+04  0.25500000920E-02 0.  1.
       -2   -1    0    0    0  501  0.00000000000E+00  0.00000000000E+00 -0.14331243932E+04  0.14331243932E+04  0.25500000920E-02 0. -1.
    10030    2    1    2    0    0  0.00000000000E+00  0.00000000000E+00 -0.89433492340E+02  0.27768152940E+04  0.27753747184E+04 0.  0.
        2    1    3    3  502    0 -0.57810639814E+03 -0.12580341501E+04 -0.13867649447E+03  0.13914338290E+04  0.25500000920E-02 0. -1.
       -2    1    3    3    0  502  0.57810639814E+03  0.12580341501E+04  0.49243002128E+02  0.13853814650E+04  0.25500000920E-02 0.  1.
</event>
<event>
 5   0  0.3568647E-05  0.2683218E+04  0.7818609E-02  0.8340471E-01
       -2   -1    0    0    0  501  0.00000000000E+00  0.00000000000E+00  0.14616936495E+04  0.14616936495E+04  0.25500000920E-02 0. -1.
        2   -1    0    0  501    0  0.00000000000E+00  0.00000000000E+00 -0.12313898809E+04  0.12313898809E+04  0.25500000920E-02 0.  1.
    10030    2    1    2    0    0  0.00000000000E+00  0.00000000000E+00  0.23030376863E+03  0.26930835303E+04  0.26832180447E+04 0.  0.
        3    1    3    3  502    0 -0.29643083799E+03  0.35462655638E+02  0.14279310973E+04  0.14588063855E+04  0.10100000352E+00 0. -1.
       -3    1    3    3    0  502  0.29643083799E+03 -0.35462655638E+02 -0.11976273287E+04  0.12342771448E+04  0.10100000352E+00 0.  1.
</event>
<event>
 5   0  0.1449521E-05  0.3154139E+04  0.7818609E-02  0.8201035E-01
       -1   -1    0    0    0  501  0.00000000000E+00  0.00000000000E+00  0.15769915159E+04  0.15769915159E+04  0.50400001928E-02 0.  1.
        1   -1    0    0  501    0  0.00000000000E+00  0.00000000000E+00 -0.15771478849E+04  0.15771478849E+04  0.50400001928E-02 0. -1.
    10030    2    1    2    0    0  0.00000000000E+00  0.00000000000E+00 -0.15636892482E+00  0.31541394008E+04  0.31541393969E+04 0.  0.
        3    1    3    3  502    0 -0.11976304400E+04 -0.73424657953E+03  0.71665894626E+03  0.15770341676E+04  0.10100000352E+00 0.  1.
       -3    1    3    3    0  502  0.11976304400E+04  0.73424657953E+03 -0.71681531518E+03  0.15771052332E+04  0.10100000352E+00 0. -1.
</event>
<event>
 5   0  0.1474012E-05  0.2675223E+04  0.7818609E-02  0.8343089E-01
        1   -1    0    0  501    0  0.00000000000E+00  0.00000000000E+00  0.18929998559E+04  0.18929998559E+04  0.50400001928E-02 0.  1.
       -1   -1    0    0    0  501  0.00000000000E+00  0.00000000000E+00 -0.94516886463E+03  0.94516886465E+03  0.50400001928E-02 0. -1.
    10030    2    1    2    0    0  0.00000000000E+00  0.00000000000E+00  0.94783099123E+03  0.28381687205E+04  0.26752229997E+04 0.  0.
        2    1    3    3  502    0 -0.21229051889E+03 -0.12716827233E+04  0.95897731113E+02  0.12928420584E+04  0.25500000920E-02 0.  1.
       -2    1    3    3    0  502  0.21229051889E+03  0.12716827233E+04  0.85193326012E+03  0.15453266622E+04  0.25500000920E-02 0. -1.
</event>
<event>
 5   0  0.3514294E-05  0.2594292E+04  0.7818609E-02  0.8370143E-01
        2   -1    0    0  501    0  0.00000000000E+00  0.00000000000E+00  0.78657836748E+03  0.78657836748E+03  0.25500000920E-02 0.  1.
       -2   -1    0    0    0  501  0.00000000000E+00  0.00000000000E+00 -0.21391230272E+04  0.21391230272E+04  0.25500000920E-02 0. -1.
    10030    2    1    2    0    0  0.00000000000E+00  0.00000000000E+00 -0.13525446597E+04  0.29257013946E+04  0.25942921181E+04 0.  0.
        2    1    3    3  502    0  0.43770096249E+03 -0.37321568049E+02  0.70013770418E+03  0.82653967650E+03  0.25500000920E-02 0.  1.
       -2    1    3    3    0  502 -0.43770096249E+03  0.37321568049E+02 -0.20526823639E+04  0.20991617182E+04  0.25500000920E-02 0. -1.
</event>
<event>
 5   0  0.1438701E-05  0.2668458E+04  0.7818609E-02  0.8345312E-01
       -1   -1    0    0    0  501  0.00000000000E+00  0.00000000000E+00  0.11890515319E+04  0.11890515319E+04  0.50400001928E-02 0. -1.
        1   -1    0    0  501    0  0.00000000000E+00  0.00000000000E+00 -0.14971320107E+04  0.14971320107E+04  0.50400001928E-02 0.  1.
    10030    2    1    2    0    0  0.00000000000E+00  0.00000000000E+00 -0.30808047881E+03  0.26861835426E+04  0.26684580647E+04 0.  0.
        4    1    3    3  502    0 -0.91278372188E+03 -0.91409167312E+03 -0.49006560058E+03  0.13816307812E+04  0.12699999809E+01 0. -1.
       -4    1    3    3    0  502  0.91278372188E+03  0.91409167312E+03  0.18198512177E+03  0.13045527614E+04  0.12699999809E+01 0.  1.
</event>
<event>
 5   0  0.3652331E-05  0.2730856E+04  0.7818609E-02  0.8325062E-01
       -2   -1    0    0    0  501  0.00000000000E+00  0.00000000000E+00  0.76419192132E+03  0.76419192132E+03  0.25500000920E-02 0.  1.
        2   -1    0    0  501    0  0.00000000000E+00  0.00000000000E+00 -0.24396923554E+04  0.24396923554E+04  0.25500000920E-02 0. -1.
    10030    2    1    2    0    0  0.00000000000E+00  0.00000000000E+00 -0.16755004340E+04  0.32038842767E+04  0.27308556816E+04 0.  0.
        1    1    3    3  502    0  0.12163889692E+04  0.97867981136E+02 -0.11910098600E+03  0.12261179841E+04  0.50400001928E-02 0.  1.
       -1    1    3    3    0  502 -0.12163889692E+04 -0.97867981136E+02 -0.15563994480E+04  0.19777662926E+04  0.50400001928E-02 0. -1.
</event>
<event>
 5   0  0.1438701E-05  0.2636428E+04  0.7818609E-02  0.8355932E-01
        1   -1    0    0  501    0  0.00000000000E+00  0.00000000000E+00  0.11044118939E+04  0.11044118939E+04  0.50400001928E-02 0. -1.
       -1   -1    0    0    0  501  0.00000000000E+00  0.00000000000E+00 -0.15734063434E+04  0.15734063434E+04  0.50400001928E-02 0.  1.
    10030    2    1    2    0    0  0.00000000000E+00  0.00000000000E+00 -0.46899444954E+03  0.26778182373E+04  0.26364284019E+04 0.  0.
        4    1    3    3  502    0 -0.14297437792E+03  0.11948045364E+04  0.31217876702E+03  0.12431640071E+04  0.12699999809E+01 0. -1.
       -4    1    3    3    0  502  0.14297437792E+03 -0.11948045364E+04 -0.78117321656E+03  0.14346542302E+04  0.12699999809E+01 0.  1.
</event>
<event>
 5   0  0.1449521E-05  0.2645579E+04  0.7818609E-02  0.8352882E-01
        1   -1    0    0  501    0  0.00000000000E+00  0.00000000000E+00  0.13337541302E+04  0.13337541302E+04  0.50400001928E-02 0. -1.
       -1   -1    0    0    0  501  0.00000000000E+00  0.00000000000E+00 -0.13119146480E+04  0.13119146480E+04  0.50400001928E-02 0.  1.
    10030    2    1    2    0    0  0.00000000000E+00  0.00000000000E+00  0.21839482215E+02  0.26456687782E+04  0.26455786363E+04 0.  0.
        3    1    3    3  502    0  0.11901854283E+04 -0.21485053137E+03 -0.52488715344E+03  0.13184114072E+04  0.10100000352E+00 0.  1.
       -3    1    3    3    0  502 -0.11901854283E+04  0.21485053137E+03  0.54672663566E+03  0.13272573710E+04  0.10100000352E+00 0. -1.
</event>
<event>
 5   0  0.1474012E-05  0.2631017E+04  0.7818609E-02  0.8357741E-01
       -1   -1    0    0    0  501  0.00000000000E+00  0.00000000000E+00  0.90678286678E+03  0.90678286680E+03  0.50400001928E-02 0.  1.
        1   -1    0    0  501    0  0.00000000000E+00  0.00000000000E+00 -0.19084638993E+04  0.19084638993E+04  0.50400001928E-02 0. -1.
    10030    2    1    2    0    0  0.00000000000E+00  0.00000000000E+00 -0.10016810325E+04  0.28152467661E+04  0.26310168117E+04 0.  0.
        2    1    3    3  502    0 -0.69822843308E+03 -0.10209113945E+04 -0.98030049553E+03  0.15782180083E+04  0.25500000920E-02 0. -1.
       -2    1    3    3    0  502  0.69822843308E+03  0.10209113945E+04 -0.21380537004E+02  0.12370287578E+04  0.25500000920E-02 0.  1.
</event>
<event>
 5   0  0.3652331E-05  0.2661461E+04  0.7818609E-02  0.8347619E-01
       -2   -1    0    0    0  501  0.00000000000E+00  0.00000000000E+00  0.10225759781E+04  0.10225759781E+04  0.25500000920E-02 0. -1.
        2   -1    0    0  501    0  0.00000000000E+00  0.00000000000E+00 -0.17317475169E+04  0.17317475169E+04  0.25500000920E-02 0.  1.
    10030    2    1    2    0    0  0.00000000000E+00  0.00000000000E+00 -0.70917153880E+03  0.27543234951E+04  0.26614608102E+04 0.  0.
        1    1    3    3  502    0  0.12108262595E+04 -0.31188922221E+03  0.11679378171E+03  0.12557929387E+04  0.50400001928E-02 0. -1.
       -1    1    3    3    0  502 -0.12108262595E+04  0.31188922221E+03 -0.82596532051E+03  0.14985305563E+04  0.50400001928E-02 0.  1.
</event>
<event>
 5   0  0.3497949E-05  0.1778547E+04  0.7818609E-02  0.8717792E-01
        2   -1    0    0  501    0  0.00000000000E+00  0.00000000000E+00  0.14642956492E+04  0.14642956492E+04  0.25500000920E-02 0.  1.
       -2   -1    0    0    0  501  0.00000000000E+00  0.00000000000E+00 -0.54006002172E+03  0.54006002172E+03  0.25500000920E-02 0. -1.
    10030    2    1    2    0    0  0.00000000000E+00  0.00000000000E+00  0.92423562746E+03  0.20043556709E+04  0.17785472050E+04 0.  0.
        5    1    3    3  502    0 -0.88721093961E+03 -0.51997976663E+02  0.42759505362E+03  0.98625892180E+03  0.46999998093E+01 0.  1.
       -5    1    3    3    0  502  0.88721093961E+03  0.51997976663E+02  0.49664057384E+03  0.10180967491E+04  0.46999998093E+01 0. -1.
</event>
<event>
 5   0  0.1495517E-05  0.2620347E+04  0.7818609E-02  0.8361323E-01
       -1   -1    0    0    0  501  0.00000000000E+00  0.00000000000E+00  0.14407592600E+04  0.14407592600E+04  0.50400001928E-02 0. -1.
        1   -1    0    0  501    0  0.00000000000E+00  0.00000000000E+00 -0.11914235045E+04  0.11914235045E+04  0.50400001928E-02 0.  1.
    10030    2    1    2    0    0  0.00000000000E+00  0.00000000000E+00  0.24933575552E+03  0.26321827646E+04  0.26203468830E+04 0.  0.
        5    1    3    3  502    0  0.82794746659E+03  0.77456888219E+03  0.78419913501E+03  0.13785660427E+04  0.46999998093E+01 0. -1.
       -5    1    3    3    0  502 -0.82794746659E+03 -0.77456888219E+03 -0.53486337950E+03  0.12536167219E+04  0.46999998093E+01 0.  1.
</event>
<event>
 5   0  0.3676724E-05  0.2760201E+04  0.7818609E-02  0.8315732E-01
       -2   -1    0    0    0  501  0.00000000000E+00  0.00000000000E+00  0.15563706511E+04  0.15563706511E+04  0.25500000920E-02 0.  1.
        2   -1    0    0  501    0  0.00000000000E+00  0.00000000000E+00 -0.12237939772E+04  0.12237939772E+04  0.25500000920E-02 0. -1.
    10030    2    1    2    0    0  0.00000000000E+00  0.00000000000E+00  0.33257667394E+03  0.27801646284E+04  0.27602007385E+04 0.  0.
        4    1    3    3  502    0  0.13725757568E+03  0.90120763232E+03  0.12099586960E+04  0.15149311858E+04  0.12699999809E+01 0.  1.
       -4    1    3    3    0  502 -0.13725757568E+03 -0.90120763232E+03 -0.87738202209E+03  0.12652334426E+04  0.12699999809E+01 0. -1.
</event>
<event>
 5   0  0.1484379E-05  0.1709248E+04  0.7818609E-02  0.8756107E-01
       -1   -1    0    0    0  501  0.00000000000E+00  0.00000000000E+00  0.65473909542E+03  0.65473909544E+03  0.50400001928E-02 0. -1.
        1   -1    0    0  501    0  0.00000000000E+00  0.00000000000E+00 -0.11155317070E+04  0.11155317070E+04  0.50400001928E-02 0.  1.
    10030    2    1    2    0    0  0.00000000000E+00  0.00000000000E+00 -0.46079261154E+03  0.17702708024E+04  0.17092480461E+04 0.  0.
        1    1    3    3  502    0 -0.76038800131E+03  0.38835646453E+03 -0.26875314012E+03  0.89511949282E+03  0.50400001928E-02 0. -1.
       -1    1    3    3    0  502  0.76038800131E+03 -0.38835646453E+03 -0.19203947142E+03  0.87515130959E+03  0.50400001928E-02 0.  1.
</event>
<event>
 5   0  0.1495517E-05  0.2423092E+04  0.7818609E-02  0.8430908E-01
       -1   -1    0    0    0  501  0.00000000000E+00  0.00000000000E+00  0.99263334595E+03  0.99263334596E+03  0.50400001928E-02 0.  1.
        1   -1    0    0  501    0  0.00000000000E+00  0.00000000000E+00 -0.14787372366E+04  0.14787372366E+04  0.50400001928E-02 0. -1.
    10030    2    1    2    0    0  0.00000000000E+00  0.00000000000E+00 -0.48610389067E+03  0.24713705826E+04  0.24230921493E+04 0.  0.
        5    1    3    3  502    0  0.98050918961E+02 -0.12072994486E+04 -0.26877061921E+03  0.12407440014E+04  0.46999998093E+01 0. -1.
       -5    1    3    3    0  502 -0.98050918961E+02  0.12072994486E+04 -0.21733327145E+03  0.12306265811E+04  0.46999998093E+01 0.  1.
</event>
<event>
 5   0  0.1474012E-05  0.2630013E+04  0.7818609E-02  0.8358077E-01
       -1   -1    0    0    0  501  0.00000000000E+00  0.00000000000E+00  0.13062658376E+04  0.13062658376E+04  0.50400001928E-02 0. -1.
        1   -1    0    0  501    0  0.00000000000E+00  0.00000000000E+00 -0.13238061385E+04  0.13238061385E+04  0.50400001928E-02 0.  1.
    10030    2    1    2    0    0  0.00000000000E+00  0.00000000000E+00 -0.17540300936E+02  0.26300719761E+04  0.26300134862E+04 0.  0.
        2    1    3    3  502    0  0.11912565450E+04 -0.55675285252E+03  0.45282521862E+01  0.13149472992E+04  0.25500000920E-02 0.  1.
       -2    1    3    3    0  502 -0.11912565450E+04  0.55675285252E+03 -0.22068553122E+02  0.13151246769E+04  0.25500000920E-02 0. -1.
</event>
<event>
 5   0  0.1474012E-05  0.2691577E+04  0.7818609E-02  0.8337743E-01
       -1   -1    0    0    0  501  0.00000000000E+00  0.00000000000E+00  0.10299124151E+04  0.10299124151E+04  0.50400001928E-02 0. -1.
        1   -1    0    0  501    0  0.00000000000E+00  0.00000000000E+00 -0.17585449368E+04  0.17585449368E+04  0.50400001928E-02 0.  1.
    10030    2    1    2    0    0  0.00000000000E+00  0.00000000000E+00 -0.72863252168E+03  0.27884573519E+04  0.26915774281E+04 0.  0.
        2    1    3    3  502    0 -0.32954014128E+03  0.54595365166E+03 -0.15920825581E+04  0.17150478029E+04  0.25500000920E-02 0.  1.
       -2    1    3    3    0  502  0.32954014128E+03 -0.54595365166E+03  0.86345003639E+03  0.10734095490E+04  0.25500000920E-02 0. -1.
</event>
<event>
 5   0  0.1495517E-05  0.2637728E+04  0.7818609E-02  0.8355498E-01
       -1   -1    0    0    0  501  0.00000000000E+00  0.00000000000E+00  0.68151407549E+03  0.68151407551E+03  0.50400001928E-02 0. -1.
        1   -1    0    0  501    0  0.00000000000E+00  0.00000000000E+00 -0.25522614659E+04  0.25522614659E+04  0.50400001928E-02 0.  1.
    10030    2    1    2    0    0  0.00000000000E+00  0.00000000000E+00 -0.18707473905E+04  0.32337755415E+04  0.26377278961E+04 0.  0.
        5    1    3    3  502    0  0.91982058009E+03 -0.62532963455E+03 -0.18042336553E+04  0.21195254715E+04  0.46999998093E+01 0.  1.
       -5    1    3    3    0  502 -0.91982058009E+03  0.62532963455E+03 -0.66513735138E+02  0.11142500699E+04  0.46999998093E+01 0. -1.
</event>
<event>
 5   0  0.1495517E-05  0.2627444E+04  0.7818609E-02  0.8358939E-01
       -1   -1    0    0    0  501  0.00000000000E+00  0.00000000000E+00  0.12621289796E+04  0.12621289796E+04  0.50400001928E-02 0. -1.
        1   -1    0    0  501    0  0.00000000000E+00  0.00000000000E+00 -0.13674235166E+04  0.13674235166E+04  0.50400001928E-02 0.  1.
    10030    2    1    2    0    0  0.00000000000E+00  0.00000000000E+00 -0.10529453700E+03  0.26295524961E+04  0.26274435085E+04 0.  0.
        5    1    3    3  502    0 -0.10352954712E+04 -0.41540271928E+03 -0.74706776630E+03  0.13425827607E+04  0.46999998093E+01 0.  1.
       -5    1    3    3    0  502  0.10352954712E+04  0.41540271928E+03  0.64177322930E+03  0.12869697354E+04  0.46999998093E+01 0. -1.
</event>
<event>
 5   0  0.1474012E-05  0.2632032E+04  0.7818609E-02  0.8357401E-01
        1   -1    0    0  501    0  0.00000000000E+00  0.00000000000E+00  0.13479951967E+04  0.13479951967E+04  0.50400001928E-02 0.  1.
       -1   -1    0    0    0  501  0.00000000000E+00  0.00000000000E+00 -0.12847958960E+04  0.12847958960E+04  0.50400001928E-02 0. -1.
    10030    2    1    2    0    0  0.00000000000E+00  0.00000000000E+00  0.63199300720E+02  0.26327910927E+04  0.26320324440E+04 0.  0.
        2    1    3    3  502    0  0.12646816879E+04 -0.35162836736E+03  0.12562895813E+03  0.13186526895E+04  0.25500000920E-02 0.  1.
       -2    1    3    3    0  502 -0.12646816879E+04  0.35162836736E+03 -0.62429657409E+02  0.13141384032E+04  0.25500000920E-02 0. -1.
</event>
<event>
 5   0  0.1474012E-05  0.2555479E+04  0.7818609E-02  0.8383483E-01
       -1   -1    0    0    0  501  0.00000000000E+00  0.00000000000E+00  0.92718008805E+03  0.92718008806E+03  0.50400001928E-02 0.  1.
        1   -1    0    0  501    0  0.00000000000E+00  0.00000000000E+00 -0.17608427719E+04  0.17608427719E+04  0.50400001928E-02 0. -1.
    10030    2    1    2    0    0  0.00000000000E+00  0.00000000000E+00 -0.83366268385E+03  0.26880228600E+04  0.25554790990E+04 0.  0.
        2    1    3    3  502    0 -0.32351075575E+03 -0.74756655225E+03 -0.14523208016E+04  0.16651578514E+04  0.25500000920E-02 0. -1.
       -2    1    3    3    0  502  0.32351075575E+03  0.74756655225E+03  0.61865811778E+03  0.10228650086E+04  0.25500000920E-02 0.  1.
</event>
<event>
 5   0  0.1228050E-05  0.2736214E+04  0.7818609E-02  0.8323350E-01
       -4   -1    0    0    0  501  0.00000000000E+00  0.00000000000E+00  0.97466285513E+03  0.97466368255E+03  0.12699999809E+01 0.  1.
        4   -1    0    0  501    0  0.00000000000E+00  0.00000000000E+00 -0.19203716337E+04  0.19203720537E+04  0.12699999809E+01 0. -1.
    10030    2    1    2    0    0  0.00000000000E+00  0.00000000000E+00 -0.94570877861E+03  0.28950357362E+04  0.27362139573E+04 0.  0.
        3    1    3    3  502    0  0.25791857180E+03 -0.10720995191E+04  0.38396383643E+03  0.11676247713E+04  0.10100000352E+00 0. -1.
       -3    1    3    3    0  502 -0.25791857180E+03  0.10720995191E+04 -0.13296726150E+04  0.17274109650E+04  0.10100000352E+00 0.  1.
</event>
<event>
 5   0  0.3652331E-05  0.2700223E+04  0.7818609E-02  0.8334932E-01
        2   -1    0    0  501    0  0.00000000000E+00  0.00000000000E+00  0.18376224981E+04  0.18376224981E+04  0.25500000920E-02 0.  1.
       -2   -1    0    0    0  501  0.00000000000E+00  0.00000000000E+00 -0.99193481137E+03  0.99193481137E+03  0.25500000920E-02 0. -1.
    10030    2    1    2    0    0  0.00000000000E+00  0.00000000000E+00  0.84568768674E+03  0.28295573095E+04  0.27002234915E+04 0.  0.
        1    1    3    3  502    0 -0.49655432911E+03  0.62861551995E+03  0.15616717028E+04  0.17551473389E+04  0.50400001928E-02 0.  1.
       -1    1    3    3    0  502  0.49655432911E+03 -0.62861551995E+03 -0.71598401608E+03  0.10744099706E+04  0.50400001928E-02 0. -1.
</event>
<event>
 5   0  0.1495517E-05  0.2493653E+04  0.7818609E-02  0.8405250E-01
        1   -1    0    0  501    0  0.00000000000E+00  0.00000000000E+00  0.16051462888E+04  0.16051462888E+04  0.50400001928E-02 0. -1.
       -1   -1    0    0    0  501  0.00000000000E+00  0.00000000000E+00 -0.96849525943E+03  0.96849525945E+03  0.50400001928E-02 0.  1.
    10030    2    1    2    0    0  0.00000000000E+00  0.00000000000E+00  0.63665102934E+03  0.25736415482E+04  0.24936532008E+04 0.  0.
        5    1    3    3  502    0  0.25492191719E+03  0.66044220229E+03  0.13775930219E+04  0.15488556131E+04  0.46999998093E+01 0. -1.
       -5    1    3    3    0  502 -0.25492191719E+03 -0.66044220229E+03 -0.74094199255E+03  0.10247859351E+04  0.46999998093E+01 0.  1.
</event>
<event>
 5   0  0.1474012E-05  0.2681160E+04  0.7818609E-02  0.8341144E-01
        1   -1    0    0  501    0  0.00000000000E+00  0.00000000000E+00  0.21380466293E+04  0.21380466293E+04  0.50400001928E-02 0.  1.
       -1   -1    0    0    0  501  0.00000000000E+00  0.00000000000E+00 -0.84055896972E+03  0.84055896973E+03  0.50400001928E-02 0. -1.
    10030    2    1    2    0    0  0.00000000000E+00  0.00000000000E+00  0.12974876596E+04  0.29786055990E+04  0.26811596536E+04 0.  0.
        2    1    3    3  502    0  0.24354535869E+03  0.10854323614E+03 -0.81080307361E+03  0.85352070861E+03  0.25500000920E-02 0. -1.
       -2    1    3    3    0  502 -0.24354535869E+03 -0.10854323614E+03  0.21082907332E+04  0.21250848904E+04  0.25500000920E-02 0.  1.
</event>
<event>
 5   0  0.1484379E-05  0.2673218E+04  0.7818609E-02  0.8343747E-01
        1   -1    0    0  501    0  0.00000000000E+00  0.00000000000E+00  0.14917753386E+04  0.14917753386E+04  0.50400001928E-02 0.  1.
       -1   -1    0    0    0  501  0.00000000000E+00  0.00000000000E+00 -0.11975825247E+04  0.11975825248E+04  0.50400001928E-02 0. -1.
    10030    2    1    2    0    0  0.00000000000E+00  0.00000000000E+00  0.29419281383E+03  0.26893578633E+04  0.26732183423E+04 0.  0.
        1    1    3    3  502    0  0.78151954150E+03 -0.81655918429E+03 -0.57064092890E+03  0.12661645884E+04  0.50400001928E-02 0. -1.
       -1    1    3    3    0  502 -0.78151954150E+03  0.81655918429E+03  0.86483374273E+03  0.14231932749E+04  0.50400001928E-02 0.  1.
</event>
<event>
 5   0  0.3497949E-05  0.2437462E+04  0.7818609E-02  0.8425610E-01
        2   -1    0    0  501    0  0.00000000000E+00  0.00000000000E+00  0.97826446837E+03  0.97826446837E+03  0.25500000920E-02 0.  1.
       -2   -1    0    0    0  501  0.00000000000E+00  0.00000000000E+00 -0.15183061142E+04  0.15183061142E+04  0.25500000920E-02 0. -1.
    10030    2    1    2    0    0  0.00000000000E+00  0.00000000000E+00 -0.54004164584E+03  0.24965705826E+04  0.24374617319E+04 0.  0.
        5    1    3    3  502    0  0.14955818121E+03 -0.68086540095E+03 -0.12939316443E+04  0.14697709120E+04  0.46999998093E+01 0. -1.
       -5    1    3    3    0  502 -0.14955818121E+03  0.68086540095E+03  0.75388999842E+03  0.10267996706E+04  0.46999998093E+01 0.  1.
</event>
<event>
 5   0  0.3497949E-05  0.1463902E+04  0.7818609E-02  0.8908819E-01
        2   -1    0    0  501    0  0.00000000000E+00  0.00000000000E+00  0.59992009352E+03  0.59992009352E+03  0.25500000920E-02 0. -1.
       -2   -1    0    0    0  501  0.00000000000E+00  0.00000000000E+00 -0.89303973333E+03  0.89303973333E+03  0.25500000920E-02 0.  1.
    10030    2    1    2    0    0  0.00000000000E+00  0.00000000000E+00 -0.29311963981E+03  0.14929598269E+04  0.14639022923E+04 0.  0.
        5    1    3    3  502    0  0.90631822683E+02 -0.57722246479E+03 -0.59613932287E+03  0.83474791609E+03  0.46999998093E+01 0.  1.
       -5    1    3    3    0  502 -0.90631822683E+02  0.57722246479E+03  0.30301968306E+03  0.65821191076E+03  0.46999998093E+01 0. -1.
</event>
<event>
 5   0  0.3676724E-05  0.2674352E+04  0.7818609E-02  0.8343375E-01
       -2   -1    0    0    0  501  0.00000000000E+00  0.00000000000E+00  0.12088045438E+04  0.12088045438E+04  0.25500000920E-02 0. -1.
        2   -1    0    0  501    0  0.00000000000E+00  0.00000000000E+00 -0.14791796006E+04  0.14791796006E+04  0.25500000920E-02 0.  1.
    10030    2    1    2    0    0  0.00000000000E+00  0.00000000000E+00 -0.27037505680E+03  0.26879841445E+04  0.26743515269E+04 0.  0.
        4    1    3    3  502    0 -0.81567311415E+03  0.68976970087E+03  0.67323369928E+03  0.12626757684E+04  0.12699999809E+01 0. -1.
       -4    1    3    3    0  502  0.81567311415E+03 -0.68976970087E+03 -0.94360875608E+03  0.14253083760E+04  0.12699999809E+01 0.  1.
</event>
<event>
 5   0  0.1495517E-05  0.2465911E+04  0.7818609E-02  0.8415231E-01
       -1   -1    0    0    0  501  0.00000000000E+00  0.00000000000E+00  0.15881553497E+04  0.15881553497E+04  0.50400001928E-02 0.  1.
        1   -1    0    0  501    0  0.00000000000E+00  0.00000000000E+00 -0.95719834892E+03  0.95719834893E+03  0.50400001928E-02 0. -1.
    10030    2    1    2    0    0  0.00000000000E+00  0.00000000000E+00  0.63095700078E+03  0.25453536986E+04  0.24659113355E+04 0.  0.
        5    1    3    3  502    0 -0.13164214217E+03 -0.12224307718E+04  0.22036358014E+03  0.12490992126E+04  0.46999998093E+01 0.  1.
       -5    1    3    3    0  502  0.13164214217E+03  0.12224307718E+04  0.41059342063E+03  0.12962544860E+04  0.46999998093E+01 0. -1.
</event>
<event>
 5   0  0.3514294E-05  0.2686652E+04  0.7818609E-02  0.8339349E-01
       -2   -1    0    0    0  501  0.00000000000E+00  0.00000000000E+00  0.10940915528E+04  0.10940915528E+04  0.25500000920E-02 0.  1.
        2   -1    0    0  501    0  0.00000000000E+00  0.00000000000E+00 -0.16493365007E+04  0.16493365007E+04  0.25500000920E-02 0. -1.
    10030    2    1    2    0    0  0.00000000000E+00  0.00000000000E+00 -0.55524494781E+03  0.27434280535E+04  0.26866522910E+04 0.  0.
        2    1    3    3  502    0  0.10431232529E+04  0.60612177377E+02 -0.11397058201E+04  0.15461918746E+04  0.25500000920E-02 0. -1.
       -2    1    3    3    0  502 -0.10431232529E+04 -0.60612177377E+02  0.58446087227E+03  0.11972361789E+04  0.25500000920E-02 0.  1.
</event>
<event>
 5   0  0.1474012E-05  0.2753375E+04  0.7818609E-02  0.8317891E-01
       -1   -1    0    0    0  501  0.00000000000E+00  0.00000000000E+00  0.91852153258E+03  0.91852153260E+03  0.50400001928E-02 0. -1.
        1   -1    0    0  501    0  0.00000000000E+00  0.00000000000E+00 -0.20633903802E+04  0.20633903802E+04  0.50400001928E-02 0.  1.
    10030    2    1    2    0    0  0.00000000000E+00  0.00000000000E+00 -0.11448688476E+04  0.29819119128E+04  0.27533750158E+04 0.  0.
        2    1    3    3  502    0  0.90337107650E+03 -0.71818806960E+03  0.24046341946E+03  0.11788537065E+04  0.25500000920E-02 0. -1.
       -2    1    3    3    0  502 -0.90337107650E+03  0.71818806960E+03 -0.13853322671E+04  0.18030582063E+04  0.25500000920E-02 0.  1.
</event>
<event>
 5   0  0.3514294E-05  0.2687960E+04  0.7818609E-02  0.8338922E-01
       -2   -1    0    0    0  501  0.00000000000E+00  0.00000000000E+00  0.11231355052E+04  0.11231355052E+04  0.25500000920E-02 0.  1.
        2   -1    0    0  501    0  0.00000000000E+00  0.00000000000E+00 -0.16082493436E+04  0.16082493436E+04  0.25500000920E-02 0. -1.
    10030    2    1    2    0    0  0.00000000000E+00  0.00000000000E+00 -0.48511383838E+03  0.27313848488E+04  0.26879597758E+04 0.  0.
        2    1    3    3  502    0  0.10874476190E+04  0.46009223004E+02  0.55861106597E+03  0.12233991563E+04  0.25500000920E-02 0.  1.
       -2    1    3    3    0  502 -0.10874476190E+04 -0.46009223004E+02 -0.10437249044E+04  0.15079856925E+04  0.25500000920E-02 0. -1.
</event>
<event>
 5   0  0.1495517E-05  0.2725501E+04  0.7818609E-02  0.8326778E-01
        1   -1    0    0  501    0  0.00000000000E+00  0.00000000000E+00  0.17473853583E+04  0.17473853583E+04  0.50400001928E-02 0.  1.
       -1   -1    0    0    0  501  0.00000000000E+00  0.00000000000E+00 -0.10627814095E+04  0.10627814095E+04  0.50400001928E-02 0. -1.
    10030    2    1    2    0    0  0.00000000000E+00  0.00000000000E+00  0.68460394888E+03  0.28101667678E+04  0.27255008156E+04 0.  0.
        5    1    3    3  502    0 -0.48349806863E+03 -0.11705534172E+04 -0.17641758137E+03  0.12787145647E+04  0.46999998093E+01 0. -1.
       -5    1    3    3    0  502  0.48349806863E+03  0.11705534172E+04  0.86102153025E+03  0.15314522031E+04  0.46999998093E+01 0.  1.
</event>
<event>
 5   0  0.3676724E-05  0.2636902E+04  0.7818609E-02  0.8355773E-01
       -2   -1    0    0    0  501  0.00000000000E+00  0.00000000000E+00  0.21197577128E+04  0.21197577128E+04  0.25500000920E-02 0. -1.
        2   -1    0    0  501    0  0.00000000000E+00  0.00000000000E+00 -0.82005255418E+03  0.82005255418E+03  0.25500000920E-02 0.  1.
    10030    2    1    2    0    0  0.00000000000E+00  0.00000000000E+00  0.12997051586E+04  0.29398102670E+04  0.26369017628E+04 0.  0.
        4    1    3    3  502    0 -0.70595420752E+02  0.13050946792E+04  0.84313205139E+03  0.15553549769E+04  0.12699999809E+01 0.  1.
       -4    1    3    3    0  502  0.70595420752E+02 -0.13050946792E+04  0.45657310724E+03  0.13844552901E+04  0.12699999809E+01 0. -1.
</event>
<event>
 5   0  0.1484379E-05  0.2491073E+04  0.7818609E-02  0.8406173E-01
       -1   -1    0    0    0  501  0.00000000000E+00  0.00000000000E+00  0.11935955011E+04  0.11935955011E+04  0.50400001928E-02 0. -1.
        1   -1    0    0  501    0  0.00000000000E+00  0.00000000000E+00 -0.12997375391E+04  0.12997375391E+04  0.50400001928E-02 0.  1.
    10030    2    1    2    0    0  0.00000000000E+00  0.00000000000E+00 -0.10614203800E+03  0.24933330402E+04  0.24910727643E+04 0.  0.
        1    1    3    3  502    0  0.64004863357E+02 -0.58677430746E+03  0.10447195676E+04  0.11999332004E+04  0.50400001928E-02 0. -1.
       -1    1    3    3    0  502 -0.64004863357E+02  0.58677430746E+03 -0.11508616056E+04  0.12933998398E+04  0.50400001928E-02 0.  1.
</event>
<event>
 5   0  0.1495517E-05  0.2584295E+04  0.7818609E-02  0.8373555E-01
       -1   -1    0    0    0  501  0.00000000000E+00  0.00000000000E+00  0.85512594738E+03  0.85512594740E+03  0.50400001928E-02 0.  1.
        1   -1    0    0  501    0  0.00000000000E+00  0.00000000000E+00 -0.19525142839E+04  0.19525142839E+04  0.50400001928E-02 0. -1.
    10030    2    1    2    0    0  0.00000000000E+00  0.00000000000E+00 -0.10973883365E+04  0.28076402313E+04  0.25842953599E+04 0.  0.
        5    1    3    3  502    0  0.16033434220E+02  0.99184259503E+02 -0.19482548246E+04  0.19508494406E+04  0.46999998093E+01 0. -1.
       -5    1    3    3    0  502 -0.16033434220E+02 -0.99184259503E+02  0.85086648812E+03  0.85679079066E+03  0.46999998093E+01 0.  1.
</event>
<event>
 5   0  0.1484379E-05  0.2659649E+04  0.7818609E-02  0.8348218E-01
       -1   -1    0    0    0  501  0.00000000000E+00  0.00000000000E+00  0.11997517754E+04  0.11997517754E+04  0.50400001928E-02 0.  1.
        1   -1    0    0  501    0  0.00000000000E+00  0.00000000000E+00 -0.14739986956E+04  0.14739986956E+04  0.50400001928E-02 0. -1.
    10030    2    1    2    0    0  0.00000000000E+00  0.00000000000E+00 -0.27424692017E+03  0.26737504710E+04  0.26596485121E+04 0.  0.
        1    1    3    3  502    0  0.35742061107E+03  0.53272273055E+03 -0.13081557684E+04  0.14569881658E+04  0.50400001928E-02 0. -1.
       -1    1    3    3    0  502 -0.35742061107E+03 -0.53272273055E+03  0.10339088482E+04  0.12167623052E+04  0.50400001928E-02 0.  1.
</event>
<event>
 5   0  0.3514294E-05  0.1417503E+04  0.7818609E-02  0.8941246E-01
        2   -1    0    0  501    0  0.00000000000E+00  0.00000000000E+00  0.12373535633E+04  0.12373535633E+04  0.25500000920E-02 0. -1.
       -2   -1    0    0    0  501  0.00000000000E+00  0.00000000000E+00 -0.40597016920E+03  0.40597016920E+03  0.25500000920E-02 0.  1.
    10030    2    1    2    0    0  0.00000000000E+00  0.00000000000E+00  0.83138339406E+03  0.16433237325E+04  0.14175029248E+04 0.  0.
        2    1    3    3  502    0 -0.22987979802E+03  0.25507603495E+03 -0.30309863056E+03  0.45801450304E+03  0.25500000920E-02 0.  1.
       -2    1    3    3    0  502  0.22987979802E+03 -0.25507603495E+03  0.11344820246E+04  0.11853092294E+04  0.25500000920E-02 0. -1.
</event>
<event>
 5   0  0.3568647E-05  0.2726734E+04  0.7818609E-02  0.8326382E-01
        2   -1    0    0  501    0  0.00000000000E+00  0.00000000000E+00  0.11079791085E+04  0.11079791085E+04  0.25500000920E-02 0. -1.
       -2   -1    0    0    0  501  0.00000000000E+00  0.00000000000E+00 -0.16776216662E+04  0.16776216662E+04  0.25500000920E-02 0.  1.
    10030    2    1    2    0    0  0.00000000000E+00  0.00000000000E+00 -0.56964255772E+03  0.27856007747E+04  0.27267341331E+04 0.  0.
        3    1    3    3  502    0 -0.46785665689E+03  0.12178021630E+04  0.11975594915E+03  0.13100662034E+04  0.10100000352E+00 0. -1.
       -3    1    3    3    0  502  0.46785665689E+03 -0.12178021630E+04 -0.68939850687E+03  0.14755345713E+04  0.10100000352E+00 0.  1.
</event>
<event>
 5   0  0.1495517E-05  0.2737169E+04  0.7818609E-02  0.8323045E-01
       -1   -1    0    0    0  501  0.00000000000E+00  0.00000000000E+00  0.15609925947E+04  0.15609925947E+04  0.50400001928E-02 0. -1.
        1   -1    0    0  501    0  0.00000000000E+00  0.00000000000E+00 -0.11998929963E+04  0.11998929963E+04  0.50400001928E-02 0.  1.
    10030    2    1    2    0    0  0.00000000000E+00  0.00000000000E+00  0.36109959835E+03  0.27608855910E+04  0.27371694005E+04 0.  0.
        5    1    3    3  502    0 -0.46315032418E+03  0.61979766700E+03  0.13191996117E+04  0.15293681951E+04  0.46999998093E+01 0. -1.
       -5    1    3    3    0  502  0.46315032418E+03 -0.61979766700E+03 -0.95810001335E+03  0.12315173959E+04  0.46999998093E+01 0.  1.
</event>
<event>
 5   0  0.3497949E-05  0.2651188E+04  0.7818609E-02  0.8351019E-01
        2   -1    0    0  501    0  0.00000000000E+00  0.00000000000E+00  0.27271192228E+04  0.27271192228E+04  0.25500000920E-02 0. -1.
       -2   -1    0    0    0  501  0.00000000000E+00  0.00000000000E+00 -0.64434273489E+03  0.64434273490E+03  0.25500000920E-02 0.  1.
    10030    2    1    2    0    0  0.00000000000E+00  0.00000000000E+00  0.20827764879E+04  0.33714619577E+04  0.26511880042E+04 0.  0.
        5    1    3    3  502    0 -0.20390916653E+03 -0.96603580321E+03  0.21662126562E+04  0.23806098973E+04  0.46999998093E+01 0. -1.
       -5    1    3    3    0  502  0.20390916653E+03  0.96603580321E+03 -0.83436168357E+02  0.99085206033E+03  0.46999998093E+01 0.  1.
</event>
<event>
 5   0  0.3497949E-05  0.2770677E+04  0.7818609E-02  0.8312430E-01
       -2   -1    0    0    0  501  0.00000000000E+00  0.00000000000E+00  0.11144202168E+04  0.11144202168E+04  0.25500000920E-02 0.  1.
        2   -1    0    0  501    0  0.00000000000E+00  0.00000000000E+00 -0.17221176507E+04  0.17221176507E+04  0.25500000920E-02 0. -1.
    10030    2    1    2    0    0  0.00000000000E+00  0.00000000000E+00 -0.60769743383E+03  0.28365378675E+04  0.27706769756E+04 0.  0.
        5    1    3    3  502    0  0.67441512026E+03 -0.56769762758E+03  0.79020931703E+03  0.11838788813E+04  0.46999998093E+01 0.  1.
       -5    1    3    3    0  502 -0.67441512026E+03  0.56769762758E+03 -0.13979067509E+04  0.16526589863E+04  0.46999998093E+01 0. -1.
</event>
<event>
 5   0  0.3497949E-05  0.1562393E+04  0.7818609E-02  0.8843991E-01
       -2   -1    0    0    0  501  0.00000000000E+00  0.00000000000E+00  0.10877964444E+04  0.10877964444E+04  0.25500000920E-02 0. -1.
        2   -1    0    0  501    0  0.00000000000E+00  0.00000000000E+00 -0.56101272072E+03  0.56101272073E+03  0.25500000920E-02 0.  1.
    10030    2    1    2    0    0  0.00000000000E+00  0.00000000000E+00  0.52678372364E+03  0.16488091651E+04  0.15623925792E+04 0.  0.
        5    1    3    3  502    0  0.65463715546E+03 -0.34269456412E+03 -0.41167009529E+01  0.73893734972E+03  0.46999998093E+01 0.  1.
       -5    1    3    3    0  502 -0.65463715546E+03  0.34269456412E+03  0.53090042459E+03  0.90987181538E+03  0.46999998093E+01 0. -1.
</event>
<event>
 5   0  0.1484379E-05  0.2483626E+04  0.7818609E-02  0.8408842E-01
       -1   -1    0    0    0  501  0.00000000000E+00  0.00000000000E+00  0.10077481002E+04  0.10077481003E+04  0.50400001928E-02 0. -1.
        1   -1    0    0  501    0  0.00000000000E+00  0.00000000000E+00 -0.15302427068E+04  0.15302427068E+04  0.50400001928E-02 0.  1.
    10030    2    1    2    0    0  0.00000000000E+00  0.00000000000E+00 -0.52249460654E+03  0.25379908071E+04  0.24836257212E+04 0.  0.
        1    1    3    3  502    0 -0.42456300609E+03  0.55590919009E+03 -0.13097727635E+04  0.14848546952E+04  0.50400001928E-02 0.  1.
       -1    1    3    3    0  502  0.42456300609E+03 -0.55590919009E+03  0.78727815694E+03  0.10531361119E+04  0.50400001928E-02 0. -1.
</event>
<event>
 5   0  0.3676724E-05  0.2260227E+04  0.7818609E-02  0.8493770E-01
       -2   -1    0    0    0  501  0.00000000000E+00  0.00000000000E+00  0.63156662847E+03  0.63156662847E+03  0.25500000920E-02 0. -1.
        2   -1    0    0  501    0  0.00000000000E+00  0.00000000000E+00 -0.20222037116E+04  0.20222037116E+04  0.25500000920E-02 0.  1.
    10030    2    1    2    0    0  0.00000000000E+00  0.00000000000E+00 -0.13906370832E+04  0.26537703401E+04  0.22602268738E+04 0.  0.
        4    1    3    3  502    0  0.98678860740E+02  0.22552548609E+03 -0.19903408975E+04  0.20055068595E+04  0.12699999809E+01 0.  1.
       -4    1    3    3    0  502 -0.98678860740E+02 -0.22552548609E+03  0.59970381433E+03  0.64826348058E+03  0.12699999809E+01 0. -1.
</event>
<event>
 5   0  0.1484379E-05  0.2401717E+04  0.7818609E-02  0.8438861E-01
        1   -1    0    0  501    0  0.00000000000E+00  0.00000000000E+00  0.20810813320E+04  0.20810813320E+04  0.50400001928E-02 0. -1.
       -1   -1    0    0    0  501  0.00000000000E+00  0.00000000000E+00 -0.69293854600E+03  0.69293854602E+03  0.50400001928E-02 0.  1.
    10030    2    1    2    0    0  0.00000000000E+00  0.00000000000E+00  0.13881427860E+04  0.27740198780E+04  0.24017172792E+04 0.  0.
        1    1    3    3  502    0  0.56788011283E+03  0.24705537928E+03 -0.49426874681E+03  0.79235457787E+03  0.50400001928E-02 0.  1.
       -1    1    3    3    0  502 -0.56788011283E+03 -0.24705537928E+03  0.18824115328E+04  0.19816653002E+04  0.50400001928E-02 0. -1.
</event>
<event>
 5   0  0.1484379E-05  0.2675253E+04  0.7818609E-02  0.8343079E-01
       -1   -1    0    0    0  501  0.00000000000E+00  0.00000000000E+00  0.12410648103E+04  0.12410648103E+04  0.50400001928E-02 0.  1.
        1   -1    0    0  501    0  0.00000000000E+00  0.00000000000E+00 -0.14417017279E+04  0.14417017279E+04  0.50400001928E-02 0. -1.
    10030    2    1    2    0    0  0.00000000000E+00  0.00000000000E+00 -0.20063691760E+03  0.26827665383E+04  0.26752534695E+04 0.  0.
        1    1    3    3  502    0 -0.39647558434E+03  0.70787731341E+03 -0.11667720742E+04  0.14211404761E+04  0.50400001928E-02 0. -1.
       -1    1    3    3    0  502  0.39647558434E+03 -0.70787731341E+03  0.96613515658E+03  0.12616260621E+04  0.50400001928E-02 0.  1.
</event>
<event>
 5   0  0.1474012E-05  0.1437072E+04  0.7818609E-02  0.8927413E-01
       -1   -1    0    0    0  501  0.00000000000E+00  0.00000000000E+00  0.67432781384E+03  0.67432781385E+03  0.50400001928E-02 0. -1.
        1   -1    0    0  501    0  0.00000000000E+00  0.00000000000E+00 -0.76564251286E+03  0.76564251287E+03  0.50400001928E-02 0.  1.
    10030    2    1    2    0    0  0.00000000000E+00  0.00000000000E+00 -0.91314699023E+02  0.14399703267E+04  0.14370720816E+04 0.  0.
        2    1    3    3  502    0  0.26125693004E+03 -0.10744262824E+03  0.61635272293E+03  0.67800426321E+03  0.25500000920E-02 0. -1.
       -2    1    3    3    0  502 -0.26125693004E+03  0.10744262824E+03 -0.70766742195E+03  0.76196606352E+03  0.25500000920E-02 0.  1.
</event>
<event>
 5   0  0.3676724E-05  0.2235728E+04  0.7818609E-02  0.8503703E-01
       -2   -1    0    0    0  501  0.00000000000E+00  0.00000000000E+00  0.10489260731E+04  0.10489260731E+04  0.25500000920E-02 0.  1.
        2   -1    0    0  501    0  0.00000000000E+00  0.00000000000E+00 -0.11913321670E+04  0.11913321670E+04  0.25500000920E-02 0. -1.
    10030    2    1    2    0    0  0.00000000000E+00  0.00000000000E+00 -0.14240609384E+03  0.22402582401E+04  0.22357275073E+04 0.  0.
        4    1    3    3  502    0 -0.38930520707E+02  0.10135082884E+04 -0.54215883710E+03  0.11500662823E+04  0.12699999809E+01 0. -1.
       -4    1    3    3    0  502  0.38930520707E+02 -0.10135082884E+04  0.39975274325E+03  0.10901919578E+04  0.12699999809E+01 0.  1.
</event>
<event>
 5   0  0.1438701E-05  0.2634385E+04  0.7818609E-02  0.8356614E-01
        1   -1    0    0  501    0  0.00000000000E+00  0.00000000000E+00  0.10935232569E+04  0.10935232569E+04  0.50400001928E-02 0. -1.
       -1   -1    0    0    0  501  0.00000000000E+00  0.00000000000E+00 -0.15866104993E+04  0.15866104993E+04  0.50400001928E-02 0.  1.
    10030    2    1    2    0    0  0.00000000000E+00  0.00000000000E+00 -0.49308724242E+03  0.26801337562E+04  0.26343845434E+04 0.  0.
        4    1    3    3  502    0 -0.37542627577E+03  0.12573069403E+04 -0.12953219249E+03  0.13185392799E+04  0.12699999809E+01 0. -1.
       -4    1    3    3    0  502  0.37542627577E+03 -0.12573069403E+04 -0.36355504993E+03  0.13615944763E+04  0.12699999809E+01 0.  1.
</event>
<event>
 5   0  0.1449521E-05  0.2665926E+04  0.7818609E-02  0.8346146E-01
       -1   -1    0    0    0  501  0.00000000000E+00  0.00000000000E+00  0.13072142977E+04  0.13072142978E+04  0.50400001928E-02 0.  1.
        1   -1    0    0  501    0  0.00000000000E+00  0.00000000000E+00 -0.13592187434E+04  0.13592187434E+04  0.50400001928E-02 0. -1.
    10030    2    1    2    0    0  0.00000000000E+00  0.00000000000E+00 -0.52004445656E+02  0.26664330412E+04  0.26659258618E+04 0.  0.
        3    1    3    3  502    0 -0.49910797009E+03 -0.12313723752E+04 -0.13280958221E+03  0.13352996247E+04  0.10100000352E+00 0. -1.
       -3    1    3    3    0  502  0.49910797009E+03  0.12313723752E+04  0.80805136557E+02  0.13311334165E+04  0.10100000352E+00 0.  1.
</event>
<event>
 5   0  0.3652331E-05  0.2698593E+04  0.7818609E-02  0.8335462E-01
       -2   -1    0    0    0  501  0.00000000000E+00  0.00000000000E+00  0.14202355064E+04  0.14202355064E+04  0.25500000920E-02 0. -1.
        2   -1    0    0  501    0  0.00000000000E+00  0.00000000000E+00 -0.12819007919E+04  0.12819007919E+04  0.25500000920E-02 0.  1.
    10030    2    1    2    0    0  0.00000000000E+00  0.00000000000E+00  0.13833471452E+03  0.27021362983E+04  0.26985929818E+04 0.  0.
        1    1    3    3  502    0  0.59835300485E+03 -0.36672736745E+03  0.12231065435E+04  0.14101435733E+04  0.50400001928E-02 0. -1.
       -1    1    3    3    0  502 -0.59835300485E+03  0.36672736745E+03 -0.10847718290E+04  0.12919927250E+04  0.50400001928E-02 0.  1.
</event>
<event>
 5   0  0.3497949E-05  0.2698242E+04  0.7818609E-02  0.8335576E-01
        2   -1    0    0  501    0  0.00000000000E+00  0.00000000000E+00  0.11605235508E+04  0.11605235508E+04  0.25500000920E-02 0.  1.
       -2   -1    0    0    0  501  0.00000000000E+00  0.00000000000E+00 -0.15683670410E+04  0.15683670410E+04  0.25500000920E-02 0. -1.
    10030    2    1    2    0    0  0.00000000000E+00  0.00000000000E+00 -0.40784349021E+03  0.27288905919E+04  0.26982415663E+04 0.  0.
        5    1    3    3  502    0 -0.56824916675E+03 -0.78639824846E+02 -0.14388623707E+04  0.15490120559E+04  0.46999998093E+01 0. -1.
       -5    1    3    3    0  502  0.56824916675E+03  0.78639824846E+02  0.10310188805E+04  0.11798785359E+04  0.46999998093E+01 0.  1.
</event>
<event>
 5   0  0.1438701E-05  0.2911486E+04  0.7818609E-02  0.8269468E-01
        1   -1    0    0  501    0  0.00000000000E+00  0.00000000000E+00  0.14990641599E+04  0.14990641599E+04  0.50400001928E-02 0.  1.
       -1   -1    0    0    0  501  0.00000000000E+00  0.00000000000E+00 -0.14136737239E+04  0.14136737239E+04  0.50400001928E-02 0. -1.
    10030    2    1    2    0    0  0.00000000000E+00  0.00000000000E+00  0.85390436015E+02  0.29127378839E+04  0.29114859528E+04 0.  0.
        4    1    3    3  502    0 -0.12246340370E+04  0.44898519741E+03  0.68940165178E+03  0.14753279237E+04  0.12699999809E+01 0.  1.
       -4    1    3    3    0  502  0.12246340370E+04 -0.44898519741E+03 -0.60401121577E+03  0.14374099602E+04  0.12699999809E+01 0. -1.
</event>
<event>
 5   0  0.3676724E-05  0.2719104E+04  0.7818609E-02  0.8328833E-01
        2   -1    0    0  501    0  0.00000000000E+00  0.00000000000E+00  0.15719042227E+04  0.15719042227E+04  0.25500000920E-02 0. -1.
       -2   -1    0    0    0  501  0.00000000000E+00  0.00000000000E+00 -0.11758868007E+04  0.11758868007E+04  0.25500000920E-02 0.  1.
    10030    2    1    2    0    0  0.00000000000E+00  0.00000000000E+00  0.39601742206E+03  0.27477910234E+04  0.27191038431E+04 0.  0.
        4    1    3    3  502    0 -0.10216232973E+04  0.16421249258E+03  0.10891856324E+04  0.15023338041E+04  0.12699999809E+01 0. -1.
       -4    1    3    3    0  502  0.10216232973E+04 -0.16421249258E+03 -0.69316821032E+03  0.12454572193E+04  0.12699999809E+01 0.  1.
</event>
<event>
 5   0  0.3514294E-05  0.2714406E+04  0.7818609E-02  0.8330346E-01
        2   -1    0    0  501    0  0.00000000000E+00  0.00000000000E+00  0.30241671171E+04  0.30241671171E+04  0.25500000920E-02 0.  1.
       -2   -1    0    0    0  501  0.00000000000E+00  0.00000000000E+00 -0.60909338906E+03  0.60909338907E+03  0.25500000920E-02 0. -1.
    10030    2    1    2    0    0  0.00000000000E+00  0.00000000000E+00  0.24150737280E+04  0.36332605062E+04  0.27144061586E+04 0.  0.
        2    1    3    3  502    0  0.34616714911E+03 -0.72096244533E+03 -0.26018200295E+03  0.84101915398E+03  0.25500000920E-02 0. -1.
       -2    1    3    3    0  502 -0.34616714911E+03  0.72096244533E+03  0.26752557310E+04  0.27922413522E+04  0.25500000920E-02 0.  1.
</event>
<event>
 5   0  0.1484379E-05  0.2763321E+04  0.7818609E-02  0.8314747E-01
       -1   -1    0    0    0  501  0.00000000000E+00  0.00000000000E+00  0.78390532248E+03  0.78390532250E+03  0.50400001928E-02 0. -1.
        1   -1    0    0  501    0  0.00000000000E+00  0.00000000000E+00 -0.24352245589E+04  0.24352245589E+04  0.50400001928E-02 0.  1.
    10030    2    1    2    0    0  0.00000000000E+00  0.00000000000E+00 -0.16513192364E+04  0.32191298814E+04  0.27633208234E+04 0.  0.
        1    1    3    3  502    0 -0.41700981418E+03 -0.10089550334E+04  0.16083895179E+03  0.11035201008E+04  0.50400001928E-02 0. -1.
       -1    1    3    3    0  502  0.41700981418E+03  0.10089550334E+04 -0.18121581882E+04  0.21156097806E+04  0.50400001928E-02 0.  1.
</event>
<event>
 5   0  0.3514294E-05  0.2860969E+04  0.7818609E-02  0.8284586E-01
       -2   -1    0    0    0  501  0.00000000000E+00  0.00000000000E+00  0.11011636683E+04  0.11011636683E+04  0.25500000920E-02 0.  1.
        2   -1    0    0  501    0  0.00000000000E+00  0.00000000000E+00 -0.18582939106E+04  0.18582939106E+04  0.25500000920E-02 0. -1.
    10030    2    1    2    0    0  0.00000000000E+00  0.00000000000E+00 -0.75713024226E+03  0.29594575789E+04  0.28609688844E+04 0.  0.
        2    1    3    3  502    0  0.22600045137E+03  0.40779484104E+03 -0.17774935521E+04  0.18376224215E+04  0.25500000920E-02 0. -1.
       -2    1    3    3    0  502 -0.22600045137E+03 -0.40779484104E+03  0.10203633098E+04  0.11218351574E+04  0.25500000920E-02 0.  1.
</event>
<event>
 5   0  0.1474012E-05  0.2010773E+04  0.7818609E-02  0.8601600E-01
       -1   -1    0    0    0  501  0.00000000000E+00  0.00000000000E+00  0.48628535176E+03  0.48628535179E+03  0.50400001928E-02 0.  1.
        1   -1    0    0  501    0  0.00000000000E+00  0.00000000000E+00 -0.20786189654E+04  0.20786189654E+04  0.50400001928E-02 0. -1.
    10030    2    1    2    0    0  0.00000000000E+00  0.00000000000E+00 -0.15923336136E+04  0.25649043172E+04  0.20107729407E+04 0.  0.
        2    1    3    3  502    0 -0.45149480326E+03 -0.41783559420E+03 -0.18105289085E+04  0.19121843712E+04  0.25500000920E-02 0. -1.
       -2    1    3    3    0  502  0.45149480326E+03  0.41783559420E+03  0.21819529484E+03  0.65271994596E+03  0.25500000920E-02 0.  1.
</event>
<event>
 5   0  0.1438701E-05  0.2666133E+04  0.7818609E-02  0.8346078E-01
       -1   -1    0    0    0  501  0.00000000000E+00  0.00000000000E+00  0.63403900919E+03  0.63403900921E+03  0.50400001928E-02 0. -1.
        1   -1    0    0  501    0  0.00000000000E+00  0.00000000000E+00 -0.28027714459E+04  0.28027714459E+04  0.50400001928E-02 0.  1.
    10030    2    1    2    0    0  0.00000000000E+00  0.00000000000E+00 -0.21687324367E+04  0.34368104551E+04  0.26661331029E+04 0.  0.
        4    1    3    3  502    0 -0.11556786798E+04 -0.58126547517E+03 -0.14992800730E+04  0.19802285509E+04  0.12699999809E+01 0.  1.
       -4    1    3    3    0  502  0.11556786798E+04  0.58126547517E+03 -0.66945236374E+03  0.14565819043E+04  0.12699999809E+01 0. -1.
</event>
<event>
 5   0  0.3652331E-05  0.1432416E+04  0.7818609E-02  0.8930683E-01
        2   -1    0    0  501    0  0.00000000000E+00  0.00000000000E+00  0.11154425030E+04  0.11154425030E+04  0.25500000920E-02 0.  1.
       -2   -1    0    0    0  501  0.00000000000E+00  0.00000000000E+00 -0.45986578351E+03  0.45986578351E+03  0.25500000920E-02 0. -1.
    10030    2    1    2    0    0  0.00000000000E+00  0.00000000000E+00  0.65557671947E+03  0.15753082865E+04  0.14324159181E+04 0.  0.
        1    1    3    3  502    0 -0.65030465249E+02 -0.87223834044E+02  0.11063014794E+04  0.11116383954E+04  0.50400001928E-02 0.  1.
       -1    1    3    3    0  502  0.65030465249E+02  0.87223834044E+02 -0.45072475998E+03  0.46366989111E+03  0.50400001928E-02 0. -1.
</event>
<event>
 5   0  0.3514294E-05  0.1374137E+04  0.7818609E-02  0.8972756E-01
        2   -1    0    0  501    0  0.00000000000E+00  0.00000000000E+00  0.14048980812E+04  0.14048980812E+04  0.25500000920E-02 0. -1.
       -2   -1    0    0    0  501  0.00000000000E+00  0.00000000000E+00 -0.33601212030E+03  0.33601212030E+03  0.25500000920E-02 0.  1.
    10030    2    1    2    0    0  0.00000000000E+00  0.00000000000E+00  0.10688859609E+04  0.17409102015E+04  0.13741365043E+04 0.  0.
        2    1    3    3  502    0  0.53641454754E+03  0.25299315560E+03  0.94993037796E+02  0.60064114147E+03  0.25500000920E-02 0.  1.
       -2    1    3    3    0  502 -0.53641454754E+03 -0.25299315560E+03  0.97389292313E+03  0.11402690601E+04  0.25500000920E-02 0. -1.
</event>
<event>
 5   0  0.1484379E-05  0.2646906E+04  0.7818609E-02  0.8352441E-01
       -1   -1    0    0    0  501  0.00000000000E+00  0.00000000000E+00  0.12185847904E+04  0.12185847904E+04  0.50400001928E-02 0. -1.
        1   -1    0    0  501    0  0.00000000000E+00  0.00000000000E+00 -0.14373461734E+04  0.14373461734E+04  0.50400001928E-02 0.  1.
    10030    2    1    2    0    0  0.00000000000E+00  0.00000000000E+00 -0.21876138300E+03  0.26559309638E+04  0.26469062586E+04 0.  0.
        1    1    3    3  502    0  0.43510933406E+03 -0.70322101333E+03 -0.11461937414E+04  0.14133647863E+04  0.50400001928E-02 0.  1.
       -1    1    3    3    0  502 -0.43510933406E+03  0.70322101333E+03  0.92743235841E+03  0.12425661776E+04  0.50400001928E-02 0. -1.
</event>
<event>
 5   0  0.1474012E-05  0.1379392E+04  0.7818609E-02  0.8968872E-01
       -1   -1    0    0    0  501  0.00000000000E+00  0.00000000000E+00  0.39429124882E+03  0.39429124885E+03  0.50400001928E-02 0. -1.
        1   -1    0    0  501    0  0.00000000000E+00  0.00000000000E+00 -0.12064191107E+04  0.12064191107E+04  0.50400001928E-02 0.  1.
    10030    2    1    2    0    0  0.00000000000E+00  0.00000000000E+00 -0.81212786190E+03  0.16007103596E+04  0.13793918918E+04 0.  0.
        2    1    3    3  502    0 -0.43992315439E+03  0.52951755565E+03 -0.35739051079E+03  0.77566049320E+03  0.25500000920E-02 0.  1.
       -2    1    3    3    0  502  0.43992315439E+03 -0.52951755565E+03 -0.45473735111E+03  0.82504986638E+03  0.25500000920E-02 0. -1.
</event>
<event>
 5   0  0.3652331E-05  0.3074072E+04  0.7818609E-02  0.8222890E-01
        2   -1    0    0  501    0  0.00000000000E+00  0.00000000000E+00  0.15361486077E+04  0.15361486077E+04  0.25500000920E-02 0.  1.
       -2   -1    0    0    0  501  0.00000000000E+00  0.00000000000E+00 -0.15379234580E+04  0.15379234580E+04  0.25500000920E-02 0. -1.
    10030    2    1    2    0    0  0.00000000000E+00  0.00000000000E+00 -0.17748502814E+01  0.30740720657E+04  0.30740715534E+04 0.  0.
        1    1    3    3  502    0 -0.11032697532E+04 -0.52001745480E+02 -0.10697985673E+04  0.15376531808E+04  0.50400001928E-02 0. -1.
       -1    1    3    3    0  502  0.11032697532E+04  0.52001745480E+02  0.10680237170E+04  0.15364188849E+04  0.50400001928E-02 0.  1.
</event>
<event>
 5   0  0.1474012E-05  0.2385211E+04  0.7818609E-02  0.8445061E-01
        1   -1    0    0  501    0  0.00000000000E+00  0.00000000000E+00  0.10680452361E+04  0.10680452362E+04  0.50400001928E-02 0.  1.
       -1   -1    0    0    0  501  0.00000000000E+00  0.00000000000E+00 -0.13316924969E+04  0.13316924970E+04  0.50400001928E-02 0. -1.
    10030    2    1    2    0    0  0.00000000000E+00  0.00000000000E+00 -0.26364726080E+03  0.23997377331E+04  0.23852109570E+04 0.  0.
        2    1    3    3  502    0  0.56034468850E+02  0.69159286517E+03 -0.11077143009E+04  0.13070851255E+04  0.25500000920E-02 0. -1.
       -2    1    3    3    0  502 -0.56034468850E+02 -0.69159286517E+03  0.84406704006E+03  0.10926526076E+04  0.25500000920E-02 0.  1.
</event>
<event>
 5   0  0.1449521E-05  0.2681138E+04  0.7818609E-02  0.8341151E-01
        1   -1    0    0  501    0  0.00000000000E+00  0.00000000000E+00  0.12291371866E+04  0.12291371866E+04  0.50400001928E-02 0. -1.
       -1   -1    0    0    0  501  0.00000000000E+00  0.00000000000E+00 -0.14621031928E+04  0.14621031928E+04  0.50400001928E-02 0.  1.
    10030    2    1    2    0    0  0.00000000000E+00  0.00000000000E+00 -0.23296600620E+03  0.26912403795E+04  0.26811381203E+04 0.  0.
        3    1    3    3  502    0 -0.95833326679E+03 -0.48552733278E+01 -0.10574045441E+04  0.14270706374E+04  0.10100000352E+00 0.  1.
       -3    1    3    3    0  502  0.95833326679E+03  0.48552733278E+01  0.82443853789E+03  0.12641697421E+04  0.10100000352E+00 0. -1.
</event>
<event>
 5   0  0.3676724E-05  0.2730024E+04  0.7818609E-02  0.8325329E-01
       -2   -1    0    0    0  501  0.00000000000E+00  0.00000000000E+00  0.15103197944E+04  0.15103197944E+04  0.25500000920E-02 0. -1.
        2   -1    0    0  501    0  0.00000000000E+00  0.00000000000E+00 -0.12336841749E+04  0.12336841749E+04  0.25500000920E-02 0.  1.
    10030    2    1    2    0    0  0.00000000000E+00  0.00000000000E+00  0.27663561949E+03  0.27440039693E+04  0.27300239042E+04 0.  0.
        4    1    3    3  502    0  0.12172918486E+04 -0.54118146871E+03  0.43746445540E+03  0.14021603294E+04  0.12699999809E+01 0. -1.
       -4    1    3    3    0  502 -0.12172918486E+04  0.54118146871E+03 -0.16082883591E+03  0.13418436399E+04  0.12699999809E+01 0.  1.
</event>
<event>
 5   0  0.3676724E-05  0.2693897E+04  0.7818609E-02  0.8336988E-01
       -2   -1    0    0    0  501  0.00000000000E+00  0.00000000000E+00  0.15969473697E+04  0.15969473697E+04  0.25500000920E-02 0.  1.
        2   -1    0    0  501    0  0.00000000000E+00  0.00000000000E+00 -0.11360867095E+04  0.11360867095E+04  0.25500000920E-02 0. -1.
    10030    2    1    2    0    0  0.00000000000E+00  0.00000000000E+00  0.46086066018E+03  0.27330340793E+04  0.26938973125E+04 0.  0.
        4    1    3    3  502    0 -0.46124558743E+03  0.12563827824E+04  0.38437096913E+03  0.13924754370E+04  0.12699999809E+01 0.  1.
       -4    1    3    3    0  502  0.46124558743E+03 -0.12563827824E+04  0.76489691051E+02  0.13405586423E+04  0.12699999809E+01 0. -1.
</event>
<event>
 5   0  0.3676724E-05  0.2685766E+04  0.7818609E-02  0.8339638E-01
        2   -1    0    0  501    0  0.00000000000E+00  0.00000000000E+00  0.13903152412E+04  0.13903152412E+04  0.25500000920E-02 0. -1.
       -2   -1    0    0    0  501  0.00000000000E+00  0.00000000000E+00 -0.12970687919E+04  0.12970687919E+04  0.25500000920E-02 0.  1.
    10030    2    1    2    0    0  0.00000000000E+00  0.00000000000E+00  0.93246449248E+02  0.26873840331E+04  0.26857658202E+04 0.  0.
        4    1    3    3  502    0  0.89766692531E+03  0.54965048994E+02 -0.95122676478E+03  0.13090687669E+04  0.12699999809E+01 0.  1.
       -4    1    3    3    0  502 -0.89766692531E+03 -0.54965048994E+02  0.10444732140E+04  0.13783152662E+04  0.12699999809E+01 0. -1.
</event>
<event>
 5   0  0.3568647E-05  0.2609434E+04  0.7818609E-02  0.8365004E-01
       -2   -1    0    0    0  501  0.00000000000E+00  0.00000000000E+00  0.14405187793E+04  0.14405187793E+04  0.25500000920E-02 0. -1.
        2   -1    0    0  501    0  0.00000000000E+00  0.00000000000E+00 -0.11817176866E+04  0.11817176867E+04  0.25500000920E-02 0.  1.
    10030    2    1    2    0    0  0.00000000000E+00  0.00000000000E+00  0.25880109261E+03  0.26222364659E+04  0.26094340531E+04 0.  0.
        3    1    3    3  502    0 -0.18237533171E+02  0.12628552200E+04  0.45834519107E+03  0.13435833575E+04  0.10100000352E+00 0. -1.
       -3    1    3    3    0  502  0.18237533171E+02 -0.12628552200E+04 -0.19954409845E+03  0.12786531084E+04  0.10100000352E+00 0.  1.
</event>
<event>
 5   0  0.1484379E-05  0.2677568E+04  0.7818609E-02  0.8342320E-01
       -1   -1    0    0    0  501  0.00000000000E+00  0.00000000000E+00  0.62983225348E+03  0.62983225350E+03  0.50400001928E-02 0.  1.
        1   -1    0    0  501    0  0.00000000000E+00  0.00000000000E+00 -0.28457458118E+04  0.28457458118E+04  0.50400001928E-02 0. -1.
    10030    2    1    2    0    0  0.00000000000E+00  0.00000000000E+00 -0.22159135583E+04  0.34755780653E+04  0.26775679245E+04 0.  0.
        1    1    3    3  502    0  0.26581493279E+03 -0.17894549437E+03  0.57932125639E+03  0.66203639370E+03  0.50400001928E-02 0.  1.
       -1    1    3    3    0  502 -0.26581493279E+03  0.17894549437E+03 -0.27952348147E+04  0.28135416716E+04  0.50400001928E-02 0. -1.
</event>
<event>
 5   0  0.3514294E-05  0.2714103E+04  0.7818609E-02  0.8330443E-01
        2   -1    0    0  501    0  0.00000000000E+00  0.00000000000E+00  0.14683156125E+04  0.14683156125E+04  0.25500000920E-02 0.  1.
       -2   -1    0    0    0  501  0.00000000000E+00  0.00000000000E+00 -0.12542187054E+04  0.12542187054E+04  0.25500000920E-02 0. -1.
    10030    2    1    2    0    0  0.00000000000E+00  0.00000000000E+00  0.21409690713E+03  0.27225343179E+04  0.27141030980E+04 0.  0.
        2    1    3    3  502    0  0.12105472366E+04 -0.23304222482E+03 -0.46203710887E+03  0.13165149375E+04  0.25500000920E-02 0. -1.
       -2    1    3    3    0  502 -0.12105472366E+04  0.23304222482E+03  0.67613401600E+03  0.14060193805E+04  0.25500000920E-02 0.  1.
</event>
<event>
 5   0  0.3652331E-05  0.1538973E+04  0.7818609E-02  0.8858942E-01
       -2   -1    0    0    0  501  0.00000000000E+00  0.00000000000E+00  0.13775004760E+04  0.13775004760E+04  0.25500000920E-02 0. -1.
        2   -1    0    0  501    0  0.00000000000E+00  0.00000000000E+00 -0.42984340646E+03  0.42984340647E+03  0.25500000920E-02 0.  1.
    10030    2    1    2    0    0  0.00000000000E+00  0.00000000000E+00  0.94765706955E+03  0.18073438825E+04  0.15389730303E+04 0.  0.
        1    1    3    3  502    0  0.60404925461E+03  0.16111564291E+03 -0.53043933742E+02  0.62741326995E+03  0.50400001928E-02 0.  1.
       -1    1    3    3    0  502 -0.60404925461E+03 -0.16111564291E+03  0.10007010033E+04  0.11799306125E+04  0.50400001928E-02 0. -1.
</event>
<event>
 5   0  0.1474012E-05  0.2793519E+04  0.7818609E-02  0.8305283E-01
        1   -1    0    0  501    0  0.00000000000E+00  0.00000000000E+00  0.17309659960E+04  0.17309659960E+04  0.50400001928E-02 0.  1.
       -1   -1    0    0    0  501  0.00000000000E+00  0.00000000000E+00 -0.11270801905E+04  0.11270801905E+04  0.50400001928E-02 0. -1.
    10030    2    1    2    0    0  0.00000000000E+00  0.00000000000E+00  0.60388580546E+03  0.28580461865E+04  0.27935192747E+04 0.  0.
        2    1    3    3  502    0 -0.84237450832E+03 -0.51011090561E+03 -0.71145673699E+03  0.12148986118E+04  0.25500000920E-02 0. -1.
       -2    1    3    3    0  502  0.84237450832E+03  0.51011090561E+03  0.13153425424E+04  0.16431475747E+04  0.25500000920E-02 0.  1.
</event>
<event>
 5   0  0.1474012E-05  0.2662013E+04  0.7818609E-02  0.8347437E-01
       -1   -1    0    0    0  501  0.00000000000E+00  0.00000000000E+00  0.11610112529E+04  0.11610112529E+04  0.50400001928E-02 0.  1.
        1   -1    0    0  501    0  0.00000000000E+00  0.00000000000E+00 -0.15258929199E+04  0.15258929199E+04  0.50400001928E-02 0. -1.
    10030    2    1    2    0    0  0.00000000000E+00  0.00000000000E+00 -0.36488166701E+03  0.26869041728E+04  0.26620134114E+04 0.  0.
        2    1    3    3  502    0  0.13192660069E+04 -0.13621833701E+03 -0.69318736308E+02  0.13280901022E+04  0.25500000920E-02 0. -1.
       -2    1    3    3    0  502 -0.13192660069E+04  0.13621833701E+03 -0.29556293070E+03  0.13588140706E+04  0.25500000920E-02 0.  1.
</event>
<event>
 5   0  0.3652331E-05  0.2690349E+04  0.7818609E-02  0.8338143E-01
        2   -1    0    0  501    0  0.00000000000E+00  0.00000000000E+00  0.17736748182E+04  0.17736748182E+04  0.25500000920E-02 0. -1.
       -2   -1    0    0    0  501  0.00000000000E+00  0.00000000000E+00 -0.10201949546E+04  0.10201949547E+04  0.25500000920E-02 0.  1.
    10030    2    1    2    0    0  0.00000000000E+00  0.00000000000E+00  0.75347986355E+03  0.27938697728E+04  0.26903487512E+04 0.  0.
        1    1    3    3  502    0  0.45067631381E+03 -0.85905348983E+03 -0.59100409907E+03  0.11359436092E+04  0.50400001928E-02 0.  1.
       -1    1    3    3    0  502 -0.45067631381E+03  0.85905348983E+03  0.13444839626E+04  0.16579261636E+04  0.50400001928E-02 0. -1.
</event>
<event>
 5   0  0.3676724E-05  0.2655001E+04  0.7818609E-02  0.8349755E-01
        2   -1    0    0  501    0  0.00000000000E+00  0.00000000000E+00  0.10674188978E+04  0.10674188978E+04  0.25500000920E-02 0.  1.
       -2   -1    0    0    0  501  0.00000000000E+00  0.00000000000E+00 -0.16509524941E+04  0.16509524941E+04  0.25500000920E-02 0. -1.
    10030    2    1    2    0    0  0.00000000000E+00  0.00000000000E+00 -0.58353359635E+03  0.27183713919E+04  0.26550012366E+04 0.  0.
        4    1    3    3  502    0 -0.71375107520E+03 -0.10424905248E+04  0.12542550163E+03  0.12696299701E+04  0.12699999809E+01 0. -1.
       -4    1    3    3    0  502  0.71375107520E+03  0.10424905248E+04 -0.70895909798E+03  0.14487414218E+04  0.12699999809E+01 0.  1.
</event>
<event>
 5   0  0.3676724E-05  0.2715311E+04  0.7818609E-02  0.8330054E-01
        2   -1    0    0  501    0  0.00000000000E+00  0.00000000000E+00  0.16322638014E+04  0.16322638014E+04  0.25500000920E-02 0.  1.
       -2   -1    0    0    0  501  0.00000000000E+00  0.00000000000E+00 -0.11292468838E+04  0.11292468838E+04  0.25500000920E-02 0. -1.
    10030    2    1    2    0    0  0.00000000000E+00  0.00000000000E+00  0.50301691754E+03  0.27615106852E+04  0.27153112612E+04 0.  0.
        4    1    3    3  502    0 -0.36822360668E+03  0.13006697007E+04  0.12328030861E+03  0.13573982254E+04  0.12699999809E+01 0. -1.
       -4    1    3    3    0  502  0.36822360668E+03 -0.13006697007E+04  0.37973660893E+03  0.14041124598E+04  0.12699999809E+01 0.  1.
</event>
<event>
 5   0  0.1449521E-05  0.2512461E+04  0.7818609E-02  0.8398560E-01
       -1   -1    0    0    0  501  0.00000000000E+00  0.00000000000E+00  0.13565179356E+04  0.13565179356E+04  0.50400001928E-02 0.  1.
        1   -1    0    0  501    0  0.00000000000E+00  0.00000000000E+00 -0.11633572657E+04  0.11633572657E+04  0.50400001928E-02 0. -1.
    10030    2    1    2    0    0  0.00000000000E+00  0.00000000000E+00  0.19316066991E+03  0.25198752013E+04  0.25124609421E+04 0.  0.
        3    1    3    3  502    0 -0.62871849648E+03 -0.37898201352E+03 -0.92583986886E+03  0.11815641275E+04  0.10100000352E+00 0. -1.
       -3    1    3    3    0  502  0.62871849648E+03  0.37898201352E+03  0.11190005388E+04  0.13383110738E+04  0.10100000352E+00 0.  1.
</event>
<event>
 5   0  0.1495517E-05  0.2765259E+04  0.7818609E-02  0.8314136E-01
        1   -1    0    0  501    0  0.00000000000E+00  0.00000000000E+00  0.14864436100E+04  0.14864436100E+04  0.50400001928E-02 0. -1.
       -1   -1    0    0    0  501  0.00000000000E+00  0.00000000000E+00 -0.12860658233E+04  0.12860658233E+04  0.50400001928E-02 0.  1.
    10030    2    1    2    0    0  0.00000000000E+00  0.00000000000E+00  0.20037778669E+03  0.27725094333E+04  0.27652589933E+04 0.  0.
        5    1    3    3  502    0  0.10002072626E+04 -0.80009346959E+02  0.10539064904E+04  0.14551828216E+04  0.46999998093E+01 0. -1.
       -5    1    3    3    0  502 -0.10002072626E+04  0.80009346959E+02 -0.85352870369E+03  0.13173266117E+04  0.46999998093E+01 0.  1.
</event>
<event>
 5   0  0.3514294E-05  0.2711764E+04  0.7818609E-02  0.8331198E-01
       -2   -1    0    0    0  501  0.00000000000E+00  0.00000000000E+00  0.10777888384E+04  0.10777888384E+04  0.25500000920E-02 0. -1.
        2   -1    0    0  501    0  0.00000000000E+00  0.00000000000E+00 -0.17057289064E+04  0.17057289064E+04  0.25500000920E-02 0.  1.
    10030    2    1    2    0    0  0.00000000000E+00  0.00000000000E+00 -0.62794006804E+03  0.27835177448E+04  0.27117636893E+04 0.  0.
        2    1    3    3  502    0 -0.15283834150E+03 -0.23752012602E+03 -0.16751973393E+04  0.16988412211E+04  0.25500000920E-02 0.  1.
       -2    1    3    3    0  502  0.15283834150E+03  0.23752012602E+03  0.10472572712E+04  0.10846765237E+04  0.25500000920E-02 0. -1.
</event>
<event>
 5   0  0.1474012E-05  0.2088175E+04  0.7818609E-02  0.8566470E-01
        1   -1    0    0  501    0  0.00000000000E+00  0.00000000000E+00  0.80026868102E+03  0.80026868104E+03  0.50400001928E-02 0.  1.
       -1   -1    0    0    0  501  0.00000000000E+00  0.00000000000E+00 -0.13621905110E+04  0.13621905110E+04  0.50400001928E-02 0. -1.
    10030    2    1    2    0    0  0.00000000000E+00  0.00000000000E+00 -0.56192183000E+03  0.21624591921E+04  0.20881747088E+04 0.  0.
        2    1    3    3  502    0  0.20937315712E+03  0.30299599441E+03 -0.12926878272E+04  0.13441300198E+04  0.25500000920E-02 0. -1.
       -2    1    3    3    0  502 -0.20937315712E+03 -0.30299599441E+03  0.73076599719E+03  0.81832917228E+03  0.25500000920E-02 0.  1.
</event>
<event>
 5   0  0.1474012E-05  0.2694505E+04  0.7818609E-02  0.8336790E-01
       -1   -1    0    0    0  501  0.00000000000E+00  0.00000000000E+00  0.11658196757E+04  0.11658196757E+04  0.50400001928E-02 0.  1.
        1   -1    0    0  501    0  0.00000000000E+00  0.00000000000E+00 -0.15569208053E+04  0.15569208053E+04  0.50400001928E-02 0. -1.
    10030    2    1    2    0    0  0.00000000000E+00  0.00000000000E+00 -0.39110112960E+03  0.27227404810E+04  0.26945047102E+04 0.  0.
        2    1    3    3  502    0  0.42280772132E+03 -0.34727428277E+03  0.10484977224E+04  0.11826720892E+04  0.25500000920E-02 0.  1.
       -2    1    3    3    0  502 -0.42280772132E+03  0.34727428277E+03 -0.14395988520E+04  0.15400683918E+04  0.25500000920E-02 0. -1.
</event>
<event>
 5   0  0.1484379E-05  0.2704496E+04  0.7818609E-02  0.8333548E-01
       -1   -1    0    0    0  501  0.00000000000E+00  0.00000000000E+00  0.11045688682E+04  0.11045688683E+04  0.50400001928E-02 0.  1.
        1   -1    0    0  501    0  0.00000000000E+00  0.00000000000E+00 -0.16554641774E+04  0.16554641774E+04  0.50400001928E-02 0. -1.
    10030    2    1    2    0    0  0.00000000000E+00  0.00000000000E+00 -0.55089530919E+03  0.27600330457E+04  0.27044956594E+04 0.  0.
        1    1    3    3  502    0 -0.85491188446E+03 -0.85096764767E+03 -0.89918916168E+03  0.15045136809E+04  0.50400001928E-02 0. -1.
       -1    1    3    3    0  502  0.85491188446E+03  0.85096764767E+03  0.34829385250E+03  0.12555193648E+04  0.50400001928E-02 0.  1.
</event>
<event>
 5   0  0.3514294E-05  0.2607804E+04  0.7818609E-02  0.8365555E-01
        2   -1    0    0  501    0  0.00000000000E+00  0.00000000000E+00  0.99481082160E+03  0.99481082160E+03  0.25500000920E-02 0.  1.
       -2   -1    0    0    0  501  0.00000000000E+00  0.00000000000E+00 -0.17090289026E+04  0.17090289026E+04  0.25500000920E-02 0. -1.
    10030    2    1    2    0    0  0.00000000000E+00  0.00000000000E+00 -0.71421808100E+03  0.27038397242E+04  0.26078040162E+04 0.  0.
        2    1    3    3  502    0 -0.31251472218E+03  0.10225617023E+04 -0.11308222371E+04  0.15562958647E+04  0.25500000920E-02 0. -1.
       -2    1    3    3    0  502  0.31251472218E+03 -0.10225617023E+04  0.41660415613E+03  0.11475438595E+04  0.25500000920E-02 0.  1.
</event>
<event>
 5   0  0.3676724E-05  0.2737030E+04  0.7818609E-02  0.8323089E-01
       -2   -1    0    0    0  501  0.00000000000E+00  0.00000000000E+00  0.10677775445E+04  0.10677775445E+04  0.25500000920E-02 0. -1.
        2   -1    0    0  501    0  0.00000000000E+00  0.00000000000E+00 -0.17539549256E+04  0.17539549256E+04  0.25500000920E-02 0.  1.
    10030    2    1    2    0    0  0.00000000000E+00  0.00000000000E+00 -0.68617738106E+03  0.28217324701E+04  0.27370302765E+04 0.  0.
        4    1    3    3  502    0  0.12006126772E+04  0.22750518434E+03  0.29209722317E+03  0.12564043180E+04  0.12699999809E+01 0. -1.
       -4    1    3    3    0  502 -0.12006126772E+04 -0.22750518434E+03 -0.97827460422E+03  0.15653281521E+04  0.12699999809E+01 0.  1.
</event>
<event>
 5   0  0.1484379E-05  0.2691996E+04  0.7818609E-02  0.8337607E-01
        1   -1    0    0  501    0  0.00000000000E+00  0.00000000000E+00  0.10509665995E+04  0.10509665995E+04  0.50400001928E-02 0.  1.
       -1   -1    0    0    0  501  0.00000000000E+00  0.00000000000E+00 -0.17238519225E+04  0.17238519225E+04  0.50400001928E-02 0. -1.
    10030    2    1    2    0    0  0.00000000000E+00  0.00000000000E+00 -0.67288532300E+03  0.27748185220E+04  0.26919961315E+04 0.  0.
        1    1    3    3  502    0 -0.14876372485E+03  0.12159929335E+04 -0.91121966128E+03  0.15267909914E+04  0.50400001928E-02 0. -1.
       -1    1    3    3    0  502  0.14876372485E+03 -0.12159929335E+04  0.23833433828E+03  0.12480275306E+04  0.50400001928E-02 0.  1.
</event>
<event>
 5   0  0.3652331E-05  0.2656635E+04  0.7818609E-02  0.8349214E-01
        2   -1    0    0  501    0  0.00000000000E+00  0.00000000000E+00  0.99727261680E+03  0.99727261680E+03  0.25500000920E-02 0.  1.
       -2   -1    0    0    0  501  0.00000000000E+00  0.00000000000E+00 -0.17692528702E+04  0.17692528702E+04  0.25500000920E-02 0. -1.
    10030    2    1    2    0    0  0.00000000000E+00  0.00000000000E+00 -0.77198025341E+03  0.27665254870E+04  0.26566350443E+04 0.  0.
        1    1    3    3  502    0  0.59488858971E+03 -0.95677677680E+03 -0.11187387868E+04  0.15877313085E+04  0.50400001928E-02 0. -1.
       -1    1    3    3    0  502 -0.59488858971E+03  0.95677677680E+03  0.34675853341E+03  0.11787941785E+04  0.50400001928E-02 0.  1.
</event>
<event>
 5   0  0.1474012E-05  0.2635066E+04  0.7818609E-02  0.8356387E-01
        1   -1    0    0  501    0  0.00000000000E+00  0.00000000000E+00  0.11715603260E+04  0.11715603260E+04  0.50400001928E-02 0. -1.
       -1   -1    0    0    0  501  0.00000000000E+00  0.00000000000E+00 -0.14816935882E+04  0.14816935882E+04  0.50400001928E-02 0.  1.
    10030    2    1    2    0    0  0.00000000000E+00  0.00000000000E+00 -0.31013326222E+03  0.26532539142E+04  0.26350661648E+04 0.  0.
        2    1    3    3  502    0 -0.54696594328E+03 -0.11447727276E+04  0.20265595119E+03  0.12848135178E+04  0.25500000920E-02 0. -1.
       -2    1    3    3    0  502  0.54696594328E+03  0.11447727276E+04 -0.51278921342E+03  0.13684403964E+04  0.25500000920E-02 0.  1.
</event>
<event>
 5   0  0.1484379E-05  0.1918192E+04  0.7818609E-02  0.8645854E-01
       -1   -1    0    0    0  501  0.00000000000E+00  0.00000000000E+00  0.91470470914E+03  0.91470470915E+03  0.50400001928E-02 0.  1.
        1   -1    0    0  501    0  0.00000000000E+00  0.00000000000E+00 -0.10056414002E+04  0.10056414002E+04  0.50400001928E-02 0. -1.
    10030    2    1    2    0    0  0.00000000000E+00  0.00000000000E+00 -0.90936691093E+02  0.19203461094E+04  0.19181917782E+04 0.  0.
        1    1    3    3  502    0  0.73891678544E+03  0.52486408198E+03  0.26854713299E+03  0.94530306411E+03  0.50400001928E-02 0.  1.
       -1    1    3    3    0  502 -0.73891678544E+03 -0.52486408198E+03 -0.35948382408E+03  0.97504304528E+03  0.50400001928E-02 0. -1.
</event>
<event>
 5   0  0.1484379E-05  0.2731801E+04  0.7818609E-02  0.8324760E-01
       -1   -1    0    0    0  501  0.00000000000E+00  0.00000000000E+00  0.17891031228E+04  0.17891031229E+04  0.50400001928E-02 0. -1.
        1   -1    0    0  501    0  0.00000000000E+00  0.00000000000E+00 -0.10428038660E+04  0.10428038660E+04  0.50400001928E-02 0.  1.
    10030    2    1    2    0    0  0.00000000000E+00  0.00000000000E+00  0.74629925689E+03  0.28319069888E+04  0.27318006173E+04 0.  0.
        1    1    3    3  502    0  0.49892614642E+03 -0.73440805374E+03 -0.70286631580E+03  0.11323884258E+04  0.50400001928E-02 0.  1.
       -1    1    3    3    0  502 -0.49892614642E+03  0.73440805374E+03  0.14491655727E+04  0.16995185630E+04  0.50400001928E-02 0. -1.
</event>
<event>
 5   0  0.1484379E-05  0.2671358E+04  0.7818609E-02  0.8344359E-01
        1   -1    0    0  501    0  0.00000000000E+00  0.00000000000E+00  0.11922235124E+04  0.11922235124E+04  0.50400001928E-02 0. -1.
       -1   -1    0    0    0  501  0.00000000000E+00  0.00000000000E+00 -0.14963954458E+04  0.14963954459E+04  0.50400001928E-02 0.  1.
    10030    2    1    2    0    0  0.00000000000E+00  0.00000000000E+00 -0.30417193343E+03  0.26886189583E+04  0.26713575833E+04 0.  0.
        1    1    3    3  502    0 -0.37193793468E+03 -0.22827762675E+03 -0.14226174693E+04  0.14880487109E+04  0.50400001928E-02 0.  1.
       -1    1    3    3    0  502  0.37193793468E+03  0.22827762675E+03  0.11184455359E+04  0.12005702474E+04  0.50400001928E-02 0. -1.
</event>
<event>
 5   0  0.1484379E-05  0.2726691E+04  0.7818609E-02  0.8326396E-01
       -1   -1    0    0    0  501  0.00000000000E+00  0.00000000000E+00  0.13195455609E+04  0.13195455610E+04  0.50400001928E-02 0.  1.
        1   -1    0    0  501    0  0.00000000000E+00  0.00000000000E+00 -0.14085996360E+04  0.14085996360E+04  0.50400001928E-02 0. -1.
    10030    2    1    2    0    0  0.00000000000E+00  0.00000000000E+00 -0.89054075086E+02  0.27281451970E+04  0.27266913261E+04 0.  0.
        1    1    3    3  502    0 -0.99509009838E+03  0.27912582125E+03  0.84510164039E+03  0.13350327002E+04  0.50400001928E-02 0.  1.
       -1    1    3    3    0  502  0.99509009838E+03 -0.27912582125E+03 -0.93415571547E+03  0.13931124968E+04  0.50400001928E-02 0. -1.
</event>
<event>
 5   0  0.1474012E-05  0.2638178E+04  0.7818609E-02  0.8355347E-01
        1   -1    0    0  501    0  0.00000000000E+00  0.00000000000E+00  0.10325487560E+04  0.10325487560E+04  0.50400001928E-02 0. -1.
       -1   -1    0    0    0  501  0.00000000000E+00  0.00000000000E+00 -0.16851465196E+04  0.16851465196E+04  0.50400001928E-02 0.  1.
    10030    2    1    2    0    0  0.00000000000E+00  0.00000000000E+00 -0.65259776357E+03  0.27176952757E+04  0.26381781157E+04 0.  0.
        2    1    3    3  502    0 -0.21959692071E+02  0.57759258625E+03  0.89514618993E+03  0.10655431127E+04  0.25500000920E-02 0. -1.
       -2    1    3    3    0  502  0.21959692071E+02 -0.57759258625E+03 -0.15477439535E+04  0.16521521629E+04  0.25500000920E-02 0.  1.
</event>
<event>
 5   0  0.1438701E-05  0.2694899E+04  0.7818609E-02  0.8336662E-01
        1   -1    0    0  501    0  0.00000000000E+00  0.00000000000E+00  0.22937823605E+04  0.22937823605E+04  0.50400001928E-02 0.  1.
       -1   -1    0    0    0  501  0.00000000000E+00  0.00000000000E+00 -0.79153978966E+03  0.79153978968E+03  0.50400001928E-02 0. -1.
    10030    2    1    2    0    0  0.00000000000E+00  0.00000000000E+00  0.15022425708E+04  0.30853221502E+04  0.26948988903E+04 0.  0.
        4    1    3    3  502    0  0.97282470298E+03  0.93087159677E+03  0.81070497942E+03  0.15716723606E+04  0.12699999809E+01 0. -1.
       -4    1    3    3    0  502 -0.97282470298E+03 -0.93087159677E+03  0.69153759143E+03  0.15136497896E+04  0.12699999809E+01 0.  1.
</event>
<event>
 5   0  0.3514294E-05  0.2616469E+04  0.7818609E-02  0.8362629E-01
        2   -1    0    0  501    0  0.00000000000E+00  0.00000000000E+00  0.18436810073E+04  0.18436810073E+04  0.25500000920E-02 0.  1.
       -2   -1    0    0    0  501  0.00000000000E+00  0.00000000000E+00 -0.92829356017E+03  0.92829356018E+03  0.25500000920E-02 0. -1.
    10030    2    1    2    0    0  0.00000000000E+00  0.00000000000E+00  0.91538744712E+03  0.27719745675E+04  0.26164687700E+04 0.  0.
        2    1    3    3  502    0 -0.37644097040E+03  0.78502610926E+03  0.14922040048E+04  0.17276129741E+04  0.25500000920E-02 0.  1.
       -2    1    3    3    0  502  0.37644097040E+03 -0.78502610926E+03 -0.57681655769E+03  0.10443615933E+04  0.25500000920E-02 0. -1.
</event>
<event>
 5   0  0.1474012E-05  0.2611614E+04  0.7818609E-02  0.8364267E-01
        1   -1    0    0  501    0  0.00000000000E+00  0.00000000000E+00  0.18001529419E+04  0.18001529419E+04  0.50400001928E-02 0.  1.
       -1   -1    0    0    0  501  0.00000000000E+00  0.00000000000E+00 -0.94721537253E+03  0.94721537255E+03  0.50400001928E-02 0. -1.
    10030    2    1    2    0    0  0.00000000000E+00  0.00000000000E+00  0.85293756936E+03  0.27473683144E+04  0.26116144735E+04 0.  0.
        2    1    3    3  502    0 -0.16792112167E+03  0.79109580103E+03 -0.65205653895E+03  0.10388492670E+04  0.25500000920E-02 0. -1.
       -2    1    3    3    0  502  0.16792112167E+03 -0.79109580103E+03  0.15049941083E+04  0.17085190475E+04  0.25500000920E-02 0.  1.
</event>
<event>
 5   0  0.1495517E-05  0.2186612E+04  0.7818609E-02  0.8524021E-01
        1   -1    0    0  501    0  0.00000000000E+00  0.00000000000E+00  0.19139005301E+04  0.19139005301E+04  0.50400001928E-02 0.  1.
       -1   -1    0    0    0  501  0.00000000000E+00  0.00000000000E+00 -0.62454545679E+03  0.62454545681E+03  0.50400001928E-02 0. -1.
    10030    2    1    2    0    0  0.00000000000E+00  0.00000000000E+00  0.12893550733E+04  0.25384459869E+04  0.21866118822E+04 0.  0.
        5    1    3    3  502    0 -0.95213786154E+03 -0.29302890697E+03  0.11675526988E+04  0.15348074284E+04  0.46999998093E+01 0.  1.
       -5    1    3    3    0  502  0.95213786154E+03  0.29302890697E+03  0.12180237444E+03  0.10036385585E+04  0.46999998093E+01 0. -1.
</event>
<event>
 5   0  0.3652331E-05  0.2011782E+04  0.7818609E-02  0.8601132E-01
        2   -1    0    0  501    0  0.00000000000E+00  0.00000000000E+00  0.66239402911E+03  0.66239402911E+03  0.25500000920E-02 0. -1.
       -2   -1    0    0    0  501  0.00000000000E+00  0.00000000000E+00 -0.15275146546E+04  0.15275146546E+04  0.25500000920E-02 0.  1.
    10030    2    1    2    0    0  0.00000000000E+00  0.00000000000E+00 -0.86512062548E+03  0.21899086837E+04  0.20117818834E+04 0.  0.
        1    1    3    3  502    0 -0.31770349135E+02  0.97829738325E+03 -0.68490830218E+03  0.11946440924E+04  0.50400001928E-02 0.  1.
       -1    1    3    3    0  502  0.31770349135E+02 -0.97829738325E+03 -0.18021232329E+03  0.99526459127E+03  0.50400001928E-02 0. -1.
</event>
<event>
 5   0  0.3652331E-05  0.2566213E+04  0.7818609E-02  0.8379769E-01
        2   -1    0    0  501    0  0.00000000000E+00  0.00000000000E+00  0.17923950654E+04  0.17923950654E+04  0.25500000920E-02 0. -1.
       -2   -1    0    0    0  501  0.00000000000E+00  0.00000000000E+00 -0.91852620744E+03  0.91852620745E+03  0.25500000920E-02 0.  1.
    10030    2    1    2    0    0  0.00000000000E+00  0.00000000000E+00  0.87386885800E+03  0.27109212729E+04  0.25662126504E+04 0.  0.
        1    1    3    3  502    0 -0.12075703026E+04  0.14668362027E+03  0.57257770700E+01  0.12164599890E+04  0.50400001928E-02 0. -1.
       -1    1    3    3    0  502  0.12075703026E+04 -0.14668362027E+03  0.86814308093E+03  0.14944612839E+04  0.50400001928E-02 0.  1.
</event>
<event>
 5   0  0.3514294E-05  0.2636795E+04  0.7818609E-02  0.8355809E-01
       -2   -1    0    0    0  501  0.00000000000E+00  0.00000000000E+00  0.11559213615E+04  0.11559213615E+04  0.25500000920E-02 0. -1.
        2   -1    0    0  501    0  0.00000000000E+00  0.00000000000E+00 -0.15037117349E+04  0.15037117349E+04  0.25500000920E-02 0.  1.
    10030    2    1    2    0    0  0.00000000000E+00  0.00000000000E+00 -0.34779037333E+03  0.26596330964E+04  0.26367954156E+04 0.  0.
        2    1    3    3  502    0 -0.70833903623E+03  0.18827519397E+03  0.93148918934E+03  0.11852695258E+04  0.25500000920E-02 0. -1.
       -2    1    3    3    0  502  0.70833903623E+03 -0.18827519397E+03 -0.12792795627E+04  0.14743635706E+04  0.25500000920E-02 0.  1.
</event>
<event>
 5   0  0.3497949E-05  0.2659778E+04  0.7818609E-02  0.8348175E-01
       -2   -1    0    0    0  501  0.00000000000E+00  0.00000000000E+00  0.92072331354E+03  0.92072331354E+03  0.25500000920E-02 0. -1.
        2   -1    0    0  501    0  0.00000000000E+00  0.00000000000E+00 -0.19208866359E+04  0.19208866359E+04  0.25500000920E-02 0.  1.
    10030    2    1    2    0    0  0.00000000000E+00  0.00000000000E+00 -0.10001633223E+04  0.28416099494E+04  0.26597782677E+04 0.  0.
        5    1    3    3  502    0  0.43217257749E+03 -0.80328235882E+03  0.53383110405E+03  0.10568980189E+04  0.46999998093E+01 0. -1.
       -5    1    3    3    0  502 -0.43217257749E+03  0.80328235882E+03 -0.15339944264E+04  0.17847119305E+04  0.46999998093E+01 0.  1.
</event>
<event>
 5   0  0.1438701E-05  0.2768296E+04  0.7818609E-02  0.8313179E-01
       -1   -1    0    0    0  501  0.00000000000E+00  0.00000000000E+00  0.15656277586E+04  0.15656277586E+04  0.50400001928E-02 0.  1.
        1   -1    0    0  501    0  0.00000000000E+00  0.00000000000E+00 -0.12237045565E+04  0.12237045565E+04  0.50400001928E-02 0. -1.
    10030    2    1    2    0    0  0.00000000000E+00  0.00000000000E+00  0.34192320210E+03  0.27893323152E+04  0.27682960984E+04 0.  0.
        4    1    3    3  502    0 -0.70446423352E+03 -0.97903033866E+03  0.85516059152E+03  0.14785369493E+04  0.12699999809E+01 0.  1.
       -4    1    3    3    0  502  0.70446423352E+03  0.97903033866E+03 -0.51323738942E+03  0.13107953658E+04  0.12699999809E+01 0. -1.
</event>
<event>
 5   0  0.3652331E-05  0.2387000E+04  0.7818609E-02  0.8444387E-01
        2   -1    0    0  501    0  0.00000000000E+00  0.00000000000E+00  0.12452380921E+04  0.12452380921E+04  0.25500000920E-02 0.  1.
       -2   -1    0    0    0  501  0.00000000000E+00  0.00000000000E+00 -0.11439114483E+04  0.11439114483E+04  0.25500000920E-02 0. -1.
    10030    2    1    2    0    0  0.00000000000E+00  0.00000000000E+00  0.10132664380E+03  0.23891495405E+04  0.23869998823E+04 0.  0.
        1    1    3    3  502    0  0.22109481247E+03 -0.11565320142E+04  0.24575651702E+03  0.12028489022E+04  0.50400001928E-02 0.  1.
       -1    1    3    3    0  502 -0.22109481247E+03  0.11565320142E+04 -0.14442987322E+03  0.11863006382E+04  0.50400001928E-02 0. -1.
</event>
<event>
 5   0  0.1484379E-05  0.2693444E+04  0.7818609E-02  0.8337135E-01
        1   -1    0    0  501    0  0.00000000000E+00  0.00000000000E+00  0.22966862913E+04  0.22966862913E+04  0.50400001928E-02 0. -1.
       -1   -1    0    0    0  501  0.00000000000E+00  0.00000000000E+00 -0.78968566870E+03  0.78968566872E+03  0.50400001928E-02 0.  1.
    10030    2    1    2    0    0  0.00000000000E+00  0.00000000000E+00  0.15070006226E+04  0.30863719600E+04  0.26934440776E+04 0.  0.
        1    1    3    3  502    0 -0.11899384318E+04  0.58437854347E+03  0.10251700626E+04  0.16758357350E+04  0.50400001928E-02 0. -1.
       -1    1    3    3    0  502  0.11899384318E+04 -0.58437854347E+03  0.48183055994E+03  0.14105362250E+04  0.50400001928E-02 0.  1.
</event>
<event>
 5   0  0.1474012E-05  0.2062973E+04  0.7818609E-02  0.8577732E-01
       -1   -1    0    0    0  501  0.00000000000E+00  0.00000000000E+00  0.75706678476E+03  0.75706678478E+03  0.50400001928E-02 0.  1.
        1   -1    0    0  501    0  0.00000000000E+00  0.00000000000E+00 -0.14053769701E+04  0.14053769701E+04  0.50400001928E-02 0. -1.
    10030    2    1    2    0    0  0.00000000000E+00  0.00000000000E+00 -0.64831018529E+03  0.21624437548E+04  0.20629728298E+04 0.  0.
        2    1    3    3  502    0  0.58230589500E+03  0.83550343873E+03 -0.49581350577E+03  0.11326858276E+04  0.25500000920E-02 0. -1.
       -2    1    3    3    0  502 -0.58230589500E+03 -0.83550343873E+03 -0.15249667952E+03  0.10297579273E+04  0.25500000920E-02 0.  1.
</event>
<event>
 5   0  0.1484379E-05  0.2522686E+04  0.7818609E-02  0.8394948E-01
        1   -1    0    0  501    0  0.00000000000E+00  0.00000000000E+00  0.20921041527E+04  0.20921041527E+04  0.50400001928E-02 0. -1.
       -1   -1    0    0    0  501  0.00000000000E+00  0.00000000000E+00 -0.76047158486E+03  0.76047158488E+03  0.50400001928E-02 0.  1.
    10030    2    1    2    0    0  0.00000000000E+00  0.00000000000E+00  0.13316325679E+04  0.28525757376E+04  0.25226856806E+04 0.  0.
        1    1    3    3  502    0 -0.11931468597E+04  0.21567549059E+03  0.10589443481E+04  0.16098069694E+04  0.50400001928E-02 0. -1.
       -1    1    3    3    0  502  0.11931468597E+04 -0.21567549059E+03  0.27268821974E+03  0.12427687683E+04  0.50400001928E-02 0.  1.
</event>
<event>
 5   0  0.1495517E-05  0.2542001E+04  0.7818609E-02  0.8388174E-01
       -1   -1    0    0    0  501  0.00000000000E+00  0.00000000000E+00  0.69414678161E+03  0.69414678163E+03  0.50400001928E-02 0. -1.
        1   -1    0    0  501    0  0.00000000000E+00  0.00000000000E+00 -0.23272339557E+04  0.23272339557E+04  0.50400001928E-02 0.  1.
    10030    2    1    2    0    0  0.00000000000E+00  0.00000000000E+00 -0.16330871741E+04  0.30213807374E+04  0.25420007557E+04 0.  0.
        5    1    3    3  502    0  0.94399497968E+03 -0.61570555122E+03 -0.11820636861E+03  0.11332319635E+04  0.46999998093E+01 0. -1.
       -5    1    3    3    0  502 -0.94399497968E+03  0.61570555122E+03 -0.15148808055E+04  0.18881487739E+04  0.46999998093E+01 0.  1.
</event>
<event>
 5   0  0.1474012E-05  0.2642750E+04  0.7818609E-02  0.8353823E-01
       -1   -1    0    0    0  501  0.00000000000E+00  0.00000000000E+00  0.84910113165E+03  0.84910113167E+03  0.50400001928E-02 0.  1.
        1   -1    0    0  501    0  0.00000000000E+00  0.00000000000E+00 -0.20563302689E+04  0.20563302689E+04  0.50400001928E-02 0. -1.
    10030    2    1    2    0    0  0.00000000000E+00  0.00000000000E+00 -0.12072291372E+04  0.29054314005E+04  0.26427503540E+04 0.  0.
        2    1    3    3  502    0  0.11154396524E+04 -0.38424242621E+03 -0.12579030290E+04  0.17245775977E+04  0.25500000920E-02 0. -1.
       -2    1    3    3    0  502 -0.11154396524E+04  0.38424242621E+03  0.50673891768E+02  0.11808538028E+04  0.25500000920E-02 0.  1.
</event>
<event>
 5   0  0.3652331E-05  0.2717666E+04  0.7818609E-02  0.8329296E-01
        2   -1    0    0  501    0  0.00000000000E+00  0.00000000000E+00  0.23525699165E+04  0.23525699165E+04  0.25500000920E-02 0.  1.
       -2   -1    0    0    0  501  0.00000000000E+00  0.00000000000E+00 -0.78485556767E+03  0.78485556767E+03  0.25500000920E-02 0. -1.
    10030    2    1    2    0    0  0.00000000000E+00  0.00000000000E+00  0.15677143488E+04  0.31374254842E+04  0.27176663499E+04 0.  0.
        1    1    3    3  502    0 -0.56011580504E+03  0.82463195261E+03 -0.28217503670E+03  0.10360358699E+04  0.50400001928E-02 0. -1.
       -1    1    3    3    0  502  0.56011580504E+03 -0.82463195261E+03  0.18498893855E+04  0.21013896143E+04  0.50400001928E-02 0.  1.
</event>
<event>
 5   0  0.3568647E-05  0.2691568E+04  0.7818609E-02  0.8337746E-01
        2   -1    0    0  501    0  0.00000000000E+00  0.00000000000E+00  0.28494265038E+04  0.28494265038E+04  0.25500000920E-02 0.  1.
       -2   -1    0    0    0  501  0.00000000000E+00  0.00000000000E+00 -0.63561387818E+03  0.63561387819E+03  0.25500000920E-02 0. -1.
    10030    2    1    2    0    0  0.00000000000E+00  0.00000000000E+00  0.22138126256E+04  0.34850403820E+04  0.26915683389E+04 0.  0.
        3    1    3    3  502    0 -0.41436769103E+03 -0.93735547486E+03 -0.22466719713E+02  0.10251051816E+04  0.10100000352E+00 0. -1.
       -3    1    3    3    0  502  0.41436769103E+03  0.93735547486E+03  0.22362793453E+04  0.24599352004E+04  0.10100000352E+00 0.  1.
</event>
<event>
 5   0  0.1484379E-05  0.2608991E+04  0.7818609E-02  0.8365154E-01
        1   -1    0    0  501    0  0.00000000000E+00  0.00000000000E+00  0.14583523582E+04  0.14583523582E+04  0.50400001928E-02 0. -1.
       -1   -1    0    0    0  501  0.00000000000E+00  0.00000000000E+00 -0.11668702890E+04  0.11668702891E+04  0.50400001928E-02 0.  1.
    10030    2    1    2    0    0  0.00000000000E+00  0.00000000000E+00  0.29148206916E+03  0.26252226473E+04  0.26089906384E+04 0.  0.
        1    1    3    3  502    0 -0.10764036529E+03  0.81253609936E+03 -0.87541605820E+03  0.11992308518E+04  0.50400001928E-02 0.  1.
       -1    1    3    3    0  502  0.10764036529E+03 -0.81253609936E+03  0.11668981274E+04  0.14259917954E+04  0.50400001928E-02 0. -1.
</event>
<event>
 5   0  0.1474012E-05  0.2683461E+04  0.7818609E-02  0.8340391E-01
        1   -1    0    0  501    0  0.00000000000E+00  0.00000000000E+00  0.11258512403E+04  0.11258512403E+04  0.50400001928E-02 0.  1.
       -1   -1    0    0    0  501  0.00000000000E+00  0.00000000000E+00 -0.15990044860E+04  0.15990044860E+04  0.50400001928E-02 0. -1.
    10030    2    1    2    0    0  0.00000000000E+00  0.00000000000E+00 -0.47315324575E+03  0.27248557263E+04  0.26834613348E+04 0.  0.
        2    1    3    3  502    0  0.96596214391E+03  0.84569820802E+01  0.70896240159E+03  0.11982412407E+04  0.25500000920E-02 0.  1.
       -2    1    3    3    0  502 -0.96596214391E+03 -0.84569820802E+01 -0.11821156473E+04  0.15266144856E+04  0.25500000920E-02 0. -1.
</event>
<event>
 5   0  0.1484379E-05  0.2762954E+04  0.7818609E-02  0.8314863E-01
       -1   -1    0    0    0  501  0.00000000000E+00  0.00000000000E+00  0.14012649209E+04  0.14012649209E+04  0.50400001928E-02 0.  1.
        1   -1    0    0  501    0  0.00000000000E+00  0.00000000000E+00 -0.13619681020E+04  0.13619681020E+04  0.50400001928E-02 0. -1.
    10030    2    1    2    0    0  0.00000000000E+00  0.00000000000E+00  0.39296818873E+02  0.27632330229E+04  0.27629535825E+04 0.  0.
        1    1    3    3  502    0  0.12064989798E+04 -0.33078790350E+03  0.60572619282E+03  0.13899513107E+04  0.50400001928E-02 0.  1.
       -1    1    3    3    0  502 -0.12064989798E+04  0.33078790350E+03 -0.56642937395E+03  0.13732817122E+04  0.50400001928E-02 0. -1.
</event>
<event>
 5   0  0.1474012E-05  0.2066202E+04  0.7818609E-02  0.8576280E-01
        1   -1    0    0  501    0  0.00000000000E+00  0.00000000000E+00  0.10804646230E+04  0.10804646230E+04  0.50400001928E-02 0.  1.
       -1   -1    0    0    0  501  0.00000000000E+00  0.00000000000E+00 -0.98781331216E+03  0.98781331218E+03  0.50400001928E-02 0. -1.
    10030    2    1    2    0    0  0.00000000000E+00  0.00000000000E+00  0.92651310799E+02  0.20682779351E+04  0.20662016725E+04 0.  0.
        2    1    3    3  502    0  0.38647148091E+03 -0.43873321690E+03  0.89891523704E+03  0.10723318724E+04  0.25500000920E-02 0.  1.
       -2    1    3    3    0  502 -0.38647148091E+03  0.43873321690E+03 -0.80626392624E+03  0.99594606276E+03  0.25500000920E-02 0. -1.
</event>
<event>
 5   0  0.1449521E-05  0.2790860E+04  0.7818609E-02  0.8306112E-01
       -1   -1    0    0    0  501  0.00000000000E+00  0.00000000000E+00  0.56792234366E+03  0.56792234368E+03  0.50400001928E-02 0.  1.
        1   -1    0    0  501    0  0.00000000000E+00  0.00000000000E+00 -0.34286813785E+04  0.34286813785E+04  0.50400001928E-02 0. -1.
    10030    2    1    2    0    0  0.00000000000E+00  0.00000000000E+00 -0.28607590349E+04  0.39966037222E+04  0.27908599135E+04 0.  0.
        3    1    3    3  502    0  0.13063069809E+04  0.19319862297E+03 -0.20763218742E+04  0.24606657985E+04  0.10100000352E+00 0.  1.
       -3    1    3    3    0  502 -0.13063069809E+04 -0.19319862297E+03 -0.78443716066E+03  0.15359379237E+04  0.10100000352E+00 0. -1.
</event>
<event>
 5   0  0.3652331E-05  0.2275843E+04  0.7818609E-02  0.8487507E-01
       -2   -1    0    0    0  501  0.00000000000E+00  0.00000000000E+00  0.71535763238E+03  0.71535763239E+03  0.25500000920E-02 0. -1.
        2   -1    0    0  501    0  0.00000000000E+00  0.00000000000E+00 -0.18100956879E+04  0.18100956879E+04  0.25500000920E-02 0.  1.
    10030    2    1    2    0    0  0.00000000000E+00  0.00000000000E+00 -0.10947380556E+04  0.25254533203E+04  0.22758433740E+04 0.  0.
        1    1    3    3  502    0 -0.66416320202E+03 -0.82018205890E+03 -0.75195631808E+02  0.10580480857E+04  0.50400001928E-02 0. -1.
       -1    1    3    3    0  502  0.66416320202E+03  0.82018205890E+03 -0.10195424238E+04  0.14674052346E+04  0.50400001928E-02 0.  1.
</event>
<event>
 5   0  0.1495517E-05  0.2533888E+04  0.7818609E-02  0.8391011E-01
        1   -1    0    0  501    0  0.00000000000E+00  0.00000000000E+00  0.21672832709E+04  0.21672832710E+04  0.50400001928E-02 0. -1.
       -1   -1    0    0    0  501  0.00000000000E+00  0.00000000000E+00 -0.74062654549E+03  0.74062654551E+03  0.50400001928E-02 0.  1.
    10030    2    1    2    0    0  0.00000000000E+00  0.00000000000E+00  0.14266567255E+04  0.29079098165E+04  0.25338883338E+04 0.  0.
        5    1    3    3  502    0 -0.73038717553E+03 -0.97160344784E+03  0.11233420320E+04  0.16551127142E+04  0.46999998093E+01 0. -1.
       -5    1    3    3    0  502  0.73038717553E+03  0.97160344784E+03  0.30331469346E+03  0.12527971022E+04  0.46999998093E+01 0.  1.
</event>
<event>
 5   0  0.3514294E-05  0.2773726E+04  0.7818609E-02  0.8311472E-01
       -2   -1    0    0    0  501  0.00000000000E+00  0.00000000000E+00  0.85005426737E+03  0.85005426737E+03  0.25500000920E-02 0. -1.
        2   -1    0    0  501    0  0.00000000000E+00  0.00000000000E+00 -0.22626662140E+04  0.22626662140E+04  0.25500000920E-02 0.  1.
    10030    2    1    2    0    0  0.00000000000E+00  0.00000000000E+00 -0.14126119466E+04  0.31127204814E+04  0.27737260649E+04 0.  0.
        2    1    3    3  502    0 -0.13145505144E+04  0.28799085413E+03 -0.33005833476E+03  0.13856118833E+04  0.25500000920E-02 0.  1.
       -2    1    3    3    0  502  0.13145505144E+04 -0.28799085413E+03 -0.10825536119E+04  0.17271085980E+04  0.25500000920E-02 0. -1.
</event>
<event>
 5   0  0.1474012E-05  0.1328566E+04  0.7818609E-02  0.9007214E-01
       -1   -1    0    0    0  501  0.00000000000E+00  0.00000000000E+00  0.80731402968E+03  0.80731402969E+03  0.50400001928E-02 0. -1.
        1   -1    0    0  501    0  0.00000000000E+00  0.00000000000E+00 -0.54659231048E+03  0.54659231050E+03  0.50400001928E-02 0.  1.
    10030    2    1    2    0    0  0.00000000000E+00  0.00000000000E+00  0.26072171920E+03  0.13539063402E+04  0.13285656036E+04 0.  0.
        2    1    3    3  502    0  0.41782995197E+03 -0.46951692284E+03  0.34950586754E+03  0.71915392027E+03  0.25500000920E-02 0.  1.
       -2    1    3    3    0  502 -0.41782995197E+03  0.46951692284E+03 -0.88784148340E+02  0.63475241992E+03  0.25500000920E-02 0. -1.
</event>
<event>
 5   0  0.3568647E-05  0.2696365E+04  0.7818609E-02  0.8336185E-01
        2   -1    0    0  501    0  0.00000000000E+00  0.00000000000E+00  0.26553486458E+04  0.26553486458E+04  0.25500000920E-02 0.  1.
       -2   -1    0    0    0  501  0.00000000000E+00  0.00000000000E+00 -0.68450366275E+03  0.68450366276E+03  0.25500000920E-02 0. -1.
    10030    2    1    2    0    0  0.00000000000E+00  0.00000000000E+00  0.19708449830E+04  0.33398523085E+04  0.26963648670E+04 0.  0.
        3    1    3    3  502    0 -0.10736625095E+03 -0.87518525760E+03  0.22486749201E+04  0.24153707073E+04  0.10100000352E+00 0.  1.
       -3    1    3    3    0  502  0.10736625095E+03  0.87518525760E+03 -0.27782993708E+03  0.92448160128E+03  0.10100000352E+00 0. -1.
</event>
<event>
 5   0  0.1484379E-05  0.2694109E+04  0.7818609E-02  0.8336919E-01
        1   -1    0    0  501    0  0.00000000000E+00  0.00000000000E+00  0.16585389156E+04  0.16585389156E+04  0.50400001928E-02 0.  1.
       -1   -1    0    0    0  501  0.00000000000E+00  0.00000000000E+00 -0.10940689771E+04  0.10940689771E+04  0.50400001928E-02 0. -1.
    10030    2    1    2    0    0  0.00000000000E+00  0.00000000000E+00  0.56446993848E+03  0.27526078927E+04  0.26941091106E+04 0.  0.
        1    1    3    3  502    0  0.13928358080E+03  0.95834355188E+03 -0.67443693430E+03  0.11801217978E+04  0.50400001928E-02 0. -1.
       -1    1    3    3    0  502 -0.13928358080E+03 -0.95834355188E+03  0.12389068728E+04  0.15724860949E+04  0.50400001928E-02 0.  1.
</event>
<event>
 5   0  0.3568647E-05  0.2683378E+04  0.7818609E-02  0.8340418E-01
       -2   -1    0    0    0  501  0.00000000000E+00  0.00000000000E+00  0.12925356593E+04  0.12925356593E+04  0.25500000920E-02 0. -1.
        2   -1    0    0  501    0  0.00000000000E+00  0.00000000000E+00 -0.13927114890E+04  0.13927114891E+04  0.25500000920E-02 0.  1.
    10030    2    1    2    0    0  0.00000000000E+00  0.00000000000E+00 -0.10017582974E+03  0.26852471484E+04  0.26833779180E+04 0.  0.
        3    1    3    3  502    0  0.41176110447E+03  0.65429729796E+03 -0.11474269492E+04  0.13835609040E+04  0.10100000352E+00 0.  1.
       -3    1    3    3    0  502 -0.41176110447E+03 -0.65429729796E+03  0.10472511195E+04  0.13016862443E+04  0.10100000352E+00 0. -1.
</event>
<event>
 5   0  0.1449521E-05  0.2667884E+04  0.7818609E-02  0.8345501E-01
       -1   -1    0    0    0  501  0.00000000000E+00  0.00000000000E+00  0.14878344918E+04  0.14878344918E+04  0.50400001928E-02 0.  1.
        1   -1    0    0  501    0  0.00000000000E+00  0.00000000000E+00 -0.11959668926E+04  0.11959668926E+04  0.50400001928E-02 0. -1.
    10030    2    1    2    0    0  0.00000000000E+00  0.00000000000E+00  0.29186759920E+03  0.26838013844E+04  0.26678836511E+04 0.  0.
        3    1    3    3  502    0 -0.75548323769E+03 -0.82220792623E+03 -0.58822873306E+03  0.12620593682E+04  0.10100000352E+00 0. -1.
       -3    1    3    3    0  502  0.75548323769E+03  0.82220792623E+03  0.88009633225E+03  0.14217420162E+04  0.10100000352E+00 0.  1.
</event>
<event>
 5   0  0.1495517E-05  0.2732080E+04  0.7818609E-02  0.8324671E-01
       -1   -1    0    0    0  501  0.00000000000E+00  0.00000000000E+00  0.14024368982E+04  0.14024368982E+04  0.50400001928E-02 0. -1.
        1   -1    0    0  501    0  0.00000000000E+00  0.00000000000E+00 -0.13305873993E+04  0.13305873993E+04  0.50400001928E-02 0.  1.
    10030    2    1    2    0    0  0.00000000000E+00  0.00000000000E+00  0.71849498860E+02  0.27330242975E+04  0.27320796951E+04 0.  0.
        5    1    3    3  502    0  0.19977077547E+03 -0.12239443534E+04  0.60891824451E+03  0.13815757892E+04  0.46999998093E+01 0. -1.
       -5    1    3    3    0  502 -0.19977077547E+03  0.12239443534E+04 -0.53706874565E+03  0.13514485083E+04  0.46999998093E+01 0.  1.
</event>
<event>
 5   0  0.1449521E-05  0.2706882E+04  0.7818609E-02  0.8332776E-01
       -1   -1    0    0    0  501  0.00000000000E+00  0.00000000000E+00  0.13292597585E+04  0.13292597585E+04  0.50400001928E-02 0.  1.
        1   -1    0    0  501    0  0.00000000000E+00  0.00000000000E+00 -0.13780619894E+04  0.13780619894E+04  0.50400001928E-02 0. -1.
    10030    2    1    2    0    0  0.00000000000E+00  0.00000000000E+00 -0.48802230967E+02  0.27073217479E+04  0.27068818572E+04 0.  0.
        3    1    3    3  502    0 -0.93204469002E+03 -0.50863127204E+03 -0.86381651842E+03  0.13687921912E+04  0.10100000352E+00 0. -1.
       -3    1    3    3    0  502  0.93204469002E+03  0.50863127204E+03  0.81501428745E+03  0.13385295567E+04  0.10100000352E+00 0.  1.
</event>
<event>
 5   0  0.3497949E-05  0.2540721E+04  0.7818609E-02  0.8388620E-01
       -2   -1    0    0    0  501  0.00000000000E+00  0.00000000000E+00  0.87581729775E+03  0.87581729776E+03  0.25500000920E-02 0. -1.
        2   -1    0    0  501    0  0.00000000000E+00  0.00000000000E+00 -0.18426404439E+04  0.18426404439E+04  0.25500000920E-02 0.  1.
    10030    2    1    2    0    0  0.00000000000E+00  0.00000000000E+00 -0.96682314617E+03  0.27184577417E+04  0.25407214521E+04 0.  0.
        5    1    3    3  502    0  0.78156706168E+02  0.12639282510E+04 -0.59131901887E+03  0.13976062988E+04  0.46999998093E+01 0.  1.
       -5    1    3    3    0  502 -0.78156706168E+02 -0.12639282510E+04 -0.37550412730E+03  0.13208514429E+04  0.46999998093E+01 0. -1.
</event>
<event>
 5   0  0.3652331E-05  0.2639786E+04  0.7818609E-02  0.8354811E-01
       -2   -1    0    0    0  501  0.00000000000E+00  0.00000000000E+00  0.72082031459E+03  0.72082031460E+03  0.25500000920E-02 0. -1.
        2   -1    0    0  501    0  0.00000000000E+00  0.00000000000E+00 -0.24168539103E+04  0.24168539103E+04  0.25500000920E-02 0.  1.
    10030    2    1    2    0    0  0.00000000000E+00  0.00000000000E+00 -0.16960335957E+04  0.31376742249E+04  0.26397858974E+04 0.  0.
        1    1    3    3  502    0  0.92390524986E+03 -0.91455554571E+03 -0.11193340073E+04  0.17154944992E+04  0.50400001928E-02 0.  1.
       -1    1    3    3    0  502 -0.92390524986E+03  0.91455554571E+03 -0.57669958845E+03  0.14221797257E+04  0.50400001928E-02 0. -1.
</event>
<event>
 5   0  0.3652331E-05  0.2519699E+04  0.7818609E-02  0.8396001E-01
        2   -1    0    0  501    0  0.00000000000E+00  0.00000000000E+00  0.16305532038E+04  0.16305532038E+04  0.25500000920E-02 0. -1.
       -2   -1    0    0    0  501  0.00000000000E+00  0.00000000000E+00 -0.97342475106E+03  0.97342475106E+03  0.25500000920E-02 0.  1.
    10030    2    1    2    0    0  0.00000000000E+00  0.00000000000E+00  0.65712845279E+03  0.26039779549E+04  0.25196990666E+04 0.  0.
        1    1    3    3  502    0 -0.31847888181E+03 -0.84034387640E+03  0.12410550453E+04  0.15322611573E+04  0.50400001928E-02 0. -1.
       -1    1    3    3    0  502  0.31847888181E+03  0.84034387640E+03 -0.58392659251E+03  0.10717167976E+04  0.50400001928E-02 0.  1.
</event>
<event>
 5   0  0.1474012E-05  0.2670009E+04  0.7818609E-02  0.8344802E-01
       -1   -1    0    0    0  501  0.00000000000E+00  0.00000000000E+00  0.66889681448E+03  0.66889681449E+03  0.50400001928E-02 0.  1.
        1   -1    0    0  501    0  0.00000000000E+00  0.00000000000E+00 -0.26644421049E+04  0.26644421050E+04  0.50400001928E-02 0. -1.
    10030    2    1    2    0    0  0.00000000000E+00  0.00000000000E+00 -0.19955452905E+04  0.33333389194E+04  0.26700088662E+04 0.  0.
        2    1    3    3  502    0 -0.21793494224E+02 -0.25317815454E+03 -0.26339700981E+04  0.26461996546E+04  0.25500000920E-02 0. -1.
       -2    1    3    3    0  502  0.21793494224E+02  0.25317815454E+03  0.63842480761E+03  0.68713926486E+03  0.25500000920E-02 0.  1.
</event>
<event>
 5   0  0.1228050E-05  0.2710045E+04  0.7818609E-02  0.8331753E-01
       -4   -1    0    0    0  501  0.00000000000E+00  0.00000000000E+00  0.12674739936E+04  0.12674746298E+04  0.12699999809E+01 0.  1.
        4   -1    0    0  501    0  0.00000000000E+00  0.00000000000E+00 -0.14486169076E+04  0.14486174643E+04  0.12699999809E+01 0. -1.
    10030    2    1    2    0    0  0.00000000000E+00  0.00000000000E+00 -0.18114291406E+03  0.27160920942E+04  0.27100449274E+04 0.  0.
        4    1    3    3  502    0  0.84670289427E+03 -0.48759754022E+03  0.85036696584E+03  0.12952925314E+04  0.12699999809E+01 0.  1.
       -4    1    3    3    0  502 -0.84670289427E+03  0.48759754022E+03 -0.10315098799E+04  0.14207995628E+04  0.12699999809E+01 0. -1.
</event>
<event>
 5   0  0.3514294E-05  0.2667568E+04  0.7818609E-02  0.8345605E-01
       -2   -1    0    0    0  501  0.00000000000E+00  0.00000000000E+00  0.14539522721E+04  0.14539522721E+04  0.25500000920E-02 0.  1.
        2   -1    0    0  501    0  0.00000000000E+00  0.00000000000E+00 -0.12235472782E+04  0.12235472782E+04  0.25500000920E-02 0. -1.
    10030    2    1    2    0    0  0.00000000000E+00  0.00000000000E+00  0.23040499393E+03  0.26774995503E+04  0.26675676900E+04 0.  0.
        2    1    3    3  502    0 -0.53973221203E+03  0.99597912488E+03 -0.59147427830E+03  0.12779386135E+04  0.25500000920E-02 0. -1.
       -2    1    3    3    0  502  0.53973221203E+03 -0.99597912488E+03  0.82187927223E+03  0.13995609369E+04  0.25500000920E-02 0.  1.
</event>
<event>
 5   0  0.1495517E-05  0.2764665E+04  0.7818609E-02  0.8314323E-01
        1   -1    0    0  501    0  0.00000000000E+00  0.00000000000E+00  0.92198242683E+03  0.92198242684E+03  0.50400001928E-02 0. -1.
       -1   -1    0    0    0  501  0.00000000000E+00  0.00000000000E+00 -0.20725371713E+04  0.20725371713E+04  0.50400001928E-02 0.  1.
    10030    2    1    2    0    0  0.00000000000E+00  0.00000000000E+00 -0.11505547444E+04  0.29945195981E+04  0.27646647905E+04 0.  0.
        5    1    3    3  502    0  0.38437587439E+02  0.59795839750E+03  0.77399933189E+03  0.97884051256E+03  0.46999998093E+01 0. -1.
       -5    1    3    3    0  502 -0.38437587439E+02 -0.59795839750E+03 -0.19245540763E+04  0.20156790856E+04  0.46999998093E+01 0.  1.
</event>
<event>
 5   0  0.1438701E-05  0.2753894E+04  0.7818609E-02  0.8317727E-01
       -1   -1    0    0    0  501  0.00000000000E+00  0.00000000000E+00  0.11146171641E+04  0.11146171642E+04  0.50400001928E-02 0. -1.
        1   -1    0    0  501    0  0.00000000000E+00  0.00000000000E+00 -0.17010178506E+04  0.17010178506E+04  0.50400001928E-02 0.  1.
    10030    2    1    2    0    0  0.00000000000E+00  0.00000000000E+00 -0.58640068644E+03  0.28156350147E+04  0.27538944735E+04 0.  0.
        4    1    3    3  502    0 -0.40509882692E+03 -0.55989460711E+03 -0.15108649035E+04  0.16614154809E+04  0.12699999809E+01 0.  1.
       -4    1    3    3    0  502  0.40509882692E+03  0.55989460711E+03  0.92446421709E+03  0.11542195338E+04  0.12699999809E+01 0. -1.
</event>
<event>
 5   0  0.1449521E-05  0.2655721E+04  0.7818609E-02  0.8349517E-01
        1   -1    0    0  501    0  0.00000000000E+00  0.00000000000E+00  0.13996468517E+04  0.13996468517E+04  0.50400001928E-02 0.  1.
       -1   -1    0    0    0  501  0.00000000000E+00  0.00000000000E+00 -0.12597558520E+04  0.12597558521E+04  0.50400001928E-02 0. -1.
    10030    2    1    2    0    0  0.00000000000E+00  0.00000000000E+00  0.13989099967E+03  0.26594027038E+04  0.26557208530E+04 0.  0.
        3    1    3    3  502    0 -0.92370568422E+02 -0.76013653840E+02 -0.12543488672E+04  0.12600402725E+04  0.10100000352E+00 0. -1.
       -3    1    3    3    0  502  0.92370568422E+02  0.76013653840E+02  0.13942398669E+04  0.13993624313E+04  0.10100000352E+00 0.  1.
</event>
<event>
 5   0  0.1495517E-05  0.2578981E+04  0.7818609E-02  0.8375376E-01
        1   -1    0    0  501    0  0.00000000000E+00  0.00000000000E+00  0.94456018480E+03  0.94456018481E+03  0.50400001928E-02 0. -1.
       -1   -1    0    0    0  501  0.00000000000E+00  0.00000000000E+00 -0.17603812253E+04  0.17603812254E+04  0.50400001928E-02 0.  1.
    10030    2    1    2    0    0  0.00000000000E+00  0.00000000000E+00 -0.81582104055E+03  0.27049414102E+04  0.25789812063E+04 0.  0.
        5    1    3    3  502    0  0.11626084101E+03  0.55510559321E+03 -0.16225323886E+04  0.17188054703E+04  0.46999998093E+01 0.  1.
       -5    1    3    3    0  502 -0.11626084101E+03 -0.55510559321E+03  0.80671134805E+03  0.98613593984E+03  0.46999998093E+01 0. -1.
</event>
<event>
 5   0  0.3514294E-05  0.2599504E+04  0.7818609E-02  0.8368370E-01
       -2   -1    0    0    0  501  0.00000000000E+00  0.00000000000E+00  0.11866770293E+04  0.11866770293E+04  0.25500000920E-02 0.  1.
        2   -1    0    0  501    0  0.00000000000E+00  0.00000000000E+00 -0.14236020989E+04  0.14236020989E+04  0.25500000920E-02 0. -1.
    10030    2    1    2    0    0  0.00000000000E+00  0.00000000000E+00 -0.23692506963E+03  0.26102791282E+04  0.25995044987E+04 0.  0.
        2    1    3    3  502    0 -0.44224837849E+03  0.71852626918E+03  0.87431752548E+03  0.12150287088E+04  0.25500000920E-02 0.  1.
       -2    1    3    3    0  502  0.44224837849E+03 -0.71852626918E+03 -0.11112425951E+04  0.13952504194E+04  0.25500000920E-02 0. -1.
</event>
<event>
 5   0  0.3514294E-05  0.2746751E+04  0.7818609E-02  0.8319993E-01
       -2   -1    0    0    0  501  0.00000000000E+00  0.00000000000E+00  0.16370650151E+04  0.16370650151E+04  0.25500000920E-02 0. -1.
        2   -1    0    0  501    0  0.00000000000E+00  0.00000000000E+00 -0.11521600585E+04  0.11521600585E+04  0.25500000920E-02 0.  1.
    10030    2    1    2    0    0  0.00000000000E+00  0.00000000000E+00  0.48490495659E+03  0.27892250736E+04  0.27467514803E+04 0.  0.
        2    1    3    3  502    0  0.21950175498E+03 -0.14674036579E+03 -0.11261445063E+04  0.11566828453E+04  0.25500000920E-02 0.  1.
       -2    1    3    3    0  502 -0.21950175498E+03  0.14674036579E+03  0.16110494629E+04  0.16325422284E+04  0.25500000920E-02 0. -1.
</event>
<event>
 5   0  0.1438701E-05  0.1375731E+04  0.7818609E-02  0.8971576E-01
        1   -1    0    0  501    0  0.00000000000E+00  0.00000000000E+00  0.10767389179E+04  0.10767389179E+04  0.50400001928E-02 0. -1.
       -1   -1    0    0    0  501  0.00000000000E+00  0.00000000000E+00 -0.43943690730E+03  0.43943690733E+03  0.50400001928E-02 0.  1.
    10030    2    1    2    0    0  0.00000000000E+00  0.00000000000E+00  0.63730201061E+03  0.15161758253E+04  0.13757308168E+04 0.  0.
        4    1    3    3  502    0 -0.67385423867E+03  0.38607084783E+00  0.16642911987E+03  0.69410370181E+03  0.12699999809E+01 0.  1.
       -4    1    3    3    0  502  0.67385423867E+03 -0.38607084783E+00  0.47087289074E+03  0.82207212345E+03  0.12699999809E+01 0. -1.
</event>
<event>
 5   0  0.1801315E-05  0.1391709E+04  0.7818609E-02  0.8959842E-01
        1   -1    0    0  501    0  0.00000000000E+00  0.00000000000E+00  0.11173066125E+04  0.11173066125E+04  0.50400001928E-02 0. -1.
       -1   -1    0    0    0  501  0.00000000000E+00  0.00000000000E+00 -0.43337552308E+03  0.43337552311E+03  0.50400001928E-02 0.  1.
    10030    2    1    2    0    0  0.00000000000E+00  0.00000000000E+00  0.68393108939E+03  0.15506821356E+04  0.13917087880E+04 0.  0.
        1    1    3    3  502    0  0.14025678663E+03  0.65495363642E+03  0.13180086980E+03  0.68264756746E+03  0.50400001928E-02 0.  1.
       -1    1    3    3    0  502 -0.14025678663E+03 -0.65495363642E+03  0.55213021959E+03  0.86803456813E+03  0.50400001928E-02 0. -1.
</event>
<event>
 5   0  0.1484379E-05  0.2479891E+04  0.7818609E-02  0.8410185E-01
        1   -1    0    0  501    0  0.00000000000E+00  0.00000000000E+00  0.83565728100E+03  0.83565728101E+03  0.50400001928E-02 0. -1.
       -1   -1    0    0    0  501  0.00000000000E+00  0.00000000000E+00 -0.18398267104E+04  0.18398267104E+04  0.50400001928E-02 0.  1.
    10030    2    1    2    0    0  0.00000000000E+00  0.00000000000E+00 -0.10041694294E+04  0.26754839914E+04  0.24798907930E+04 0.  0.
        1    1    3    3  502    0  0.10220867103E+04 -0.20831654833E+03 -0.12253372868E+04  0.16091949833E+04  0.50400001928E-02 0.  1.
       -1    1    3    3    0  502 -0.10220867103E+04  0.20831654833E+03  0.22116785745E+03  0.10662890081E+04  0.50400001928E-02 0. -1.
</event>
<event>
 5   0  0.1495517E-05  0.2519497E+04  0.7818609E-02  0.8396073E-01
       -1   -1    0    0    0  501  0.00000000000E+00  0.00000000000E+00  0.10593473658E+04  0.10593473658E+04  0.50400001928E-02 0. -1.
        1   -1    0    0  501    0  0.00000000000E+00  0.00000000000E+00 -0.14980598484E+04  0.14980598484E+04  0.50400001928E-02 0.  1.
    10030    2    1    2    0    0  0.00000000000E+00  0.00000000000E+00 -0.43871248264E+03  0.25574072142E+04  0.25194965800E+04 0.  0.
        5    1    3    3  502    0  0.41572651986E+03 -0.53729603535E+02  0.98647003739E+03  0.10718491658E+04  0.46999998093E+01 0. -1.
       -5    1    3    3    0  502 -0.41572651986E+03  0.53729603535E+02 -0.14251825200E+04  0.14855580483E+04  0.46999998093E+01 0.  1.
</event>
<event>
 5   0  0.3652331E-05  0.2671781E+04  0.7818609E-02  0.8344220E-01
       -2   -1    0    0    0  501  0.00000000000E+00  0.00000000000E+00  0.17708482834E+04  0.17708482834E+04  0.25500000920E-02 0.  1.
        2   -1    0    0  501    0  0.00000000000E+00  0.00000000000E+00 -0.10077674714E+04  0.10077674715E+04  0.25500000920E-02 0. -1.
    10030    2    1    2    0    0  0.00000000000E+00  0.00000000000E+00  0.76308081198E+03  0.27786157549E+04  0.26717809019E+04 0.  0.
        1    1    3    3  502    0  0.44845303686E+03  0.88652473601E+03  0.13103169910E+04  0.16443743037E+04  0.50400001928E-02 0.  1.
       -1    1    3    3    0  502 -0.44845303686E+03 -0.88652473601E+03 -0.54723617903E+03  0.11342414511E+04  0.50400001928E-02 0. -1.
</event>
<event>
 5   0  0.3568647E-05  0.2176352E+04  0.7818609E-02  0.8528336E-01
       -2   -1    0    0    0  501  0.00000000000E+00  0.00000000000E+00  0.73294756478E+03  0.73294756479E+03  0.25500000920E-02 0.  1.
        2   -1    0    0  501    0  0.00000000000E+00  0.00000000000E+00 -0.16155686792E+04  0.16155686792E+04  0.25500000920E-02 0. -1.
    10030    2    1    2    0    0  0.00000000000E+00  0.00000000000E+00 -0.88262111440E+03  0.23485162440E+04  0.21763521123E+04 0.  0.
        3    1    3    3  502    0 -0.37549185574E+03 -0.10150267647E+04 -0.31896796491E+03  0.11282792383E+04  0.10100000352E+00 0. -1.
       -3    1    3    3    0  502  0.37549185574E+03  0.10150267647E+04 -0.56365314950E+03  0.12202370056E+04  0.10100000352E+00 0.  1.
</event>
<event>
 5   0  0.3652331E-05  0.2680974E+04  0.7818609E-02  0.8341205E-01
       -2   -1    0    0    0  501  0.00000000000E+00  0.00000000000E+00  0.12558835806E+04  0.12558835806E+04  0.25500000920E-02 0.  1.
        2   -1    0    0  501    0  0.00000000000E+00  0.00000000000E+00 -0.14307900777E+04  0.14307900777E+04  0.25500000920E-02 0. -1.
    10030    2    1    2    0    0  0.00000000000E+00  0.00000000000E+00 -0.17490649713E+03  0.26866736583E+04  0.26809742751E+04 0.  0.
        1    1    3    3  502    0  0.93126919195E+03 -0.21388334250E+03 -0.10296100600E+04  0.14046726550E+04  0.50400001928E-02 0. -1.
       -1    1    3    3    0  502 -0.93126919195E+03  0.21388334250E+03  0.85470356288E+03  0.12820010033E+04  0.50400001928E-02 0.  1.
</event>
<event>
 5   0  0.3568647E-05  0.2681617E+04  0.7818609E-02  0.8340994E-01
        2   -1    0    0  501    0  0.00000000000E+00  0.00000000000E+00  0.98154004115E+03  0.98154004115E+03  0.25500000920E-02 0.  1.
       -2   -1    0    0    0  501  0.00000000000E+00  0.00000000000E+00 -0.18315777007E+04  0.18315777007E+04  0.25500000920E-02 0. -1.
    10030    2    1    2    0    0  0.00000000000E+00  0.00000000000E+00 -0.85003765951E+03  0.28131177418E+04  0.26816165659E+04 0.  0.
        3    1    3    3  502    0  0.41758294599E+03 -0.35853800674E+03  0.85757412458E+03  0.10189987284E+04  0.10100000352E+00 0.  1.
       -3    1    3    3    0  502 -0.41758294599E+03  0.35853800674E+03 -0.17076117841E+04  0.17941190134E+04  0.10100000352E+00 0. -1.
</event>
<event>
 5   0  0.3497949E-05  0.2903042E+04  0.7818609E-02  0.8271973E-01
        2   -1    0    0  501    0  0.00000000000E+00  0.00000000000E+00  0.19096561865E+04  0.19096561865E+04  0.25500000920E-02 0.  1.
       -2   -1    0    0    0  501  0.00000000000E+00  0.00000000000E+00 -0.11032943874E+04  0.11032943874E+04  0.25500000920E-02 0. -1.
    10030    2    1    2    0    0  0.00000000000E+00  0.00000000000E+00  0.80636179914E+03  0.30129505739E+04  0.29030418202E+04 0.  0.
        5    1    3    3  502    0  0.62619912158E+03 -0.38419372279E+03  0.17024391463E+04  0.18541982886E+04  0.46999998093E+01 0.  1.
       -5    1    3    3    0  502 -0.62619912158E+03  0.38419372279E+03 -0.89607734720E+03  0.11587522853E+04  0.46999998093E+01 0. -1.
</event>
<event>
 5   0  0.3497949E-05  0.2605805E+04  0.7818609E-02  0.8366232E-01
        2   -1    0    0  501    0  0.00000000000E+00  0.00000000000E+00  0.80094388715E+03  0.80094388715E+03  0.25500000920E-02 0.  1.
       -2   -1    0    0    0  501  0.00000000000E+00  0.00000000000E+00 -0.21194432463E+04  0.21194432463E+04  0.25500000920E-02 0. -1.
    10030    2    1    2    0    0  0.00000000000E+00  0.00000000000E+00 -0.13184993592E+04  0.29203871335E+04  0.26058051441E+04 0.  0.
        5    1    3    3  502    0 -0.51397807372E+01  0.81824018967E+03 -0.17955492674E+04  0.19732112626E+04  0.46999998093E+01 0. -1.
       -5    1    3    3    0  502  0.51397807372E+01 -0.81824018967E+03  0.47704990824E+03  0.94717587083E+03  0.46999998093E+01 0.  1.
</event>
<event>
 5   0  0.1707900E-05  0.1378899E+04  0.7818609E-02  0.8969236E-01
       -1   -1    0    0    0  501  0.00000000000E+00  0.00000000000E+00  0.32040179298E+03  0.32040179302E+03  0.50400001928E-02 0. -1.
        1   -1    0    0  501    0  0.00000000000E+00  0.00000000000E+00 -0.14835768649E+04  0.14835768649E+04  0.50400001928E-02 0.  1.
    10030    2    1    2    0    0  0.00000000000E+00  0.00000000000E+00 -0.11631750719E+04  0.18039786579E+04  0.13788991081E+04 0.  0.
        1    1    3    3  502    0  0.18660620205E+03  0.36205051540E+03  0.14616863010E+03  0.43274440354E+03  0.50400001928E-02 0. -1.
       -1    1    3    3    0  502 -0.18660620205E+03 -0.36205051540E+03 -0.13093437020E+04  0.13712342543E+04  0.50400001928E-02 0.  1.
</event>
<event>
 5   0  0.3652331E-05  0.2668658E+04  0.7818609E-02  0.8345246E-01
       -2   -1    0    0    0  501  0.00000000000E+00  0.00000000000E+00  0.10510489174E+04  0.10510489174E+04  0.25500000920E-02 0. -1.
        2   -1    0    0  501    0  0.00000000000E+00  0.00000000000E+00 -0.16939594997E+04  0.16939594997E+04  0.25500000920E-02 0.  1.
    10030    2    1    2    0    0  0.00000000000E+00  0.00000000000E+00 -0.64291058230E+03  0.27450084171E+04  0.26686583133E+04 0.  0.
        1    1    3    3  502    0 -0.42302796026E+03  0.11264275553E+04  0.27179730278E+03  0.12335580515E+04  0.50400001928E-02 0. -1.
       -1    1    3    3    0  502  0.42302796026E+03 -0.11264275553E+04 -0.91470788508E+03  0.15114503656E+04  0.50400001928E-02 0.  1.
</event>
<event>
 5   0  0.1449521E-05  0.3204587E+04  0.7818609E-02  0.8187607E-01
       -1   -1    0    0    0  501  0.00000000000E+00  0.00000000000E+00  0.95582146245E+03  0.95582146246E+03  0.50400001928E-02 0.  1.
        1   -1    0    0  501    0  0.00000000000E+00  0.00000000000E+00 -0.26860089596E+04  0.26860089596E+04  0.50400001928E-02 0. -1.
    10030    2    1    2    0    0  0.00000000000E+00  0.00000000000E+00 -0.17301874972E+04  0.36418304221E+04  0.32045873444E+04 0.  0.
        3    1    3    3  502    0  0.51531046338E+03  0.61960082022E+03 -0.24389317021E+04  0.25686256847E+04  0.10100000352E+00 0. -1.
       -3    1    3    3    0  502 -0.51531046338E+03 -0.61960082022E+03  0.70874420497E+03  0.10732047374E+04  0.10100000352E+00 0.  1.
</event>
<event>
 5   0  0.1474012E-05  0.1416943E+04  0.7818609E-02  0.8941645E-01
       -1   -1    0    0    0  501  0.00000000000E+00  0.00000000000E+00  0.11221662843E+04  0.11221662843E+04  0.50400001928E-02 0.  1.
        1   -1    0    0  501    0  0.00000000000E+00  0.00000000000E+00 -0.44728840824E+03  0.44728840827E+03  0.50400001928E-02 0. -1.
    10030    2    1    2    0    0  0.00000000000E+00  0.00000000000E+00  0.67487787608E+03  0.15694546926E+04  0.14169431479E+04 0.  0.
        2    1    3    3  502    0  0.18852599171E+03  0.99282476243E+01  0.10937928157E+04  0.11099654694E+04  0.25500000920E-02 0.  1.
       -2    1    3    3    0  502 -0.18852599171E+03 -0.99282476243E+01 -0.41891493957E+03  0.45948922322E+03  0.25500000920E-02 0. -1.
</event>
<event>
 5   0  0.1438701E-05  0.2014241E+04  0.7818609E-02  0.8599992E-01
        1   -1    0    0  501    0  0.00000000000E+00  0.00000000000E+00  0.16242752962E+04  0.16242752963E+04  0.50400001928E-02 0.  1.
       -1   -1    0    0    0  501  0.00000000000E+00  0.00000000000E+00 -0.62445775702E+03  0.62445775704E+03  0.50400001928E-02 0. -1.
    10030    2    1    2    0    0  0.00000000000E+00  0.00000000000E+00  0.99981753922E+03  0.22487330533E+04  0.20142406096E+04 0.  0.
        4    1    3    3  502    0  0.32770907530E+03 -0.90658889258E+02  0.15582567162E+04  0.15949225306E+04  0.12699999809E+01 0.  1.
       -4    1    3    3    0  502 -0.32770907530E+03  0.90658889258E+02 -0.55843917699E+03  0.65381052265E+03  0.12699999809E+01 0. -1.
</event>
<event>
 5   0  0.3676724E-05  0.2613990E+04  0.7818609E-02  0.8363465E-01
        2   -1    0    0  501    0  0.00000000000E+00  0.00000000000E+00  0.15073468098E+04  0.15073468098E+04  0.25500000920E-02 0. -1.
       -2   -1    0    0    0  501  0.00000000000E+00  0.00000000000E+00 -0.11332729386E+04  0.11332729386E+04  0.25500000920E-02 0.  1.
    10030    2    1    2    0    0  0.00000000000E+00  0.00000000000E+00  0.37407387119E+03  0.26406197484E+04  0.26139895552E+04 0.  0.
        4    1    3    3  502    0 -0.31855316592E+03 -0.12462717786E+04 -0.46760430878E+02  0.12871898136E+04  0.12699999809E+01 0. -1.
       -4    1    3    3    0  502  0.31855316592E+03  0.12462717786E+04  0.42083430207E+03  0.13534299347E+04  0.12699999809E+01 0.  1.
</event>
<event>
 5   0  0.1495517E-05  0.1522491E+04  0.7818609E-02  0.8869633E-01
       -1   -1    0    0    0  501  0.00000000000E+00  0.00000000000E+00  0.10894952968E+04  0.10894952968E+04  0.50400001928E-02 0.  1.
        1   -1    0    0  501    0  0.00000000000E+00  0.00000000000E+00 -0.53189312700E+03  0.53189312702E+03  0.50400001928E-02 0. -1.
    10030    2    1    2    0    0  0.00000000000E+00  0.00000000000E+00  0.55760216977E+03  0.16213884238E+04  0.15224914585E+04 0.  0.
        5    1    3    3  502    0 -0.44585090130E+03  0.61440289145E+03  0.21856712273E+03  0.78997950375E+03  0.46999998093E+01 0.  1.
       -5    1    3    3    0  502  0.44585090130E+03 -0.61440289145E+03  0.33903504705E+03  0.83140892005E+03  0.46999998093E+01 0. -1.
</event>
<event>
 5   0  0.1495517E-05  0.2736561E+04  0.7818609E-02  0.8323239E-01
        1   -1    0    0  501    0  0.00000000000E+00  0.00000000000E+00  0.14282251615E+04  0.14282251616E+04  0.50400001928E-02 0.  1.
       -1   -1    0    0    0  501  0.00000000000E+00  0.00000000000E+00 -0.13108517193E+04  0.13108517193E+04  0.50400001928E-02 0. -1.
    10030    2    1    2    0    0  0.00000000000E+00  0.00000000000E+00  0.11737344222E+03  0.27390768809E+04  0.27365609137E+04 0.  0.
        5    1    3    3  502    0  0.53082465958E+03 -0.78324592480E+03 -0.93061479426E+03  0.13271454266E+04  0.46999998093E+01 0. -1.
       -5    1    3    3    0  502 -0.53082465958E+03  0.78324592480E+03  0.10479882365E+04  0.14119314543E+04  0.46999998093E+01 0.  1.
</event>
<event>
 5   0  0.1495517E-05  0.2594433E+04  0.7818609E-02  0.8370095E-01
       -1   -1    0    0    0  501  0.00000000000E+00  0.00000000000E+00  0.66811434845E+03  0.66811434846E+03  0.50400001928E-02 0. -1.
        1   -1    0    0  501    0  0.00000000000E+00  0.00000000000E+00 -0.25186860015E+04  0.25186860015E+04  0.50400001928E-02 0.  1.
    10030    2    1    2    0    0  0.00000000000E+00  0.00000000000E+00 -0.18505716531E+04  0.31868003500E+04  0.25944326986E+04 0.  0.
        5    1    3    3  502    0 -0.72812391262E+03 -0.66012100184E+03 -0.19652508065E+04  0.21973067586E+04  0.46999998093E+01 0.  1.
       -5    1    3    3    0  502  0.72812391262E+03  0.66012100184E+03  0.11467915336E+03  0.98949359139E+03  0.46999998093E+01 0. -1.
</event>
<event>
 5   0  0.3497949E-05  0.2746319E+04  0.7818609E-02  0.8320131E-01
       -2   -1    0    0    0  501  0.00000000000E+00  0.00000000000E+00  0.27694110133E+04  0.27694110133E+04  0.25500000920E-02 0.  1.
        2   -1    0    0  501    0  0.00000000000E+00  0.00000000000E+00 -0.68085501008E+03  0.68085501009E+03  0.25500000920E-02 0. -1.
    10030    2    1    2    0    0  0.00000000000E+00  0.00000000000E+00  0.20885560032E+04  0.34502660233E+04  0.27463192556E+04 0.  0.
        5    1    3    3  502    0  0.24552843301E+03 -0.12555275766E+04  0.16710709450E+04  0.21045507597E+04  0.46999998093E+01 0.  1.
       -5    1    3    3    0  502 -0.24552843301E+03  0.12555275766E+04  0.41748505820E+03  0.13457152636E+04  0.46999998093E+01 0. -1.
</event>
<event>
 5   0  0.3652331E-05  0.2936285E+04  0.7818609E-02  0.8262163E-01
        2   -1    0    0  501    0  0.00000000000E+00  0.00000000000E+00  0.22244010456E+04  0.22244010456E+04  0.25500000920E-02 0. -1.
       -2   -1    0    0    0  501  0.00000000000E+00  0.00000000000E+00 -0.96899888817E+03  0.96899888818E+03  0.25500000920E-02 0.  1.
    10030    2    1    2    0    0  0.00000000000E+00  0.00000000000E+00  0.12554021575E+04  0.31933999338E+04  0.29362848228E+04 0.  0.
        1    1    3    3  502    0  0.63014718244E+03 -0.66344884022E+02 -0.81263672033E+03  0.10304686091E+04  0.50400001928E-02 0.  1.
       -1    1    3    3    0  502 -0.63014718244E+03  0.66344884022E+02  0.20680388778E+04  0.21629313247E+04  0.50400001928E-02 0. -1.
</event>
<event>
 5   0  0.1474012E-05  0.2644377E+04  0.7818609E-02  0.8353282E-01
        1   -1    0    0  501    0  0.00000000000E+00  0.00000000000E+00  0.15481584870E+04  0.15481584871E+04  0.50400001928E-02 0. -1.
       -1   -1    0    0    0  501  0.00000000000E+00  0.00000000000E+00 -0.11292013755E+04  0.11292013755E+04  0.50400001928E-02 0.  1.
    10030    2    1    2    0    0  0.00000000000E+00  0.00000000000E+00  0.41895711154E+03  0.26773598626E+04  0.26443771993E+04 0.  0.
        2    1    3    3  502    0 -0.10069865080E+04 -0.36942248166E+02 -0.65723368429E+03  0.12030555568E+04  0.25500000920E-02 0.  1.
       -2    1    3    3    0  502  0.10069865080E+04  0.36942248166E+02  0.10761907958E+04  0.14743043058E+04  0.25500000920E-02 0. -1.
</event>
<event>
 5   0  0.3497949E-05  0.1828179E+04  0.7818609E-02  0.8691456E-01
       -2   -1    0    0    0  501  0.00000000000E+00  0.00000000000E+00  0.57368490678E+03  0.57368490679E+03  0.25500000920E-02 0. -1.
        2   -1    0    0  501    0  0.00000000000E+00  0.00000000000E+00 -0.14564777877E+04  0.14564777877E+04  0.25500000920E-02 0.  1.
    10030    2    1    2    0    0  0.00000000000E+00  0.00000000000E+00 -0.88279288094E+03  0.20301626945E+04  0.18281786826E+04 0.  0.
        5    1    3    3  502    0 -0.48216010988E+03  0.77283742633E+03 -0.52583100213E+03  0.10517967446E+04  0.46999998093E+01 0. -1.
       -5    1    3    3    0  502  0.48216010988E+03 -0.77283742633E+03 -0.35696187882E+03  0.97836594995E+03  0.46999998093E+01 0.  1.
</event>
<event>
 5   0  0.3652331E-05  0.2652658E+04  0.7818609E-02  0.8350531E-01
        2   -1    0    0  501    0  0.00000000000E+00  0.00000000000E+00  0.19344363867E+04  0.19344363867E+04  0.25500000920E-02 0. -1.
       -2   -1    0    0    0  501  0.00000000000E+00  0.00000000000E+00 -0.90938591439E+03  0.90938591439E+03  0.25500000920E-02 0.  1.
    10030    2    1    2    0    0  0.00000000000E+00  0.00000000000E+00  0.10250504723E+04  0.28438223010E+04  0.26526584419E+04 0.  0.
        1    1    3    3  502    0 -0.90970652286E+03 -0.11487180156E+03  0.15399124455E+04  0.17922309640E+04  0.50400001928E-02 0. -1.
       -1    1    3    3    0  502  0.90970652286E+03  0.11487180156E+03 -0.51486197327E+03  0.10515913370E+04  0.50400001928E-02 0.  1.
</event>
<event>
 5   0  0.1228050E-05  0.1651844E+04  0.7818609E-02  0.8789316E-01
        3   -1    0    0  501    0  0.00000000000E+00  0.00000000000E+00  0.65585424787E+03  0.65585425565E+03  0.10100000352E+00 0. -1.
       -3   -1    0    0    0  501  0.00000000000E+00  0.00000000000E+00 -0.10400893815E+04  0.10400893864E+04  0.10100000352E+00 0.  1.
    10030    2    1    2    0    0  0.00000000000E+00  0.00000000000E+00 -0.38423513363E+03  0.16959436421E+04  0.16518438786E+04 0.  0.
        5    1    3    3  502    0 -0.69109834594E+03 -0.31596366450E+02 -0.65528176409E+03  0.95290688657E+03  0.46999998093E+01 0.  1.
       -5    1    3    3    0  502  0.69109834594E+03  0.31596366450E+02  0.27104663046E+03  0.74303675549E+03  0.46999998093E+01 0. -1.
</event>
<event>
 5   0  0.3652331E-05  0.2632662E+04  0.7818609E-02  0.8357191E-01
        2   -1    0    0  501    0  0.00000000000E+00  0.00000000000E+00  0.15716731048E+04  0.15716731049E+04  0.25500000920E-02 0. -1.
       -2   -1    0    0    0  501  0.00000000000E+00  0.00000000000E+00 -0.11024727026E+04  0.11024727026E+04  0.25500000920E-02 0.  1.
    10030    2    1    2    0    0  0.00000000000E+00  0.00000000000E+00  0.46920040224E+03  0.26741458075E+04  0.26326615396E+04 0.  0.
        1    1    3    3  502    0 -0.94442012972E+02 -0.71542435064E+03 -0.88364477826E+03  0.11408678230E+04  0.50400001928E-02 0.  1.
       -1    1    3    3    0  502  0.94442012972E+02  0.71542435064E+03  0.13528451805E+04  0.15332779845E+04  0.50400001928E-02 0. -1.
</event>
<event>
 5   0  0.3568647E-05  0.2627436E+04  0.7818609E-02  0.8358941E-01
        2   -1    0    0  501    0  0.00000000000E+00  0.00000000000E+00  0.10679922796E+04  0.10679922796E+04  0.25500000920E-02 0. -1.
       -2   -1    0    0    0  501  0.00000000000E+00  0.00000000000E+00 -0.16159811277E+04  0.16159811277E+04  0.25500000920E-02 0.  1.
    10030    2    1    2    0    0  0.00000000000E+00  0.00000000000E+00 -0.54798884809E+03  0.26839734074E+04  0.26274362930E+04 0.  0.
        3    1    3    3  502    0  0.36140322196E+03 -0.45753963511E+03  0.92858023439E+03  0.10964561407E+04  0.10100000352E+00 0. -1.
       -3    1    3    3    0  502 -0.36140322196E+03  0.45753963511E+03 -0.14765690825E+04  0.15875172667E+04  0.10100000352E+00 0.  1.
</event>
<event>
 5   0  0.1438701E-05  0.2754373E+04  0.7818609E-02  0.8317575E-01
       -1   -1    0    0    0  501  0.00000000000E+00  0.00000000000E+00  0.80043455867E+03  0.80043455868E+03  0.50400001928E-02 0.  1.
        1   -1    0    0  501    0  0.00000000000E+00  0.00000000000E+00 -0.23695169083E+04  0.23695169083E+04  0.50400001928E-02 0. -1.
    10030    2    1    2    0    0  0.00000000000E+00  0.00000000000E+00 -0.15690823497E+04  0.31699514670E+04  0.27543734103E+04 0.  0.
        4    1    3    3  502    0  0.45985772887E+03 -0.91497680176E+03  0.27526182191E+03  0.10603878357E+04  0.12699999809E+01 0.  1.
       -4    1    3    3    0  502 -0.45985772887E+03  0.91497680176E+03 -0.18443441716E+04  0.21095636313E+04  0.12699999809E+01 0. -1.
</event>
<event>
 5   0  0.1438701E-05  0.2700695E+04  0.7818609E-02  0.8334779E-01
       -1   -1    0    0    0  501  0.00000000000E+00  0.00000000000E+00  0.17031372640E+04  0.17031372640E+04  0.50400001928E-02 0. -1.
        1   -1    0    0  501    0  0.00000000000E+00  0.00000000000E+00 -0.10706350800E+04  0.10706350800E+04  0.50400001928E-02 0.  1.
    10030    2    1    2    0    0  0.00000000000E+00  0.00000000000E+00  0.63250218402E+03  0.27737723440E+04  0.27006950964E+04 0.  0.
        4    1    3    3  502    0 -0.96793403493E+03 -0.12546324170E+03 -0.64216558044E+03  0.11683388064E+04  0.12699999809E+01 0.  1.
       -4    1    3    3    0  502  0.96793403493E+03  0.12546324170E+03  0.12746677645E+04  0.16054335376E+04  0.12699999809E+01 0. -1.
</event>
<event>
 5   0  0.1484379E-05  0.2683834E+04  0.7818609E-02  0.8340269E-01
        1   -1    0    0  501    0  0.00000000000E+00  0.00000000000E+00  0.11746574551E+04  0.11746574551E+04  0.50400001928E-02 0.  1.
       -1   -1    0    0    0  501  0.00000000000E+00  0.00000000000E+00 -0.15329926755E+04  0.15329926755E+04  0.50400001928E-02 0. -1.
    10030    2    1    2    0    0  0.00000000000E+00  0.00000000000E+00 -0.35833522034E+03  0.27076501306E+04  0.26838340298E+04 0.  0.
        1    1    3    3  502    0  0.79448425412E+03 -0.37532681059E+03  0.84406423502E+03  0.12184087482E+04  0.50400001928E-02 0.  1.
       -1    1    3    3    0  502 -0.79448425412E+03  0.37532681059E+03 -0.12023994554E+04  0.14892413824E+04  0.50400001928E-02 0. -1.
</event>
<event>
 5   0  0.3497949E-05  0.2759779E+04  0.7818609E-02  0.8315865E-01
        2   -1    0    0  501    0  0.00000000000E+00  0.00000000000E+00  0.25876250250E+04  0.25876250250E+04  0.25500000920E-02 0.  1.
       -2   -1    0    0    0  501  0.00000000000E+00  0.00000000000E+00 -0.73584684538E+03  0.73584684539E+03  0.25500000920E-02 0. -1.
    10030    2    1    2    0    0  0.00000000000E+00  0.00000000000E+00  0.18517781796E+04  0.33234718704E+04  0.27597794924E+04 0.  0.
        5    1    3    3  502    0 -0.93224404389E+03 -0.50065198054E+03 -0.14063441556E+03  0.10674884036E+04  0.46999998093E+01 0. -1.
       -5    1    3    3    0  502  0.93224404389E+03  0.50065198054E+03  0.19924125951E+04  0.22559834668E+04  0.46999998093E+01 0.  1.
</event>
<event>
 5   0  0.1484379E-05  0.2760453E+04  0.7818609E-02  0.8315652E-01
       -1   -1    0    0    0  501  0.00000000000E+00  0.00000000000E+00  0.76604635532E+03  0.76604635534E+03  0.50400001928E-02 0.  1.
        1   -1    0    0  501    0  0.00000000000E+00  0.00000000000E+00 -0.24868279776E+04  0.24868279776E+04  0.50400001928E-02 0. -1.
    10030    2    1    2    0    0  0.00000000000E+00  0.00000000000E+00 -0.17207816223E+04  0.32528743329E+04  0.27604532299E+04 0.  0.
        1    1    3    3  502    0 -0.95983642633E+03  0.99140825513E+03 -0.82605117428E+03  0.16082713814E+04  0.50400001928E-02 0. -1.
       -1    1    3    3    0  502  0.95983642633E+03 -0.99140825513E+03 -0.89473044800E+03  0.16446029516E+04  0.50400001928E-02 0.  1.
</event>
<event>
 5   0  0.3497949E-05  0.3533626E+04  0.7818609E-02  0.8105867E-01
        2   -1    0    0  501    0  0.00000000000E+00  0.00000000000E+00  0.22440149969E+04  0.22440149969E+04  0.25500000920E-02 0. -1.
       -2   -1    0    0    0  501  0.00000000000E+00  0.00000000000E+00 -0.13910905241E+04  0.13910905241E+04  0.25500000920E-02 0.  1.
    10030    2    1    2    0    0  0.00000000000E+00  0.00000000000E+00  0.85292447275E+03  0.36351055210E+04  0.35336258988E+04 0.  0.
        5    1    3    3  502    0 -0.43319401567E+03 -0.78699363956E+03 -0.11386067172E+04  0.14503321656E+04  0.46999998093E+01 0.  1.
       -5    1    3    3    0  502  0.43319401567E+03  0.78699363956E+03  0.19915311900E+04  0.21847733554E+04  0.46999998093E+01 0. -1.
</event>
<event>
 5   0  0.3652331E-05  0.2711383E+04  0.7818609E-02  0.8331321E-01
       -2   -1    0    0    0  501  0.00000000000E+00  0.00000000000E+00  0.83138880682E+03  0.83138880683E+03  0.25500000920E-02 0. -1.
        2   -1    0    0  501    0  0.00000000000E+00  0.00000000000E+00 -0.22106377993E+04  0.22106377993E+04  0.25500000920E-02 0.  1.
    10030    2    1    2    0    0  0.00000000000E+00  0.00000000000E+00 -0.13792489925E+04  0.30420266061E+04  0.27113830583E+04 0.  0.
        1    1    3    3  502    0 -0.34951408894E+03 -0.74044211769E+03 -0.19018900503E+04  0.20706521657E+04  0.50400001928E-02 0.  1.
       -1    1    3    3    0  502  0.34951408894E+03  0.74044211769E+03  0.52264105785E+03  0.97137444036E+03  0.50400001928E-02 0. -1.
</event>
<event>
 5   0  0.3676724E-05  0.2779249E+04  0.7818609E-02  0.8309740E-01
       -2   -1    0    0    0  501  0.00000000000E+00  0.00000000000E+00  0.11044618098E+04  0.11044618098E+04  0.25500000920E-02 0. -1.
        2   -1    0    0  501    0  0.00000000000E+00  0.00000000000E+00 -0.17484135565E+04  0.17484135565E+04  0.25500000920E-02 0.  1.
    10030    2    1    2    0    0  0.00000000000E+00  0.00000000000E+00 -0.64395174675E+03  0.28528753663E+04  0.27792488200E+04 0.  0.
        4    1    3    3  502    0  0.57794026185E+03  0.25921153704E+03 -0.15916130397E+04  0.17130205043E+04  0.12699999809E+01 0.  1.
       -4    1    3    3    0  502 -0.57794026185E+03 -0.25921153704E+03  0.94766129297E+03  0.11398548619E+04  0.12699999809E+01 0. -1.
</event>
<event>
 5   0  0.3497949E-05  0.2689131E+04  0.7818609E-02  0.8338540E-01
        2   -1    0    0  501    0  0.00000000000E+00  0.00000000000E+00  0.21646288136E+04  0.21646288136E+04  0.25500000920E-02 0.  1.
       -2   -1    0    0    0  501  0.00000000000E+00  0.00000000000E+00 -0.83518048988E+03  0.83518048989E+03  0.25500000920E-02 0. -1.
    10030    2    1    2    0    0  0.00000000000E+00  0.00000000000E+00  0.13294483238E+04  0.29998093035E+04  0.26891305309E+04 0.  0.
        5    1    3    3  502    0 -0.13051604723E+04 -0.32172541409E+03  0.69786431535E+03  0.15145916258E+04  0.46999998093E+01 0. -1.
       -5    1    3    3    0  502  0.13051604723E+04  0.32172541409E+03  0.63158400841E+03  0.14852176777E+04  0.46999998093E+01 0.  1.
</event>
<event>
 5   0  0.1438701E-05  0.2811805E+04  0.7818609E-02  0.8299613E-01
        1   -1    0    0  501    0  0.00000000000E+00  0.00000000000E+00  0.12616284825E+04  0.12616284825E+04  0.50400001928E-02 0.  1.
       -1   -1    0    0    0  501  0.00000000000E+00  0.00000000000E+00 -0.15666754233E+04  0.15666754233E+04  0.50400001928E-02 0. -1.
    10030    2    1    2    0    0  0.00000000000E+00  0.00000000000E+00 -0.30504694078E+03  0.28283039059E+04  0.28118053538E+04 0.  0.
        4    1    3    3  502    0 -0.11322266073E+04 -0.62069098247E+03  0.40694723090E+03  0.13538101963E+04  0.12699999809E+01 0.  1.
       -4    1    3    3    0  502  0.11322266073E+04  0.62069098247E+03 -0.71199417168E+03  0.14744937095E+04  0.12699999809E+01 0. -1.
</event>
<event>
 5   0  0.3652331E-05  0.1659688E+04  0.7818609E-02  0.8784696E-01
        2   -1    0    0  501    0  0.00000000000E+00  0.00000000000E+00  0.14611546742E+04  0.14611546742E+04  0.25500000920E-02 0.  1.
       -2   -1    0    0    0  501  0.00000000000E+00  0.00000000000E+00 -0.47129932623E+03  0.47129932624E+03  0.25500000920E-02 0. -1.
    10030    2    1    2    0    0  0.00000000000E+00  0.00000000000E+00  0.98985534800E+03  0.19324540005E+04  0.16596881797E+04 0.  0.
        1    1    3    3  502    0  0.62789999923E+03  0.34524726271E+03  0.98226958885E+03  0.12158567459E+04  0.50400001928E-02 0.  1.
       -1    1    3    3    0  502 -0.62789999923E+03 -0.34524726271E+03  0.75857591597E+01  0.71659725454E+03  0.50400001928E-02 0. -1.
</event>
<event>
 5   0  0.1438701E-05  0.2676058E+04  0.7818609E-02  0.8342815E-01
       -1   -1    0    0    0  501  0.00000000000E+00  0.00000000000E+00  0.12271480096E+04  0.12271480096E+04  0.50400001928E-02 0. -1.
        1   -1    0    0  501    0  0.00000000000E+00  0.00000000000E+00 -0.14589286824E+04  0.14589286824E+04  0.50400001928E-02 0.  1.
    10030    2    1    2    0    0  0.00000000000E+00  0.00000000000E+00 -0.23178067276E+03  0.26860766920E+04  0.26760578684E+04 0.  0.
        4    1    3    3  502    0 -0.94741506444E+02  0.92558759662E+03 -0.10810679529E+04  0.14263232045E+04  0.12699999809E+01 0.  1.
       -4    1    3    3    0  502  0.94741506444E+02 -0.92558759662E+03  0.84928728015E+03  0.12597534875E+04  0.12699999809E+01 0. -1.
</event>
<event>
 5   0  0.1474012E-05  0.1795192E+04  0.7818609E-02  0.8708860E-01
       -1   -1    0    0    0  501  0.00000000000E+00  0.00000000000E+00  0.79751067701E+03  0.79751067703E+03  0.50400001928E-02 0.  1.
        1   -1    0    0  501    0  0.00000000000E+00  0.00000000000E+00 -0.10102420633E+04  0.10102420634E+04  0.50400001928E-02 0. -1.
    10030    2    1    2    0    0  0.00000000000E+00  0.00000000000E+00 -0.21273138634E+03  0.18077527404E+04  0.17951922815E+04 0.  0.
        2    1    3    3  502    0  0.26125097796E+03  0.22363947704E+03 -0.94126991271E+03  0.10021256098E+04  0.25500000920E-02 0. -1.
       -2    1    3    3    0  502 -0.26125097796E+03 -0.22363947704E+03  0.72853852637E+03  0.80562713062E+03  0.25500000920E-02 0.  1.
</event>
<event>
 5   0  0.1474012E-05  0.2473710E+04  0.7818609E-02  0.8412412E-01
       -1   -1    0    0    0  501  0.00000000000E+00  0.00000000000E+00  0.95877970557E+03  0.95877970559E+03  0.50400001928E-02 0.  1.
        1   -1    0    0  501    0  0.00000000000E+00  0.00000000000E+00 -0.15955809102E+04  0.15955809102E+04  0.50400001928E-02 0. -1.
    10030    2    1    2    0    0  0.00000000000E+00  0.00000000000E+00 -0.63680120461E+03  0.25543606158E+04  0.24737102460E+04 0.  0.
        2    1    3    3  502    0  0.19487911473E+03 -0.12289407430E+03  0.93642651947E+03  0.96435234703E+03  0.25500000920E-02 0.  1.
       -2    1    3    3    0  502 -0.19487911473E+03  0.12289407430E+03 -0.15732277241E+04  0.15900082687E+04  0.25500000920E-02 0. -1.
</event>
<event>
 5   0  0.1484379E-05  0.2727916E+04  0.7818609E-02  0.8326004E-01
        1   -1    0    0  501    0  0.00000000000E+00  0.00000000000E+00  0.20621192557E+04  0.20621192557E+04  0.50400001928E-02 0.  1.
       -1   -1    0    0    0  501  0.00000000000E+00  0.00000000000E+00 -0.90216942977E+03  0.90216942978E+03  0.50400001928E-02 0. -1.
    10030    2    1    2    0    0  0.00000000000E+00  0.00000000000E+00  0.11599498259E+04  0.29642886855E+04  0.27279156534E+04 0.  0.
        1    1    3    3  502    0 -0.36707510874E+03 -0.89367953885E+03  0.16261955072E+04  0.18915388130E+04  0.50400001928E-02 0.  1.
       -1    1    3    3    0  502  0.36707510874E+03  0.89367953885E+03 -0.46624568123E+03  0.10727498725E+04  0.50400001928E-02 0. -1.
</event>
<event>
 5   0  0.1438701E-05  0.2709789E+04  0.7818609E-02  0.8331836E-01
       -1   -1    0    0    0  501  0.00000000000E+00  0.00000000000E+00  0.11806541477E+04  0.11806541477E+04  0.50400001928E-02 0. -1.
        1   -1    0    0  501    0  0.00000000000E+00  0.00000000000E+00 -0.15548485974E+04  0.15548485974E+04  0.50400001928E-02 0.  1.
    10030    2    1    2    0    0  0.00000000000E+00  0.00000000000E+00 -0.37419444969E+03  0.27355027451E+04  0.27097885124E+04 0.  0.
        4    1    3    3  502    0 -0.76144901381E+03  0.61618176639E+03 -0.11320635534E+04  0.14970150539E+04  0.12699999809E+01 0.  1.
       -4    1    3    3    0  502  0.76144901381E+03 -0.61618176639E+03  0.75786910370E+03  0.12384876911E+04  0.12699999809E+01 0. -1.
</event>
<event>
 5   0  0.3676724E-05  0.2659306E+04  0.7818609E-02  0.8348331E-01
        2   -1    0    0  501    0  0.00000000000E+00  0.00000000000E+00  0.16880020668E+04  0.16880020669E+04  0.25500000920E-02 0.  1.
       -2   -1    0    0    0  501  0.00000000000E+00  0.00000000000E+00 -0.10473781504E+04  0.10473781504E+04  0.25500000920E-02 0. -1.
    10030    2    1    2    0    0  0.00000000000E+00  0.00000000000E+00  0.64062391648E+03  0.27353802172E+04  0.26593055354E+04 0.  0.
        4    1    3    3  502    0 -0.12480770045E+04  0.43801294694E+03  0.18069653488E+03  0.13349922852E+04  0.12699999809E+01 0.  1.
       -4    1    3    3    0  502  0.12480770045E+04 -0.43801294694E+03  0.45992738160E+03  0.14003879320E+04  0.12699999809E+01 0. -1.
</event>
<event>
 5   0  0.3514294E-05  0.2105260E+04  0.7818609E-02  0.8558930E-01
       -2   -1    0    0    0  501  0.00000000000E+00  0.00000000000E+00  0.13494459907E+04  0.13494459907E+04  0.25500000920E-02 0.  1.
        2   -1    0    0  501    0  0.00000000000E+00  0.00000000000E+00 -0.82110022127E+03  0.82110022128E+03  0.25500000920E-02 0. -1.
    10030    2    1    2    0    0  0.00000000000E+00  0.00000000000E+00  0.52834576940E+03  0.21705462119E+04  0.21052604604E+04 0.  0.
        2    1    3    3  502    0 -0.38166305002E+03  0.54695365624E+03  0.11038015065E+04  0.12896521824E+04  0.25500000920E-02 0.  1.
       -2    1    3    3    0  502  0.38166305002E+03 -0.54695365624E+03 -0.57545573714E+03  0.88089402951E+03  0.25500000920E-02 0. -1.
</event>
<event>
 5   0  0.1495517E-05  0.2655109E+04  0.7818609E-02  0.8349719E-01
       -1   -1    0    0    0  501  0.00000000000E+00  0.00000000000E+00  0.84218183844E+03  0.84218183846E+03  0.50400001928E-02 0.  1.
        1   -1    0    0  501    0  0.00000000000E+00  0.00000000000E+00 -0.20926602850E+04  0.20926602850E+04  0.50400001928E-02 0. -1.
    10030    2    1    2    0    0  0.00000000000E+00  0.00000000000E+00 -0.12504784466E+04  0.29348421235E+04  0.26551086502E+04 0.  0.
        5    1    3    3  502    0  0.23033394889E+02 -0.11029049749E+04  0.19111625634E+03  0.11195880646E+04  0.46999998093E+01 0.  1.
       -5    1    3    3    0  502 -0.23033394889E+02  0.11029049749E+04 -0.14415947029E+04  0.18152540589E+04  0.46999998093E+01 0. -1.
</event>
<event>
 5   0  0.3514294E-05  0.2657342E+04  0.7818609E-02  0.8348980E-01
        2   -1    0    0  501    0  0.00000000000E+00  0.00000000000E+00  0.21986705108E+04  0.21986705108E+04  0.25500000920E-02 0. -1.
       -2   -1    0    0    0  501  0.00000000000E+00  0.00000000000E+00 -0.80292467551E+03  0.80292467551E+03  0.25500000920E-02 0.  1.
    10030    2    1    2    0    0  0.00000000000E+00  0.00000000000E+00  0.13957458353E+04  0.30015951863E+04  0.26573421356E+04 0.  0.
        2    1    3    3  502    0 -0.11214626668E+03 -0.44173778302E+03  0.21076182547E+04  0.21563310882E+04  0.25500000920E-02 0. -1.
       -2    1    3    3    0  502  0.11214626668E+03  0.44173778302E+03 -0.71187241943E+03  0.84526409816E+03  0.25500000920E-02 0.  1.
</event>
<event>
 5   0  0.1495517E-05  0.3101192E+04  0.7818609E-02  0.8215411E-01
        1   -1    0    0  501    0  0.00000000000E+00  0.00000000000E+00  0.80142386471E+03  0.80142386472E+03  0.50400001928E-02 0.  1.
       -1   -1    0    0    0  501  0.00000000000E+00  0.00000000000E+00 -0.30000957099E+04  0.30000957099E+04  0.50400001928E-02 0. -1.
    10030    2    1    2    0    0  0.00000000000E+00  0.00000000000E+00 -0.21986718452E+04  0.38015195746E+04  0.31011922213E+04 0.  0.
        5    1    3    3  502    0 -0.14126615529E+04 -0.56087102175E+03 -0.14754410730E+04  0.21182864339E+04  0.46999998093E+01 0. -1.
       -5    1    3    3    0  502  0.14126615529E+04  0.56087102175E+03 -0.72323077219E+03  0.16832331407E+04  0.46999998093E+01 0.  1.
</event>
<event>
 5   0  0.3652331E-05  0.2683173E+04  0.7818609E-02  0.8340485E-01
        2   -1    0    0  501    0  0.00000000000E+00  0.00000000000E+00  0.20778068357E+04  0.20778068357E+04  0.25500000920E-02 0. -1.
       -2   -1    0    0    0  501  0.00000000000E+00  0.00000000000E+00 -0.86622787281E+03  0.86622787282E+03  0.25500000920E-02 0.  1.
    10030    2    1    2    0    0  0.00000000000E+00  0.00000000000E+00  0.12115789629E+04  0.29440347085E+04  0.26831728945E+04 0.  0.
        1    1    3    3  502    0 -0.32617814454E+03  0.11676524012E+04 -0.24563860255E+02  0.12126036844E+04  0.50400001928E-02 0.  1.
       -1    1    3    3    0  502  0.32617814454E+03 -0.11676524012E+04  0.12361428231E+04  0.17314310241E+04  0.50400001928E-02 0. -1.
</event>
<event>
 5   0  0.3676724E-05  0.2644443E+04  0.7818609E-02  0.8353260E-01
       -2   -1    0    0    0  501  0.00000000000E+00  0.00000000000E+00  0.69078811590E+03  0.69078811591E+03  0.25500000920E-02 0.  1.
        2   -1    0    0  501    0  0.00000000000E+00  0.00000000000E+00 -0.25308332249E+04  0.25308332249E+04  0.25500000920E-02 0. -1.
    10030    2    1    2    0    0  0.00000000000E+00  0.00000000000E+00 -0.18400451090E+04  0.32216213408E+04  0.26444428639E+04 0.  0.
        4    1    3    3  502    0  0.93454040357E+03  0.83651529269E+03 -0.14298677266E+04  0.19020112852E+04  0.12699999809E+01 0. -1.
       -4    1    3    3    0  502 -0.93454040357E+03 -0.83651529269E+03 -0.41017738244E+03  0.13196100556E+04  0.12699999809E+01 0.  1.
</event>
<event>
 5   0  0.1449521E-05  0.2885736E+04  0.7818609E-02  0.8277134E-01
        1   -1    0    0  501    0  0.00000000000E+00  0.00000000000E+00  0.14717248996E+04  0.14717248996E+04  0.50400001928E-02 0. -1.
       -1   -1    0    0    0  501  0.00000000000E+00  0.00000000000E+00 -0.14145769573E+04  0.14145769573E+04  0.50400001928E-02 0.  1.
    10030    2    1    2    0    0  0.00000000000E+00  0.00000000000E+00  0.57147942302E+02  0.28863018568E+04  0.28857360450E+04 0.  0.
        3    1    3    3  502    0 -0.31186623646E+03  0.14080608088E+04  0.72993593933E+02  0.14440304241E+04  0.10100000352E+00 0. -1.
       -3    1    3    3    0  502  0.31186623646E+03 -0.14080608088E+04 -0.15845651631E+02  0.14422714327E+04  0.10100000352E+00 0.  1.
</event>
<event>
 5   0  0.3676724E-05  0.2715727E+04  0.7818609E-02  0.8329920E-01
        2   -1    0    0  501    0  0.00000000000E+00  0.00000000000E+00  0.15464153379E+04  0.15464153379E+04  0.25500000920E-02 0.  1.
       -2   -1    0    0    0  501  0.00000000000E+00  0.00000000000E+00 -0.11923012570E+04  0.11923012570E+04  0.25500000920E-02 0. -1.
    10030    2    1    2    0    0  0.00000000000E+00  0.00000000000E+00  0.35411408092E+03  0.27387165950E+04  0.27157267545E+04 0.  0.
        4    1    3    3  502    0 -0.31133332581E+03  0.86912931102E+03  0.11812157861E+04  0.14991952992E+04  0.12699999809E+01 0.  1.
       -4    1    3    3    0  502  0.31133332581E+03 -0.86912931102E+03 -0.82710170515E+03  0.12395212957E+04  0.12699999809E+01 0. -1.
</event>
<event>
 5   0  0.3497949E-05  0.1637121E+04  0.7818609E-02  0.8798062E-01
        2   -1    0    0  501    0  0.00000000000E+00  0.00000000000E+00  0.12982168655E+04  0.12982168655E+04  0.25500000920E-02 0. -1.
       -2   -1    0    0    0  501  0.00000000000E+00  0.00000000000E+00 -0.51612421616E+03  0.51612421617E+03  0.25500000920E-02 0.  1.
    10030    2    1    2    0    0  0.00000000000E+00  0.00000000000E+00  0.78209264937E+03  0.18143410817E+04  0.16371208412E+04 0.  0.
        5    1    3    3  502    0  0.13918711872E+03  0.80347634865E+03  0.31212066901E+03  0.87314872666E+03  0.46999998093E+01 0.  1.
       -5    1    3    3    0  502 -0.13918711872E+03 -0.80347634865E+03  0.46997198036E+03  0.94119235504E+03  0.46999998093E+01 0. -1.
</event>
<event>
 5   0  0.3652331E-05  0.1377364E+04  0.7818609E-02  0.8970368E-01
       -2   -1    0    0    0  501  0.00000000000E+00  0.00000000000E+00  0.49981083001E+03  0.49981083002E+03  0.25500000920E-02 0. -1.
        2   -1    0    0  501    0  0.00000000000E+00  0.00000000000E+00 -0.94892496733E+03  0.94892496733E+03  0.25500000920E-02 0.  1.
    10030    2    1    2    0    0  0.00000000000E+00  0.00000000000E+00 -0.44911413732E+03  0.14487357974E+04  0.13773641139E+04 0.  0.
        1    1    3    3  502    0  0.52555865338E+03 -0.26928259236E+03 -0.59725978512E+03  0.83990729467E+03  0.50400001928E-02 0.  1.
       -1    1    3    3    0  502 -0.52555865338E+03  0.26928259236E+03  0.14814564781E+03  0.60882850268E+03  0.50400001928E-02 0. -1.
</event>
<event>
 5   0  0.1438701E-05  0.2696480E+04  0.7818609E-02  0.8336148E-01
        1   -1    0    0  501    0  0.00000000000E+00  0.00000000000E+00  0.21977814594E+04  0.21977814594E+04  0.50400001928E-02 0.  1.
       -1   -1    0    0    0  501  0.00000000000E+00  0.00000000000E+00 -0.82708452546E+03  0.82708452548E+03  0.50400001928E-02 0. -1.
    10030    2    1    2    0    0  0.00000000000E+00  0.00000000000E+00  0.13706969339E+04  0.30248659849E+04  0.26964799539E+04 0.  0.
        4    1    3    3  502    0 -0.49867656271E+02  0.11286178591E+04 -0.14012269135E+03  0.11383764916E+04  0.12699999809E+01 0.  1.
       -4    1    3    3    0  502  0.49867656271E+02 -0.11286178591E+04  0.15108196253E+04  0.18864894933E+04  0.12699999809E+01 0. -1.
</event>
<event>
 5   0  0.3652331E-05  0.2589785E+04  0.7818609E-02  0.8371679E-01
        2   -1    0    0  501    0  0.00000000000E+00  0.00000000000E+00  0.12423349451E+04  0.12423349451E+04  0.25500000920E-02 0. -1.
       -2   -1    0    0    0  501  0.00000000000E+00  0.00000000000E+00 -0.13496740168E+04  0.13496740168E+04  0.25500000920E-02 0.  1.
    10030    2    1    2    0    0  0.00000000000E+00  0.00000000000E+00 -0.10733907171E+03  0.25920089619E+04  0.25897854703E+04 0.  0.
        1    1    3    3  502    0  0.32178296066E+03  0.18968466698E+03 -0.12945818551E+04  0.13473925658E+04  0.50400001928E-02 0.  1.
       -1    1    3    3    0  502 -0.32178296066E+03 -0.18968466698E+03  0.11872427834E+04  0.12446163961E+04  0.50400001928E-02 0. -1.
</event>
<event>
 5   0  0.1474012E-05  0.2472706E+04  0.7818609E-02  0.8412774E-01
       -1   -1    0    0    0  501  0.00000000000E+00  0.00000000000E+00  0.92417456207E+03  0.92417456208E+03  0.50400001928E-02 0.  1.
        1   -1    0    0  501    0  0.00000000000E+00  0.00000000000E+00 -0.16539823022E+04  0.16539823022E+04  0.50400001928E-02 0. -1.
    10030    2    1    2    0    0  0.00000000000E+00  0.00000000000E+00 -0.72980774008E+03  0.25781568642E+04  0.24727057001E+04 0.  0.
        2    1    3    3  502    0  0.11016766038E+04 -0.22090626485E+03 -0.90272881921E+03  0.14413223922E+04  0.25500000920E-02 0. -1.
       -2    1    3    3    0  502 -0.11016766038E+04  0.22090626485E+03  0.17292107912E+03  0.11368344720E+04  0.25500000920E-02 0.  1.
</event>
<event>
 5   0  0.3568647E-05  0.2020192E+04  0.7818609E-02  0.8597238E-01
       -2   -1    0    0    0  501  0.00000000000E+00  0.00000000000E+00  0.93303849746E+03  0.93303849746E+03  0.25500000920E-02 0. -1.
        2   -1    0    0  501    0  0.00000000000E+00  0.00000000000E+00 -0.10935171798E+04  0.10935171798E+04  0.25500000920E-02 0.  1.
    10030    2    1    2    0    0  0.00000000000E+00  0.00000000000E+00 -0.16047868232E+03  0.20265556772E+04  0.20201917002E+04 0.  0.
        3    1    3    3  502    0 -0.21768653956E+02 -0.53362587342E+03 -0.94029842818E+03  0.10813841091E+04  0.10100000352E+00 0.  1.
       -3    1    3    3    0  502  0.21768653956E+02  0.53362587342E+03  0.77981974586E+03  0.94517156819E+03  0.10100000352E+00 0. -1.
</event>
<event>
 5   0  0.1438701E-05  0.2791020E+04  0.7818609E-02  0.8306062E-01
        1   -1    0    0  501    0  0.00000000000E+00  0.00000000000E+00  0.88594585216E+03  0.88594585217E+03  0.50400001928E-02 0. -1.
       -1   -1    0    0    0  501  0.00000000000E+00  0.00000000000E+00 -0.21981572086E+04  0.21981572086E+04  0.50400001928E-02 0.  1.
    10030    2    1    2    0    0  0.00000000000E+00  0.00000000000E+00 -0.13122113565E+04  0.30841030608E+04  0.27910200726E+04 0.  0.
        4    1    3    3  502    0  0.12433054966E+04 -0.61976629665E+03 -0.80240084456E+03  0.16042965899E+04  0.12699999809E+01 0. -1.
       -4    1    3    3    0  502 -0.12433054966E+04  0.61976629665E+03 -0.50981051190E+03  0.14798064709E+04  0.12699999809E+01 0.  1.
</event>
<event>
 5   0  0.1438701E-05  0.2663770E+04  0.7818609E-02  0.8346857E-01
       -1   -1    0    0    0  501  0.00000000000E+00  0.00000000000E+00  0.13734602761E+04  0.13734602761E+04  0.50400001928E-02 0.  1.
        1   -1    0    0  501    0  0.00000000000E+00  0.00000000000E+00 -0.12915686119E+04  0.12915686120E+04  0.50400001928E-02 0. -1.
    10030    2    1    2    0    0  0.00000000000E+00  0.00000000000E+00  0.81891664164E+02  0.26650288881E+04  0.26637703973E+04 0.  0.
        4    1    3    3  502    0 -0.66863409948E+03 -0.59141866267E+03 -0.94798916121E+03  0.13021262059E+04  0.12699999809E+01 0. -1.
       -4    1    3    3    0  502  0.66863409948E+03  0.59141866267E+03  0.10298808254E+04  0.13629026821E+04  0.12699999809E+01 0.  1.
</event>
<event>
 5   0  0.3652331E-05  0.2816486E+04  0.7818609E-02  0.8298168E-01
        2   -1    0    0  501    0  0.00000000000E+00  0.00000000000E+00  0.11468509244E+04  0.11468509244E+04  0.25500000920E-02 0.  1.
       -2   -1    0    0    0  501  0.00000000000E+00  0.00000000000E+00 -0.17292118692E+04  0.17292118692E+04  0.25500000920E-02 0. -1.
    10030    2    1    2    0    0  0.00000000000E+00  0.00000000000E+00 -0.58236094477E+03  0.28760627937E+04  0.28164859174E+04 0.  0.
        1    1    3    3  502    0 -0.64093068886E+03 -0.11306373425E+04 -0.84488201349E+03  0.15501479171E+04  0.50400001928E-02 0.  1.
       -1    1    3    3    0  502  0.64093068886E+03  0.11306373425E+04  0.26252106872E+03  0.13259148765E+04  0.50400001928E-02 0. -1.
</event>
<event>
 5   0  0.3676724E-05  0.2729583E+04  0.7818609E-02  0.8325470E-01
        2   -1    0    0  501    0  0.00000000000E+00  0.00000000000E+00  0.14267330100E+04  0.14267330100E+04  0.25500000920E-02 0. -1.
       -2   -1    0    0    0  501  0.00000000000E+00  0.00000000000E+00 -0.13055387824E+04  0.13055387824E+04  0.25500000920E-02 0.  1.
    10030    2    1    2    0    0  0.00000000000E+00  0.00000000000E+00  0.12119422760E+03  0.27322717925E+04  0.27295825885E+04 0.  0.
        4    1    3    3  502    0  0.62556528135E+03  0.41238393019E+03  0.12024493474E+04  0.14167845542E+04  0.12699999809E+01 0. -1.
       -4    1    3    3    0  502 -0.62556528135E+03 -0.41238393019E+03 -0.10812551198E+04  0.13154872383E+04  0.12699999809E+01 0.  1.
</event>
<event>
 5   0  0.1721400E-05  0.1387250E+04  0.7818609E-02  0.8963099E-01
       -1   -1    0    0    0  501  0.00000000000E+00  0.00000000000E+00  0.77246832719E+03  0.77246832720E+03  0.50400001928E-02 0. -1.
        1   -1    0    0  501    0  0.00000000000E+00  0.00000000000E+00 -0.62282919299E+03  0.62282919301E+03  0.50400001928E-02 0.  1.
    10030    2    1    2    0    0  0.00000000000E+00  0.00000000000E+00  0.14963913420E+03  0.13952975202E+04  0.13872502656E+04 0.  0.
        5    1    3    3  502    0  0.25205752041E+03  0.38025645428E+03 -0.45067242326E+03  0.64129220150E+03  0.46999998093E+01 0.  1.
       -5    1    3    3    0  502 -0.25205752041E+03 -0.38025645428E+03  0.60031155746E+03  0.75400531871E+03  0.46999998093E+01 0. -1.
</event>
<event>
 5   0  0.3652331E-05  0.2708237E+04  0.7818609E-02  0.8332337E-01
        2   -1    0    0  501    0  0.00000000000E+00  0.00000000000E+00  0.16392511969E+04  0.16392511969E+04  0.25500000920E-02 0.  1.
       -2   -1    0    0    0  501  0.00000000000E+00  0.00000000000E+00 -0.11185820247E+04  0.11185820247E+04  0.25500000920E-02 0. -1.
    10030    2    1    2    0    0  0.00000000000E+00  0.00000000000E+00  0.52066917216E+03  0.27578332216E+04  0.27082370079E+04 0.  0.
        1    1    3    3  502    0  0.13838343342E+03 -0.75836489916E+03  0.13939917976E+04  0.15929470885E+04  0.50400001928E-02 0.  1.
       -1    1    3    3    0  502 -0.13838343342E+03  0.75836489916E+03 -0.87332262543E+03  0.11648861331E+04  0.50400001928E-02 0. -1.
</event>
<event>
 5   0  0.3568647E-05  0.2732426E+04  0.7818609E-02  0.8324560E-01
        2   -1    0    0  501    0  0.00000000000E+00  0.00000000000E+00  0.11215724936E+04  0.11215724936E+04  0.25500000920E-02 0. -1.
       -2   -1    0    0    0  501  0.00000000000E+00  0.00000000000E+00 -0.16642152817E+04  0.16642152817E+04  0.25500000920E-02 0.  1.
    10030    2    1    2    0    0  0.00000000000E+00  0.00000000000E+00 -0.54264278816E+03  0.27857877753E+04  0.27324260893E+04 0.  0.
        3    1    3    3  502    0  0.45433473777E+03  0.12679157880E+04 -0.50494169564E+03  0.14384007180E+04  0.10100000352E+00 0.  1.
       -3    1    3    3    0  502 -0.45433473777E+03 -0.12679157880E+04 -0.37701092520E+02  0.13473870573E+04  0.10100000352E+00 0. -1.
</event>
<event>
 5   0  0.1484379E-05  0.1514950E+04  0.7818609E-02  0.8874572E-01
       -1   -1    0    0    0  501  0.00000000000E+00  0.00000000000E+00  0.14503708018E+04  0.14503708018E+04  0.50400001928E-02 0.  1.
        1   -1    0    0  501    0  0.00000000000E+00  0.00000000000E+00 -0.39560118149E+03  0.39560118152E+03  0.50400001928E-02 0. -1.
    10030    2    1    2    0    0  0.00000000000E+00  0.00000000000E+00  0.10547696203E+04  0.18459719833E+04  0.15149500359E+04 0.  0.
        1    1    3    3  502    0  0.64742329077E+03 -0.36810247631E+03  0.69583847277E+03  0.10192387015E+04  0.50400001928E-02 0. -1.
       -1    1    3    3    0  502 -0.64742329077E+03  0.36810247631E+03  0.35893114753E+03  0.82673328177E+03  0.50400001928E-02 0.  1.
</event>
<event>
 5   0  0.1438701E-05  0.2677001E+04  0.7818609E-02  0.8342506E-01
       -1   -1    0    0    0  501  0.00000000000E+00  0.00000000000E+00  0.10758175614E+04  0.10758175615E+04  0.50400001928E-02 0. -1.
        1   -1    0    0  501    0  0.00000000000E+00  0.00000000000E+00 -0.16653232476E+04  0.16653232476E+04  0.50400001928E-02 0.  1.
    10030    2    1    2    0    0  0.00000000000E+00  0.00000000000E+00 -0.58950568615E+03  0.27411408091E+04  0.26770013039E+04 0.  0.
        4    1    3    3  502    0 -0.11868175361E+04  0.58686208478E+03 -0.49603163423E+03  0.14138571235E+04  0.12699999809E+01 0.  1.
       -4    1    3    3    0  502  0.11868175361E+04 -0.58686208478E+03 -0.93474051928E+02  0.13272836855E+04  0.12699999809E+01 0. -1.
</event>
<event>
 5   0  0.1449521E-05  0.2710695E+04  0.7818609E-02  0.8331543E-01
       -1   -1    0    0    0  501  0.00000000000E+00  0.00000000000E+00  0.91478969867E+03  0.91478969868E+03  0.50400001928E-02 0. -1.
        1   -1    0    0  501    0  0.00000000000E+00  0.00000000000E+00 -0.20080757168E+04  0.20080757168E+04  0.50400001928E-02 0.  1.
    10030    2    1    2    0    0  0.00000000000E+00  0.00000000000E+00 -0.10932860181E+04  0.29228654155E+04  0.27106950990E+04 0.  0.
        3    1    3    3  502    0  0.19455213351E+03 -0.13178513880E+03  0.89265731701E+03  0.92306822677E+03  0.10100000352E+00 0. -1.
       -3    1    3    3    0  502 -0.19455213351E+03  0.13178513880E+03 -0.19859433352E+04  0.19997971887E+04  0.10100000352E+00 0.  1.
</event>
<event>
 5   0  0.1495517E-05  0.2531594E+04  0.7818609E-02  0.8391816E-01
       -1   -1    0    0    0  501  0.00000000000E+00  0.00000000000E+00  0.53121256487E+03  0.53121256489E+03  0.50400001928E-02 0. -1.
        1   -1    0    0  501    0  0.00000000000E+00  0.00000000000E+00 -0.30161964695E+04  0.30161964695E+04  0.50400001928E-02 0.  1.
    10030    2    1    2    0    0  0.00000000000E+00  0.00000000000E+00 -0.24849839046E+04  0.35474090344E+04  0.25315935399E+04 0.  0.
        5    1    3    3  502    0  0.82677446093E+03 -0.17543754873E+03  0.77878070859E+02  0.84877642914E+03  0.46999998093E+01 0.  1.
       -5    1    3    3    0  502 -0.82677446093E+03  0.17543754873E+03 -0.25628619755E+04  0.26986326052E+04  0.46999998093E+01 0. -1.
</event>
<event>
 5   0  0.1449521E-05  0.2596088E+04  0.7818609E-02  0.8369531E-01
       -1   -1    0    0    0  501  0.00000000000E+00  0.00000000000E+00  0.72461905325E+03  0.72461905327E+03  0.50400001928E-02 0.  1.
        1   -1    0    0  501    0  0.00000000000E+00  0.00000000000E+00 -0.23252476639E+04  0.23252476639E+04  0.50400001928E-02 0. -1.
    10030    2    1    2    0    0  0.00000000000E+00  0.00000000000E+00 -0.16006286106E+04  0.30498667171E+04  0.25960884121E+04 0.  0.
        3    1    3    3  502    0  0.46081709673E+02 -0.62135865246E+03  0.53745918668E+03  0.82284414472E+03  0.10100000352E+00 0.  1.
       -3    1    3    3    0  502 -0.46081709673E+02  0.62135865246E+03 -0.21380877973E+04  0.22270225724E+04  0.10100000352E+00 0. -1.
</event>
<event>
 5   0  0.3676724E-05  0.2730394E+04  0.7818609E-02  0.8325210E-01
        2   -1    0    0  501    0  0.00000000000E+00  0.00000000000E+00  0.94207551360E+03  0.94207551361E+03  0.25500000920E-02 0. -1.
       -2   -1    0    0    0  501  0.00000000000E+00  0.00000000000E+00 -0.19783580146E+04  0.19783580146E+04  0.25500000920E-02 0.  1.
    10030    2    1    2    0    0  0.00000000000E+00  0.00000000000E+00 -0.10362825010E+04  0.29204335282E+04  0.27303938490E+04 0.  0.
        4    1    3    3  502    0 -0.47038165182E+03 -0.97789150722E+03 -0.14041887083E+04  0.17746205904E+04  0.12699999809E+01 0.  1.
       -4    1    3    3    0  502  0.47038165182E+03  0.97789150722E+03  0.36790620733E+03  0.11458129379E+04  0.12699999809E+01 0. -1.
</event>
<event>
 5   0  0.3652331E-05  0.2661506E+04  0.7818609E-02  0.8347604E-01
       -2   -1    0    0    0  501  0.00000000000E+00  0.00000000000E+00  0.84433185746E+03  0.84433185747E+03  0.25500000920E-02 0.  1.
        2   -1    0    0  501    0  0.00000000000E+00  0.00000000000E+00 -0.20974027697E+04  0.20974027697E+04  0.25500000920E-02 0. -1.
    10030    2    1    2    0    0  0.00000000000E+00  0.00000000000E+00 -0.12530709122E+04  0.29417346272E+04  0.26615063227E+04 0.  0.
        1    1    3    3  502    0 -0.12353916194E+03  0.84232740769E+03  0.50395815127E+03  0.98931855565E+03  0.50400001928E-02 0.  1.
       -1    1    3    3    0  502  0.12353916194E+03 -0.84232740769E+03 -0.17570290635E+04  0.19524160715E+04  0.50400001928E-02 0. -1.
</event>
<event>
 5   0  0.1474012E-05  0.2636396E+04  0.7818609E-02  0.8355942E-01
        1   -1    0    0  501    0  0.00000000000E+00  0.00000000000E+00  0.16206387343E+04  0.16206387344E+04  0.50400001928E-02 0.  1.
       -1   -1    0    0    0  501  0.00000000000E+00  0.00000000000E+00 -0.10721984805E+04  0.10721984805E+04  0.50400001928E-02 0. -1.
    10030    2    1    2    0    0  0.00000000000E+00  0.00000000000E+00  0.54844025386E+03  0.26928372148E+04  0.26363963195E+04 0.  0.
        2    1    3    3  502    0 -0.12323358947E+04  0.16711676429E+03  0.72068964371E+03  0.14373494122E+04  0.25500000920E-02 0.  1.
       -2    1    3    3    0  502  0.12323358947E+04 -0.16711676429E+03 -0.17224938985E+03  0.12554878026E+04  0.25500000920E-02 0. -1.
</event>
<event>
 5   0  0.3497949E-05  0.2679036E+04  0.7818609E-02  0.8341839E-01
       -2   -1    0    0    0  501  0.00000000000E+00  0.00000000000E+00  0.12881901709E+04  0.12881901709E+04  0.25500000920E-02 0.  1.
        2   -1    0    0  501    0  0.00000000000E+00  0.00000000000E+00 -0.13928912881E+04  0.13928912881E+04  0.25500000920E-02 0. -1.
    10030    2    1    2    0    0  0.00000000000E+00  0.00000000000E+00 -0.10470111717E+03  0.26810814591E+04  0.26790362943E+04 0.  0.
        5    1    3    3  502    0  0.10630581682E+04  0.79508810984E+03 -0.23145367254E+03  0.13475350325E+04  0.46999998093E+01 0. -1.
       -5    1    3    3    0  502 -0.10630581682E+04 -0.79508810984E+03  0.12675255538E+03  0.13335464265E+04  0.46999998093E+01 0.  1.
</event>
<event>
 5   0  0.1474012E-05  0.2670330E+04  0.7818609E-02  0.8344696E-01
        1   -1    0    0  501    0  0.00000000000E+00  0.00000000000E+00  0.16091342579E+04  0.16091342579E+04  0.50400001928E-02 0.  1.
       -1   -1    0    0    0  501  0.00000000000E+00  0.00000000000E+00 -0.11078417583E+04  0.11078417583E+04  0.50400001928E-02 0. -1.
    10030    2    1    2    0    0  0.00000000000E+00  0.00000000000E+00  0.50129249961E+03  0.27169760162E+04  0.26703304107E+04 0.  0.
        2    1    3    3  502    0  0.93264725419E+03 -0.12544425669E+03  0.12143443004E+04  0.15362939960E+04  0.25500000920E-02 0.  1.
       -2    1    3    3    0  502 -0.93264725419E+03  0.12544425669E+03 -0.71305180076E+03  0.11806820202E+04  0.25500000920E-02 0. -1.
</event>
<event>
 5   0  0.3514294E-05  0.2692329E+04  0.7818609E-02  0.8337498E-01
       -2   -1    0    0    0  501  0.00000000000E+00  0.00000000000E+00  0.11100652462E+04  0.11100652462E+04  0.25500000920E-02 0. -1.
        2   -1    0    0  501    0  0.00000000000E+00  0.00000000000E+00 -0.16324795638E+04  0.16324795638E+04  0.25500000920E-02 0.  1.
    10030    2    1    2    0    0  0.00000000000E+00  0.00000000000E+00 -0.52241431754E+03  0.27425448100E+04  0.26923289761E+04 0.  0.
        2    1    3    3  502    0 -0.40923810072E+03 -0.11838227186E+04  0.24119228958E+03  0.12755727234E+04  0.25500000920E-02 0. -1.
       -2    1    3    3    0  502  0.40923810072E+03  0.11838227186E+04 -0.76360660712E+03  0.14669720865E+04  0.25500000920E-02 0.  1.
</event>
<event>
 5   0  0.3568647E-05  0.2616274E+04  0.7818609E-02  0.8362694E-01
       -2   -1    0    0    0  501  0.00000000000E+00  0.00000000000E+00  0.76822918969E+03  0.76822918969E+03  0.25500000920E-02 0.  1.
        2   -1    0    0  501    0  0.00000000000E+00  0.00000000000E+00 -0.22274886102E+04  0.22274886102E+04  0.25500000920E-02 0. -1.
    10030    2    1    2    0    0  0.00000000000E+00  0.00000000000E+00 -0.14592594205E+04  0.29957177999E+04  0.26162735102E+04 0.  0.
        3    1    3    3  502    0 -0.12826019061E+04  0.46750856799E+02 -0.44002826150E+03  0.13567896569E+04  0.10100000352E+00 0. -1.
       -3    1    3    3    0  502  0.12826019061E+04 -0.46750856799E+02 -0.10192311590E+04  0.16389281429E+04  0.10100000352E+00 0.  1.
</event>
<event>
 5   0  0.1228050E-05  0.2276556E+04  0.7818609E-02  0.8487223E-01
        3   -1    0    0  501    0  0.00000000000E+00  0.00000000000E+00  0.16873370241E+04  0.16873370271E+04  0.10100000352E+00 0. -1.
       -3   -1    0    0    0  501  0.00000000000E+00  0.00000000000E+00 -0.76788244263E+03  0.76788244927E+03  0.10100000352E+00 0.  1.
    10030    2    1    2    0    0  0.00000000000E+00  0.00000000000E+00  0.91945458144E+03  0.24552194764E+04  0.22765557208E+04 0.  0.
        5    1    3    3  502    0  0.72839487012E+03  0.82844367062E+03  0.15702891680E+03  0.11142522932E+04  0.46999998093E+01 0.  1.
       -5    1    3    3    0  502 -0.72839487012E+03 -0.82844367062E+03  0.76242566464E+03  0.13409671832E+04  0.46999998093E+01 0. -1.
</event>
<event>
 5   0  0.3652331E-05  0.2681415E+04  0.7818609E-02  0.8341060E-01
        2   -1    0    0  501    0  0.00000000000E+00  0.00000000000E+00  0.74948665082E+03  0.74948665082E+03  0.25500000920E-02 0. -1.
       -2   -1    0    0    0  501  0.00000000000E+00  0.00000000000E+00 -0.23983038860E+04  0.23983038860E+04  0.25500000920E-02 0.  1.
    10030    2    1    2    0    0  0.00000000000E+00  0.00000000000E+00 -0.16488172352E+04  0.31477905368E+04  0.26814151094E+04 0.  0.
        1    1    3    3  502    0 -0.11550597822E+04 -0.35991202701E+03 -0.14616928106E+03  0.12186325231E+04  0.50400001928E-02 0. -1.
       -1    1    3    3    0  502  0.11550597822E+04  0.35991202701E+03 -0.15026479541E+04  0.19291580137E+04  0.50400001928E-02 0.  1.
</event>
<event>
 5   0  0.3676724E-05  0.2733155E+04  0.7818609E-02  0.8324327E-01
        2   -1    0    0  501    0  0.00000000000E+00  0.00000000000E+00  0.22993578903E+04  0.22993578903E+04  0.25500000920E-02 0. -1.
       -2   -1    0    0    0  501  0.00000000000E+00  0.00000000000E+00 -0.81219781055E+03  0.81219781055E+03  0.25500000920E-02 0.  1.
    10030    2    1    2    0    0  0.00000000000E+00  0.00000000000E+00  0.14871600798E+04  0.31115557009E+04  0.27331545468E+04 0.  0.
        4    1    3    3  502    0  0.71299026717E+03  0.12356291294E+03  0.20633502095E+04  0.21865586236E+04  0.12699999809E+01 0. -1.
       -4    1    3    3    0  502 -0.71299026717E+03 -0.12356291294E+03 -0.57619012970E+03  0.92499707729E+03  0.12699999809E+01 0.  1.
</event>
<event>
 5   0  0.1495517E-05  0.2729079E+04  0.7818609E-02  0.8325631E-01
       -1   -1    0    0    0  501  0.00000000000E+00  0.00000000000E+00  0.13417020528E+04  0.13417020528E+04  0.50400001928E-02 0. -1.
        1   -1    0    0  501    0  0.00000000000E+00  0.00000000000E+00 -0.13877660122E+04  0.13877660122E+04  0.50400001928E-02 0.  1.
    10030    2    1    2    0    0  0.00000000000E+00  0.00000000000E+00 -0.46063959414E+02  0.27294680650E+04  0.27290793374E+04 0.  0.
        5    1    3    3  502    0  0.63868823930E+03  0.95111542902E+03 -0.76435492906E+03  0.13772449941E+04  0.46999998093E+01 0.  1.
       -5    1    3    3    0  502 -0.63868823930E+03 -0.95111542902E+03  0.71829096964E+03  0.13522230709E+04  0.46999998093E+01 0. -1.
</event>
<event>
 5   0  0.1438701E-05  0.2691039E+04  0.7818609E-02  0.8337918E-01
        1   -1    0    0  501    0  0.00000000000E+00  0.00000000000E+00  0.14166050140E+04  0.14166050140E+04  0.50400001928E-02 0. -1.
       -1   -1    0    0    0  501  0.00000000000E+00  0.00000000000E+00 -0.12780010650E+04  0.12780010650E+04  0.50400001928E-02 0.  1.
    10030    2    1    2    0    0  0.00000000000E+00  0.00000000000E+00  0.13860394908E+03  0.26946060790E+04  0.26910389938E+04 0.  0.
        4    1    3    3  502    0 -0.71575069459E+03 -0.89802210136E+03 -0.63282529088E+03  0.13111873295E+04  0.12699999809E+01 0.  1.
       -4    1    3    3    0  502  0.71575069459E+03  0.89802210136E+03  0.77142923996E+03  0.13834187495E+04  0.12699999809E+01 0. -1.
</event>
<event>
 5   0  0.1495517E-05  0.2559897E+04  0.7818609E-02  0.8381952E-01
        1   -1    0    0  501    0  0.00000000000E+00  0.00000000000E+00  0.16884211599E+04  0.16884211599E+04  0.50400001928E-02 0. -1.
       -1   -1    0    0    0  501  0.00000000000E+00  0.00000000000E+00 -0.97029555360E+03  0.97029555361E+03  0.50400001928E-02 0.  1.
    10030    2    1    2    0    0  0.00000000000E+00  0.00000000000E+00  0.71812560632E+03  0.26587167135E+04  0.25598965167E+04 0.  0.
        5    1    3    3  502    0 -0.31203809602E+03 -0.96295315066E+03  0.11726272213E+04  0.15491040100E+04  0.46999998093E+01 0. -1.
       -5    1    3    3    0  502  0.31203809602E+03  0.96295315066E+03 -0.45450161500E+03  0.11096127035E+04  0.46999998093E+01 0.  1.
</event>
<event>
 5   0  0.3568647E-05  0.2724145E+04  0.7818609E-02  0.8327213E-01
        2   -1    0    0  501    0  0.00000000000E+00  0.00000000000E+00  0.12910272100E+04  0.12910272100E+04  0.25500000920E-02 0. -1.
       -2   -1    0    0    0  501  0.00000000000E+00  0.00000000000E+00 -0.14370275533E+04  0.14370275533E+04  0.25500000920E-02 0.  1.
    10030    2    1    2    0    0  0.00000000000E+00  0.00000000000E+00 -0.14600034336E+03  0.27280547633E+04  0.27241451304E+04 0.  0.
        3    1    3    3  502    0 -0.91346945401E+03 -0.61400703258E+03 -0.87652980691E+03  0.14070307715E+04  0.10100000352E+00 0.  1.
       -3    1    3    3    0  502  0.91346945401E+03  0.61400703258E+03  0.73052946355E+03  0.13210239918E+04  0.10100000352E+00 0. -1.
</event>
<event>
 5   0  0.3514294E-05  0.2687934E+04  0.7818609E-02  0.8338931E-01
        2   -1    0    0  501    0  0.00000000000E+00  0.00000000000E+00  0.17224547257E+04  0.17224547257E+04  0.25500000920E-02 0.  1.
       -2   -1    0    0    0  501  0.00000000000E+00  0.00000000000E+00 -0.10486468911E+04  0.10486468911E+04  0.25500000920E-02 0. -1.
    10030    2    1    2    0    0  0.00000000000E+00  0.00000000000E+00  0.67380783452E+03  0.27711016168E+04  0.26879336251E+04 0.  0.
        2    1    3    3  502    0 -0.38454161152E+03  0.12672177643E+04  0.10060984688E+03  0.13280946708E+04  0.25500000920E-02 0. -1.
       -2    1    3    3    0  502  0.38454161152E+03 -0.12672177643E+04  0.57319798765E+03  0.14430069460E+04  0.25500000920E-02 0.  1.
</event>
<event>
 5   0  0.3497949E-05  0.2688925E+04  0.7818609E-02  0.8338607E-01
       -2   -1    0    0    0  501  0.00000000000E+00  0.00000000000E+00  0.98884769851E+03  0.98884769852E+03  0.25500000920E-02 0. -1.
        2   -1    0    0  501    0  0.00000000000E+00  0.00000000000E+00 -0.18279649618E+04  0.18279649618E+04  0.25500000920E-02 0.  1.
    10030    2    1    2    0    0  0.00000000000E+00  0.00000000000E+00 -0.83911726332E+03  0.28168126604E+04  0.26889246516E+04 0.  0.
        5    1    3    3  502    0  0.91028297152E+02 -0.42665173221E+03 -0.17517494460E+04  0.18052606635E+04  0.46999998093E+01 0.  1.
       -5    1    3    3    0  502 -0.91028297152E+02  0.42665173221E+03  0.91263218270E+03  0.10115519969E+04  0.46999998093E+01 0. -1.
</event>
<event>
 5   0  0.1438701E-05  0.2502312E+04  0.7818609E-02  0.8402162E-01
       -1   -1    0    0    0  501  0.00000000000E+00  0.00000000000E+00  0.62121503784E+03  0.62121503786E+03  0.50400001928E-02 0.  1.
        1   -1    0    0  501    0  0.00000000000E+00  0.00000000000E+00 -0.25198867650E+04  0.25198867650E+04  0.50400001928E-02 0. -1.
    10030    2    1    2    0    0  0.00000000000E+00  0.00000000000E+00 -0.18986717272E+04  0.31411018029E+04  0.25023121725E+04 0.  0.
        4    1    3    3  502    0 -0.10384628195E+04  0.17701849823E+03 -0.17966723494E+04  0.20827322728E+04  0.12699999809E+01 0.  1.
       -4    1    3    3    0  502  0.10384628195E+04 -0.17701849823E+03 -0.10199937782E+03  0.10583695301E+04  0.12699999809E+01 0. -1.
</event>
<event>
 5   0  0.1484379E-05  0.2032549E+04  0.7818609E-02  0.8591552E-01
       -1   -1    0    0    0  501  0.00000000000E+00  0.00000000000E+00  0.14072551878E+04  0.14072551878E+04  0.50400001928E-02 0. -1.
        1   -1    0    0  501    0  0.00000000000E+00  0.00000000000E+00 -0.73392100147E+03  0.73392100149E+03  0.50400001928E-02 0.  1.
    10030    2    1    2    0    0  0.00000000000E+00  0.00000000000E+00  0.67333418632E+03  0.21411761893E+04  0.20325492730E+04 0.  0.
        1    1    3    3  502    0 -0.29183308442E+03  0.20862116178E+03 -0.66500485914E+03  0.75559301281E+03  0.50400001928E-02 0.  1.
       -1    1    3    3    0  502  0.29183308442E+03 -0.20862116178E+03  0.13383390455E+04  0.13855831765E+04  0.50400001928E-02 0. -1.
</event>
<event>
 5   0  0.3514294E-05  0.2702936E+04  0.7818609E-02  0.8334053E-01
        2   -1    0    0  501    0  0.00000000000E+00  0.00000000000E+00  0.95442781564E+03  0.95442781564E+03  0.25500000920E-02 0.  1.
       -2   -1    0    0    0  501  0.00000000000E+00  0.00000000000E+00 -0.19136760069E+04  0.19136760069E+04  0.25500000920E-02 0. -1.
    10030    2    1    2    0    0  0.00000000000E+00  0.00000000000E+00 -0.95924819121E+03  0.28681038225E+04  0.27029358935E+04 0.  0.
        2    1    3    3  502    0 -0.80644525743E+03 -0.58248752296E+03  0.49105378624E+03  0.11094050156E+04  0.25500000920E-02 0.  1.
       -2    1    3    3    0  502  0.80644525743E+03  0.58248752296E+03 -0.14503019775E+04  0.17586988069E+04  0.25500000920E-02 0. -1.
</event>
<event>
 5   0  0.1228050E-05  0.2752135E+04  0.7818609E-02  0.8318284E-01
        3   -1    0    0  501    0  0.00000000000E+00  0.00000000000E+00  0.23554386052E+04  0.23554386074E+04  0.10100000352E+00 0.  1.
       -3   -1    0    0    0  501  0.00000000000E+00  0.00000000000E+00 -0.80391075398E+03  0.80391076032E+03  0.10100000352E+00 0. -1.
    10030    2    1    2    0    0  0.00000000000E+00  0.00000000000E+00  0.15515278513E+04  0.31593493677E+04  0.27521354898E+04 0.  0.
        3    1    3    3  502    0 -0.54390364464E+03 -0.12511622334E+04  0.98215577260E+03  0.16810318500E+04  0.10100000352E+00 0.  1.
       -3    1    3    3    0  502  0.54390364464E+03  0.12511622334E+04  0.56937207866E+03  0.14783175177E+04  0.10100000352E+00 0. -1.
</event>
<event>
 5   0  0.1438701E-05  0.2876890E+04  0.7818609E-02  0.8279787E-01
       -1   -1    0    0    0  501  0.00000000000E+00  0.00000000000E+00  0.12426598282E+04  0.12426598282E+04  0.50400001928E-02 0. -1.
        1   -1    0    0  501    0  0.00000000000E+00  0.00000000000E+00 -0.16650770124E+04  0.16650770124E+04  0.50400001928E-02 0.  1.
    10030    2    1    2    0    0  0.00000000000E+00  0.00000000000E+00 -0.42241718421E+03  0.29077368407E+04  0.28768902059E+04 0.  0.
        4    1    3    3  502    0  0.13118799912E+04 -0.37535709035E+03 -0.67128224433E+03  0.15207049421E+04  0.12699999809E+01 0. -1.
       -4    1    3    3    0  502 -0.13118799912E+04  0.37535709035E+03  0.24886506012E+03  0.13870318985E+04  0.12699999809E+01 0.  1.
</event>
<event>
 5   0  0.3676724E-05  0.2708402E+04  0.7818609E-02  0.8332284E-01
        2   -1    0    0  501    0  0.00000000000E+00  0.00000000000E+00  0.16388622783E+04  0.16388622783E+04  0.25500000920E-02 0. -1.
       -2   -1    0    0    0  501  0.00000000000E+00  0.00000000000E+00 -0.11189839470E+04  0.11189839470E+04  0.25500000920E-02 0.  1.
    10030    2    1    2    0    0  0.00000000000E+00  0.00000000000E+00  0.51987833131E+03  0.27578462252E+04  0.27084021715E+04 0.  0.
        4    1    3    3  502    0 -0.54814237066E+02  0.86521086414E+03  0.13192504667E+04  0.15786126336E+04  0.12699999809E+01 0. -1.
       -4    1    3    3    0  502  0.54814237066E+02 -0.86521086414E+03 -0.79937213539E+03  0.11792335917E+04  0.12699999809E+01 0.  1.
</event>
<event>
 5   0  0.1495517E-05  0.2699143E+04  0.7818609E-02  0.8335283E-01
       -1   -1    0    0    0  501  0.00000000000E+00  0.00000000000E+00  0.79338299672E+03  0.79338299673E+03  0.50400001928E-02 0. -1.
        1   -1    0    0  501    0  0.00000000000E+00  0.00000000000E+00 -0.22956668374E+04  0.22956668375E+04  0.50400001928E-02 0.  1.
    10030    2    1    2    0    0  0.00000000000E+00  0.00000000000E+00 -0.15022838407E+04  0.30890498342E+04  0.26991428528E+04 0.  0.
        5    1    3    3  502    0  0.12324149529E+04 -0.35633804376E+03 -0.12305822303E+04  0.17776889866E+04  0.46999998093E+01 0.  1.
       -5    1    3    3    0  502 -0.12324149529E+04  0.35633804376E+03 -0.27170161039E+03  0.13113608476E+04  0.46999998093E+01 0. -1.
</event>
<event>
 5   0  0.3568647E-05  0.2698634E+04  0.7818609E-02  0.8335448E-01
       -2   -1    0    0    0  501  0.00000000000E+00  0.00000000000E+00  0.96355146689E+03  0.96355146689E+03  0.25500000920E-02 0.  1.
        2   -1    0    0  501    0  0.00000000000E+00  0.00000000000E+00 -0.18895267127E+04  0.18895267127E+04  0.25500000920E-02 0. -1.
    10030    2    1    2    0    0  0.00000000000E+00  0.00000000000E+00 -0.92597524582E+03  0.28530781796E+04  0.26986339031E+04 0.  0.
        3    1    3    3  502    0  0.10460566702E+03  0.78241823181E+02 -0.18828258410E+04  0.18873519243E+04  0.10100000352E+00 0. -1.
       -3    1    3    3    0  502 -0.10460566702E+03 -0.78241823181E+02  0.95685059518E+03  0.96572625529E+03  0.10100000352E+00 0.  1.
</event>
<event>
 5   0  0.3652331E-05  0.2609368E+04  0.7818609E-02  0.8365026E-01
       -2   -1    0    0    0  501  0.00000000000E+00  0.00000000000E+00  0.63086475418E+03  0.63086475418E+03  0.25500000920E-02 0. -1.
        2   -1    0    0  501    0  0.00000000000E+00  0.00000000000E+00 -0.26982012037E+04  0.26982012037E+04  0.25500000920E-02 0.  1.
    10030    2    1    2    0    0  0.00000000000E+00  0.00000000000E+00 -0.20673364496E+04  0.33290659579E+04  0.26093677695E+04 0.  0.
        1    1    3    3  502    0  0.71121656249E+03  0.81122196631E+03 -0.97626417310E+02  0.10832548153E+04  0.50400001928E-02 0. -1.
       -1    1    3    3    0  502 -0.71121656249E+03 -0.81122196631E+03 -0.19697100323E+04  0.22458111427E+04  0.50400001928E-02 0.  1.
</event>
<event>
 5   0  0.1449521E-05  0.2710058E+04  0.7818609E-02  0.8331749E-01
        1   -1    0    0  501    0  0.00000000000E+00  0.00000000000E+00  0.10984023039E+04  0.10984023039E+04  0.50400001928E-02 0.  1.
       -1   -1    0    0    0  501  0.00000000000E+00  0.00000000000E+00 -0.16716128391E+04  0.16716128391E+04  0.50400001928E-02 0. -1.
    10030    2    1    2    0    0  0.00000000000E+00  0.00000000000E+00 -0.57321053515E+03  0.27700151430E+04  0.27100578545E+04 0.  0.
        3    1    3    3  502    0 -0.28062646148E+03 -0.10952654777E+04 -0.10499517324E+04  0.15429699699E+04  0.10100000352E+00 0. -1.
       -3    1    3    3    0  502  0.28062646148E+03  0.10952654777E+04  0.47674119722E+03  0.12270451731E+04  0.10100000352E+00 0.  1.
</event>
<event>
 5   0  0.1438701E-05  0.2456800E+04  0.7818609E-02  0.8418539E-01
        1   -1    0    0  501    0  0.00000000000E+00  0.00000000000E+00  0.23196375468E+04  0.23196375468E+04  0.50400001928E-02 0. -1.
       -1   -1    0    0    0  501  0.00000000000E+00  0.00000000000E+00 -0.65051819239E+03  0.65051819241E+03  0.50400001928E-02 0.  1.
    10030    2    1    2    0    0  0.00000000000E+00  0.00000000000E+00  0.16691193544E+04  0.29701557392E+04  0.24567998893E+04 0.  0.
        4    1    3    3  502    0  0.10706083987E+03  0.72448837450E+03 -0.35772756862E+03  0.81505585973E+03  0.12699999809E+01 0.  1.
       -4    1    3    3    0  502 -0.10706083987E+03 -0.72448837450E+03  0.20268469231E+04  0.21550998795E+04  0.12699999809E+01 0. -1.
</event>
<event>
 5   0  0.1438701E-05  0.2748190E+04  0.7818609E-02  0.8319536E-01
       -1   -1    0    0    0  501  0.00000000000E+00  0.00000000000E+00  0.99154600528E+03  0.99154600529E+03  0.50400001928E-02 0.  1.
        1   -1    0    0  501    0  0.00000000000E+00  0.00000000000E+00 -0.19042350783E+04  0.19042350783E+04  0.50400001928E-02 0. -1.
    10030    2    1    2    0    0  0.00000000000E+00  0.00000000000E+00 -0.91268907302E+03  0.28957810836E+04  0.27481897205E+04 0.  0.
        4    1    3    3  502    0  0.40550138233E+03  0.11872714804E+04  0.13419117050E+03  0.12617661521E+04  0.12699999809E+01 0.  1.
       -4    1    3    3    0  502 -0.40550138233E+03 -0.11872714804E+04 -0.10468802435E+04  0.16340149315E+04  0.12699999809E+01 0. -1.
</event>
<event>
 5   0  0.1438701E-05  0.2725921E+04  0.7818609E-02  0.8326643E-01
        1   -1    0    0  501    0  0.00000000000E+00  0.00000000000E+00  0.19175547209E+04  0.19175547209E+04  0.50400001928E-02 0.  1.
       -1   -1    0    0    0  501  0.00000000000E+00  0.00000000000E+00 -0.96876583736E+03  0.96876583738E+03  0.50400001928E-02 0. -1.
    10030    2    1    2    0    0  0.00000000000E+00  0.00000000000E+00  0.94878888357E+03  0.28863205583E+04  0.27259211323E+04 0.  0.
        4    1    3    3  502    0  0.84196042688E+03 -0.30543398248E+03  0.15622087350E+04  0.18007456852E+04  0.12699999809E+01 0.  1.
       -4    1    3    3    0  502 -0.84196042688E+03  0.30543398248E+03 -0.61341985146E+03  0.10855748731E+04  0.12699999809E+01 0. -1.
</event>
<event>
 5   0  0.1484379E-05  0.2590625E+04  0.7818609E-02  0.8371393E-01
        1   -1    0    0  501    0  0.00000000000E+00  0.00000000000E+00  0.23292993729E+04  0.23292993729E+04  0.50400001928E-02 0. -1.
       -1   -1    0    0    0  501  0.00000000000E+00  0.00000000000E+00 -0.72031729264E+03  0.72031729266E+03  0.50400001928E-02 0.  1.
    10030    2    1    2    0    0  0.00000000000E+00  0.00000000000E+00  0.16089820802E+04  0.30496166655E+04  0.25906251122E+04 0.  0.
        1    1    3    3  502    0 -0.61437603829E+03  0.97442708325E+03  0.10720188754E+03  0.11569175864E+04  0.50400001928E-02 0.  1.
       -1    1    3    3    0  502  0.61437603829E+03 -0.97442708325E+03  0.15017801927E+04  0.18926990791E+04  0.50400001928E-02 0. -1.
</event>
<event>
 5   0  0.3497949E-05  0.2723826E+04  0.7818609E-02  0.8327315E-01
       -2   -1    0    0    0  501  0.00000000000E+00  0.00000000000E+00  0.98330966306E+03  0.98330966306E+03  0.25500000920E-02 0.  1.
        2   -1    0    0  501    0  0.00000000000E+00  0.00000000000E+00 -0.18862896045E+04  0.18862896045E+04  0.25500000920E-02 0. -1.
    10030    2    1    2    0    0  0.00000000000E+00  0.00000000000E+00 -0.90297994143E+03  0.28695992676E+04  0.27238258354E+04 0.  0.
        5    1    3    3  502    0 -0.24754104795E+03 -0.40828610389E+03  0.89223508015E+03  0.10119682017E+04  0.46999998093E+01 0.  1.
       -5    1    3    3    0  502  0.24754104795E+03  0.40828610389E+03 -0.17952150216E+04  0.18576310658E+04  0.46999998093E+01 0. -1.
</event>
<event>
 5   0  0.3514294E-05  0.2594950E+04  0.7818609E-02  0.8369919E-01
        2   -1    0    0  501    0  0.00000000000E+00  0.00000000000E+00  0.12333155610E+04  0.12333155610E+04  0.25500000920E-02 0. -1.
       -2   -1    0    0    0  501  0.00000000000E+00  0.00000000000E+00 -0.13649722334E+04  0.13649722334E+04  0.25500000920E-02 0.  1.
    10030    2    1    2    0    0  0.00000000000E+00  0.00000000000E+00 -0.13165667239E+03  0.25982877944E+04  0.25949500926E+04 0.  0.
        2    1    3    3  502    0  0.10328821379E+04  0.73179829843E+03  0.21926096881E+03  0.12846982652E+04  0.25500000920E-02 0.  1.
       -2    1    3    3    0  502 -0.10328821379E+04 -0.73179829843E+03 -0.35091764120E+03  0.13135895292E+04  0.25500000920E-02 0. -1.
</event>
<event>
 5   0  0.1474012E-05  0.2617112E+04  0.7818609E-02  0.8362412E-01
       -1   -1    0    0    0  501  0.00000000000E+00  0.00000000000E+00  0.13353944636E+04  0.13353944636E+04  0.50400001928E-02 0.  1.
        1   -1    0    0  501    0  0.00000000000E+00  0.00000000000E+00 -0.12822567679E+04  0.12822567679E+04  0.50400001928E-02 0. -1.
    10030    2    1    2    0    0  0.00000000000E+00  0.00000000000E+00  0.53137695678E+02  0.26176512315E+04  0.26171118347E+04 0.  0.
        2    1    3    3  502    0  0.13050043536E+04 -0.67829646091E+02 -0.41865754830E+02  0.13074364096E+04  0.25500000920E-02 0. -1.
       -2    1    3    3    0  502 -0.13050043536E+04  0.67829646091E+02  0.95003450508E+02  0.13102148219E+04  0.25500000920E-02 0.  1.
</event>
<event>
 5   0  0.1484379E-05  0.2804087E+04  0.7818609E-02  0.8302001E-01
        1   -1    0    0  501    0  0.00000000000E+00  0.00000000000E+00  0.15309228321E+04  0.15309228321E+04  0.50400001928E-02 0. -1.
       -1   -1    0    0    0  501  0.00000000000E+00  0.00000000000E+00 -0.12840137275E+04  0.12840137275E+04  0.50400001928E-02 0.  1.
    10030    2    1    2    0    0  0.00000000000E+00  0.00000000000E+00  0.24690910456E+03  0.28149365596E+04  0.28040869689E+04 0.  0.
        1    1    3    3  502    0 -0.10694016450E+04  0.92729778577E+02 -0.78198162743E+03  0.13280489282E+04  0.50400001928E-02 0.  1.
       -1    1    3    3    0  502  0.10694016450E+04 -0.92729778577E+02  0.10288907320E+04  0.14868876314E+04  0.50400001928E-02 0. -1.
</event>
<event>
 5   0  0.1449521E-05  0.2584018E+04  0.7818609E-02  0.8373650E-01
       -1   -1    0    0    0  501  0.00000000000E+00  0.00000000000E+00  0.11980556215E+04  0.11980556215E+04  0.50400001928E-02 0. -1.
        1   -1    0    0  501    0  0.00000000000E+00  0.00000000000E+00 -0.13933306425E+04  0.13933306425E+04  0.50400001928E-02 0.  1.
    10030    2    1    2    0    0  0.00000000000E+00  0.00000000000E+00 -0.19527502099E+03  0.25913862639E+04  0.25840182730E+04 0.  0.
        3    1    3    3  502    0 -0.82580704913E+03  0.79971234600E+03 -0.68905670685E+03  0.13402597786E+04  0.10100000352E+00 0.  1.
       -3    1    3    3    0  502  0.82580704913E+03 -0.79971234600E+03  0.49378168586E+03  0.12511264853E+04  0.10100000352E+00 0. -1.
</event>
<event>
 5   0  0.1484379E-05  0.2778558E+04  0.7818609E-02  0.8309956E-01
        1   -1    0    0  501    0  0.00000000000E+00  0.00000000000E+00  0.16673308507E+04  0.16673308507E+04  0.50400001928E-02 0. -1.
       -1   -1    0    0    0  501  0.00000000000E+00  0.00000000000E+00 -0.11575964747E+04  0.11575964747E+04  0.50400001928E-02 0.  1.
    10030    2    1    2    0    0  0.00000000000E+00  0.00000000000E+00  0.50973437604E+03  0.28249273254E+04  0.27785581260E+04 0.  0.
        1    1    3    3  502    0 -0.13411356188E+04  0.36011369152E+03  0.29763697874E+03  0.14201811117E+04  0.50400001928E-02 0.  1.
       -1    1    3    3    0  502  0.13411356188E+04 -0.36011369152E+03  0.21209739730E+03  0.14047462137E+04  0.50400001928E-02 0. -1.
</event>
<event>
 5   0  0.1438701E-05  0.2650399E+04  0.7818609E-02  0.8351281E-01
        1   -1    0    0  501    0  0.00000000000E+00  0.00000000000E+00  0.18964396942E+04  0.18964396943E+04  0.50400001928E-02 0. -1.
       -1   -1    0    0    0  501  0.00000000000E+00  0.00000000000E+00 -0.92602674857E+03  0.92602674859E+03  0.50400001928E-02 0.  1.
    10030    2    1    2    0    0  0.00000000000E+00  0.00000000000E+00  0.97041294568E+03  0.28224664428E+04  0.26503991276E+04 0.  0.
        4    1    3    3  502    0  0.10469585494E+04  0.47658840272E+03 -0.21545473017E+03  0.11703337402E+04  0.12699999809E+01 0.  1.
       -4    1    3    3    0  502 -0.10469585494E+04 -0.47658840272E+03  0.11858676758E+04  0.16521327027E+04  0.12699999809E+01 0. -1.
</event>
<event>
 5   0  0.1438701E-05  0.2707459E+04  0.7818609E-02  0.8332589E-01
        1   -1    0    0  501    0  0.00000000000E+00  0.00000000000E+00  0.25466446131E+04  0.25466446131E+04  0.50400001928E-02 0. -1.
       -1   -1    0    0    0  501  0.00000000000E+00  0.00000000000E+00 -0.71960725792E+03  0.71960725794E+03  0.50400001928E-02 0.  1.
    10030    2    1    2    0    0  0.00000000000E+00  0.00000000000E+00  0.18270373552E+04  0.32662518710E+04  0.27074592865E+04 0.  0.
        4    1    3    3  502    0  0.50852393280E+03  0.12544570635E+04  0.89182982199E+03  0.16209938799E+04  0.12699999809E+01 0.  1.
       -4    1    3    3    0  502 -0.50852393280E+03 -0.12544570635E+04  0.93520753319E+03  0.16452579911E+04  0.12699999809E+01 0. -1.
</event>
<event>
 5   0  0.1449521E-05  0.2594965E+04  0.7818609E-02  0.8369913E-01
        1   -1    0    0  501    0  0.00000000000E+00  0.00000000000E+00  0.15748777358E+04  0.15748777358E+04  0.50400001928E-02 0. -1.
       -1   -1    0    0    0  501  0.00000000000E+00  0.00000000000E+00 -0.10689473234E+04  0.10689473234E+04  0.50400001928E-02 0.  1.
    10030    2    1    2    0    0  0.00000000000E+00  0.00000000000E+00  0.50593041243E+03  0.26438250592E+04  0.25949653874E+04 0.  0.
        3    1    3    3  502    0  0.70978019242E+03 -0.33350963336E+03  0.13060835474E+04  0.15234404616E+04  0.10100000352E+00 0. -1.
       -3    1    3    3    0  502 -0.70978019242E+03  0.33350963336E+03 -0.80015313493E+03  0.11203845976E+04  0.10100000352E+00 0.  1.
</event>
<event>
 5   0  0.3514294E-05  0.2740031E+04  0.7818609E-02  0.8322132E-01
        2   -1    0    0  501    0  0.00000000000E+00  0.00000000000E+00  0.13273659172E+04  0.13273659172E+04  0.25500000920E-02 0. -1.
       -2   -1    0    0    0  501  0.00000000000E+00  0.00000000000E+00 -0.14140355602E+04  0.14140355603E+04  0.25500000920E-02 0.  1.
    10030    2    1    2    0    0  0.00000000000E+00  0.00000000000E+00 -0.86669643072E+02  0.27414014774E+04  0.27400311008E+04 0.  0.
        2    1    3    3  502    0 -0.13208516221E+04  0.36328734305E+03 -0.25552152432E+02  0.13701385381E+04  0.25500000920E-02 0. -1.
       -2    1    3    3    0  502  0.13208516221E+04 -0.36328734305E+03 -0.61117490640E+02  0.13712629393E+04  0.25500000920E-02 0.  1.
</event>
<event>
 5   0  0.1495517E-05  0.2699661E+04  0.7818609E-02  0.8335115E-01
        1   -1    0    0  501    0  0.00000000000E+00  0.00000000000E+00  0.17053623739E+04  0.17053623739E+04  0.50400001928E-02 0. -1.
       -1   -1    0    0    0  501  0.00000000000E+00  0.00000000000E+00 -0.10684192006E+04  0.10684192006E+04  0.50400001928E-02 0.  1.
    10030    2    1    2    0    0  0.00000000000E+00  0.00000000000E+00  0.63694317332E+03  0.27737815746E+04  0.26996606485E+04 0.  0.
        5    1    3    3  502    0 -0.65837042039E+03  0.61683899378E+03 -0.71312553344E+03  0.11500052483E+04  0.46999998093E+01 0.  1.
       -5    1    3    3    0  502  0.65837042039E+03 -0.61683899378E+03  0.13500687068E+04  0.16237763262E+04  0.46999998093E+01 0. -1.
</event>
<event>
 5   0  0.3652331E-05  0.2633193E+04  0.7818609E-02  0.8357013E-01
        2   -1    0    0  501    0  0.00000000000E+00  0.00000000000E+00  0.85809708751E+03  0.85809708751E+03  0.25500000920E-02 0. -1.
       -2   -1    0    0    0  501  0.00000000000E+00  0.00000000000E+00 -0.20200823751E+04  0.20200823751E+04  0.25500000920E-02 0.  1.
    10030    2    1    2    0    0  0.00000000000E+00  0.00000000000E+00 -0.11619852876E+04  0.28781794626E+04  0.26331933485E+04 0.  0.
        1    1    3    3  502    0  0.25472207400E+03 -0.10929828667E+04  0.17148413256E+03  0.11352980620E+04  0.50400001928E-02 0. -1.
       -1    1    3    3    0  502 -0.25472207400E+03  0.10929828667E+04 -0.13334694201E+04  0.17428814006E+04  0.50400001928E-02 0.  1.
</event>
<event>
 5   0  0.1449521E-05  0.1789171E+04  0.7818609E-02  0.8712079E-01
       -1   -1    0    0    0  501  0.00000000000E+00  0.00000000000E+00  0.89038342723E+03  0.89038342725E+03  0.50400001928E-02 0.  1.
        1   -1    0    0  501    0  0.00000000000E+00  0.00000000000E+00 -0.89880776716E+03  0.89880776717E+03  0.50400001928E-02 0. -1.
    10030    2    1    2    0    0  0.00000000000E+00  0.00000000000E+00 -0.84243399243E+01  0.17891911944E+04  0.17891713615E+04 0.  0.
        3    1    3    3  502    0  0.13664613913E+03 -0.85210856185E+03  0.23142227655E+03  0.89348612122E+03  0.10100000352E+00 0.  1.
       -3    1    3    3    0  502 -0.13664613913E+03  0.85210856185E+03 -0.23984661647E+03  0.89570507320E+03  0.10100000352E+00 0. -1.
</event>
<event>
 5   0  0.3652331E-05  0.2792769E+04  0.7818609E-02  0.8305517E-01
       -2   -1    0    0    0  501  0.00000000000E+00  0.00000000000E+00  0.18763505581E+04  0.18763505581E+04  0.25500000920E-02 0.  1.
        2   -1    0    0  501    0  0.00000000000E+00  0.00000000000E+00 -0.10391929805E+04  0.10391929805E+04  0.25500000920E-02 0. -1.
    10030    2    1    2    0    0  0.00000000000E+00  0.00000000000E+00  0.83715757758E+03  0.29155435386E+04  0.27927694706E+04 0.  0.
        1    1    3    3  502    0  0.10115510101E+04 -0.60055120784E+03  0.12039772078E+04  0.16832879481E+04  0.50400001928E-02 0.  1.
       -1    1    3    3    0  502 -0.10115510101E+04  0.60055120784E+03 -0.36681963017E+03  0.12322555905E+04  0.50400001928E-02 0. -1.
</event>
<event>
 5   0  0.1484379E-05  0.3386887E+04  0.7818609E-02  0.8141132E-01
       -1   -1    0    0    0  501  0.00000000000E+00  0.00000000000E+00  0.19519408904E+04  0.19519408904E+04  0.50400001928E-02 0. -1.
        1   -1    0    0  501    0  0.00000000000E+00  0.00000000000E+00 -0.14691794088E+04  0.14691794088E+04  0.50400001928E-02 0.  1.
    10030    2    1    2    0    0  0.00000000000E+00  0.00000000000E+00  0.48276148165E+03  0.34211202992E+04  0.33868872809E+04 0.  0.
        1    1    3    3  502    0 -0.89480430452E+01  0.29572387779E+03  0.19256327788E+04  0.19482284975E+04  0.50400001928E-02 0. -1.
       -1    1    3    3    0  502  0.89480430452E+01 -0.29572387779E+03 -0.14428712972E+04  0.14728918017E+04  0.50400001928E-02 0.  1.
</event>
<event>
 5   0  0.3497949E-05  0.2637947E+04  0.7818609E-02  0.8355425E-01
        2   -1    0    0  501    0  0.00000000000E+00  0.00000000000E+00  0.22479930472E+04  0.22479930472E+04  0.25500000920E-02 0. -1.
       -2   -1    0    0    0  501  0.00000000000E+00  0.00000000000E+00 -0.77388634046E+03  0.77388634046E+03  0.25500000920E-02 0.  1.
    10030    2    1    2    0    0  0.00000000000E+00  0.00000000000E+00  0.14741067068E+04  0.30218793877E+04  0.26379470144E+04 0.  0.
        5    1    3    3  502    0  0.97282867837E+02 -0.11910163520E+04  0.97511325308E+02  0.11989639093E+04  0.46999998093E+01 0. -1.
       -5    1    3    3    0  502 -0.97282867837E+02  0.11910163520E+04  0.13765953815E+04  0.18229154784E+04  0.46999998093E+01 0.  1.
</event>
<event>
 5   0  0.1474012E-05  0.2706523E+04  0.7818609E-02  0.8332892E-01
        1   -1    0    0  501    0  0.00000000000E+00  0.00000000000E+00  0.15468115333E+04  0.15468115333E+04  0.50400001928E-02 0.  1.
       -1   -1    0    0    0  501  0.00000000000E+00  0.00000000000E+00 -0.11839300600E+04  0.11839300601E+04  0.50400001928E-02 0. -1.
    10030    2    1    2    0    0  0.00000000000E+00  0.00000000000E+00  0.36288147321E+03  0.27307415933E+04  0.27065229882E+04 0.  0.
        2    1    3    3  502    0 -0.80369404481E+03 -0.10858019072E+04  0.26232524173E+03  0.13761193378E+04  0.25500000920E-02 0.  1.
       -2    1    3    3    0  502  0.80369404481E+03  0.10858019072E+04  0.10055623148E+03  0.13546222555E+04  0.25500000920E-02 0. -1.
</event>
<event>
 5   0  0.3568647E-05  0.2735116E+04  0.7818609E-02  0.8323700E-01
       -2   -1    0    0    0  501  0.00000000000E+00  0.00000000000E+00  0.22947000166E+04  0.22947000166E+04  0.25500000920E-02 0.  1.
        2   -1    0    0  501    0  0.00000000000E+00  0.00000000000E+00 -0.81501477601E+03  0.81501477602E+03  0.25500000920E-02 0. -1.
    10030    2    1    2    0    0  0.00000000000E+00  0.00000000000E+00  0.14796852406E+04  0.31097147926E+04  0.27351156612E+04 0.  0.
        3    1    3    3  502    0 -0.46403349900E+02 -0.12505057284E+04  0.11266090833E+03  0.12564276096E+04  0.10100000352E+00 0.  1.
       -3    1    3    3    0  502  0.46403349900E+02  0.12505057284E+04  0.13670243323E+04  0.18532871831E+04  0.10100000352E+00 0. -1.
</event>
<event>
 5   0  0.3514294E-05  0.1937219E+04  0.7818609E-02  0.8636549E-01
        2   -1    0    0  501    0  0.00000000000E+00  0.00000000000E+00  0.59204919853E+03  0.59204919853E+03  0.25500000920E-02 0.  1.
       -2   -1    0    0    0  501  0.00000000000E+00  0.00000000000E+00 -0.15846725069E+04  0.15846725069E+04  0.25500000920E-02 0. -1.
    10030    2    1    2    0    0  0.00000000000E+00  0.00000000000E+00 -0.99262330836E+03  0.21767217054E+04  0.19372187152E+04 0.  0.
        2    1    3    3  502    0 -0.45329285383E+03  0.67559688649E+03 -0.10869389768E+04  0.13576972798E+04  0.25500000920E-02 0. -1.
       -2    1    3    3    0  502  0.45329285383E+03 -0.67559688649E+03  0.94315668456E+02  0.81902442558E+03  0.25500000920E-02 0.  1.
</event>
<event>
 5   0  0.1474012E-05  0.2728583E+04  0.7818609E-02  0.8325790E-01
        1   -1    0    0  501    0  0.00000000000E+00  0.00000000000E+00  0.18418921773E+04  0.18418921773E+04  0.50400001928E-02 0. -1.
       -1   -1    0    0    0  501  0.00000000000E+00  0.00000000000E+00 -0.10105323335E+04  0.10105323335E+04  0.50400001928E-02 0.  1.
    10030    2    1    2    0    0  0.00000000000E+00  0.00000000000E+00  0.83135984382E+03  0.28524245108E+04  0.27285832221E+04 0.  0.
        2    1    3    3  502    0  0.26196299453E+03 -0.11888809382E+04  0.10594455505E+04  0.16138424242E+04  0.25500000920E-02 0.  1.
       -2    1    3    3    0  502 -0.26196299453E+03  0.11888809382E+04 -0.22808570670E+03  0.12385820866E+04  0.25500000920E-02 0. -1.
</event>
<event>
 5   0  0.3497949E-05  0.1543179E+04  0.7818609E-02  0.8856236E-01
        2   -1    0    0  501    0  0.00000000000E+00  0.00000000000E+00  0.85672391766E+03  0.85672391766E+03  0.25500000920E-02 0. -1.
       -2   -1    0    0    0  501  0.00000000000E+00  0.00000000000E+00 -0.69491497213E+03  0.69491497213E+03  0.25500000920E-02 0.  1.
    10030    2    1    2    0    0  0.00000000000E+00  0.00000000000E+00  0.16180894553E+03  0.15516388898E+04  0.15431788974E+04 0.  0.
        5    1    3    3  502    0 -0.25933903174E+03  0.72271755990E+03  0.46548226651E+01  0.76786793275E+03  0.46999998093E+01 0. -1.
       -5    1    3    3    0  502  0.25933903174E+03 -0.72271755990E+03  0.15715412287E+03  0.78377095704E+03  0.46999998093E+01 0.  1.
</event>
<event>
 5   0  0.3497949E-05  0.1961392E+04  0.7818609E-02  0.8624887E-01
        2   -1    0    0  501    0  0.00000000000E+00  0.00000000000E+00  0.81660621565E+03  0.81660621566E+03  0.25500000920E-02 0.  1.
       -2   -1    0    0    0  501  0.00000000000E+00  0.00000000000E+00 -0.11777587410E+04  0.11777587410E+04  0.25500000920E-02 0. -1.
    10030    2    1    2    0    0  0.00000000000E+00  0.00000000000E+00 -0.36115252537E+03  0.19943649567E+04  0.19613924732E+04 0.  0.
        5    1    3    3  502    0 -0.80078983548E+03  0.18853112748E+03  0.36218991836E+03  0.89889486237E+03  0.46999998093E+01 0.  1.
       -5    1    3    3    0  502  0.80078983548E+03 -0.18853112748E+03 -0.72334244373E+03  0.10954700943E+04  0.46999998093E+01 0. -1.
</event>
<event>
 5   0  0.3568647E-05  0.2651516E+04  0.7818609E-02  0.8350910E-01
       -2   -1    0    0    0  501  0.00000000000E+00  0.00000000000E+00  0.16669379435E+04  0.16669379435E+04  0.25500000920E-02 0. -1.
        2   -1    0    0  501    0  0.00000000000E+00  0.00000000000E+00 -0.10544091262E+04  0.10544091262E+04  0.25500000920E-02 0.  1.
    10030    2    1    2    0    0  0.00000000000E+00  0.00000000000E+00  0.61252881728E+03  0.27213470697E+04  0.26515162307E+04 0.  0.
        3    1    3    3  502    0  0.10168553460E+04 -0.38999913336E+03 -0.46964877365E+03  0.11860287094E+04  0.10100000352E+00 0. -1.
       -3    1    3    3    0  502 -0.10168553460E+04  0.38999913336E+03  0.10821775909E+04  0.15353183602E+04  0.10100000352E+00 0.  1.
</event>
<event>
 5   0  0.3652331E-05  0.2970764E+04  0.7818609E-02  0.8252129E-01
       -2   -1    0    0    0  501  0.00000000000E+00  0.00000000000E+00  0.12091349430E+04  0.12091349430E+04  0.25500000920E-02 0.  1.
        2   -1    0    0  501    0  0.00000000000E+00  0.00000000000E+00 -0.18247419246E+04  0.18247419246E+04  0.25500000920E-02 0. -1.
    10030    2    1    2    0    0  0.00000000000E+00  0.00000000000E+00 -0.61560698167E+03  0.30338768676E+04  0.29707636883E+04 0.  0.
        1    1    3    3  502    0  0.64760834962E+03  0.65105054780E+03  0.88451708531E+03  0.12750034763E+04  0.50400001928E-02 0.  1.
       -1    1    3    3    0  502 -0.64760834962E+03 -0.65105054780E+03 -0.15001240670E+04  0.17588733913E+04  0.50400001928E-02 0. -1.
</event>
<event>
 5   0  0.1495517E-05  0.2648694E+04  0.7818609E-02  0.8351846E-01
       -1   -1    0    0    0  501  0.00000000000E+00  0.00000000000E+00  0.15155703082E+04  0.15155703082E+04  0.50400001928E-02 0.  1.
        1   -1    0    0  501    0  0.00000000000E+00  0.00000000000E+00 -0.11572511660E+04  0.11572511660E+04  0.50400001928E-02 0. -1.
    10030    2    1    2    0    0  0.00000000000E+00  0.00000000000E+00  0.35831914223E+03  0.26728214742E+04  0.26486944002E+04 0.  0.
        5    1    3    3  502    0 -0.63640437170E+03 -0.11620715965E+03  0.13452630285E+04  0.14927388700E+04  0.46999998093E+01 0.  1.
       -5    1    3    3    0  502  0.63640437170E+03  0.11620715965E+03 -0.98694388623E+03  0.11800826042E+04  0.46999998093E+01 0. -1.
</event>
<event>
 5   0  0.1484379E-05  0.2580176E+04  0.7818609E-02  0.8374966E-01
        1   -1    0    0  501    0  0.00000000000E+00  0.00000000000E+00  0.18502692227E+04  0.18502692227E+04  0.50400001928E-02 0.  1.
       -1   -1    0    0    0  501  0.00000000000E+00  0.00000000000E+00 -0.89950562536E+03  0.89950562538E+03  0.50400001928E-02 0. -1.
    10030    2    1    2    0    0  0.00000000000E+00  0.00000000000E+00  0.95076359735E+03  0.27497748481E+04  0.25801764081E+04 0.  0.
        1    1    3    3  502    0 -0.44247325687E+03  0.30360415843E+03  0.17256847500E+04  0.18071928299E+04  0.50400001928E-02 0.  1.
       -1    1    3    3    0  502  0.44247325687E+03 -0.30360415843E+03 -0.77492115268E+03  0.94258201816E+03  0.50400001928E-02 0. -1.
</event>
<event>
 5   0  0.3514294E-05  0.2632938E+04  0.7818609E-02  0.8357098E-01
        2   -1    0    0  501    0  0.00000000000E+00  0.00000000000E+00  0.18656756878E+04  0.18656756878E+04  0.25500000920E-02 0.  1.
       -2   -1    0    0    0  501  0.00000000000E+00  0.00000000000E+00 -0.92893459945E+03  0.92893459946E+03  0.25500000920E-02 0. -1.
    10030    2    1    2    0    0  0.00000000000E+00  0.00000000000E+00  0.93674108836E+03  0.27946102873E+04  0.26329380530E+04 0.  0.
        2    1    3    3  502    0  0.81689835499E+03 -0.70916516453E+03 -0.32793168065E+03  0.11303881369E+04  0.25500000920E-02 0. -1.
       -2    1    3    3    0  502 -0.81689835499E+03  0.70916516453E+03  0.12646727690E+04  0.16642221503E+04  0.25500000920E-02 0.  1.
</event>
<event>
 5   0  0.1474012E-05  0.2713661E+04  0.7818609E-02  0.8330586E-01
       -1   -1    0    0    0  501  0.00000000000E+00  0.00000000000E+00  0.82989094959E+03  0.82989094961E+03  0.50400001928E-02 0. -1.
        1   -1    0    0  501    0  0.00000000000E+00  0.00000000000E+00 -0.22183511646E+04  0.22183511646E+04  0.50400001928E-02 0.  1.
    10030    2    1    2    0    0  0.00000000000E+00  0.00000000000E+00 -0.13884602150E+04  0.30482421142E+04  0.27136614045E+04 0.  0.
        2    1    3    3  502    0 -0.17498865119E+03 -0.13346370864E+04 -0.88589060542E+03  0.16114215294E+04  0.25500000920E-02 0.  1.
       -2    1    3    3    0  502  0.17498865119E+03  0.13346370864E+04 -0.50256960957E+03  0.14368205848E+04  0.25500000920E-02 0. -1.
</event>
<event>
 5   0  0.3652331E-05  0.2738118E+04  0.7818609E-02  0.8322742E-01
       -2   -1    0    0    0  501  0.00000000000E+00  0.00000000000E+00  0.12854814797E+04  0.12854814797E+04  0.25500000920E-02 0.  1.
        2   -1    0    0  501    0  0.00000000000E+00  0.00000000000E+00 -0.14580700997E+04  0.14580700997E+04  0.25500000920E-02 0. -1.
    10030    2    1    2    0    0  0.00000000000E+00  0.00000000000E+00 -0.17258861996E+03  0.27435515793E+04  0.27381176813E+04 0.  0.
        1    1    3    3  502    0 -0.11766054215E+04 -0.72506261074E+02 -0.78385449572E+03  0.14156572136E+04  0.50400001928E-02 0.  1.
       -1    1    3    3    0  502  0.11766054215E+04  0.72506261074E+02  0.61126587576E+03  0.13278943658E+04  0.50400001928E-02 0. -1.
</event>
<event>
 5   0  0.3497949E-05  0.2716550E+04  0.7818609E-02  0.8329655E-01
       -2   -1    0    0    0  501  0.00000000000E+00  0.00000000000E+00  0.12375769947E+04  0.12375769947E+04  0.25500000920E-02 0. -1.
        2   -1    0    0  501    0  0.00000000000E+00  0.00000000000E+00 -0.14907445621E+04  0.14907445621E+04  0.25500000920E-02 0.  1.
    10030    2    1    2    0    0  0.00000000000E+00  0.00000000000E+00 -0.25316756736E+03  0.27283215568E+04  0.27165501468E+04 0.  0.
        5    1    3    3  502    0 -0.78624128257E+03 -0.10011105110E+04  0.34927463282E+03  0.13200047230E+04  0.46999998093E+01 0. -1.
       -5    1    3    3    0  502  0.78624128257E+03  0.10011105110E+04 -0.60244220019E+03  0.14083168338E+04  0.46999998093E+01 0.  1.
</event>
<event>
 5   0  0.1449521E-05  0.2757785E+04  0.7818609E-02  0.8316495E-01
        1   -1    0    0  501    0  0.00000000000E+00  0.00000000000E+00  0.20422204315E+04  0.20422204316E+04  0.50400001928E-02 0.  1.
       -1   -1    0    0    0  501  0.00000000000E+00  0.00000000000E+00 -0.93101846697E+03  0.93101846698E+03  0.50400001928E-02 0. -1.
    10030    2    1    2    0    0  0.00000000000E+00  0.00000000000E+00  0.11112019646E+04  0.29732388985E+04  0.27577852965E+04 0.  0.
        3    1    3    3  502    0  0.67035687744E+03  0.84259707860E+03 -0.37308813069E+03  0.11395362844E+04  0.10100000352E+00 0. -1.
       -3    1    3    3    0  502 -0.67035687744E+03 -0.84259707860E+03  0.14842900953E+04  0.18337026141E+04  0.10100000352E+00 0.  1.
</event>
<event>
 5   0  0.1495517E-05  0.2234021E+04  0.7818609E-02  0.8504400E-01
        1   -1    0    0  501    0  0.00000000000E+00  0.00000000000E+00  0.32258545556E+04  0.32258545556E+04  0.50400001928E-02 0. -1.
       -1   -1    0    0    0  501  0.00000000000E+00  0.00000000000E+00 -0.38678508350E+03  0.38678508353E+03  0.50400001928E-02 0.  1.
    10030    2    1    2    0    0  0.00000000000E+00  0.00000000000E+00  0.28390694721E+04  0.36126396391E+04  0.22340209701E+04 0.  0.
        5    1    3    3  502    0  0.64054316122E+03  0.35114851092E+03  0.27860476045E+04  0.28802229363E+04  0.46999998093E+01 0. -1.
       -5    1    3    3    0  502 -0.64054316122E+03 -0.35114851092E+03  0.53021867542E+02  0.73241670280E+03  0.46999998093E+01 0.  1.
</event>
<event>
 5   0  0.3652331E-05  0.2681084E+04  0.7818609E-02  0.8341169E-01
        2   -1    0    0  501    0  0.00000000000E+00  0.00000000000E+00  0.11872099809E+04  0.11872099809E+04  0.25500000920E-02 0. -1.
       -2   -1    0    0    0  501  0.00000000000E+00  0.00000000000E+00 -0.15136772421E+04  0.15136772421E+04  0.25500000920E-02 0.  1.
    10030    2    1    2    0    0  0.00000000000E+00  0.00000000000E+00 -0.32646726116E+03  0.27008872231E+04  0.26810839075E+04 0.  0.
        1    1    3    3  502    0  0.72964656280E+03 -0.52582346356E+03 -0.11646477320E+04  0.14714886208E+04  0.50400001928E-02 0.  1.
       -1    1    3    3    0  502 -0.72964656280E+03  0.52582346356E+03  0.83818047087E+03  0.12293986022E+04  0.50400001928E-02 0. -1.
</event>
<event>
 5   0  0.3676724E-05  0.2684755E+04  0.7818609E-02  0.8339968E-01
       -2   -1    0    0    0  501  0.00000000000E+00  0.00000000000E+00  0.13094442546E+04  0.13094442546E+04  0.25500000920E-02 0. -1.
        2   -1    0    0  501    0  0.00000000000E+00  0.00000000000E+00 -0.13761391928E+04  0.13761391928E+04  0.25500000920E-02 0.  1.
    10030    2    1    2    0    0  0.00000000000E+00  0.00000000000E+00 -0.66694938133E+02  0.26855834474E+04  0.26847551542E+04 0.  0.
        4    1    3    3  502    0  0.12845850867E+04  0.23713967865E+03 -0.34260603549E+03  0.13504719844E+04  0.12699999809E+01 0. -1.
       -4    1    3    3    0  502 -0.12845850867E+04 -0.23713967865E+03  0.27591109736E+03  0.13351114630E+04  0.12699999809E+01 0.  1.
</event>
<event>
 5   0  0.1228050E-05  0.1755112E+04  0.7818609E-02  0.8730541E-01
       -4   -1    0    0    0  501  0.00000000000E+00  0.00000000000E+00  0.74260706463E+03  0.74260815060E+03  0.12699999809E+01 0.  1.
        4   -1    0    0  501    0  0.00000000000E+00  0.00000000000E+00 -0.10370263780E+04  0.10370271557E+04  0.12699999809E+01 0. -1.
    10030    2    1    2    0    0  0.00000000000E+00  0.00000000000E+00 -0.29441931337E+03  0.17796353063E+04  0.17551122731E+04 0.  0.
        5    1    3    3  502    0 -0.77218240583E+03 -0.26669291492E+03  0.17772363730E+03  0.83606133746E+03  0.46999998093E+01 0.  1.
       -5    1    3    3    0  502  0.77218240583E+03  0.26669291492E+03 -0.47214295066E+03  0.94357396880E+03  0.46999998093E+01 0. -1.
</event>
<event>
 5   0  0.1438701E-05  0.2690050E+04  0.7818609E-02  0.8338241E-01
       -1   -1    0    0    0  501  0.00000000000E+00  0.00000000000E+00  0.82192231235E+03  0.82192231237E+03  0.50400001928E-02 0.  1.
        1   -1    0    0  501    0  0.00000000000E+00  0.00000000000E+00 -0.22010497024E+04  0.22010497024E+04  0.50400001928E-02 0. -1.
    10030    2    1    2    0    0  0.00000000000E+00  0.00000000000E+00 -0.13791273901E+04  0.30229720148E+04  0.26900497104E+04 0.  0.
        4    1    3    3  502    0 -0.11970785074E+04 -0.58393296952E+03 -0.47898047683E+03  0.14154146304E+04  0.12699999809E+01 0.  1.
       -4    1    3    3    0  502  0.11970785074E+04  0.58393296952E+03 -0.90014691324E+03  0.16075573844E+04  0.12699999809E+01 0. -1.
</event>
<event>
 5   0  0.3568647E-05  0.2630302E+04  0.7818609E-02  0.8357981E-01
       -2   -1    0    0    0  501  0.00000000000E+00  0.00000000000E+00  0.87667629248E+03  0.87667629249E+03  0.25500000920E-02 0.  1.
        2   -1    0    0  501    0  0.00000000000E+00  0.00000000000E+00 -0.19729308551E+04  0.19729308551E+04  0.25500000920E-02 0. -1.
    10030    2    1    2    0    0  0.00000000000E+00  0.00000000000E+00 -0.10962545626E+04  0.28496071476E+04  0.26303016613E+04 0.  0.
        3    1    3    3  502    0 -0.53932084221E+03 -0.50953980614E+03  0.62828393237E+03  0.97223376550E+03  0.10100000352E+00 0.  1.
       -3    1    3    3    0  502  0.53932084221E+03  0.50953980614E+03 -0.17245384950E+04  0.18773733821E+04  0.10100000352E+00 0. -1.
</event>
<event>
 5   0  0.1484379E-05  0.2687781E+04  0.7818609E-02  0.8338980E-01
        1   -1    0    0  501    0  0.00000000000E+00  0.00000000000E+00  0.11240524100E+04  0.11240524100E+04  0.50400001928E-02 0.  1.
       -1   -1    0    0    0  501  0.00000000000E+00  0.00000000000E+00 -0.16067239646E+04  0.16067239646E+04  0.50400001928E-02 0. -1.
    10030    2    1    2    0    0  0.00000000000E+00  0.00000000000E+00 -0.48267155463E+03  0.27307763746E+04  0.26877811998E+04 0.  0.
        1    1    3    3  502    0  0.95505162614E+02 -0.11858886395E+04  0.39363266562E+03  0.12531559268E+04  0.50400001928E-02 0.  1.
       -1    1    3    3    0  502 -0.95505162614E+02  0.11858886395E+04 -0.87630422025E+03  0.14776204478E+04  0.50400001928E-02 0. -1.
</event>
<event>
 5   0  0.3497949E-05  0.2742660E+04  0.7818609E-02  0.8321294E-01
       -2   -1    0    0    0  501  0.00000000000E+00  0.00000000000E+00  0.19942435344E+04  0.19942435344E+04  0.25500000920E-02 0. -1.
        2   -1    0    0  501    0  0.00000000000E+00  0.00000000000E+00 -0.94298742309E+03  0.94298742309E+03  0.25500000920E-02 0.  1.
    10030    2    1    2    0    0  0.00000000000E+00  0.00000000000E+00  0.10512561113E+04  0.29372309575E+04  0.27426604394E+04 0.  0.
        5    1    3    3  502    0 -0.20603819192E+03 -0.12695936202E+04  0.10349788033E+04  0.16509157793E+04  0.46999998093E+01 0. -1.
       -5    1    3    3    0  502  0.20603819192E+03  0.12695936202E+04  0.16277308056E+02  0.12863151782E+04  0.46999998093E+01 0.  1.
</event>
<event>
 5   0  0.1474012E-05  0.2423819E+04  0.7818609E-02  0.8430639E-01
        1   -1    0    0  501    0  0.00000000000E+00  0.00000000000E+00  0.64774702971E+03  0.64774702973E+03  0.50400001928E-02 0. -1.
       -1   -1    0    0    0  501  0.00000000000E+00  0.00000000000E+00 -0.22674363487E+04  0.22674363487E+04  0.50400001928E-02 0.  1.
    10030    2    1    2    0    0  0.00000000000E+00  0.00000000000E+00 -0.16196893190E+04  0.29151833785E+04  0.24238194322E+04 0.  0.
        2    1    3    3  502    0  0.75284801873E+02 -0.40598558454E+03 -0.21802276169E+04  0.22189827754E+04  0.25500000920E-02 0.  1.
       -2    1    3    3    0  502 -0.75284801873E+02  0.40598558454E+03  0.56053829787E+03  0.69620060301E+03  0.25500000920E-02 0. -1.
</event>
<event>
 5   0  0.3652331E-05  0.2254580E+04  0.7818609E-02  0.8496048E-01
       -2   -1    0    0    0  501  0.00000000000E+00  0.00000000000E+00  0.12454135953E+04  0.12454135953E+04  0.25500000920E-02 0. -1.
        2   -1    0    0  501    0  0.00000000000E+00  0.00000000000E+00 -0.10203696645E+04  0.10203696645E+04  0.25500000920E-02 0.  1.
    10030    2    1    2    0    0  0.00000000000E+00  0.00000000000E+00  0.22504393086E+03  0.22657832598E+04  0.22545795638E+04 0.  0.
        1    1    3    3  502    0  0.61817836643E+03 -0.76746472605E+03 -0.43758803783E+03  0.10782531657E+04  0.50400001928E-02 0.  1.
       -1    1    3    3    0  502 -0.61817836643E+03  0.76746472605E+03  0.66263196869E+03  0.11875300941E+04  0.50400001928E-02 0. -1.
</event>
<event>
 5   0  0.3514294E-05  0.2588368E+04  0.7818609E-02  0.8372163E-01
       -2   -1    0    0    0  501  0.00000000000E+00  0.00000000000E+00  0.63460648087E+03  0.63460648088E+03  0.25500000920E-02 0.  1.
        2   -1    0    0  501    0  0.00000000000E+00  0.00000000000E+00 -0.26392936661E+04  0.26392936661E+04  0.25500000920E-02 0. -1.
    10030    2    1    2    0    0  0.00000000000E+00  0.00000000000E+00 -0.20046871852E+04  0.32739001469E+04  0.25883684942E+04 0.  0.
        2    1    3    3  502    0  0.96676244679E+03  0.44088550094E+02 -0.20891879561E+04  0.23024508127E+04  0.25500000920E-02 0. -1.
       -2    1    3    3    0  502 -0.96676244679E+03 -0.44088550094E+02  0.84500770927E+02  0.97144933427E+03  0.25500000920E-02 0.  1.
</event>
<event>
 5   0  0.1228050E-05  0.2679426E+04  0.7818609E-02  0.8341712E-01
       -3   -1    0    0    0  501  0.00000000000E+00  0.00000000000E+00  0.14149643235E+04  0.14149643271E+04  0.10100000352E+00 0. -1.
        3   -1    0    0  501    0  0.00000000000E+00  0.00000000000E+00 -0.12684632769E+04  0.12684632809E+04  0.10100000352E+00 0.  1.
    10030    2    1    2    0    0  0.00000000000E+00  0.00000000000E+00  0.14650104661E+03  0.26834276080E+04  0.26794255300E+04 0.  0.
        4    1    3    3  502    0  0.72801270242E+03  0.94641352864E+03 -0.53521568238E+03  0.13084947465E+04  0.12699999809E+01 0.  1.
       -4    1    3    3    0  502 -0.72801270242E+03 -0.94641352864E+03  0.68171672899E+03  0.13749328615E+04  0.12699999809E+01 0. -1.
</event>
<event>
 5   0  0.1438701E-05  0.2207586E+04  0.7818609E-02  0.8515277E-01
        1   -1    0    0  501    0  0.00000000000E+00  0.00000000000E+00  0.12289237888E+04  0.12289237888E+04  0.50400001928E-02 0.  1.
       -1   -1    0    0    0  501  0.00000000000E+00  0.00000000000E+00 -0.99140287235E+03  0.99140287236E+03  0.50400001928E-02 0. -1.
    10030    2    1    2    0    0  0.00000000000E+00  0.00000000000E+00  0.23752091642E+03  0.22203266611E+04  0.22075856261E+04 0.  0.
        4    1    3    3  502    0 -0.70764620412E+03 -0.84247998923E+03  0.29812046295E+02  0.11006480152E+04  0.12699999809E+01 0. -1.
       -4    1    3    3    0  502  0.70764620412E+03  0.84247998923E+03  0.20770887012E+03  0.11196786459E+04  0.12699999809E+01 0.  1.
</event>
<event>
 5   0  0.3676724E-05  0.2420721E+04  0.7818609E-02  0.8431786E-01
        2   -1    0    0  501    0  0.00000000000E+00  0.00000000000E+00  0.80730498079E+03  0.80730498080E+03  0.25500000920E-02 0. -1.
       -2   -1    0    0    0  501  0.00000000000E+00  0.00000000000E+00 -0.18146461952E+04  0.18146461952E+04  0.25500000920E-02 0.  1.
    10030    2    1    2    0    0  0.00000000000E+00  0.00000000000E+00 -0.10073412144E+04  0.26219511760E+04  0.24207213072E+04 0.  0.
        4    1    3    3  502    0 -0.89482305465E+03  0.59796658729E+03  0.96170133401E+02  0.10805196186E+04  0.12699999809E+01 0. -1.
       -4    1    3    3    0  502  0.89482305465E+03 -0.59796658729E+03 -0.11035113478E+04  0.15414315575E+04  0.12699999809E+01 0.  1.
</event>
<event>
 5   0  0.3497949E-05  0.2467980E+04  0.7818609E-02  0.8414482E-01
        2   -1    0    0  501    0  0.00000000000E+00  0.00000000000E+00  0.18519467976E+04  0.18519467976E+04  0.25500000920E-02 0. -1.
       -2   -1    0    0    0  501  0.00000000000E+00  0.00000000000E+00 -0.82223261608E+03  0.82223261608E+03  0.25500000920E-02 0.  1.
    10030    2    1    2    0    0  0.00000000000E+00  0.00000000000E+00  0.10297141816E+04  0.26741794137E+04  0.24679797894E+04 0.  0.
        5    1    3    3  502    0 -0.10829586329E+04  0.54766624642E+03  0.27263761567E+03  0.12438211598E+04  0.46999998093E+01 0.  1.
       -5    1    3    3    0  502  0.10829586329E+04 -0.54766624642E+03  0.75707656589E+03  0.14303582539E+04  0.46999998093E+01 0. -1.
</event>
<event>
 5   0  0.1484379E-05  0.2686547E+04  0.7818609E-02  0.8339383E-01
        1   -1    0    0  501    0  0.00000000000E+00  0.00000000000E+00  0.15547328232E+04  0.15547328232E+04  0.50400001928E-02 0. -1.
       -1   -1    0    0    0  501  0.00000000000E+00  0.00000000000E+00 -0.11605748148E+04  0.11605748148E+04  0.50400001928E-02 0.  1.
    10030    2    1    2    0    0  0.00000000000E+00  0.00000000000E+00  0.39415800837E+03  0.27153076380E+04  0.26865470466E+04 0.  0.
        1    1    3    3  502    0  0.71767148550E+02 -0.28359213316E+03 -0.11279896097E+04  0.11653049306E+04  0.50400001928E-02 0.  1.
       -1    1    3    3    0  502 -0.71767148550E+02  0.28359213316E+03  0.15221476181E+04  0.15500027074E+04  0.50400001928E-02 0. -1.
</event>
<event>
 5   0  0.3676724E-05  0.2733415E+04  0.7818609E-02  0.8324244E-01
        2   -1    0    0  501    0  0.00000000000E+00  0.00000000000E+00  0.13904204555E+04  0.13904204555E+04  0.25500000920E-02 0. -1.
       -2   -1    0    0    0  501  0.00000000000E+00  0.00000000000E+00 -0.13433987756E+04  0.13433987756E+04  0.25500000920E-02 0.  1.
    10030    2    1    2    0    0  0.00000000000E+00  0.00000000000E+00  0.47021679860E+02  0.27338192311E+04  0.27334148148E+04 0.  0.
        4    1    3    3  502    0 -0.12031691316E+04  0.31876763281E+03  0.58809304074E+03  0.13766204272E+04  0.12699999809E+01 0. -1.
       -4    1    3    3    0  502  0.12031691316E+04 -0.31876763281E+03 -0.54107136088E+03  0.13571988040E+04  0.12699999809E+01 0.  1.
</event>
<event>
 5   0  0.1228050E-05  0.1584436E+04  0.7818609E-02  0.8830167E-01
       -3   -1    0    0    0  501  0.00000000000E+00  0.00000000000E+00  0.10942637791E+04  0.10942637837E+04  0.10100000352E+00 0. -1.
        3   -1    0    0  501    0  0.00000000000E+00  0.00000000000E+00 -0.57354451324E+03  0.57354452213E+03  0.10100000352E+00 0.  1.
    10030    2    1    2    0    0  0.00000000000E+00  0.00000000000E+00  0.52071926582E+03  0.16678083058E+04  0.15844355434E+04 0.  0.
        5    1    3    3  502    0  0.13759859080E+03  0.39252728521E+03  0.97005953188E+03  0.10554850199E+04  0.46999998093E+01 0. -1.
       -5    1    3    3    0  502 -0.13759859080E+03 -0.39252728521E+03 -0.44934026606E+03  0.61232328595E+03  0.46999998093E+01 0.  1.
</event>
<event>
 5   0  0.1449521E-05  0.2677977E+04  0.7818609E-02  0.8342186E-01
       -1   -1    0    0    0  501  0.00000000000E+00  0.00000000000E+00  0.91797886264E+03  0.91797886265E+03  0.50400001928E-02 0.  1.
        1   -1    0    0  501    0  0.00000000000E+00  0.00000000000E+00 -0.19530840780E+04  0.19530840780E+04  0.50400001928E-02 0. -1.
    10030    2    1    2    0    0  0.00000000000E+00  0.00000000000E+00 -0.10351052154E+04  0.28710629407E+04  0.26779767741E+04 0.  0.
        3    1    3    3  502    0  0.86974284594E+03 -0.95668401784E+03 -0.89078094313E+03  0.15700915983E+04  0.10100000352E+00 0. -1.
       -3    1    3    3    0  502 -0.86974284594E+03  0.95668401784E+03 -0.14432427225E+03  0.13009713424E+04  0.10100000352E+00 0.  1.
</event>
<event>
 5   0  0.1474012E-05  0.2826319E+04  0.7818609E-02  0.8295144E-01
        1   -1    0    0  501    0  0.00000000000E+00  0.00000000000E+00  0.17919723699E+04  0.17919723699E+04  0.50400001928E-02 0.  1.
       -1   -1    0    0    0  501  0.00000000000E+00  0.00000000000E+00 -0.11144258714E+04  0.11144258714E+04  0.50400001928E-02 0. -1.
    10030    2    1    2    0    0  0.00000000000E+00  0.00000000000E+00  0.67754649853E+03  0.29063982414E+04  0.28263194228E+04 0.  0.
        2    1    3    3  502    0 -0.74516899974E+03 -0.12647276149E+03 -0.88910495614E+03  0.11669532213E+04  0.25500000920E-02 0. -1.
       -2    1    3    3    0  502  0.74516899974E+03  0.12647276149E+03  0.15666514547E+04  0.17394450201E+04  0.25500000920E-02 0.  1.
</event>
<event>
 5   0  0.1474012E-05  0.2697687E+04  0.7818609E-02  0.8335756E-01
       -1   -1    0    0    0  501  0.00000000000E+00  0.00000000000E+00  0.15942886942E+04  0.15942886942E+04  0.50400001928E-02 0.  1.
        1   -1    0    0  501    0  0.00000000000E+00  0.00000000000E+00 -0.11411855903E+04  0.11411855903E+04  0.50400001928E-02 0. -1.
    10030    2    1    2    0    0  0.00000000000E+00  0.00000000000E+00  0.45310310390E+03  0.27354742846E+04  0.26976873686E+04 0.  0.
        2    1    3    3  502    0  0.11402404127E+04 -0.72057006401E+03  0.22336607320E+03  0.13672095006E+04  0.25500000920E-02 0. -1.
       -2    1    3    3    0  502 -0.11402404127E+04  0.72057006401E+03  0.22973703070E+03  0.13682647840E+04  0.25500000920E-02 0.  1.
</event>
<event>
 5   0  0.1484379E-05  0.2619300E+04  0.7818609E-02  0.8361675E-01
        1   -1    0    0  501    0  0.00000000000E+00  0.00000000000E+00  0.22065989877E+04  0.22065989877E+04  0.50400001928E-02 0.  1.
       -1   -1    0    0    0  501  0.00000000000E+00  0.00000000000E+00 -0.77729738918E+03  0.77729738920E+03  0.50400001928E-02 0. -1.
    10030    2    1    2    0    0  0.00000000000E+00  0.00000000000E+00  0.14293015985E+04  0.29838963769E+04  0.26193003892E+04 0.  0.
        1    1    3    3  502    0 -0.11786571458E+04 -0.55550239144E+03  0.56451852676E+03  0.14200340634E+04  0.50400001928E-02 0. -1.
       -1    1    3    3    0  502  0.11786571458E+04  0.55550239144E+03  0.86478307178E+03  0.15638623135E+04  0.50400001928E-02 0.  1.
</event>
<event>
 5   0  0.1495517E-05  0.2736868E+04  0.7818609E-02  0.8323141E-01
       -1   -1    0    0    0  501  0.00000000000E+00  0.00000000000E+00  0.96297782824E+03  0.96297782825E+03  0.50400001928E-02 0.  1.
        1   -1    0    0  501    0  0.00000000000E+00  0.00000000000E+00 -0.19446048692E+04  0.19446048692E+04  0.50400001928E-02 0. -1.
    10030    2    1    2    0    0  0.00000000000E+00  0.00000000000E+00 -0.98162704094E+03  0.29075826974E+04  0.27368678256E+04 0.  0.
        5    1    3    3  502    0 -0.23224611311E+02  0.55844879678E+03  0.83617228971E+03  0.10057885609E+04  0.46999998093E+01 0.  1.
       -5    1    3    3    0  502  0.23224611311E+02 -0.55844879678E+03 -0.18177993306E+04  0.19017941365E+04  0.46999998093E+01 0. -1.
</event>
<event>
 5   0  0.1474012E-05  0.2393601E+04  0.7818609E-02  0.8441903E-01
       -1   -1    0    0    0  501  0.00000000000E+00  0.00000000000E+00  0.16641151077E+04  0.16641151077E+04  0.50400001928E-02 0. -1.
        1   -1    0    0  501    0  0.00000000000E+00  0.00000000000E+00 -0.86071645037E+03  0.86071645039E+03  0.50400001928E-02 0.  1.
    10030    2    1    2    0    0  0.00000000000E+00  0.00000000000E+00  0.80339865733E+03  0.25248315581E+04  0.23936008427E+04 0.  0.
        2    1    3    3  502    0  0.20048432132E+03  0.10579345888E+04  0.95275027317E+03  0.14377595906E+04  0.25500000920E-02 0. -1.
       -2    1    3    3    0  502 -0.20048432132E+03 -0.10579345888E+04 -0.14935161584E+03  0.10870719675E+04  0.25500000920E-02 0.  1.
</event>
<event>
 5   0  0.3676724E-05  0.2649336E+04  0.7818609E-02  0.8351633E-01
       -2   -1    0    0    0  501  0.00000000000E+00  0.00000000000E+00  0.12172776719E+04  0.12172776719E+04  0.25500000920E-02 0. -1.
        2   -1    0    0  501    0  0.00000000000E+00  0.00000000000E+00 -0.14415324577E+04  0.14415324577E+04  0.25500000920E-02 0.  1.
    10030    2    1    2    0    0  0.00000000000E+00  0.00000000000E+00 -0.22425478582E+03  0.26588101296E+04  0.26493359727E+04 0.  0.
        4    1    3    3  502    0 -0.15808939898E+03 -0.10024537914E+04 -0.96654601416E+03  0.14014701825E+04  0.12699999809E+01 0.  1.
       -4    1    3    3    0  502  0.15808939898E+03  0.10024537914E+04  0.74229122834E+03  0.12573399471E+04  0.12699999809E+01 0. -1.
</event>
<event>
 5   0  0.3676724E-05  0.2732294E+04  0.7818609E-02  0.8324602E-01
       -2   -1    0    0    0  501  0.00000000000E+00  0.00000000000E+00  0.10612798266E+04  0.10612798266E+04  0.25500000920E-02 0. -1.
        2   -1    0    0  501    0  0.00000000000E+00  0.00000000000E+00 -0.17585914177E+04  0.17585914177E+04  0.25500000920E-02 0.  1.
    10030    2    1    2    0    0  0.00000000000E+00  0.00000000000E+00 -0.69731159106E+03  0.28198712444E+04  0.27322939775E+04 0.  0.
        4    1    3    3  502    0  0.11801434904E+04 -0.62219127634E+03 -0.45128181328E+02  0.13348778251E+04  0.12699999809E+01 0. -1.
       -4    1    3    3    0  502 -0.11801434904E+04  0.62219127634E+03 -0.65218340973E+03  0.14849934192E+04  0.12699999809E+01 0.  1.
</event>
<event>
 5   0  0.3652331E-05  0.2775823E+04  0.7818609E-02  0.8310814E-01
       -2   -1    0    0    0  501  0.00000000000E+00  0.00000000000E+00  0.83966265165E+03  0.83966265166E+03  0.25500000920E-02 0.  1.
        2   -1    0    0  501    0  0.00000000000E+00  0.00000000000E+00 -0.22941331882E+04  0.22941331882E+04  0.25500000920E-02 0. -1.
    10030    2    1    2    0    0  0.00000000000E+00  0.00000000000E+00 -0.14544705366E+04  0.31337958399E+04  0.27758227293E+04 0.  0.
        1    1    3    3  502    0 -0.31936136571E+02 -0.13751443609E+04 -0.93618771493E+03  0.16638778104E+04  0.50400001928E-02 0.  1.
       -1    1    3    3    0  502  0.31936136571E+02  0.13751443609E+04 -0.51828282166E+03  0.14699180295E+04  0.50400001928E-02 0. -1.
</event>
<event>
 5   0  0.1438701E-05  0.2749210E+04  0.7818609E-02  0.8319213E-01
       -1   -1    0    0    0  501  0.00000000000E+00  0.00000000000E+00  0.11585268471E+04  0.11585268471E+04  0.50400001928E-02 0. -1.
        1   -1    0    0  501    0  0.00000000000E+00  0.00000000000E+00 -0.16309836359E+04  0.16309836359E+04  0.50400001928E-02 0.  1.
    10030    2    1    2    0    0  0.00000000000E+00  0.00000000000E+00 -0.47245678885E+03  0.27895104830E+04  0.27492095805E+04 0.  0.
        4    1    3    3  502    0  0.95140915928E+03 -0.72901464993E+03 -0.91906830529E+03  0.15104072003E+04  0.12699999809E+01 0.  1.
       -4    1    3    3    0  502 -0.95140915928E+03  0.72901464993E+03  0.44661151644E+03  0.12791032826E+04  0.12699999809E+01 0. -1.
</event>
<event>
 5   0  0.1438701E-05  0.2730138E+04  0.7818609E-02  0.8325292E-01
       -1   -1    0    0    0  501  0.00000000000E+00  0.00000000000E+00  0.68770169483E+03  0.68770169485E+03  0.50400001928E-02 0.  1.
        1   -1    0    0  501    0  0.00000000000E+00  0.00000000000E+00 -0.27096253934E+04  0.27096253934E+04  0.50400001928E-02 0. -1.
    10030    2    1    2    0    0  0.00000000000E+00  0.00000000000E+00 -0.20219236986E+04  0.33973270883E+04  0.27301384400E+04 0.  0.
        4    1    3    3  502    0 -0.62337751291E+03  0.26656562873E+03  0.46338085047E+03  0.82120654132E+03  0.12699999809E+01 0.  1.
       -4    1    3    3    0  502  0.62337751291E+03 -0.26656562873E+03 -0.24853045491E+04  0.25761205470E+04  0.12699999809E+01 0. -1.
</event>
<event>
 5   0  0.3497949E-05  0.2623421E+04  0.7818609E-02  0.8360289E-01
        2   -1    0    0  501    0  0.00000000000E+00  0.00000000000E+00  0.19262379237E+04  0.19262379237E+04  0.25500000920E-02 0.  1.
       -2   -1    0    0    0  501  0.00000000000E+00  0.00000000000E+00 -0.89323548807E+03  0.89323548808E+03  0.25500000920E-02 0. -1.
    10030    2    1    2    0    0  0.00000000000E+00  0.00000000000E+00  0.10330024356E+04  0.28194734118E+04  0.26234207226E+04 0.  0.
        5    1    3    3  502    0  0.12138658515E+04  0.88344298101E+02 -0.92249278607E+01  0.12171204582E+04  0.46999998093E+01 0. -1.
       -5    1    3    3    0  502 -0.12138658515E+04 -0.88344298101E+02  0.10422273635E+04  0.16023529535E+04  0.46999998093E+01 0.  1.
</event>
<event>
 5   0  0.1495517E-05  0.2769124E+04  0.7818609E-02  0.8312919E-01
        1   -1    0    0  501    0  0.00000000000E+00  0.00000000000E+00  0.13111661527E+04  0.13111661527E+04  0.50400001928E-02 0.  1.
       -1   -1    0    0    0  501  0.00000000000E+00  0.00000000000E+00 -0.14620660753E+04  0.14620660753E+04  0.50400001928E-02 0. -1.
    10030    2    1    2    0    0  0.00000000000E+00  0.00000000000E+00 -0.15089992259E+03  0.27732322280E+04  0.27691237248E+04 0.  0.
        5    1    3    3  502    0 -0.57756589274E+03  0.12115384035E+04  0.26502768154E+03  0.13680896994E+04  0.46999998093E+01 0.  1.
       -5    1    3    3    0  502  0.57756589274E+03 -0.12115384035E+04 -0.41592760413E+03  0.14051425285E+04  0.46999998093E+01 0. -1.
</event>
<event>
 5   0  0.1495517E-05  0.2643190E+04  0.7818609E-02  0.8353677E-01
       -1   -1    0    0    0  501  0.00000000000E+00  0.00000000000E+00  0.16877169503E+04  0.16877169503E+04  0.50400001928E-02 0. -1.
        1   -1    0    0  501    0  0.00000000000E+00  0.00000000000E+00 -0.10348973478E+04  0.10348973478E+04  0.50400001928E-02 0.  1.
    10030    2    1    2    0    0  0.00000000000E+00  0.00000000000E+00  0.65281960247E+03  0.27226142981E+04  0.26431903418E+04 0.  0.
        5    1    3    3  502    0  0.39289460494E+03  0.98728091152E+03 -0.48301562807E+03  0.11672257519E+04  0.46999998093E+01 0.  1.
       -5    1    3    3    0  502 -0.39289460494E+03 -0.98728091152E+03  0.11358352305E+04  0.15553885462E+04  0.46999998093E+01 0. -1.
</event>
<event>
 5   0  0.3514294E-05  0.2521582E+04  0.7818609E-02  0.8395337E-01
        2   -1    0    0  501    0  0.00000000000E+00  0.00000000000E+00  0.85099996178E+03  0.85099996179E+03  0.25500000920E-02 0.  1.
       -2   -1    0    0    0  501  0.00000000000E+00  0.00000000000E+00 -0.18679133866E+04  0.18679133866E+04  0.25500000920E-02 0. -1.
    10030    2    1    2    0    0  0.00000000000E+00  0.00000000000E+00 -0.10169134248E+04  0.27189133484E+04  0.25215822180E+04 0.  0.
        2    1    3    3  502    0 -0.36640974219E+03  0.11754713788E+04 -0.80099072026E+03  0.14688686788E+04  0.25500000920E-02 0. -1.
       -2    1    3    3    0  502  0.36640974219E+03 -0.11754713788E+04 -0.21592270453E+03  0.12500446696E+04  0.25500000920E-02 0.  1.
</event>
<event>
 5   0  0.1449521E-05  0.2763088E+04  0.7818609E-02  0.8314821E-01
       -1   -1    0    0    0  501  0.00000000000E+00  0.00000000000E+00  0.11428493019E+04  0.11428493019E+04  0.50400001928E-02 0. -1.
        1   -1    0    0  501    0  0.00000000000E+00  0.00000000000E+00 -0.16700920612E+04  0.16700920612E+04  0.50400001928E-02 0.  1.
    10030    2    1    2    0    0  0.00000000000E+00  0.00000000000E+00 -0.52724275937E+03  0.28129413631E+04  0.27630877990E+04 0.  0.
        3    1    3    3  502    0  0.81900698684E+03  0.24615285968E+02  0.86878132889E+03  0.11942191442E+04  0.10100000352E+00 0. -1.
       -3    1    3    3    0  502 -0.81900698684E+03 -0.24615285968E+02 -0.13960240883E+04  0.16187222189E+04  0.10100000352E+00 0.  1.
</event>
<event>
 5   0  0.3568647E-05  0.2886007E+04  0.7818609E-02  0.8277053E-01
       -2   -1    0    0    0  501  0.00000000000E+00  0.00000000000E+00  0.68496837079E+03  0.68496837080E+03  0.25500000920E-02 0.  1.
        2   -1    0    0  501    0  0.00000000000E+00  0.00000000000E+00 -0.30399354915E+04  0.30399354915E+04  0.25500000920E-02 0. -1.
    10030    2    1    2    0    0  0.00000000000E+00  0.00000000000E+00 -0.23549671207E+04  0.37249038623E+04  0.28860073880E+04 0.  0.
        3    1    3    3  502    0 -0.88701921851E+03  0.40408745992E+03 -0.25508088844E+04  0.27306987648E+04  0.10100000352E+00 0. -1.
       -3    1    3    3    0  502  0.88701921851E+03 -0.40408745992E+03  0.19584176367E+03  0.99420509749E+03  0.10100000352E+00 0.  1.
</event>
<event>
 5   0  0.3676724E-05  0.2713577E+04  0.7818609E-02  0.8330613E-01
       -2   -1    0    0    0  501  0.00000000000E+00  0.00000000000E+00  0.14407905497E+04  0.14407905497E+04  0.25500000920E-02 0. -1.
        2   -1    0    0  501    0  0.00000000000E+00  0.00000000000E+00 -0.12776836520E+04  0.12776836520E+04  0.25500000920E-02 0.  1.
    10030    2    1    2    0    0  0.00000000000E+00  0.00000000000E+00  0.16310689772E+03  0.27184742017E+04  0.27135766297E+04 0.  0.
        4    1    3    3  502    0  0.14798794890E+03 -0.74573126559E+03  0.12073509395E+04  0.14267843066E+04  0.12699999809E+01 0. -1.
       -4    1    3    3    0  502 -0.14798794890E+03  0.74573126559E+03 -0.10442440418E+04  0.12916898951E+04  0.12699999809E+01 0.  1.
</event>
<event>
 5   0  0.3676724E-05  0.2448261E+04  0.7818609E-02  0.8421653E-01
        2   -1    0    0  501    0  0.00000000000E+00  0.00000000000E+00  0.15876417685E+04  0.15876417685E+04  0.25500000920E-02 0.  1.
       -2   -1    0    0    0  501  0.00000000000E+00  0.00000000000E+00 -0.94385013076E+03  0.94385013076E+03  0.25500000920E-02 0. -1.
    10030    2    1    2    0    0  0.00000000000E+00  0.00000000000E+00  0.64379163772E+03  0.25314918992E+04  0.24482613347E+04 0.  0.
        4    1    3    3  502    0 -0.60021837859E+03  0.10497619214E+04  0.51871409646E+03  0.13157994226E+04  0.12699999809E+01 0.  1.
       -4    1    3    3    0  502  0.60021837859E+03 -0.10497619214E+04  0.12507754126E+03  0.12156924767E+04  0.12699999809E+01 0. -1.
</event>
<event>
 5   0  0.1474012E-05  0.2778905E+04  0.7818609E-02  0.8309847E-01
       -1   -1    0    0    0  501  0.00000000000E+00  0.00000000000E+00  0.31413432122E+04  0.31413432122E+04  0.50400001928E-02 0. -1.
        1   -1    0    0  501    0  0.00000000000E+00  0.00000000000E+00 -0.61457111852E+03  0.61457111854E+03  0.50400001928E-02 0.  1.
    10030    2    1    2    0    0  0.00000000000E+00  0.00000000000E+00  0.25267720936E+04  0.37559143307E+04  0.27789054044E+04 0.  0.
        2    1    3    3  502    0  0.46847483773E+03 -0.54979195230E+03  0.28676380454E+04  0.29572094657E+04  0.25500000920E-02 0. -1.
       -2    1    3    3    0  502 -0.46847483773E+03  0.54979195230E+03 -0.34086595173E+03  0.79870486505E+03  0.25500000920E-02 0.  1.
</event>
<event>
 5   0  0.3652331E-05  0.2883932E+04  0.7818609E-02  0.8277674E-01
       -2   -1    0    0    0  501  0.00000000000E+00  0.00000000000E+00  0.22490860851E+04  0.22490860851E+04  0.25500000920E-02 0.  1.
        2   -1    0    0  501    0  0.00000000000E+00  0.00000000000E+00 -0.92449339881E+03  0.92449339881E+03  0.25500000920E-02 0. -1.
    10030    2    1    2    0    0  0.00000000000E+00  0.00000000000E+00  0.13245926863E+04  0.31735794840E+04  0.28839315103E+04 0.  0.
        1    1    3    3  502    0  0.12877308860E+04  0.52222097568E+03  0.10860705413E+04  0.17636651618E+04  0.50400001928E-02 0.  1.
       -1    1    3    3    0  502 -0.12877308860E+04 -0.52222097568E+03  0.23852214503E+03  0.14099143222E+04  0.50400001928E-02 0. -1.
</event>
<event>
 5   0  0.1484379E-05  0.1765742E+04  0.7818609E-02  0.8724733E-01
        1   -1    0    0  501    0  0.00000000000E+00  0.00000000000E+00  0.26621913446E+04  0.26621913446E+04  0.50400001928E-02 0.  1.
       -1   -1    0    0    0  501  0.00000000000E+00  0.00000000000E+00 -0.29278922685E+03  0.29278922689E+03  0.50400001928E-02 0. -1.
    10030    2    1    2    0    0  0.00000000000E+00  0.00000000000E+00  0.23694021177E+04  0.29549805715E+04  0.17657417088E+04 0.  0.
        1    1    3    3  502    0  0.12443611044E+02 -0.84122355750E+03  0.16326542212E+04  0.18366740928E+04  0.50400001928E-02 0.  1.
       -1    1    3    3    0  502 -0.12443611044E+02  0.84122355750E+03  0.73674789650E+03  0.11183064786E+04  0.50400001928E-02 0. -1.
</event>
<event>
 5   0  0.1495517E-05  0.2729250E+04  0.7818609E-02  0.8325576E-01
        1   -1    0    0  501    0  0.00000000000E+00  0.00000000000E+00  0.17815822397E+04  0.17815822397E+04  0.50400001928E-02 0.  1.
       -1   -1    0    0    0  501  0.00000000000E+00  0.00000000000E+00 -0.10452515805E+04  0.10452515805E+04  0.50400001928E-02 0. -1.
    10030    2    1    2    0    0  0.00000000000E+00  0.00000000000E+00  0.73633065920E+03  0.28268338203E+04  0.27292501915E+04 0.  0.
        5    1    3    3  502    0  0.96998991281E+03 -0.27234158867E+03 -0.58513941059E+03  0.11651011079E+04  0.46999998093E+01 0. -1.
       -5    1    3    3    0  502 -0.96998991281E+03  0.27234158867E+03  0.13214700698E+04  0.16617327123E+04  0.46999998093E+01 0.  1.
</event>
<event>
 5   0  0.3652331E-05  0.2695756E+04  0.7818609E-02  0.8336383E-01
       -2   -1    0    0    0  501  0.00000000000E+00  0.00000000000E+00  0.84772913755E+03  0.84772913756E+03  0.25500000920E-02 0.  1.
        2   -1    0    0  501    0  0.00000000000E+00  0.00000000000E+00 -0.21431073999E+04  0.21431073999E+04  0.25500000920E-02 0. -1.
    10030    2    1    2    0    0  0.00000000000E+00  0.00000000000E+00 -0.12953782624E+04  0.29908365375E+04  0.26957556179E+04 0.  0.
        1    1    3    3  502    0 -0.34776795799E+03 -0.12103630675E+04 -0.11807541495E+04  0.17262970976E+04  0.50400001928E-02 0. -1.
       -1    1    3    3    0  502  0.34776795799E+03  0.12103630675E+04 -0.11462411290E+03  0.12645394399E+04  0.50400001928E-02 0.  1.
</event>
<event>
 5   0  0.1495517E-05  0.1739864E+04  0.7818609E-02  0.8738949E-01
       -1   -1    0    0    0  501  0.00000000000E+00  0.00000000000E+00  0.98239955684E+03  0.98239955685E+03  0.50400001928E-02 0.  1.
        1   -1    0    0  501    0  0.00000000000E+00  0.00000000000E+00 -0.77033998585E+03  0.77033998586E+03  0.50400001928E-02 0. -1.
    10030    2    1    2    0    0  0.00000000000E+00  0.00000000000E+00  0.21205957099E+03  0.17527395427E+04  0.17398639725E+04 0.  0.
        5    1    3    3  502    0  0.19672956592E+03  0.21082459401E+03  0.93284101219E+03  0.97640359256E+03  0.46999998093E+01 0.  1.
       -5    1    3    3    0  502 -0.19672956592E+03 -0.21082459401E+03 -0.72078144119E+03  0.77633595016E+03  0.46999998093E+01 0. -1.
</event>
<event>
 5   0  0.1449521E-05  0.2840081E+04  0.7818609E-02  0.8290932E-01
        1   -1    0    0  501    0  0.00000000000E+00  0.00000000000E+00  0.14433606566E+04  0.14433606566E+04  0.50400001928E-02 0.  1.
       -1   -1    0    0    0  501  0.00000000000E+00  0.00000000000E+00 -0.13970968906E+04  0.13970968907E+04  0.50400001928E-02 0. -1.
    10030    2    1    2    0    0  0.00000000000E+00  0.00000000000E+00  0.46263765989E+02  0.28404575473E+04  0.28400807633E+04 0.  0.
        3    1    3    3  502    0 -0.71509647191E+03 -0.49021300051E+03  0.11479334444E+04  0.14385489053E+04  0.10100000352E+00 0.  1.
       -3    1    3    3    0  502  0.71509647191E+03  0.49021300051E+03 -0.11016696784E+04  0.14019086420E+04  0.10100000352E+00 0. -1.
</event>
<event>
 5   0  0.1438701E-05  0.2555619E+04  0.7818609E-02  0.8383435E-01
        1   -1    0    0  501    0  0.00000000000E+00  0.00000000000E+00  0.12958903399E+04  0.12958903399E+04  0.50400001928E-02 0. -1.
       -1   -1    0    0    0  501  0.00000000000E+00  0.00000000000E+00 -0.12599806409E+04  0.12599806409E+04  0.50400001928E-02 0.  1.
    10030    2    1    2    0    0  0.00000000000E+00  0.00000000000E+00  0.35909699005E+02  0.25558709808E+04  0.25556187047E+04 0.  0.
        4    1    3    3  502    0  0.86021604137E+03  0.69978448619E+03 -0.61702920973E+03  0.12690140360E+04  0.12699999809E+01 0.  1.
       -4    1    3    3    0  502 -0.86021604137E+03 -0.69978448619E+03  0.65293890873E+03  0.12868569448E+04  0.12699999809E+01 0. -1.
</event>
<event>
 5   0  0.3497949E-05  0.2799566E+04  0.7818609E-02  0.8303403E-01
        2   -1    0    0  501    0  0.00000000000E+00  0.00000000000E+00  0.13765563838E+04  0.13765563838E+04  0.25500000920E-02 0.  1.
       -2   -1    0    0    0  501  0.00000000000E+00  0.00000000000E+00 -0.14234018979E+04  0.14234018979E+04  0.25500000920E-02 0. -1.
    10030    2    1    2    0    0  0.00000000000E+00  0.00000000000E+00 -0.46845514049E+02  0.27999582817E+04  0.27995663731E+04 0.  0.
        5    1    3    3  502    0 -0.56147669067E+03 -0.87026213604E+03  0.91838768575E+03  0.13842219081E+04  0.46999998093E+01 0.  1.
       -5    1    3    3    0  502  0.56147669067E+03  0.87026213604E+03 -0.96523319980E+03  0.14157363736E+04  0.46999998093E+01 0. -1.
</event>
<event>
 5   0  0.3652331E-05  0.2687314E+04  0.7818609E-02  0.8339133E-01
       -2   -1    0    0    0  501  0.00000000000E+00  0.00000000000E+00  0.11279137284E+04  0.11279137284E+04  0.25500000920E-02 0.  1.
        2   -1    0    0  501    0  0.00000000000E+00  0.00000000000E+00 -0.16006664997E+04  0.16006664997E+04  0.25500000920E-02 0. -1.
    10030    2    1    2    0    0  0.00000000000E+00  0.00000000000E+00 -0.47275277130E+03  0.27285802281E+04  0.26873136919E+04 0.  0.
        1    1    3    3  502    0  0.18916806605E+03 -0.27506206791E+03  0.10851359550E+04  0.11353253892E+04  0.50400001928E-02 0.  1.
       -1    1    3    3    0  502 -0.18916806605E+03  0.27506206791E+03 -0.15578887263E+04  0.15932548390E+04  0.50400001928E-02 0. -1.
</event>
<event>
 5   0  0.1474012E-05  0.2706514E+04  0.7818609E-02  0.8332894E-01
       -1   -1    0    0    0  501  0.00000000000E+00  0.00000000000E+00  0.14627451746E+04  0.14627451746E+04  0.50400001928E-02 0. -1.
        1   -1    0    0  501    0  0.00000000000E+00  0.00000000000E+00 -0.12519642592E+04  0.12519642592E+04  0.50400001928E-02 0.  1.
    10030    2    1    2    0    0  0.00000000000E+00  0.00000000000E+00  0.21078091540E+03  0.27147094338E+04  0.27065141263E+04 0.  0.
        2    1    3    3  502    0 -0.18505117609E+03 -0.27414909172E+03 -0.12107959376E+04  0.12551607326E+04  0.25500000920E-02 0.  1.
       -2    1    3    3    0  502  0.18505117609E+03  0.27414909172E+03  0.14215768530E+04  0.14595487012E+04  0.25500000920E-02 0. -1.
</event>
<event>
 5   0  0.1495517E-05  0.2690728E+04  0.7818609E-02  0.8338020E-01
        1   -1    0    0  501    0  0.00000000000E+00  0.00000000000E+00  0.99949527445E+03  0.99949527446E+03  0.50400001928E-02 0. -1.
       -1   -1    0    0    0  501  0.00000000000E+00  0.00000000000E+00 -0.18109183151E+04  0.18109183151E+04  0.50400001928E-02 0.  1.
    10030    2    1    2    0    0  0.00000000000E+00  0.00000000000E+00 -0.81142304066E+03  0.28104135896E+04  0.26907280044E+04 0.  0.
        5    1    3    3  502    0 -0.12401446482E+03  0.58216059373E+03  0.85447588700E+03  0.10413652941E+04  0.46999998093E+01 0. -1.
       -5    1    3    3    0  502  0.12401446482E+03 -0.58216059373E+03 -0.16658989277E+04  0.17690482954E+04  0.46999998093E+01 0.  1.
</event>
<event>
 5   0  0.3568647E-05  0.2734140E+04  0.7818609E-02  0.8324012E-01
       -2   -1    0    0    0  501  0.00000000000E+00  0.00000000000E+00  0.90897373977E+03  0.90897373977E+03  0.25500000920E-02 0. -1.
        2   -1    0    0  501    0  0.00000000000E+00  0.00000000000E+00 -0.20560335411E+04  0.20560335411E+04  0.25500000920E-02 0.  1.
    10030    2    1    2    0    0  0.00000000000E+00  0.00000000000E+00 -0.11470598013E+04  0.29650072809E+04  0.27341400820E+04 0.  0.
        3    1    3    3  502    0  0.90820904284E+03  0.25744125021E+03  0.49878247615E+03  0.10676626956E+04  0.10100000352E+00 0. -1.
       -3    1    3    3    0  502 -0.90820904284E+03 -0.25744125021E+03 -0.16458422775E+04  0.18973445853E+04  0.10100000352E+00 0.  1.
</event>
<event>
 5   0  0.3652331E-05  0.2858850E+04  0.7818609E-02  0.8285227E-01
        2   -1    0    0  501    0  0.00000000000E+00  0.00000000000E+00  0.14568055307E+04  0.14568055307E+04  0.25500000920E-02 0.  1.
       -2   -1    0    0    0  501  0.00000000000E+00  0.00000000000E+00 -0.14025592870E+04  0.14025592870E+04  0.25500000920E-02 0. -1.
    10030    2    1    2    0    0  0.00000000000E+00  0.00000000000E+00  0.54246243756E+02  0.28593648177E+04  0.28588502070E+04 0.  0.
        1    1    3    3  502    0 -0.10082376197E+03 -0.98168397287E+03 -0.10071748527E+04  0.14100602957E+04  0.50400001928E-02 0. -1.
       -1    1    3    3    0  502  0.10082376197E+03  0.98168397287E+03  0.10614210964E+04  0.14493045220E+04  0.50400001928E-02 0.  1.
</event>
<event>
 5   0  0.1495517E-05  0.2612149E+04  0.7818609E-02  0.8364086E-01
       -1   -1    0    0    0  501  0.00000000000E+00  0.00000000000E+00  0.13132635742E+04  0.13132635742E+04  0.50400001928E-02 0.  1.
        1   -1    0    0  501    0  0.00000000000E+00  0.00000000000E+00 -0.12989243984E+04  0.12989243984E+04  0.50400001928E-02 0. -1.
    10030    2    1    2    0    0  0.00000000000E+00  0.00000000000E+00  0.14339175759E+02  0.26121879726E+04  0.26121486161E+04 0.  0.
        5    1    3    3  502    0 -0.15218988696E+03  0.12403860010E+04 -0.37242645632E+03  0.13040102563E+04  0.46999998093E+01 0. -1.
       -5    1    3    3    0  502  0.15218988696E+03 -0.12403860010E+04  0.38676563208E+03  0.13081777163E+04  0.46999998093E+01 0.  1.
</event>
<event>
 5   0  0.1474012E-05  0.2661140E+04  0.7818609E-02  0.8347725E-01
       -1   -1    0    0    0  501  0.00000000000E+00  0.00000000000E+00  0.89940641514E+03  0.89940641516E+03  0.50400001928E-02 0.  1.
        1   -1    0    0  501    0  0.00000000000E+00  0.00000000000E+00 -0.19684278877E+04  0.19684278877E+04  0.50400001928E-02 0. -1.
    10030    2    1    2    0    0  0.00000000000E+00  0.00000000000E+00 -0.10690214725E+04  0.28678343028E+04  0.26611401090E+04 0.  0.
        2    1    3    3  502    0  0.83944677184E+03 -0.91047536104E+03 -0.10589065223E+04  0.16293923066E+04  0.25500000920E-02 0. -1.
       -2    1    3    3    0  502 -0.83944677184E+03  0.91047536104E+03 -0.10114950241E+02  0.12384419962E+04  0.25500000920E-02 0.  1.
</event>
<event>
 5   0  0.1495517E-05  0.1902679E+04  0.7818609E-02  0.8653524E-01
        1   -1    0    0  501    0  0.00000000000E+00  0.00000000000E+00  0.66695356483E+03  0.66695356485E+03  0.50400001928E-02 0. -1.
       -1   -1    0    0    0  501  0.00000000000E+00  0.00000000000E+00 -0.13569857904E+04  0.13569857904E+04  0.50400001928E-02 0.  1.
    10030    2    1    2    0    0  0.00000000000E+00  0.00000000000E+00 -0.69003222554E+03  0.20239393552E+04  0.19026786490E+04 0.  0.
        5    1    3    3  502    0  0.51377945325E+03  0.23941616294E+03  0.46770195627E+03  0.73488545744E+03  0.46999998093E+01 0. -1.
       -5    1    3    3    0  502 -0.51377945325E+03 -0.23941616294E+03 -0.11577341818E+04  0.12890538978E+04  0.46999998093E+01 0.  1.
</event>
<event>
 5   0  0.1474012E-05  0.2692886E+04  0.7818609E-02  0.8337317E-01
       -1   -1    0    0    0  501  0.00000000000E+00  0.00000000000E+00  0.13230435288E+04  0.13230435289E+04  0.50400001928E-02 0. -1.
        1   -1    0    0  501    0  0.00000000000E+00  0.00000000000E+00 -0.13702566876E+04  0.13702566876E+04  0.50400001928E-02 0.  1.
    10030    2    1    2    0    0  0.00000000000E+00  0.00000000000E+00 -0.47213158714E+02  0.26933002164E+04  0.26928863648E+04 0.  0.
        2    1    3    3  502    0 -0.76876240568E+03 -0.15705054890E+03 -0.11179633560E+04  0.13658340224E+04  0.25500000920E-02 0.  1.
       -2    1    3    3    0  502  0.76876240568E+03  0.15705054890E+03  0.10707501973E+04  0.13274661940E+04  0.25500000920E-02 0. -1.
</event>
<event>
 5   0  0.1495517E-05  0.2559782E+04  0.7818609E-02  0.8381992E-01
       -1   -1    0    0    0  501  0.00000000000E+00  0.00000000000E+00  0.12293283629E+04  0.12293283629E+04  0.50400001928E-02 0. -1.
        1   -1    0    0  501    0  0.00000000000E+00  0.00000000000E+00 -0.13325332132E+04  0.13325332133E+04  0.50400001928E-02 0.  1.
    10030    2    1    2    0    0  0.00000000000E+00  0.00000000000E+00 -0.10320485033E+03  0.25618615762E+04  0.25597819232E+04 0.  0.
        5    1    3    3  502    0 -0.11740080145E+04 -0.30370301145E+03 -0.46128624650E+03  0.12974349419E+04  0.46999998093E+01 0.  1.
       -5    1    3    3    0  502  0.11740080145E+04  0.30370301145E+03  0.35808139617E+03  0.12644266343E+04  0.46999998093E+01 0. -1.
</event>
<event>
 5   0  0.1474012E-05  0.2740215E+04  0.7818609E-02  0.8322073E-01
        1   -1    0    0  501    0  0.00000000000E+00  0.00000000000E+00  0.20347117504E+04  0.20347117504E+04  0.50400001928E-02 0.  1.
       -1   -1    0    0    0  501  0.00000000000E+00  0.00000000000E+00 -0.92258519662E+03  0.92258519663E+03  0.50400001928E-02 0. -1.
    10030    2    1    2    0    0  0.00000000000E+00  0.00000000000E+00  0.11121265538E+04  0.29572969470E+04  0.27402152764E+04 0.  0.
        2    1    3    3  502    0  0.24874291812E+03  0.49023928876E+03 -0.79834246262E+03  0.96930814873E+03  0.25500000920E-02 0. -1.
       -2    1    3    3    0  502 -0.24874291812E+03 -0.49023928876E+03  0.19104690164E+04  0.19879887983E+04  0.25500000920E-02 0.  1.
</event>
<event>
 5   0  0.3568647E-05  0.3236300E+04  0.7818609E-02  0.8179296E-01
       -2   -1    0    0    0  501  0.00000000000E+00  0.00000000000E+00  0.99452622104E+03  0.99452622105E+03  0.25500000920E-02 0. -1.
        2   -1    0    0  501    0  0.00000000000E+00  0.00000000000E+00 -0.26328214994E+04  0.26328214994E+04  0.25500000920E-02 0.  1.
    10030    2    1    2    0    0  0.00000000000E+00  0.00000000000E+00 -0.16382952783E+04  0.36273477204E+04  0.32363003671E+04 0.  0.
        3    1    3    3  502    0  0.13725737179E+04 -0.50920915095E+03 -0.46539761800E+02  0.14647247285E+04  0.10100000352E+00 0.  1.
       -3    1    3    3    0  502 -0.13725737179E+04  0.50920915095E+03 -0.15917555165E+04  0.21626229919E+04  0.10100000352E+00 0. -1.
</event>
<event>
 5   0  0.3514294E-05  0.2730777E+04  0.7818609E-02  0.8325088E-01
       -2   -1    0    0    0  501  0.00000000000E+00  0.00000000000E+00  0.18597302837E+04  0.18597302837E+04  0.25500000920E-02 0. -1.
        2   -1    0    0  501    0  0.00000000000E+00  0.00000000000E+00 -0.10024493474E+04  0.10024493474E+04  0.25500000920E-02 0.  1.
    10030    2    1    2    0    0  0.00000000000E+00  0.00000000000E+00  0.85728093624E+03  0.28621796311E+04  0.27307767461E+04 0.  0.
        2    1    3    3  502    0  0.10373906136E+03 -0.47367480025E+03 -0.90916202261E+03  0.10303907961E+04  0.25500000920E-02 0.  1.
       -2    1    3    3    0  502 -0.10373906136E+03  0.47367480025E+03  0.17664429589E+04  0.18317888350E+04  0.25500000920E-02 0. -1.
</event>
<event>
 5   0  0.3652331E-05  0.3468379E+04  0.7818609E-02  0.8121325E-01
        2   -1    0    0  501    0  0.00000000000E+00  0.00000000000E+00  0.16245642577E+04  0.16245642577E+04  0.25500000920E-02 0.  1.
       -2   -1    0    0    0  501  0.00000000000E+00  0.00000000000E+00 -0.18512120670E+04  0.18512120670E+04  0.25500000920E-02 0. -1.
    10030    2    1    2    0    0  0.00000000000E+00  0.00000000000E+00 -0.22664780931E+03  0.34757763247E+04  0.34683788475E+04 0.  0.
        1    1    3    3  502    0 -0.10278746923E+04  0.13377300784E+04 -0.51588306114E+03  0.17641381688E+04  0.50400001928E-02 0. -1.
       -1    1    3    3    0  502  0.10278746923E+04 -0.13377300784E+04  0.28923525182E+03  0.17116381559E+04  0.50400001928E-02 0.  1.
</event>
<event>
 5   0  0.1474012E-05  0.2689255E+04  0.7818609E-02  0.8338500E-01
       -1   -1    0    0    0  501  0.00000000000E+00  0.00000000000E+00  0.16638212195E+04  0.16638212195E+04  0.50400001928E-02 0. -1.
        1   -1    0    0  501    0  0.00000000000E+00  0.00000000000E+00 -0.10866692884E+04  0.10866692884E+04  0.50400001928E-02 0.  1.
    10030    2    1    2    0    0  0.00000000000E+00  0.00000000000E+00  0.57715193105E+03  0.27504905079E+04  0.26892552282E+04 0.  0.
        2    1    3    3  502    0 -0.40879777976E+02 -0.11994800558E+04 -0.33152984052E+03  0.12451247309E+04  0.25500000920E-02 0. -1.
       -2    1    3    3    0  502  0.40879777976E+02  0.11994800558E+04  0.90868177158E+03  0.15053657770E+04  0.25500000920E-02 0.  1.
</event>
<event>
 5   0  0.3676724E-05  0.2724335E+04  0.7818609E-02  0.8327152E-01
       -2   -1    0    0    0  501  0.00000000000E+00  0.00000000000E+00  0.93561614506E+03  0.93561614507E+03  0.25500000920E-02 0. -1.
        2   -1    0    0  501    0  0.00000000000E+00  0.00000000000E+00 -0.19831858062E+04  0.19831858062E+04  0.25500000920E-02 0.  1.
    10030    2    1    2    0    0  0.00000000000E+00  0.00000000000E+00 -0.10475696611E+04  0.29188019513E+04  0.27243352649E+04 0.  0.
        4    1    3    3  502    0 -0.12206303742E+03 -0.13500316895E+04 -0.66758200070E+03  0.15110103535E+04  0.12699999809E+01 0. -1.
       -4    1    3    3    0  502  0.12206303742E+03  0.13500316895E+04 -0.37998766044E+03  0.14077915978E+04  0.12699999809E+01 0.  1.
</event>
<event>
 5   0  0.1484379E-05  0.2622918E+04  0.7818609E-02  0.8360458E-01
       -1   -1    0    0    0  501  0.00000000000E+00  0.00000000000E+00  0.14112217986E+04  0.14112217986E+04  0.50400001928E-02 0. -1.
        1   -1    0    0  501    0  0.00000000000E+00  0.00000000000E+00 -0.12187482615E+04  0.12187482615E+04  0.50400001928E-02 0.  1.
    10030    2    1    2    0    0  0.00000000000E+00  0.00000000000E+00  0.19247353705E+03  0.26299700601E+04  0.26229175463E+04 0.  0.
        1    1    3    3  502    0 -0.60028331498E+03  0.55030183093E+03  0.11269852296E+04  0.13904200341E+04  0.50400001928E-02 0. -1.
       -1    1    3    3    0  502  0.60028331498E+03 -0.55030183093E+03 -0.93451169258E+03  0.12395500260E+04  0.50400001928E-02 0.  1.
</event>
<event>
 5   0  0.1438701E-05  0.2724242E+04  0.7818609E-02  0.8327182E-01
       -1   -1    0    0    0  501  0.00000000000E+00  0.00000000000E+00  0.96821591274E+03  0.96821591275E+03  0.50400001928E-02 0.  1.
        1   -1    0    0  501    0  0.00000000000E+00  0.00000000000E+00 -0.19162811397E+04  0.19162811397E+04  0.50400001928E-02 0. -1.
    10030    2    1    2    0    0  0.00000000000E+00  0.00000000000E+00 -0.94806522697E+03  0.28844970525E+04  0.27242422013E+04 0.  0.
        4    1    3    3  502    0  0.92089297125E+03  0.43569423323E+03  0.48331131011E+03  0.11275924639E+04  0.12699999809E+01 0.  1.
       -4    1    3    3    0  502 -0.92089297125E+03 -0.43569423323E+03 -0.14313765371E+04  0.17569045885E+04  0.12699999809E+01 0. -1.
</event>
<event>
 5   0  0.3568647E-05  0.1660585E+04  0.7818609E-02  0.8784169E-01
       -2   -1    0    0    0  501  0.00000000000E+00  0.00000000000E+00  0.52617929145E+03  0.52617929146E+03  0.25500000920E-02 0. -1.
        2   -1    0    0  501    0  0.00000000000E+00  0.00000000000E+00 -0.13101723187E+04  0.13101723187E+04  0.25500000920E-02 0.  1.
    10030    2    1    2    0    0  0.00000000000E+00  0.00000000000E+00 -0.78399302721E+03  0.18363516101E+04  0.16605848877E+04 0.  0.
        3    1    3    3  502    0 -0.33999243638E+03  0.69889623297E+03 -0.71503753177E+03  0.10560916074E+04  0.10100000352E+00 0.  1.
       -3    1    3    3    0  502  0.33999243638E+03 -0.69889623297E+03 -0.68955495445E+02  0.78026000269E+03  0.10100000352E+00 0. -1.
</event>
<event>
 5   0  0.1495517E-05  0.2729211E+04  0.7818609E-02  0.8325589E-01
       -1   -1    0    0    0  501  0.00000000000E+00  0.00000000000E+00  0.24958911109E+04  0.24958911109E+04  0.50400001928E-02 0.  1.
        1   -1    0    0  501    0  0.00000000000E+00  0.00000000000E+00 -0.74608562491E+03  0.74608562493E+03  0.50400001928E-02 0. -1.
    10030    2    1    2    0    0  0.00000000000E+00  0.00000000000E+00  0.17498054860E+04  0.32419767358E+04  0.27292112261E+04 0.  0.
        5    1    3    3  502    0 -0.57218095966E+03  0.55090670854E+03 -0.44318280492E+03  0.90957261430E+03  0.46999998093E+01 0. -1.
       -5    1    3    3    0  502  0.57218095966E+03 -0.55090670854E+03  0.21929882909E+04  0.23324041215E+04  0.46999998093E+01 0.  1.
</event>
<event>
 5   0  0.3568647E-05  0.2688736E+04  0.7818609E-02  0.8338669E-01
        2   -1    0    0  501    0  0.00000000000E+00  0.00000000000E+00  0.22113933821E+04  0.22113933821E+04  0.25500000920E-02 0. -1.
       -2   -1    0    0    0  501  0.00000000000E+00  0.00000000000E+00 -0.81727915874E+03  0.81727915874E+03  0.25500000920E-02 0.  1.
    10030    2    1    2    0    0  0.00000000000E+00  0.00000000000E+00  0.13941142234E+04  0.30286725409E+04  0.26887363002E+04 0.  0.
        3    1    3    3  502    0  0.74343239778E+03  0.21341788712E+03 -0.54154794106E+03  0.94419971790E+03  0.10100000352E+00 0.  1.
       -3    1    3    3    0  502 -0.74343239778E+03 -0.21341788712E+03  0.19356621645E+04  0.20844728230E+04  0.10100000352E+00 0. -1.
</event>
<event>
 5   0  0.1438701E-05  0.1586454E+04  0.7818609E-02  0.8828913E-01
       -1   -1    0    0    0  501  0.00000000000E+00  0.00000000000E+00  0.10310134264E+04  0.10310134264E+04  0.50400001928E-02 0.  1.
        1   -1    0    0  501    0  0.00000000000E+00  0.00000000000E+00 -0.61028206878E+03  0.61028206880E+03  0.50400001928E-02 0. -1.
    10030    2    1    2    0    0  0.00000000000E+00  0.00000000000E+00  0.42073135761E+03  0.16412954952E+04  0.15864539159E+04 0.  0.
        4    1    3    3  502    0 -0.45591333023E+03  0.57570207331E+03 -0.99862721885E+02  0.74112348365E+03  0.12699999809E+01 0. -1.
       -4    1    3    3    0  502  0.45591333023E+03 -0.57570207331E+03  0.52059407950E+03  0.90017201156E+03  0.12699999809E+01 0.  1.
</event>
<event>
 5   0  0.1495517E-05  0.2152138E+04  0.7818609E-02  0.8538618E-01
        1   -1    0    0  501    0  0.00000000000E+00  0.00000000000E+00  0.12261620377E+04  0.12261620377E+04  0.50400001928E-02 0. -1.
       -1   -1    0    0    0  501  0.00000000000E+00  0.00000000000E+00 -0.94434865478E+03  0.94434865479E+03  0.50400001928E-02 0.  1.
    10030    2    1    2    0    0  0.00000000000E+00  0.00000000000E+00  0.28181338295E+03  0.21705106925E+04  0.21521379797E+04 0.  0.
        5    1    3    3  502    0 -0.55760160309E+03  0.56259682300E+03 -0.59364314951E+03  0.98988333251E+03  0.46999998093E+01 0.  1.
       -5    1    3    3    0  502  0.55760160309E+03 -0.56259682300E+03  0.87545653245E+03  0.11806273600E+04  0.46999998093E+01 0. -1.
</event>
<event>
 5   0  0.3497949E-05  0.2708021E+04  0.7818609E-02  0.8332407E-01
        2   -1    0    0  501    0  0.00000000000E+00  0.00000000000E+00  0.11725211414E+04  0.11725211414E+04  0.25500000920E-02 0. -1.
       -2   -1    0    0    0  501  0.00000000000E+00  0.00000000000E+00 -0.15635922281E+04  0.15635922281E+04  0.25500000920E-02 0.  1.
    10030    2    1    2    0    0  0.00000000000E+00  0.00000000000E+00 -0.39107108671E+03  0.27361133695E+04  0.27080213765E+04 0.  0.
        5    1    3    3  502    0 -0.41004207947E+03  0.25008554451E+03  0.10835533955E+04  0.11852372494E+04  0.46999998093E+01 0. -1.
       -5    1    3    3    0  502  0.41004207947E+03 -0.25008554451E+03 -0.14746244822E+04  0.15508761201E+04  0.46999998093E+01 0.  1.
</event>
<event>
 5   0  0.1484379E-05  0.1521984E+04  0.7818609E-02  0.8869964E-01
       -1   -1    0    0    0  501  0.00000000000E+00  0.00000000000E+00  0.47215936833E+03  0.47215936836E+03  0.50400001928E-02 0. -1.
        1   -1    0    0  501    0  0.00000000000E+00  0.00000000000E+00 -0.12265108331E+04  0.12265108331E+04  0.50400001928E-02 0.  1.
    10030    2    1    2    0    0  0.00000000000E+00  0.00000000000E+00 -0.75435146473E+03  0.16986702014E+04  0.15219836796E+04 0.  0.
        1    1    3    3  502    0  0.63367645450E+03 -0.35091997864E+03 -0.63753315353E+03  0.96495554419E+03  0.50400001928E-02 0.  1.
       -1    1    3    3    0  502 -0.63367645450E+03  0.35091997864E+03 -0.11681831121E+03  0.73371465724E+03  0.50400001928E-02 0. -1.
</event>
<event>
 5   0  0.3497949E-05  0.2758047E+04  0.7818609E-02  0.8316413E-01
       -2   -1    0    0    0  501  0.00000000000E+00  0.00000000000E+00  0.14418502730E+04  0.14418502730E+04  0.25500000920E-02 0. -1.
        2   -1    0    0  501    0  0.00000000000E+00  0.00000000000E+00 -0.13189342419E+04  0.13189342419E+04  0.25500000920E-02 0.  1.
    10030    2    1    2    0    0  0.00000000000E+00  0.00000000000E+00  0.12291603105E+03  0.27607845149E+04  0.27580469153E+04 0.  0.
        5    1    3    3  502    0  0.13797847816E+03  0.13664520319E+04 -0.62981069149E+02  0.13748519633E+04  0.46999998093E+01 0.  1.
       -5    1    3    3    0  502 -0.13797847816E+03 -0.13664520319E+04  0.18589710020E+03  0.13859325516E+04  0.46999998093E+01 0. -1.
</event>
<event>
 5   0  0.1474012E-05  0.2044903E+04  0.7818609E-02  0.8585910E-01
       -1   -1    0    0    0  501  0.00000000000E+00  0.00000000000E+00  0.12955526311E+04  0.12955526311E+04  0.50400001928E-02 0.  1.
        1   -1    0    0  501    0  0.00000000000E+00  0.00000000000E+00 -0.80691998794E+03  0.80691998795E+03  0.50400001928E-02 0. -1.
    10030    2    1    2    0    0  0.00000000000E+00  0.00000000000E+00  0.48863264320E+03  0.21024726191E+04  0.20449032383E+04 0.  0.
        2    1    3    3  502    0 -0.84612933136E+00 -0.10224162690E+04  0.23561821697E+03  0.10492147955E+04  0.25500000920E-02 0. -1.
       -2    1    3    3    0  502  0.84612933136E+00  0.10224162690E+04  0.25301442623E+03  0.10532578236E+04  0.25500000920E-02 0.  1.
</event>
<event>
 5   0  0.1449521E-05  0.1905965E+04  0.7818609E-02  0.8651893E-01
        1   -1    0    0  501    0  0.00000000000E+00  0.00000000000E+00  0.17203358459E+04  0.17203358459E+04  0.50400001928E-02 0.  1.
       -1   -1    0    0    0  501  0.00000000000E+00  0.00000000000E+00 -0.52790581398E+03  0.52790581400E+03  0.50400001928E-02 0. -1.
    10030    2    1    2    0    0  0.00000000000E+00  0.00000000000E+00  0.11924300319E+04  0.22482416599E+04  0.19059646325E+04 0.  0.
        3    1    3    3  502    0  0.52284862534E+03 -0.76028712255E+03  0.87726288650E+03  0.12731839521E+04  0.10100000352E+00 0.  1.
       -3    1    3    3    0  502 -0.52284862534E+03  0.76028712255E+03  0.31516714542E+03  0.97505770778E+03  0.10100000352E+00 0. -1.
</event>
<event>
 5   0  0.1495517E-05  0.2680298E+04  0.7818609E-02  0.8341426E-01
        1   -1    0    0  501    0  0.00000000000E+00  0.00000000000E+00  0.10123193393E+04  0.10123193394E+04  0.50400001928E-02 0.  1.
       -1   -1    0    0    0  501  0.00000000000E+00  0.00000000000E+00 -0.17741428602E+04  0.17741428602E+04  0.50400001928E-02 0. -1.
    10030    2    1    2    0    0  0.00000000000E+00  0.00000000000E+00 -0.76182352089E+03  0.27864621996E+04  0.26802978403E+04 0.  0.
        5    1    3    3  502    0 -0.38491366066E+03 -0.88151946048E+03 -0.13510080293E+04  0.16584570753E+04  0.46999998093E+01 0. -1.
       -5    1    3    3    0  502  0.38491366066E+03  0.88151946048E+03  0.58918450845E+03  0.11280051243E+04  0.46999998093E+01 0.  1.
</event>
<event>
 5   0  0.3514294E-05  0.2663340E+04  0.7818609E-02  0.8346999E-01
       -2   -1    0    0    0  501  0.00000000000E+00  0.00000000000E+00  0.11524523987E+04  0.11524523987E+04  0.25500000920E-02 0. -1.
        2   -1    0    0  501    0  0.00000000000E+00  0.00000000000E+00 -0.15387575224E+04  0.15387575224E+04  0.25500000920E-02 0.  1.
    10030    2    1    2    0    0  0.00000000000E+00  0.00000000000E+00 -0.38630512377E+03  0.26912099211E+04  0.26633398564E+04 0.  0.
        2    1    3    3  502    0 -0.75342451183E+03 -0.12742052046E+03 -0.12951890270E+04  0.15037948995E+04  0.25500000920E-02 0.  1.
       -2    1    3    3    0  502  0.75342451183E+03  0.12742052046E+03  0.90888390323E+03  0.11874150216E+04  0.25500000920E-02 0. -1.
</event>
<event>
 5   0  0.3652331E-05  0.2570134E+04  0.7818609E-02  0.8378417E-01
       -2   -1    0    0    0  501  0.00000000000E+00  0.00000000000E+00  0.90372064286E+03  0.90372064286E+03  0.25500000920E-02 0. -1.
        2   -1    0    0  501    0  0.00000000000E+00  0.00000000000E+00 -0.18273318913E+04  0.18273318913E+04  0.25500000920E-02 0.  1.
    10030    2    1    2    0    0  0.00000000000E+00  0.00000000000E+00 -0.92361124840E+03  0.27310525341E+04  0.25701342778E+04 0.  0.
        1    1    3    3  502    0 -0.11104915730E+04  0.64319942555E+03 -0.53309181873E+03  0.13896344562E+04  0.50400001928E-02 0.  1.
       -1    1    3    3    0  502  0.11104915730E+04 -0.64319942555E+03 -0.39051942967E+03  0.13414180779E+04  0.50400001928E-02 0. -1.
</event>
<event>
 5   0  0.1484379E-05  0.2684081E+04  0.7818609E-02  0.8340189E-01
        1   -1    0    0  501    0  0.00000000000E+00  0.00000000000E+00  0.11947248634E+04  0.11947248634E+04  0.50400001928E-02 0.  1.
       -1   -1    0    0    0  501  0.00000000000E+00  0.00000000000E+00 -0.15075205106E+04  0.15075205106E+04  0.50400001928E-02 0. -1.
    10030    2    1    2    0    0  0.00000000000E+00  0.00000000000E+00 -0.31279564714E+03  0.27022453740E+04  0.26840806516E+04 0.  0.
        1    1    3    3  502    0 -0.40525249336E+03 -0.31685209565E+03  0.10915259817E+04  0.12066705444E+04  0.50400001928E-02 0.  1.
       -1    1    3    3    0  502  0.40525249336E+03  0.31685209565E+03 -0.14043216288E+04  0.14955748297E+04  0.50400001928E-02 0. -1.
</event>
<event>
 5   0  0.1449521E-05  0.1958684E+04  0.7818609E-02  0.8626185E-01
        1   -1    0    0  501    0  0.00000000000E+00  0.00000000000E+00  0.82342131072E+03  0.82342131074E+03  0.50400001928E-02 0. -1.
       -1   -1    0    0    0  501  0.00000000000E+00  0.00000000000E+00 -0.11647871112E+04  0.11647871112E+04  0.50400001928E-02 0.  1.
    10030    2    1    2    0    0  0.00000000000E+00  0.00000000000E+00 -0.34136580052E+03  0.19882084220E+04  0.19586837722E+04 0.  0.
        3    1    3    3  502    0 -0.44680930483E+03 -0.64233519779E+03 -0.76852380045E+03  0.10967506112E+04  0.10100000352E+00 0.  1.
       -3    1    3    3    0  502  0.44680930483E+03  0.64233519779E+03  0.42715799994E+03  0.89145781074E+03  0.10100000352E+00 0. -1.
</event>
<event>
 5   0  0.1449521E-05  0.2086618E+04  0.7818609E-02  0.8567161E-01
        1   -1    0    0  501    0  0.00000000000E+00  0.00000000000E+00  0.13085937795E+04  0.13085937795E+04  0.50400001928E-02 0.  1.
       -1   -1    0    0    0  501  0.00000000000E+00  0.00000000000E+00 -0.83180374305E+03  0.83180374307E+03  0.50400001928E-02 0. -1.
    10030    2    1    2    0    0  0.00000000000E+00  0.00000000000E+00  0.47679003647E+03  0.21403975226E+04  0.20866175538E+04 0.  0.
        3    1    3    3  502    0 -0.55747946912E+03 -0.45924354786E+03  0.10106638291E+04  0.12422275880E+04  0.10100000352E+00 0.  1.
       -3    1    3    3    0  502  0.55747946912E+03  0.45924354786E+03 -0.53387379263E+03  0.89816993459E+03  0.10100000352E+00 0. -1.
</event>
<event>
 5   0  0.1474012E-05  0.2714681E+04  0.7818609E-02  0.8330257E-01
        1   -1    0    0  501    0  0.00000000000E+00  0.00000000000E+00  0.25684221865E+04  0.25684221865E+04  0.50400001928E-02 0. -1.
       -1   -1    0    0    0  501  0.00000000000E+00  0.00000000000E+00 -0.71731701330E+03  0.71731701331E+03  0.50400001928E-02 0.  1.
    10030    2    1    2    0    0  0.00000000000E+00  0.00000000000E+00  0.18511051732E+04  0.32857391999E+04  0.27146807781E+04 0.  0.
        2    1    3    3  502    0 -0.96634152724E+02  0.92132483921E+03 -0.27520397197E+03  0.96639269710E+03  0.25500000920E-02 0.  1.
       -2    1    3    3    0  502  0.96634152724E+02 -0.92132483921E+03  0.21263091452E+04  0.23193465028E+04  0.25500000920E-02 0. -1.
</event>
<event>
 5   0  0.3652331E-05  0.2701374E+04  0.7818609E-02  0.8334559E-01
        2   -1    0    0  501    0  0.00000000000E+00  0.00000000000E+00  0.25406030162E+04  0.25406030162E+04  0.25500000920E-02 0.  1.
       -2   -1    0    0    0  501  0.00000000000E+00  0.00000000000E+00 -0.71807965064E+03  0.71807965065E+03  0.25500000920E-02 0. -1.
    10030    2    1    2    0    0  0.00000000000E+00  0.00000000000E+00  0.18225233655E+04  0.32586826668E+04  0.27013739662E+04 0.  0.
        1    1    3    3  502    0 -0.97647648088E+03 -0.83659480148E+03  0.41248945785E+03  0.13503868825E+04  0.50400001928E-02 0. -1.
       -1    1    3    3    0  502  0.97647648088E+03  0.83659480148E+03  0.14100339077E+04  0.19082957843E+04  0.50400001928E-02 0.  1.
</event>
<event>
 5   0  0.3568647E-05  0.2678593E+04  0.7818609E-02  0.8341984E-01
        2   -1    0    0  501    0  0.00000000000E+00  0.00000000000E+00  0.20031011596E+04  0.20031011596E+04  0.25500000920E-02 0. -1.
       -2   -1    0    0    0  501  0.00000000000E+00  0.00000000000E+00 -0.89546920087E+03  0.89546920088E+03  0.25500000920E-02 0.  1.
    10030    2    1    2    0    0  0.00000000000E+00  0.00000000000E+00  0.11076319588E+04  0.28985703605E+04  0.26785932089E+04 0.  0.
        3    1    3    3  502    0 -0.25062876106E+03 -0.64964058529E+01  0.19774811301E+04  0.19933109666E+04  0.10100000352E+00 0. -1.
       -3    1    3    3    0  502  0.25062876106E+03  0.64964058529E+01 -0.86984917139E+03  0.90525939394E+03  0.10100000352E+00 0.  1.
</event>
<event>
 5   0  0.1449521E-05  0.2801759E+04  0.7818609E-02  0.8302723E-01
        1   -1    0    0  501    0  0.00000000000E+00  0.00000000000E+00  0.23643909068E+04  0.23643909068E+04  0.50400001928E-02 0.  1.
       -1   -1    0    0    0  501  0.00000000000E+00  0.00000000000E+00 -0.83000790997E+03  0.83000790999E+03  0.50400001928E-02 0. -1.
    10030    2    1    2    0    0  0.00000000000E+00  0.00000000000E+00  0.15343829968E+04  0.31943988168E+04  0.28017588440E+04 0.  0.
        3    1    3    3  502    0 -0.58831051612E+03  0.56790483659E+03 -0.52968414016E+03  0.97426406345E+03  0.10100000352E+00 0. -1.
       -3    1    3    3    0  502  0.58831051612E+03 -0.56790483659E+03  0.20640671370E+04  0.22201347533E+04  0.10100000352E+00 0.  1.
</event>
<event>
 5   0  0.3676724E-05  0.2735670E+04  0.7818609E-02  0.8323523E-01
        2   -1    0    0  501    0  0.00000000000E+00  0.00000000000E+00  0.14846210473E+04  0.14846210473E+04  0.25500000920E-02 0. -1.
       -2   -1    0    0    0  501  0.00000000000E+00  0.00000000000E+00 -0.12602354766E+04  0.12602354766E+04  0.25500000920E-02 0.  1.
    10030    2    1    2    0    0  0.00000000000E+00  0.00000000000E+00  0.22438557063E+03  0.27448565239E+04  0.27356696534E+04 0.  0.
        4    1    3    3  502    0  0.28951969047E+03 -0.66228983204E+03 -0.10529653101E+04  0.12771793257E+04  0.12699999809E+01 0.  1.
       -4    1    3    3    0  502 -0.28951969047E+03  0.66228983204E+03  0.12773508807E+04  0.14676771982E+04  0.12699999809E+01 0. -1.
</event>
<event>
 5   0  0.1449521E-05  0.2765073E+04  0.7818609E-02  0.8314195E-01
        1   -1    0    0  501    0  0.00000000000E+00  0.00000000000E+00  0.24463632216E+04  0.24463632216E+04  0.50400001928E-02 0.  1.
       -1   -1    0    0    0  501  0.00000000000E+00  0.00000000000E+00 -0.78132582236E+03  0.78132582237E+03  0.50400001928E-02 0. -1.
    10030    2    1    2    0    0  0.00000000000E+00  0.00000000000E+00  0.16650373992E+04  0.32276890439E+04  0.27650726977E+04 0.  0.
        3    1    3    3  502    0 -0.13049578305E+04 -0.22835817583E+03  0.12940766431E+04  0.18519440500E+04  0.10100000352E+00 0.  1.
       -3    1    3    3    0  502  0.13049578305E+04  0.22835817583E+03  0.37096075610E+03  0.13757449940E+04  0.10100000352E+00 0. -1.
</event>
<event>
 5   0  0.1449521E-05  0.1870425E+04  0.7818609E-02  0.8669719E-01
       -1   -1    0    0    0  501  0.00000000000E+00  0.00000000000E+00  0.12151714419E+04  0.12151714419E+04  0.50400001928E-02 0. -1.
        1   -1    0    0  501    0  0.00000000000E+00  0.00000000000E+00 -0.71975260296E+03  0.71975260298E+03  0.50400001928E-02 0.  1.
    10030    2    1    2    0    0  0.00000000000E+00  0.00000000000E+00  0.49541883893E+03  0.19349240449E+04  0.18704254151E+04 0.  0.
        3    1    3    3  502    0 -0.10552651725E+03  0.70734753605E+03  0.87110598809E+03  0.11270767655E+04  0.10100000352E+00 0. -1.
       -3    1    3    3    0  502  0.10552651725E+03 -0.70734753605E+03 -0.37568714916E+03  0.80784727940E+03  0.10100000352E+00 0.  1.
</event>
<event>
 5   0  0.3568647E-05  0.2785296E+04  0.7818609E-02  0.8307848E-01
        2   -1    0    0  501    0  0.00000000000E+00  0.00000000000E+00  0.26875375455E+04  0.26875375455E+04  0.25500000920E-02 0.  1.
       -2   -1    0    0    0  501  0.00000000000E+00  0.00000000000E+00 -0.72165243221E+03  0.72165243222E+03  0.25500000920E-02 0. -1.
    10030    2    1    2    0    0  0.00000000000E+00  0.00000000000E+00  0.19658851133E+04  0.34091899777E+04  0.27852956801E+04 0.  0.
        3    1    3    3  502    0  0.93401601994E+03  0.65001888906E+03  0.26568306927E+00  0.11379413704E+04  0.10100000352E+00 0. -1.
       -3    1    3    3    0  502 -0.93401601994E+03 -0.65001888906E+03  0.19656194302E+04  0.22712486073E+04  0.10100000352E+00 0.  1.
</event>
<event>
 5   0  0.1438701E-05  0.2784397E+04  0.7818609E-02  0.8308129E-01
       -1   -1    0    0    0  501  0.00000000000E+00  0.00000000000E+00  0.13199323447E+04  0.13199323448E+04  0.50400001928E-02 0. -1.
        1   -1    0    0  501    0  0.00000000000E+00  0.00000000000E+00 -0.14684216778E+04  0.14684216778E+04  0.50400001928E-02 0.  1.
    10030    2    1    2    0    0  0.00000000000E+00  0.00000000000E+00 -0.14848933304E+03  0.27883540226E+04  0.27843974345E+04 0.  0.
        4    1    3    3  502    0  0.49973448046E+03  0.45902609615E+03 -0.12916102353E+04  0.14590058673E+04  0.12699999809E+01 0.  1.
       -4    1    3    3    0  502 -0.49973448046E+03 -0.45902609615E+03  0.11431209022E+04  0.13293481553E+04  0.12699999809E+01 0. -1.
</event>
<event>
 5   0  0.1449521E-05  0.2699381E+04  0.7818609E-02  0.8335206E-01
        1   -1    0    0  501    0  0.00000000000E+00  0.00000000000E+00  0.12177615359E+04  0.12177615360E+04  0.50400001928E-02 0. -1.
       -1   -1    0    0    0  501  0.00000000000E+00  0.00000000000E+00 -0.14959124802E+04  0.14959124803E+04  0.50400001928E-02 0.  1.
    10030    2    1    2    0    0  0.00000000000E+00  0.00000000000E+00 -0.27815094431E+03  0.27136740162E+04  0.26993811732E+04 0.  0.
        3    1    3    3  502    0 -0.49433414837E+03  0.87117446406E+03  0.77034332465E+03  0.12636217967E+04  0.10100000352E+00 0. -1.
       -3    1    3    3    0  502  0.49433414837E+03 -0.87117446406E+03 -0.10484942690E+04  0.14500522195E+04  0.10100000352E+00 0.  1.
</event>
<event>
 5   0  0.3514294E-05  0.2744973E+04  0.7818609E-02  0.8320559E-01
       -2   -1    0    0    0  501  0.00000000000E+00  0.00000000000E+00  0.11974186641E+04  0.11974186641E+04  0.25500000920E-02 0. -1.
        2   -1    0    0  501    0  0.00000000000E+00  0.00000000000E+00 -0.15731496190E+04  0.15731496190E+04  0.25500000920E-02 0.  1.
    10030    2    1    2    0    0  0.00000000000E+00  0.00000000000E+00 -0.37573095483E+03  0.27705682831E+04  0.27449726521E+04 0.  0.
        2    1    3    3  502    0 -0.57032324483E+03 -0.45351342413E+03 -0.13617996115E+04  0.15444873620E+04  0.25500000920E-02 0.  1.
       -2    1    3    3    0  502  0.57032324483E+03  0.45351342413E+03  0.98606865666E+03  0.12260809211E+04  0.25500000920E-02 0. -1.
</event>
<event>
 5   0  0.1438701E-05  0.2552401E+04  0.7818609E-02  0.8384552E-01
       -1   -1    0    0    0  501  0.00000000000E+00  0.00000000000E+00  0.12531964921E+04  0.12531964921E+04  0.50400001928E-02 0.  1.
        1   -1    0    0  501    0  0.00000000000E+00  0.00000000000E+00 -0.12996268883E+04  0.12996268883E+04  0.50400001928E-02 0. -1.
    10030    2    1    2    0    0  0.00000000000E+00  0.00000000000E+00 -0.46430396219E+02  0.25528233805E+04  0.25524011108E+04 0.  0.
        4    1    3    3  502    0 -0.10370444999E+02 -0.11879349271E+04  0.44311220113E+03  0.12679301924E+04  0.12699999809E+01 0.  1.
       -4    1    3    3    0  502  0.10370444999E+02  0.11879349271E+04 -0.48954259735E+03  0.12848931880E+04  0.12699999809E+01 0. -1.
</event>
<event>
 5   0  0.3652331E-05  0.2729762E+04  0.7818609E-02  0.8325412E-01
       -2   -1    0    0    0  501  0.00000000000E+00  0.00000000000E+00  0.11541354257E+04  0.11541354257E+04  0.25500000920E-02 0. -1.
        2   -1    0    0  501    0  0.00000000000E+00  0.00000000000E+00 -0.16141086417E+04  0.16141086417E+04  0.25500000920E-02 0.  1.
    10030    2    1    2    0    0  0.00000000000E+00  0.00000000000E+00 -0.45997321592E+03  0.27682440674E+04  0.27297618683E+04 0.  0.
        1    1    3    3  502    0 -0.87982591115E+03  0.54067835275E+03 -0.11350212687E+04  0.15345031754E+04  0.50400001928E-02 0.  1.
       -1    1    3    3    0  502  0.87982591115E+03 -0.54067835275E+03  0.67504805274E+03  0.12337408920E+04  0.50400001928E-02 0. -1.
</event>
<event>
 5   0  0.1474012E-05  0.2788066E+04  0.7818609E-02  0.8306983E-01
        1   -1    0    0  501    0  0.00000000000E+00  0.00000000000E+00  0.17492322319E+04  0.17492322319E+04  0.50400001928E-02 0.  1.
       -1   -1    0    0    0  501  0.00000000000E+00  0.00000000000E+00 -0.11109609436E+04  0.11109609436E+04  0.50400001928E-02 0. -1.
    10030    2    1    2    0    0  0.00000000000E+00  0.00000000000E+00  0.63827128834E+03  0.28601931755E+04  0.27880664919E+04 0.  0.
        2    1    3    3  502    0 -0.64286407111E+03 -0.12185533475E+04  0.53719564229E+03  0.14787581387E+04  0.25500000920E-02 0.  1.
       -2    1    3    3    0  502  0.64286407111E+03  0.12185533475E+04  0.10107564605E+03  0.13814350368E+04  0.25500000920E-02 0. -1.
</event>
<event>
 5   0  0.1438701E-05  0.2322439E+04  0.7818609E-02  0.8469126E-01
        1   -1    0    0  501    0  0.00000000000E+00  0.00000000000E+00  0.13549840811E+04  0.13549840811E+04  0.50400001928E-02 0.  1.
       -1   -1    0    0    0  501  0.00000000000E+00  0.00000000000E+00 -0.99516387870E+03  0.99516387872E+03  0.50400001928E-02 0. -1.
    10030    2    1    2    0    0  0.00000000000E+00  0.00000000000E+00  0.35982020238E+03  0.23501479598E+04  0.23224394190E+04 0.  0.
        4    1    3    3  502    0 -0.65820472537E+03 -0.36842269495E+03  0.10733142537E+04  0.13118589264E+04  0.12699999809E+01 0.  1.
       -4    1    3    3    0  502  0.65820472537E+03  0.36842269495E+03 -0.71349405135E+03  0.10382890334E+04  0.12699999809E+01 0. -1.
</event>
<event>
 5   0  0.3568647E-05  0.1378906E+04  0.7818609E-02  0.8969231E-01
       -2   -1    0    0    0  501  0.00000000000E+00  0.00000000000E+00  0.17903434187E+03  0.17903434189E+03  0.25500000920E-02 0. -1.
        2   -1    0    0  501    0  0.00000000000E+00  0.00000000000E+00 -0.26550502288E+04  0.26550502288E+04  0.25500000920E-02 0.  1.
    10030    2    1    2    0    0  0.00000000000E+00  0.00000000000E+00 -0.24760158870E+04  0.28340845707E+04  0.13789056101E+04 0.  0.
        3    1    3    3  502    0 -0.25125850767E+03 -0.93812634900E+02  0.67421751277E+02  0.27654538667E+03  0.10100000352E+00 0. -1.
       -3    1    3    3    0  502  0.25125850767E+03  0.93812634900E+02 -0.25434376382E+04  0.25575391840E+04  0.10100000352E+00 0.  1.
</event>
<event>
 5   0  0.1449521E-05  0.2051667E+04  0.7818609E-02  0.8582839E-01
        1   -1    0    0  501    0  0.00000000000E+00  0.00000000000E+00  0.11719307800E+04  0.11719307800E+04  0.50400001928E-02 0. -1.
       -1   -1    0    0    0  501  0.00000000000E+00  0.00000000000E+00 -0.89794907228E+03  0.89794907229E+03  0.50400001928E-02 0.  1.
    10030    2    1    2    0    0  0.00000000000E+00  0.00000000000E+00  0.27398170773E+03  0.20698798523E+04  0.20516667924E+04 0.  0.
        3    1    3    3  502    0 -0.84282983253E+02  0.13380847793E+03 -0.88557764339E+03  0.89958662879E+03  0.10100000352E+00 0.  1.
       -3    1    3    3    0  502  0.84282983253E+02 -0.13380847793E+03  0.11595593511E+04  0.11702932235E+04  0.10100000352E+00 0. -1.
</event>
<event>
 5   0  0.3514294E-05  0.2719872E+04  0.7818609E-02  0.8328586E-01
        2   -1    0    0  501    0  0.00000000000E+00  0.00000000000E+00  0.72694115623E+03  0.72694115624E+03  0.25500000920E-02 0. -1.
       -2   -1    0    0    0  501  0.00000000000E+00  0.00000000000E+00 -0.25441212937E+04  0.25441212937E+04  0.25500000920E-02 0.  1.
    10030    2    1    2    0    0  0.00000000000E+00  0.00000000000E+00 -0.18171801375E+04  0.32710624500E+04  0.27198724050E+04 0.  0.
        2    1    3    3  502    0  0.10321805427E+03 -0.11719829344E+04 -0.88288645210E+02  0.11798274662E+04  0.25500000920E-02 0.  1.
       -2    1    3    3    0  502 -0.10321805427E+03  0.11719829344E+04 -0.17288914923E+04  0.20912349837E+04  0.25500000920E-02 0. -1.
</event>
<event>
 5   0  0.3568647E-05  0.2528180E+04  0.7818609E-02  0.8393014E-01
        2   -1    0    0  501    0  0.00000000000E+00  0.00000000000E+00  0.15903264500E+04  0.15903264500E+04  0.25500000920E-02 0.  1.
       -2   -1    0    0    0  501  0.00000000000E+00  0.00000000000E+00 -0.10047772878E+04  0.10047772878E+04  0.25500000920E-02 0. -1.
    10030    2    1    2    0    0  0.00000000000E+00  0.00000000000E+00  0.58554916217E+03  0.25951037378E+04  0.25281802919E+04 0.  0.
        3    1    3    3  502    0 -0.64748703354E+03  0.10720135046E+04  0.46899150363E+03  0.13373127732E+04  0.10100000352E+00 0.  1.
       -3    1    3    3    0  502  0.64748703354E+03 -0.10720135046E+04  0.11655765854E+03  0.12577909646E+04  0.10100000352E+00 0. -1.
</event>
<event>
 5   0  0.3514294E-05  0.2687373E+04  0.7818609E-02  0.8339114E-01
        2   -1    0    0  501    0  0.00000000000E+00  0.00000000000E+00  0.20968470049E+04  0.20968470049E+04  0.25500000920E-02 0.  1.
       -2   -1    0    0    0  501  0.00000000000E+00  0.00000000000E+00 -0.86105129436E+03  0.86105129436E+03  0.25500000920E-02 0. -1.
    10030    2    1    2    0    0  0.00000000000E+00  0.00000000000E+00  0.12357957106E+04  0.29578982993E+04  0.26873725664E+04 0.  0.
        2    1    3    3  502    0 -0.47691266774E+03 -0.72052933851E+03 -0.51471027760E+03  0.10057509086E+04  0.25500000920E-02 0. -1.
       -2    1    3    3    0  502  0.47691266774E+03  0.72052933851E+03  0.17505059882E+04  0.19521473907E+04  0.25500000920E-02 0.  1.
</event>
<event>
 5   0  0.3514294E-05  0.2661090E+04  0.7818609E-02  0.8347741E-01
        2   -1    0    0  501    0  0.00000000000E+00  0.00000000000E+00  0.11125111479E+04  0.11125111479E+04  0.25500000920E-02 0.  1.
       -2   -1    0    0    0  501  0.00000000000E+00  0.00000000000E+00 -0.15913097223E+04  0.15913097223E+04  0.25500000920E-02 0. -1.
    10030    2    1    2    0    0  0.00000000000E+00  0.00000000000E+00 -0.47879857440E+03  0.27038208702E+04  0.26610898563E+04 0.  0.
        2    1    3    3  502    0  0.11285798912E+04  0.56186215974E+03  0.19283523219E+03  0.12753693913E+04  0.25500000920E-02 0.  1.
       -2    1    3    3    0  502 -0.11285798912E+04 -0.56186215974E+03 -0.67163380659E+03  0.14284514789E+04  0.25500000920E-02 0. -1.
</event>
<event>
 5   0  0.1495517E-05  0.2703403E+04  0.7818609E-02  0.8333902E-01
        1   -1    0    0  501    0  0.00000000000E+00  0.00000000000E+00  0.67361857766E+03  0.67361857767E+03  0.50400001928E-02 0.  1.
       -1   -1    0    0    0  501  0.00000000000E+00  0.00000000000E+00 -0.27123607010E+04  0.27123607010E+04  0.50400001928E-02 0. -1.
    10030    2    1    2    0    0  0.00000000000E+00  0.00000000000E+00 -0.20387421234E+04  0.33859792787E+04  0.27034027133E+04 0.  0.
        5    1    3    3  502    0 -0.21468159890E+03 -0.89412817018E+03 -0.22602327315E+04  0.24401285753E+04  0.46999998093E+01 0. -1.
       -5    1    3    3    0  502  0.21468159890E+03  0.89412817018E+03  0.22149060811E+03  0.94585070339E+03  0.46999998093E+01 0.  1.
</event>
<event>
 5   0  0.1438701E-05  0.2561395E+04  0.7818609E-02  0.8381434E-01
       -1   -1    0    0    0  501  0.00000000000E+00  0.00000000000E+00  0.13934593217E+04  0.13934593217E+04  0.50400001928E-02 0.  1.
        1   -1    0    0  501    0  0.00000000000E+00  0.00000000000E+00 -0.11770608403E+04  0.11770608403E+04  0.50400001928E-02 0. -1.
    10030    2    1    2    0    0  0.00000000000E+00  0.00000000000E+00  0.21639848147E+03  0.25705201620E+04  0.25613952449E+04 0.  0.
        4    1    3    3  502    0  0.52235567984E+03  0.11620209968E+03  0.12758847897E+04  0.13835613444E+04  0.12699999809E+01 0.  1.
       -4    1    3    3    0  502 -0.52235567984E+03 -0.11620209968E+03 -0.10594863083E+04  0.11869588175E+04  0.12699999809E+01 0. -1.
</event>
<event>
 5   0  0.3514294E-05  0.2649748E+04  0.7818609E-02  0.8351496E-01
        2   -1    0    0  501    0  0.00000000000E+00  0.00000000000E+00  0.17605369852E+04  0.17605369852E+04  0.25500000920E-02 0.  1.
       -2   -1    0    0    0  501  0.00000000000E+00  0.00000000000E+00 -0.99702066838E+03  0.99702066839E+03  0.25500000920E-02 0. -1.
    10030    2    1    2    0    0  0.00000000000E+00  0.00000000000E+00  0.76351631684E+03  0.27575576536E+04  0.26497484875E+04 0.  0.
        2    1    3    3  502    0 -0.11313788017E+04 -0.66684957989E+03  0.56376054239E+03  0.14291718946E+04  0.25500000920E-02 0.  1.
       -2    1    3    3    0  502  0.11313788017E+04  0.66684957989E+03  0.19975577445E+03  0.13283857590E+04  0.25500000920E-02 0. -1.
</event>
<event>
 5   0  0.3514294E-05  0.2829871E+04  0.7818609E-02  0.8294054E-01
        2   -1    0    0  501    0  0.00000000000E+00  0.00000000000E+00  0.19810705663E+04  0.19810705663E+04  0.25500000920E-02 0. -1.
       -2   -1    0    0    0  501  0.00000000000E+00  0.00000000000E+00 -0.10105859756E+04  0.10105859756E+04  0.25500000920E-02 0.  1.
    10030    2    1    2    0    0  0.00000000000E+00  0.00000000000E+00  0.97048459062E+03  0.29916565419E+04  0.28298707610E+04 0.  0.
        2    1    3    3  502    0 -0.36935922280E+03 -0.10755549627E+04 -0.40479087836E+03  0.12071041250E+04  0.25500000920E-02 0.  1.
       -2    1    3    3    0  502  0.36935922280E+03  0.10755549627E+04  0.13752754690E+04  0.17845524170E+04  0.25500000920E-02 0. -1.
</event>
<event>
 5   0  0.1228050E-05  0.2512514E+04  0.7818609E-02  0.8398541E-01
        3   -1    0    0  501    0  0.00000000000E+00  0.00000000000E+00  0.16704948625E+04  0.16704948656E+04  0.10100000352E+00 0. -1.
       -3   -1    0    0    0  501  0.00000000000E+00  0.00000000000E+00 -0.94473876789E+03  0.94473877329E+03  0.10100000352E+00 0.  1.
    10030    2    1    2    0    0  0.00000000000E+00  0.00000000000E+00  0.72575609464E+03  0.26152336389E+04  0.25125136969E+04 0.  0.
        3    1    3    3  502    0 -0.58698458181E+03  0.28647037770E+03  0.14798603692E+04  0.16175916973E+04  0.10100000352E+00 0. -1.
       -3    1    3    3    0  502  0.58698458181E+03 -0.28647037770E+03 -0.75410427454E+03  0.99764194161E+03  0.10100000352E+00 0.  1.
</event>
<event>
 5   0  0.3568647E-05  0.2724155E+04  0.7818609E-02  0.8327210E-01
        2   -1    0    0  501    0  0.00000000000E+00  0.00000000000E+00  0.15115812985E+04  0.15115812985E+04  0.25500000920E-02 0.  1.
       -2   -1    0    0    0  501  0.00000000000E+00  0.00000000000E+00 -0.12273607595E+04  0.12273607595E+04  0.25500000920E-02 0. -1.
    10030    2    1    2    0    0  0.00000000000E+00  0.00000000000E+00  0.28422053900E+03  0.27389420581E+04  0.27241553338E+04 0.  0.
        3    1    3    3  502    0  0.51200534103E+03 -0.11476588178E+04  0.67030489200E+03  0.14242818856E+04  0.10100000352E+00 0.  1.
       -3    1    3    3    0  502 -0.51200534103E+03  0.11476588178E+04 -0.38608435301E+03  0.13146601725E+04  0.10100000352E+00 0. -1.
</event>
<event>
 5   0  0.1474012E-05  0.2643040E+04  0.7818609E-02  0.8353727E-01
       -1   -1    0    0    0  501  0.00000000000E+00  0.00000000000E+00  0.18086143799E+04  0.18086143799E+04  0.50400001928E-02 0. -1.
        1   -1    0    0  501    0  0.00000000000E+00  0.00000000000E+00 -0.96560946134E+03  0.96560946136E+03  0.50400001928E-02 0.  1.
    10030    2    1    2    0    0  0.00000000000E+00  0.00000000000E+00  0.84300491855E+03  0.27742238413E+04  0.26430400354E+04 0.  0.
        2    1    3    3  502    0 -0.12764733160E+04  0.34199156010E+03  0.43045845986E+03  0.13898333854E+04  0.25500000920E-02 0.  1.
       -2    1    3    3    0  502  0.12764733160E+04 -0.34199156010E+03  0.41254645869E+03  0.13843904558E+04  0.25500000920E-02 0. -1.
</event>
<event>
 5   0  0.1484379E-05  0.2723444E+04  0.7818609E-02  0.8327438E-01
       -1   -1    0    0    0  501  0.00000000000E+00  0.00000000000E+00  0.12676492347E+04  0.12676492347E+04  0.50400001928E-02 0.  1.
        1   -1    0    0  501    0  0.00000000000E+00  0.00000000000E+00 -0.14627763160E+04  0.14627763160E+04  0.50400001928E-02 0. -1.
    10030    2    1    2    0    0  0.00000000000E+00  0.00000000000E+00 -0.19512708130E+03  0.27304255507E+04  0.27234443468E+04 0.  0.
        1    1    3    3  502    0 -0.88983874009E+03 -0.99310219631E+03  0.17922806898E+03  0.13454321449E+04  0.50400001928E-02 0.  1.
       -1    1    3    3    0  502  0.88983874009E+03  0.99310219631E+03 -0.37435515027E+03  0.13849934058E+04  0.50400001928E-02 0. -1.
</event>
<event>
 5   0  0.3514294E-05  0.2717343E+04  0.7818609E-02  0.8329400E-01
        2   -1    0    0  501    0  0.00000000000E+00  0.00000000000E+00  0.19014052741E+04  0.19014052741E+04  0.25500000920E-02 0. -1.
       -2   -1    0    0    0  501  0.00000000000E+00  0.00000000000E+00 -0.97085449647E+03  0.97085449647E+03  0.25500000920E-02 0.  1.
    10030    2    1    2    0    0  0.00000000000E+00  0.00000000000E+00  0.93055077760E+03  0.28722597705E+04  0.27173427167E+04 0.  0.
        2    1    3    3  502    0  0.31236966712E+03  0.22784761722E+03  0.18420284199E+04  0.18821684424E+04  0.25500000920E-02 0. -1.
       -2    1    3    3    0  502 -0.31236966712E+03 -0.22784761722E+03 -0.91147764234E+03  0.99009132816E+03  0.25500000920E-02 0.  1.
</event>
<event>
 5   0  0.3497949E-05  0.2718207E+04  0.7818609E-02  0.8329121E-01
        2   -1    0    0  501    0  0.00000000000E+00  0.00000000000E+00  0.14172735756E+04  0.14172735756E+04  0.25500000920E-02 0.  1.
       -2   -1    0    0    0  501  0.00000000000E+00  0.00000000000E+00 -0.13033213410E+04  0.13033213410E+04  0.25500000920E-02 0. -1.
    10030    2    1    2    0    0  0.00000000000E+00  0.00000000000E+00  0.11395223464E+03  0.27205949166E+04  0.27182074219E+04 0.  0.
        5    1    3    3  502    0  0.64062574931E+03 -0.65694721211E+03  0.10604333037E+04  0.14023273055E+04  0.46999998093E+01 0.  1.
       -5    1    3    3    0  502 -0.64062574931E+03  0.65694721211E+03 -0.94648106910E+03  0.13182676110E+04  0.46999998093E+01 0. -1.
</event>
<event>
 5   0  0.1228050E-05  0.2711437E+04  0.7818609E-02  0.8331304E-01
       -4   -1    0    0    0  501  0.00000000000E+00  0.00000000000E+00  0.12147876552E+04  0.12147883190E+04  0.12699999809E+01 0. -1.
        4   -1    0    0  501    0  0.00000000000E+00  0.00000000000E+00 -0.15129978950E+04  0.15129984280E+04  0.12699999809E+01 0.  1.
    10030    2    1    2    0    0  0.00000000000E+00  0.00000000000E+00 -0.29821023986E+03  0.27277867471E+04  0.27114371079E+04 0.  0.
        5    1    3    3  502    0  0.62099115497E+03 -0.21968695214E+03  0.10429695389E+04  0.12335720167E+04  0.46999998093E+01 0. -1.
       -5    1    3    3    0  502 -0.62099115497E+03  0.21968695214E+03 -0.13411797787E+04  0.14942147303E+04  0.46999998093E+01 0.  1.
</event>
<event>
 5   0  0.1495517E-05  0.2711807E+04  0.7818609E-02  0.8331184E-01
        1   -1    0    0  501    0  0.00000000000E+00  0.00000000000E+00  0.14189314518E+04  0.14189314518E+04  0.50400001928E-02 0.  1.
       -1   -1    0    0    0  501  0.00000000000E+00  0.00000000000E+00 -0.12956748222E+04  0.12956748222E+04  0.50400001928E-02 0. -1.
    10030    2    1    2    0    0  0.00000000000E+00  0.00000000000E+00  0.12325662960E+03  0.27146062740E+04  0.27118065982E+04 0.  0.
        5    1    3    3  502    0  0.52724973802E+03 -0.73335823795E+03  0.10739314945E+04  0.14032667374E+04  0.46999998093E+01 0.  1.
       -5    1    3    3    0  502 -0.52724973802E+03  0.73335823795E+03 -0.95067486491E+03  0.13113395366E+04  0.46999998093E+01 0. -1.
</event>
<event>
 5   0  0.3676724E-05  0.2708836E+04  0.7818609E-02  0.8332144E-01
       -2   -1    0    0    0  501  0.00000000000E+00  0.00000000000E+00  0.82129608474E+03  0.82129608474E+03  0.25500000920E-02 0. -1.
        2   -1    0    0  501    0  0.00000000000E+00  0.00000000000E+00 -0.22336014913E+04  0.22336014913E+04  0.25500000920E-02 0.  1.
    10030    2    1    2    0    0  0.00000000000E+00  0.00000000000E+00 -0.14123054066E+04  0.30548975760E+04  0.27088360302E+04 0.  0.
        4    1    3    3  502    0 -0.52376271792E+03 -0.40218692351E+03  0.62744299051E+03  0.91091603640E+03  0.12699999809E+01 0. -1.
       -4    1    3    3    0  502  0.52376271792E+03  0.40218692351E+03 -0.20397483971E+04  0.21439815396E+04  0.12699999809E+01 0.  1.
</event>
<event>
 5   0  0.1449521E-05  0.2100462E+04  0.7818609E-02  0.8561040E-01
        1   -1    0    0  501    0  0.00000000000E+00  0.00000000000E+00  0.20179731692E+04  0.20179731692E+04  0.50400001928E-02 0.  1.
       -1   -1    0    0    0  501  0.00000000000E+00  0.00000000000E+00 -0.54658058570E+03  0.54658058573E+03  0.50400001928E-02 0. -1.
    10030    2    1    2    0    0  0.00000000000E+00  0.00000000000E+00  0.14713925835E+04  0.25645537549E+04  0.21004618128E+04 0.  0.
        3    1    3    3  502    0 -0.23444560393E+01  0.27359965778E+03  0.19736929876E+04  0.19925677627E+04  0.10100000352E+00 0.  1.
       -3    1    3    3    0  502  0.23444560393E+01 -0.27359965778E+03 -0.50230040411E+03  0.57198599229E+03  0.10100000352E+00 0. -1.
</event>
<event>
 5   0  0.1474012E-05  0.2601627E+04  0.7818609E-02  0.8367649E-01
       -1   -1    0    0    0  501  0.00000000000E+00  0.00000000000E+00  0.15354492184E+04  0.15354492184E+04  0.50400001928E-02 0.  1.
        1   -1    0    0  501    0  0.00000000000E+00  0.00000000000E+00 -0.11020328271E+04  0.11020328271E+04  0.50400001928E-02 0. -1.
    10030    2    1    2    0    0  0.00000000000E+00  0.00000000000E+00  0.43341639135E+03  0.26374820455E+04  0.26016267549E+04 0.  0.
        2    1    3    3  502    0 -0.21362307026E+03 -0.90445108861E+03  0.11394440004E+04  0.14703738361E+04  0.25500000920E-02 0.  1.
       -2    1    3    3    0  502  0.21362307026E+03  0.90445108861E+03 -0.70602760901E+03  0.11671082094E+04  0.25500000920E-02 0. -1.
</event>
<event>
 5   0  0.3514294E-05  0.2618119E+04  0.7818609E-02  0.8362073E-01
       -2   -1    0    0    0  501  0.00000000000E+00  0.00000000000E+00  0.62718601723E+03  0.62718601723E+03  0.25500000920E-02 0.  1.
        2   -1    0    0  501    0  0.00000000000E+00  0.00000000000E+00 -0.27322618996E+04  0.27322618996E+04  0.25500000920E-02 0. -1.
    10030    2    1    2    0    0  0.00000000000E+00  0.00000000000E+00 -0.21050758824E+04  0.33594479168E+04  0.26181187588E+04 0.  0.
        2    1    3    3  502    0 -0.83727067807E+03 -0.69685693165E+03 -0.19840442679E+04  0.22634185271E+04  0.25500000920E-02 0. -1.
       -2    1    3    3    0  502  0.83727067807E+03  0.69685693165E+03 -0.12103161446E+03  0.10960293898E+04  0.25500000920E-02 0.  1.
</event>
<event>
 5   0  0.3497949E-05  0.2546168E+04  0.7818609E-02  0.8386720E-01
        2   -1    0    0  501    0  0.00000000000E+00  0.00000000000E+00  0.11722237657E+04  0.11722237657E+04  0.25500000920E-02 0.  1.
       -2   -1    0    0    0  501  0.00000000000E+00  0.00000000000E+00 -0.13826225593E+04  0.13826225593E+04  0.25500000920E-02 0. -1.
    10030    2    1    2    0    0  0.00000000000E+00  0.00000000000E+00 -0.21039879363E+03  0.25548463251E+04  0.25461681194E+04 0.  0.
        5    1    3    3  502    0 -0.37541580049E+03  0.11998320987E+04 -0.30634922292E+03  0.12939884175E+04  0.46999998093E+01 0. -1.
       -5    1    3    3    0  502  0.37541580049E+03 -0.11998320987E+04  0.95950429288E+02  0.12608579076E+04  0.46999998093E+01 0.  1.
</event>
<event>
 5   0  0.1438701E-05  0.2733097E+04  0.7818609E-02  0.8324345E-01
       -1   -1    0    0    0  501  0.00000000000E+00  0.00000000000E+00  0.89579260507E+03  0.89579260509E+03  0.50400001928E-02 0.  1.
        1   -1    0    0  501    0  0.00000000000E+00  0.00000000000E+00 -0.20846960410E+04  0.20846960410E+04  0.50400001928E-02 0. -1.
    10030    2    1    2    0    0  0.00000000000E+00  0.00000000000E+00 -0.11889034359E+04  0.29804886461E+04  0.27330973619E+04 0.  0.
        4    1    3    3  502    0  0.37749033807E+03 -0.13083226950E+04 -0.71996283709E+03  0.15403101406E+04  0.12699999809E+01 0. -1.
       -4    1    3    3    0  502 -0.37749033807E+03  0.13083226950E+04 -0.46894059886E+03  0.14401785055E+04  0.12699999809E+01 0.  1.
</event>
<event>
 5   0  0.3497949E-05  0.2694435E+04  0.7818609E-02  0.8336813E-01
       -2   -1    0    0    0  501  0.00000000000E+00  0.00000000000E+00  0.15046993809E+04  0.15046993809E+04  0.25500000920E-02 0.  1.
        2   -1    0    0  501    0  0.00000000000E+00  0.00000000000E+00 -0.12062179073E+04  0.12062179073E+04  0.25500000920E-02 0. -1.
    10030    2    1    2    0    0  0.00000000000E+00  0.00000000000E+00  0.29848147367E+03  0.27109172882E+04  0.26944352569E+04 0.  0.
        5    1    3    3  502    0  0.12871784688E+03 -0.13298854729E+04  0.32295142443E+03  0.13745847983E+04  0.46999998093E+01 0. -1.
       -5    1    3    3    0  502 -0.12871784688E+03  0.13298854729E+04 -0.24469950760E+02  0.13363324899E+04  0.46999998093E+01 0.  1.
</event>
<event>
 5   0  0.1449521E-05  0.2138244E+04  0.7818609E-02  0.8544581E-01
        1   -1    0    0  501    0  0.00000000000E+00  0.00000000000E+00  0.11714180657E+04  0.11714180657E+04  0.50400001928E-02 0. -1.
       -1   -1    0    0    0  501  0.00000000000E+00  0.00000000000E+00 -0.97575954865E+03  0.97575954866E+03  0.50400001928E-02 0.  1.
    10030    2    1    2    0    0  0.00000000000E+00  0.00000000000E+00  0.19565851706E+03  0.21471776144E+04  0.21382444791E+04 0.  0.
        3    1    3    3  502    0  0.32802474908E+03  0.16347284490E+02  0.11195054641E+04  0.11666876035E+04  0.10100000352E+00 0. -1.
       -3    1    3    3    0  502 -0.32802474908E+03 -0.16347284490E+02 -0.92384694705E+03  0.98049001091E+03  0.10100000352E+00 0.  1.
</event>
<event>
 5   0  0.3514294E-05  0.2430140E+04  0.7818609E-02  0.8428305E-01
       -2   -1    0    0    0  501  0.00000000000E+00  0.00000000000E+00  0.72762489409E+03  0.72762489409E+03  0.25500000920E-02 0.  1.
        2   -1    0    0  501    0  0.00000000000E+00  0.00000000000E+00 -0.20290610969E+04  0.20290610969E+04  0.25500000920E-02 0. -1.
    10030    2    1    2    0    0  0.00000000000E+00  0.00000000000E+00 -0.13014362028E+04  0.27566859910E+04  0.24301402147E+04 0.  0.
        2    1    3    3  502    0  0.11431775240E+04  0.40430676954E+03 -0.56229117627E+03  0.13365964919E+04  0.25500000920E-02 0. -1.
       -2    1    3    3    0  502 -0.11431775240E+04 -0.40430676954E+03 -0.73914502651E+03  0.14200894991E+04  0.25500000920E-02 0.  1.
</event>
<event>
 5   0  0.3568647E-05  0.2714563E+04  0.7818609E-02  0.8330295E-01
        2   -1    0    0  501    0  0.00000000000E+00  0.00000000000E+00  0.13084567019E+04  0.13084567019E+04  0.25500000920E-02 0. -1.
       -2   -1    0    0    0  501  0.00000000000E+00  0.00000000000E+00 -0.14079282361E+04  0.14079282361E+04  0.25500000920E-02 0.  1.
    10030    2    1    2    0    0  0.00000000000E+00  0.00000000000E+00 -0.99471534208E+02  0.27163849381E+04  0.27145630488E+04 0.  0.
        3    1    3    3  502    0  0.26562212748E+03  0.83986819215E+03  0.98356534426E+03  0.13203539266E+04  0.10100000352E+00 0. -1.
       -3    1    3    3    0  502 -0.26562212748E+03 -0.83986819215E+03 -0.10830368785E+04  0.13960310115E+04  0.10100000352E+00 0.  1.
</event>
<event>
 5   0  0.3652331E-05  0.2595716E+04  0.7818609E-02  0.8369658E-01
       -2   -1    0    0    0  501  0.00000000000E+00  0.00000000000E+00  0.16475383967E+04  0.16475383967E+04  0.25500000920E-02 0.  1.
        2   -1    0    0  501    0  0.00000000000E+00  0.00000000000E+00 -0.10223952645E+04  0.10223952645E+04  0.25500000920E-02 0. -1.
    10030    2    1    2    0    0  0.00000000000E+00  0.00000000000E+00  0.62514313214E+03  0.26699336612E+04  0.25957160514E+04 0.  0.
        1    1    3    3  502    0  0.80484949843E+03 -0.70757142070E+03  0.10656215944E+04  0.15112873363E+04  0.50400001928E-02 0.  1.
       -1    1    3    3    0  502 -0.80484949843E+03  0.70757142070E+03 -0.44047846221E+03  0.11586463249E+04  0.50400001928E-02 0. -1.
</event>
<event>
 5   0  0.1484379E-05  0.2708547E+04  0.7818609E-02  0.8332237E-01
        1   -1    0    0  501    0  0.00000000000E+00  0.00000000000E+00  0.15870901302E+04  0.15870901302E+04  0.50400001928E-02 0. -1.
       -1   -1    0    0    0  501  0.00000000000E+00  0.00000000000E+00 -0.11556096773E+04  0.11556096773E+04  0.50400001928E-02 0.  1.
    10030    2    1    2    0    0  0.00000000000E+00  0.00000000000E+00  0.43148045290E+03  0.27426998076E+04  0.27085470004E+04 0.  0.
        1    1    3    3  502    0 -0.92469149368E+02 -0.72376190232E+03 -0.93955548597E+03  0.11895992376E+04  0.50400001928E-02 0.  1.
       -1    1    3    3    0  502  0.92469149368E+02  0.72376190232E+03  0.13710359389E+04  0.15531005700E+04  0.50400001928E-02 0. -1.
</event>
<event>
 5   0  0.3568647E-05  0.2731607E+04  0.7818609E-02  0.8324822E-01
       -2   -1    0    0    0  501  0.00000000000E+00  0.00000000000E+00  0.18140265705E+04  0.18140265705E+04  0.25500000920E-02 0. -1.
        2   -1    0    0  501    0  0.00000000000E+00  0.00000000000E+00 -0.10283309659E+04  0.10283309659E+04  0.25500000920E-02 0.  1.
    10030    2    1    2    0    0  0.00000000000E+00  0.00000000000E+00  0.78569560457E+03  0.28423575364E+04  0.27316073623E+04 0.  0.
        3    1    3    3  502    0 -0.20967636839E+03  0.40744113169E+03 -0.94595959264E+03  0.10511003836E+04  0.10100000352E+00 0.  1.
       -3    1    3    3    0  502  0.20967636839E+03 -0.40744113169E+03  0.17316551972E+04  0.17912571528E+04  0.10100000352E+00 0. -1.
</event>
<event>
 5   0  0.1438701E-05  0.2674588E+04  0.7818609E-02  0.8343298E-01
        1   -1    0    0  501    0  0.00000000000E+00  0.00000000000E+00  0.14311162340E+04  0.14311162340E+04  0.50400001928E-02 0.  1.
       -1   -1    0    0    0  501  0.00000000000E+00  0.00000000000E+00 -0.12496222407E+04  0.12496222407E+04  0.50400001928E-02 0. -1.
    10030    2    1    2    0    0  0.00000000000E+00  0.00000000000E+00  0.18149399326E+03  0.26807384747E+04  0.26745875757E+04 0.  0.
        4    1    3    3  502    0 -0.82731487753E+03  0.99901628931E+03 -0.23537739330E+03  0.13182896431E+04  0.12699999809E+01 0.  1.
       -4    1    3    3    0  502  0.82731487753E+03 -0.99901628931E+03  0.41687138656E+03  0.13624488316E+04  0.12699999809E+01 0. -1.
</event>
<event>
 5   0  0.3497949E-05  0.2015063E+04  0.7818609E-02  0.8599610E-01
        2   -1    0    0  501    0  0.00000000000E+00  0.00000000000E+00  0.68612578862E+03  0.68612578862E+03  0.25500000920E-02 0. -1.
       -2   -1    0    0    0  501  0.00000000000E+00  0.00000000000E+00 -0.14794949425E+04  0.14794949425E+04  0.25500000920E-02 0.  1.
    10030    2    1    2    0    0  0.00000000000E+00  0.00000000000E+00 -0.79336915384E+03  0.21656207311E+04  0.20150629113E+04 0.  0.
        5    1    3    3  502    0 -0.43545155341E+03  0.47700882516E+03  0.43435813605E+03  0.77836017048E+03  0.46999998093E+01 0. -1.
       -5    1    3    3    0  502  0.43545155341E+03 -0.47700882516E+03 -0.12277272899E+04  0.13872605606E+04  0.46999998093E+01 0.  1.
</event>
<event>
 5   0  0.1438701E-05  0.2027140E+04  0.7818609E-02  0.8594036E-01
        1   -1    0    0  501    0  0.00000000000E+00  0.00000000000E+00  0.99397122737E+03  0.99397122738E+03  0.50400001928E-02 0.  1.
       -1   -1    0    0    0  501  0.00000000000E+00  0.00000000000E+00 -0.10335553057E+04  0.10335553058E+04  0.50400001928E-02 0. -1.
    10030    2    1    2    0    0  0.00000000000E+00  0.00000000000E+00 -0.39584078377E+02  0.20275265331E+04  0.20271400897E+04 0.  0.
        4    1    3    3  502    0  0.88206092506E+03  0.35723432900E+03 -0.36867766072E+03  0.10205746772E+04  0.12699999809E+01 0. -1.
       -4    1    3    3    0  502 -0.88206092506E+03 -0.35723432900E+03  0.32909358234E+03  0.10069518559E+04  0.12699999809E+01 0.  1.
</event>
<event>
 5   0  0.1449521E-05  0.2627995E+04  0.7818609E-02  0.8358754E-01
       -1   -1    0    0    0  501  0.00000000000E+00  0.00000000000E+00  0.16001345050E+04  0.16001345050E+04  0.50400001928E-02 0.  1.
        1   -1    0    0  501    0  0.00000000000E+00  0.00000000000E+00 -0.10790279341E+04  0.10790279342E+04  0.50400001928E-02 0. -1.
    10030    2    1    2    0    0  0.00000000000E+00  0.00000000000E+00  0.52110657088E+03  0.26791624392E+04  0.26279953039E+04 0.  0.
        3    1    3    3  502    0 -0.46841983918E+03 -0.23606627723E+03  0.14887694553E+04  0.15784736089E+04  0.10100000352E+00 0.  1.
       -3    1    3    3    0  502  0.46841983918E+03  0.23606627723E+03 -0.96766288439E+03  0.11006888302E+04  0.10100000352E+00 0. -1.
</event>
<event>
 5   0  0.3652331E-05  0.2065092E+04  0.7818609E-02  0.8576778E-01
        2   -1    0    0  501    0  0.00000000000E+00  0.00000000000E+00  0.17857073553E+04  0.17857073553E+04  0.25500000920E-02 0.  1.
       -2   -1    0    0    0  501  0.00000000000E+00  0.00000000000E+00 -0.59704728093E+03  0.59704728093E+03  0.25500000920E-02 0. -1.
    10030    2    1    2    0    0  0.00000000000E+00  0.00000000000E+00  0.11886600744E+04  0.23827546363E+04  0.20650924638E+04 0.  0.
        1    1    3    3  502    0  0.76106920853E+03 -0.10524852306E+03 -0.20159836877E+03  0.79432077531E+03  0.50400001928E-02 0. -1.
       -1    1    3    3    0  502 -0.76106920853E+03  0.10524852306E+03  0.13902584432E+04  0.15884338610E+04  0.50400001928E-02 0.  1.
</event>
<event>
 5   0  0.3676724E-05  0.2692997E+04  0.7818609E-02  0.8337281E-01
       -2   -1    0    0    0  501  0.00000000000E+00  0.00000000000E+00  0.93941672369E+03  0.93941672369E+03  0.25500000920E-02 0.  1.
        2   -1    0    0  501    0  0.00000000000E+00  0.00000000000E+00 -0.19299831901E+04  0.19299831901E+04  0.25500000920E-02 0. -1.
    10030    2    1    2    0    0  0.00000000000E+00  0.00000000000E+00 -0.99056646641E+03  0.28693999138E+04  0.26929972040E+04 0.  0.
        4    1    3    3  502    0 -0.88437117799E+03 -0.49509039778E+03 -0.14398213268E+04  0.17607708393E+04  0.12699999809E+01 0. -1.
       -4    1    3    3    0  502  0.88437117799E+03  0.49509039778E+03  0.44925486037E+03  0.11086290745E+04  0.12699999809E+01 0.  1.
</event>
<event>
 5   0  0.3568647E-05  0.2665336E+04  0.7818609E-02  0.8346341E-01
        2   -1    0    0  501    0  0.00000000000E+00  0.00000000000E+00  0.11673470944E+04  0.11673470944E+04  0.25500000920E-02 0.  1.
       -2   -1    0    0    0  501  0.00000000000E+00  0.00000000000E+00 -0.15214014843E+04  0.15214014843E+04  0.25500000920E-02 0. -1.
    10030    2    1    2    0    0  0.00000000000E+00  0.00000000000E+00 -0.35405438989E+03  0.26887485787E+04  0.26653357028E+04 0.  0.
        3    1    3    3  502    0 -0.88378497086E+02  0.12057656263E+04  0.38854197461E+03  0.12699001459E+04  0.10100000352E+00 0.  1.
       -3    1    3    3    0  502  0.88378497086E+02 -0.12057656263E+04 -0.74259636450E+03  0.14188484328E+04  0.10100000352E+00 0. -1.
</event>
<event>
 5   0  0.1438701E-05  0.2564300E+04  0.7818609E-02  0.8380430E-01
        1   -1    0    0  501    0  0.00000000000E+00  0.00000000000E+00  0.26479262998E+04  0.26479262998E+04  0.50400001928E-02 0. -1.
       -1   -1    0    0    0  501  0.00000000000E+00  0.00000000000E+00 -0.62082885755E+03  0.62082885757E+03  0.50400001928E-02 0.  1.
    10030    2    1    2    0    0  0.00000000000E+00  0.00000000000E+00  0.20270974422E+04  0.32687551573E+04  0.25643003409E+04 0.  0.
        4    1    3    3  502    0 -0.10729788103E+04  0.23542364027E+03  0.17069269985E+03  0.11116858497E+04  0.12699999809E+01 0.  1.
       -4    1    3    3    0  502  0.10729788103E+04 -0.23542364027E+03  0.18564047424E+04  0.21570693077E+04  0.12699999809E+01 0. -1.
</event>
<event>
 5   0  0.1474012E-05  0.2689908E+04  0.7818609E-02  0.8338287E-01
        1   -1    0    0  501    0  0.00000000000E+00  0.00000000000E+00  0.12099871610E+04  0.12099871610E+04  0.50400001928E-02 0. -1.
       -1   -1    0    0    0  501  0.00000000000E+00  0.00000000000E+00 -0.14949757069E+04  0.14949757069E+04  0.50400001928E-02 0.  1.
    10030    2    1    2    0    0  0.00000000000E+00  0.00000000000E+00 -0.28498854586E+03  0.27049628679E+04  0.26899081110E+04 0.  0.
        2    1    3    3  502    0 -0.73366420548E+03  0.45465894413E+03 -0.11797338084E+04  0.14617625596E+04  0.25500000920E-02 0.  1.
       -2    1    3    3    0  502  0.73366420548E+03 -0.45465894413E+03  0.89474526253E+03  0.12432003084E+04  0.25500000920E-02 0. -1.
</event>
<event>
 5   0  0.3497949E-05  0.2351865E+04  0.7818609E-02  0.8457748E-01
       -2   -1    0    0    0  501  0.00000000000E+00  0.00000000000E+00  0.90823531637E+03  0.90823531637E+03  0.25500000920E-02 0.  1.
        2   -1    0    0  501    0  0.00000000000E+00  0.00000000000E+00 -0.15225316469E+04  0.15225316469E+04  0.25500000920E-02 0. -1.
    10030    2    1    2    0    0  0.00000000000E+00  0.00000000000E+00 -0.61429633049E+03  0.24307669632E+04  0.23518648022E+04 0.  0.
        5    1    3    3  502    0 -0.44443026860E+02 -0.10433601149E+04  0.25156062256E+03  0.10741882279E+04  0.46999998093E+01 0.  1.
       -5    1    3    3    0  502  0.44443026860E+02  0.10433601149E+04 -0.86585695305E+03  0.13565787354E+04  0.46999998093E+01 0. -1.
</event>
<event>
 5   0  0.1484379E-05  0.1490002E+04  0.7818609E-02  0.8891129E-01
       -1   -1    0    0    0  501  0.00000000000E+00  0.00000000000E+00  0.40541034260E+03  0.40541034263E+03  0.50400001928E-02 0. -1.
        1   -1    0    0  501    0  0.00000000000E+00  0.00000000000E+00 -0.13690483091E+04  0.13690483092E+04  0.50400001928E-02 0.  1.
    10030    2    1    2    0    0  0.00000000000E+00  0.00000000000E+00 -0.96363796654E+03  0.17744586518E+04  0.14900018041E+04 0.  0.
        1    1    3    3  502    0 -0.54170872681E+03  0.35341028030E+03 -0.41537662062E+02  0.64813003967E+03  0.50400001928E-02 0. -1.
       -1    1    3    3    0  502  0.54170872681E+03 -0.35341028030E+03 -0.92210030448E+03  0.11263286121E+04  0.50400001928E-02 0.  1.
</event>
<event>
 5   0  0.3568647E-05  0.2825289E+04  0.7818609E-02  0.8295460E-01
       -2   -1    0    0    0  501  0.00000000000E+00  0.00000000000E+00  0.11293685879E+04  0.11293685879E+04  0.25500000920E-02 0. -1.
        2   -1    0    0  501    0  0.00000000000E+00  0.00000000000E+00 -0.17669735297E+04  0.17669735297E+04  0.25500000920E-02 0.  1.
    10030    2    1    2    0    0  0.00000000000E+00  0.00000000000E+00 -0.63760494185E+03  0.28963421177E+04  0.28252889411E+04 0.  0.
        3    1    3    3  502    0 -0.76723301467E+03  0.10571514149E+04 -0.87024189989E+03  0.15695657321E+04  0.10100000352E+00 0. -1.
       -3    1    3    3    0  502  0.76723301467E+03 -0.10571514149E+04  0.23263695805E+03  0.13267763856E+04  0.10100000352E+00 0.  1.
</event>
<event>
 5   0  0.1474012E-05  0.1841184E+04  0.7818609E-02  0.8684700E-01
        1   -1    0    0  501    0  0.00000000000E+00  0.00000000000E+00  0.12277781427E+04  0.12277781427E+04  0.50400001928E-02 0. -1.
       -1   -1    0    0    0  501  0.00000000000E+00  0.00000000000E+00 -0.69026248462E+03  0.69026248463E+03  0.50400001928E-02 0.  1.
    10030    2    1    2    0    0  0.00000000000E+00  0.00000000000E+00  0.53751565804E+03  0.19180406273E+04  0.18411835230E+04 0.  0.
        2    1    3    3  502    0  0.83520911648E+02  0.41905766190E+03  0.11182125530E+04  0.11970732560E+04  0.25500000920E-02 0. -1.
       -2    1    3    3    0  502 -0.83520911648E+02 -0.41905766190E+03 -0.58069689492E+03  0.72096737128E+03  0.25500000920E-02 0.  1.
</event>
<event>
 5   0  0.1438701E-05  0.2681954E+04  0.7818609E-02  0.8340884E-01
       -1   -1    0    0    0  501  0.00000000000E+00  0.00000000000E+00  0.67046803796E+03  0.67046803798E+03  0.50400001928E-02 0.  1.
        1   -1    0    0  501    0  0.00000000000E+00  0.00000000000E+00 -0.26820363721E+04  0.26820363721E+04  0.50400001928E-02 0. -1.
    10030    2    1    2    0    0  0.00000000000E+00  0.00000000000E+00 -0.20115683342E+04  0.33525044101E+04  0.26819542608E+04 0.  0.
        4    1    3    3  502    0  0.84415038847E+02 -0.12527800306E+04 -0.15942706929E+04  0.20293556512E+04  0.12699999809E+01 0. -1.
       -4    1    3    3    0  502 -0.84415038847E+02  0.12527800306E+04 -0.41729764128E+03  0.13231487589E+04  0.12699999809E+01 0.  1.
</event>
<event>
 5   0  0.1228050E-05  0.2678426E+04  0.7818609E-02  0.8342039E-01
        3   -1    0    0  501    0  0.00000000000E+00  0.00000000000E+00  0.15627670148E+04  0.15627670180E+04  0.10100000352E+00 0. -1.
       -3   -1    0    0    0  501  0.00000000000E+00  0.00000000000E+00 -0.11476386384E+04  0.11476386428E+04  0.10100000352E+00 0.  1.
    10030    2    1    2    0    0  0.00000000000E+00  0.00000000000E+00  0.41512837638E+03  0.27104056608E+04  0.26784262688E+04 0.  0.
        2    1    3    3  502    0 -0.70545484295E+03  0.10479046530E+04  0.65753167409E+03  0.14241202897E+04  0.25500000920E-02 0. -1.
       -2    1    3    3    0  502  0.70545484295E+03 -0.10479046530E+04 -0.24240329771E+03  0.12862853711E+04  0.25500000920E-02 0.  1.
</event>
<event>
 5   0  0.3676724E-05  0.2591269E+04  0.7818609E-02  0.8371173E-01
        2   -1    0    0  501    0  0.00000000000E+00  0.00000000000E+00  0.22571695447E+04  0.22571695447E+04  0.25500000920E-02 0. -1.
       -2   -1    0    0    0  501  0.00000000000E+00  0.00000000000E+00 -0.74370502780E+03  0.74370502780E+03  0.25500000920E-02 0.  1.
    10030    2    1    2    0    0  0.00000000000E+00  0.00000000000E+00  0.15134645169E+04  0.30008745725E+04  0.25912686769E+04 0.  0.
        4    1    3    3  502    0  0.72382323483E+03  0.71360899296E+03  0.16871682481E+04  0.19696944383E+04  0.12699999809E+01 0. -1.
       -4    1    3    3    0  502 -0.72382323483E+03 -0.71360899296E+03 -0.17370373113E+03  0.10311801342E+04  0.12699999809E+01 0.  1.
</event>
<event>
 5   0  0.1495517E-05  0.2637123E+04  0.7818609E-02  0.8355700E-01
       -1   -1    0    0    0  501  0.00000000000E+00  0.00000000000E+00  0.19560423070E+04  0.19560423070E+04  0.50400001928E-02 0.  1.
        1   -1    0    0  501    0  0.00000000000E+00  0.00000000000E+00 -0.88883770388E+03  0.88883770390E+03  0.50400001928E-02 0. -1.
    10030    2    1    2    0    0  0.00000000000E+00  0.00000000000E+00  0.10672046031E+04  0.28448800109E+04  0.26371227904E+04 0.  0.
        5    1    3    3  502    0  0.93563010997E+03 -0.43278866436E+02 -0.46757768973E+03  0.10468656785E+04  0.46999998093E+01 0. -1.
       -5    1    3    3    0  502 -0.93563010997E+03  0.43278866436E+02  0.15347822929E+04  0.17980143324E+04  0.46999998093E+01 0.  1.
</event>
<event>
 5   0  0.3514294E-05  0.2701661E+04  0.7818609E-02  0.8334466E-01
        2   -1    0    0  501    0  0.00000000000E+00  0.00000000000E+00  0.21458881360E+04  0.21458881360E+04  0.25500000920E-02 0.  1.
       -2   -1    0    0    0  501  0.00000000000E+00  0.00000000000E+00 -0.85034383410E+03  0.85034383410E+03  0.25500000920E-02 0. -1.
    10030    2    1    2    0    0  0.00000000000E+00  0.00000000000E+00  0.12955443019E+04  0.29962319701E+04  0.27016607819E+04 0.  0.
        2    1    3    3  502    0  0.26117009174E+03  0.81275138666E+03 -0.51325820347E+03  0.99609669047E+03  0.25500000920E-02 0. -1.
       -2    1    3    3    0  502 -0.26117009174E+03 -0.81275138666E+03  0.18088025054E+04  0.20001352796E+04  0.25500000920E-02 0.  1.
</event>
<event>
 5   0  0.1474012E-05  0.2047616E+04  0.7818609E-02  0.8584677E-01
        1   -1    0    0  501    0  0.00000000000E+00  0.00000000000E+00  0.13494706974E+04  0.13494706974E+04  0.50400001928E-02 0.  1.
       -1   -1    0    0    0  501  0.00000000000E+00  0.00000000000E+00 -0.77673622363E+03  0.77673622365E+03  0.50400001928E-02 0. -1.
    10030    2    1    2    0    0  0.00000000000E+00  0.00000000000E+00  0.57273447379E+03  0.21262069211E+04  0.20476159537E+04 0.  0.
        2    1    3    3  502    0 -0.18278248903E+02  0.82018987129E+03 -0.34962544797E+03  0.89178667473E+03  0.25500000920E-02 0. -1.
       -2    1    3    3    0  502  0.18278248903E+02 -0.82018987129E+03  0.92235992176E+03  0.12344202464E+04  0.25500000920E-02 0.  1.
</event>
<event>
 5   0  0.1484379E-05  0.2705905E+04  0.7818609E-02  0.8333092E-01
        1   -1    0    0  501    0  0.00000000000E+00  0.00000000000E+00  0.14473951752E+04  0.14473951752E+04  0.50400001928E-02 0. -1.
       -1   -1    0    0    0  501  0.00000000000E+00  0.00000000000E+00 -0.12646723091E+04  0.12646723091E+04  0.50400001928E-02 0.  1.
    10030    2    1    2    0    0  0.00000000000E+00  0.00000000000E+00  0.18272286615E+03  0.27120674843E+04  0.27059050969E+04 0.  0.
        1    1    3    3  502    0  0.85620312466E+03 -0.59578242778E+03  0.95497338346E+03  0.14142187437E+04  0.50400001928E-02 0. -1.
       -1    1    3    3    0  502 -0.85620312466E+03  0.59578242778E+03 -0.77225051732E+03  0.12978487406E+04  0.50400001928E-02 0.  1.
</event>
<event>
 5   0  0.3514294E-05  0.2790788E+04  0.7818609E-02  0.8306134E-01
        2   -1    0    0  501    0  0.00000000000E+00  0.00000000000E+00  0.22120527690E+04  0.22120527690E+04  0.25500000920E-02 0. -1.
       -2   -1    0    0    0  501  0.00000000000E+00  0.00000000000E+00 -0.88023446612E+03  0.88023446612E+03  0.25500000920E-02 0.  1.
    10030    2    1    2    0    0  0.00000000000E+00  0.00000000000E+00  0.13318183029E+04  0.30922872351E+04  0.27907884822E+04 0.  0.
        2    1    3    3  502    0 -0.10948247553E+04 -0.77580629844E+03  0.10901694352E+04  0.17288684319E+04  0.25500000920E-02 0. -1.
       -2    1    3    3    0  502  0.10948247553E+04  0.77580629844E+03  0.24164886768E+03  0.13634188032E+04  0.25500000920E-02 0.  1.
</event>
<event>
 5   0  0.3652331E-05  0.2772005E+04  0.7818609E-02  0.8312013E-01
        2   -1    0    0  501    0  0.00000000000E+00  0.00000000000E+00  0.12327456283E+04  0.12327456283E+04  0.25500000920E-02 0.  1.
       -2   -1    0    0    0  501  0.00000000000E+00  0.00000000000E+00 -0.15583125251E+04  0.15583125251E+04  0.25500000920E-02 0. -1.
    10030    2    1    2    0    0  0.00000000000E+00  0.00000000000E+00 -0.32556689677E+03  0.27910581534E+04  0.27720050165E+04 0.  0.
        1    1    3    3  502    0  0.49046083413E+02 -0.36251007219E+03 -0.15088281815E+04  0.15525403544E+04  0.50400001928E-02 0. -1.
       -1    1    3    3    0  502 -0.49046083413E+02  0.36251007219E+03  0.11832612847E+04  0.12385177991E+04  0.50400001928E-02 0.  1.
</event>
<event>
 5   0  0.1474012E-05  0.2767125E+04  0.7818609E-02  0.8313548E-01
        1   -1    0    0  501    0  0.00000000000E+00  0.00000000000E+00  0.11584560194E+04  0.11584560194E+04  0.50400001928E-02 0. -1.
       -1   -1    0    0    0  501  0.00000000000E+00  0.00000000000E+00 -0.16524103205E+04  0.16524103205E+04  0.50400001928E-02 0.  1.
    10030    2    1    2    0    0  0.00000000000E+00  0.00000000000E+00 -0.49395430110E+03  0.28108663399E+04  0.27671246320E+04 0.  0.
        2    1    3    3  502    0  0.14556204986E+03  0.12095711249E+04 -0.91308216883E+03  0.15224879847E+04  0.25500000920E-02 0.  1.
       -2    1    3    3    0  502 -0.14556204986E+03 -0.12095711249E+04  0.41912786773E+03  0.12883783552E+04  0.25500000920E-02 0. -1.
</event>
<event>
 5   0  0.1484379E-05  0.2685314E+04  0.7818609E-02  0.8339786E-01
       -1   -1    0    0    0  501  0.00000000000E+00  0.00000000000E+00  0.10156226941E+04  0.10156226941E+04  0.50400001928E-02 0.  1.
        1   -1    0    0  501    0  0.00000000000E+00  0.00000000000E+00 -0.17749981870E+04  0.17749981870E+04  0.50400001928E-02 0. -1.
    10030    2    1    2    0    0  0.00000000000E+00  0.00000000000E+00 -0.75937549285E+03  0.27906208811E+04  0.26853144626E+04 0.  0.
        1    1    3    3  502    0 -0.10576249390E+04  0.66893787521E+03 -0.88526382048E+03  0.15328863051E+04  0.50400001928E-02 0. -1.
       -1    1    3    3    0  502  0.10576249390E+04 -0.66893787521E+03  0.12588832763E+03  0.12577345760E+04  0.50400001928E-02 0.  1.
</event>
<event>
 5   0  0.1438701E-05  0.2721089E+04  0.7818609E-02  0.8328195E-01
        1   -1    0    0  501    0  0.00000000000E+00  0.00000000000E+00  0.17921393843E+04  0.17921393843E+04  0.50400001928E-02 0.  1.
       -1   -1    0    0    0  501  0.00000000000E+00  0.00000000000E+00 -0.10328892598E+04  0.10328892598E+04  0.50400001928E-02 0. -1.
    10030    2    1    2    0    0  0.00000000000E+00  0.00000000000E+00  0.75925012458E+03  0.28250286441E+04  0.27210891364E+04 0.  0.
        4    1    3    3  502    0 -0.12235091564E+04 -0.36254902431E+02 -0.23702493601E+03  0.12467844669E+04  0.12699999809E+01 0. -1.
       -4    1    3    3    0  502  0.12235091564E+04  0.36254902431E+02  0.99627506059E+03  0.15782441772E+04  0.12699999809E+01 0.  1.
</event>
<event>
 5   0  0.3676724E-05  0.1729583E+04  0.7818609E-02  0.8744670E-01
       -2   -1    0    0    0  501  0.00000000000E+00  0.00000000000E+00  0.87602642609E+03  0.87602642609E+03  0.25500000920E-02 0.  1.
        2   -1    0    0  501    0  0.00000000000E+00  0.00000000000E+00 -0.85370074011E+03  0.85370074011E+03  0.25500000920E-02 0. -1.
    10030    2    1    2    0    0  0.00000000000E+00  0.00000000000E+00  0.22325685980E+02  0.17297271662E+04  0.17295830808E+04 0.  0.
        4    1    3    3  502    0  0.53376214372E+03  0.59972735857E+03 -0.31024822486E+03  0.86071511234E+03  0.12699999809E+01 0. -1.
       -4    1    3    3    0  502 -0.53376214372E+03 -0.59972735857E+03  0.33257391084E+03  0.86901205386E+03  0.12699999809E+01 0.  1.
</event>
<event>
 5   0  0.1449521E-05  0.2283485E+04  0.7818609E-02  0.8484461E-01
       -1   -1    0    0    0  501  0.00000000000E+00  0.00000000000E+00  0.94381911198E+03  0.94381911199E+03  0.50400001928E-02 0. -1.
        1   -1    0    0  501    0  0.00000000000E+00  0.00000000000E+00 -0.13811712398E+04  0.13811712398E+04  0.50400001928E-02 0.  1.
    10030    2    1    2    0    0  0.00000000000E+00  0.00000000000E+00 -0.43735212784E+03  0.23249903518E+04  0.22834848921E+04 0.  0.
        3    1    3    3  502    0 -0.55099872675E+03  0.10962347419E+03 -0.12307038844E+04  0.13528669426E+04  0.10100000352E+00 0.  1.
       -3    1    3    3    0  502  0.55099872675E+03 -0.10962347419E+03  0.79335175657E+03  0.97212340926E+03  0.10100000352E+00 0. -1.
</event>
<event>
 5   0  0.1484379E-05  0.2635386E+04  0.7818609E-02  0.8356280E-01
       -1   -1    0    0    0  501  0.00000000000E+00  0.00000000000E+00  0.12924863411E+04  0.12924863411E+04  0.50400001928E-02 0. -1.
        1   -1    0    0  501    0  0.00000000000E+00  0.00000000000E+00 -0.13433914719E+04  0.13433914719E+04  0.50400001928E-02 0.  1.
    10030    2    1    2    0    0  0.00000000000E+00  0.00000000000E+00 -0.50905130772E+02  0.26358778131E+04  0.26353862171E+04 0.  0.
        1    1    3    3  502    0  0.21351104950E+03  0.63080914765E+03 -0.11626818018E+04  0.13399015342E+04  0.50400001928E-02 0.  1.
       -1    1    3    3    0  502 -0.21351104950E+03 -0.63080914765E+03  0.11117766711E+04  0.12959762789E+04  0.50400001928E-02 0. -1.
</event>
<event>
 5   0  0.1484379E-05  0.2591516E+04  0.7818609E-02  0.8371089E-01
        1   -1    0    0  501    0  0.00000000000E+00  0.00000000000E+00  0.16511015597E+04  0.16511015597E+04  0.50400001928E-02 0.  1.
       -1   -1    0    0    0  501  0.00000000000E+00  0.00000000000E+00 -0.10168903730E+04  0.10168903730E+04  0.50400001928E-02 0. -1.
    10030    2    1    2    0    0  0.00000000000E+00  0.00000000000E+00  0.63421118673E+03  0.26679919327E+04  0.25915163753E+04 0.  0.
        1    1    3    3  502    0 -0.27922089694E+03 -0.78831289019E+03  0.13360540817E+04  0.15762112902E+04  0.50400001928E-02 0.  1.
       -1    1    3    3    0  502  0.27922089694E+03  0.78831289019E+03 -0.70184289493E+03  0.10917806425E+04  0.50400001928E-02 0. -1.
</event>
<event>
 5   0  0.3676724E-05  0.2684595E+04  0.7818609E-02  0.8340021E-01
        2   -1    0    0  501    0  0.00000000000E+00  0.00000000000E+00  0.22422057667E+04  0.22422057667E+04  0.25500000920E-02 0. -1.
       -2   -1    0    0    0  501  0.00000000000E+00  0.00000000000E+00 -0.80356695433E+03  0.80356695434E+03  0.25500000920E-02 0.  1.
    10030    2    1    2    0    0  0.00000000000E+00  0.00000000000E+00  0.14386388124E+04  0.30457727210E+04  0.26845949109E+04 0.  0.
        4    1    3    3  502    0 -0.98496005726E+03  0.12133108675E+03 -0.30609968034E+03  0.10385404057E+04  0.12699999809E+01 0.  1.
       -4    1    3    3    0  502  0.98496005726E+03 -0.12133108675E+03  0.17447384927E+04  0.20072323154E+04  0.12699999809E+01 0. -1.
</event>
<event>
 5   0  0.3568647E-05  0.2782386E+04  0.7818609E-02  0.8308758E-01
        2   -1    0    0  501    0  0.00000000000E+00  0.00000000000E+00  0.10469389464E+04  0.10469389464E+04  0.25500000920E-02 0. -1.
       -2   -1    0    0    0  501  0.00000000000E+00  0.00000000000E+00 -0.18486443199E+04  0.18486443199E+04  0.25500000920E-02 0.  1.
    10030    2    1    2    0    0  0.00000000000E+00  0.00000000000E+00 -0.80170537351E+03  0.28955832662E+04  0.27823858370E+04 0.  0.
        3    1    3    3  502    0 -0.54870111874E+03  0.24274620245E+03  0.90536859705E+03  0.10861357849E+04  0.10100000352E+00 0. -1.
       -3    1    3    3    0  502  0.54870111874E+03 -0.24274620245E+03 -0.17070739706E+04  0.18094474813E+04  0.10100000352E+00 0.  1.
</event>
<event>
 5   0  0.3497949E-05  0.2765619E+04  0.7818609E-02  0.8314023E-01
        2   -1    0    0  501    0  0.00000000000E+00  0.00000000000E+00  0.18125165179E+04  0.18125165179E+04  0.25500000920E-02 0. -1.
       -2   -1    0    0    0  501  0.00000000000E+00  0.00000000000E+00 -0.10549760309E+04  0.10549760309E+04  0.25500000920E-02 0.  1.
    10030    2    1    2    0    0  0.00000000000E+00  0.00000000000E+00  0.75754048691E+03  0.28674925488E+04  0.27656185435E+04 0.  0.
        5    1    3    3  502    0 -0.70243322006E+03 -0.36083908624E+02 -0.85564151719E+03  0.11076366611E+04  0.46999998093E+01 0.  1.
       -5    1    3    3    0  502  0.70243322006E+03  0.36083908624E+02  0.16131820041E+04  0.17598558877E+04  0.46999998093E+01 0. -1.
</event>
<event>
 5   0  0.3568647E-05  0.2597457E+04  0.7818609E-02  0.8369066E-01
       -2   -1    0    0    0  501  0.00000000000E+00  0.00000000000E+00  0.93118309619E+03  0.93118309619E+03  0.25500000920E-02 0.  1.
        2   -1    0    0  501    0  0.00000000000E+00  0.00000000000E+00 -0.18113466579E+04  0.18113466579E+04  0.25500000920E-02 0. -1.
    10030    2    1    2    0    0  0.00000000000E+00  0.00000000000E+00 -0.88016356175E+03  0.27425297541E+04  0.25974567478E+04 0.  0.
        3    1    3    3  502    0  0.10060065558E+04  0.64722868931E+02  0.42446506994E+03  0.10938047568E+04  0.10100000352E+00 0.  1.
       -3    1    3    3    0  502 -0.10060065558E+04 -0.64722868931E+02 -0.13046286317E+04  0.16487249974E+04  0.10100000352E+00 0. -1.
</event>
<event>
 5   0  0.1495517E-05  0.2766613E+04  0.7818609E-02  0.8313709E-01
        1   -1    0    0  501    0  0.00000000000E+00  0.00000000000E+00  0.17120789060E+04  0.17120789061E+04  0.50400001928E-02 0.  1.
       -1   -1    0    0    0  501  0.00000000000E+00  0.00000000000E+00 -0.11176685648E+04  0.11176685648E+04  0.50400001928E-02 0. -1.
    10030    2    1    2    0    0  0.00000000000E+00  0.00000000000E+00  0.59441034122E+03  0.28297474709E+04  0.27666129283E+04 0.  0.
        5    1    3    3  502    0 -0.39379980182E+03  0.40137556062E+01 -0.10591100065E+04  0.11299692429E+04  0.46999998093E+01 0. -1.
       -5    1    3    3    0  502  0.39379980182E+03 -0.40137556062E+01  0.16535203477E+04  0.16997782280E+04  0.46999998093E+01 0.  1.
</event>
<event>
 5   0  0.3497949E-05  0.2683107E+04  0.7818609E-02  0.8340507E-01
       -2   -1    0    0    0  501  0.00000000000E+00  0.00000000000E+00  0.10812056330E+04  0.10812056330E+04  0.25500000920E-02 0.  1.
        2   -1    0    0  501    0  0.00000000000E+00  0.00000000000E+00 -0.16645916550E+04  0.16645916550E+04  0.25500000920E-02 0. -1.
    10030    2    1    2    0    0  0.00000000000E+00  0.00000000000E+00 -0.58338602206E+03  0.27457972880E+04  0.26831070601E+04 0.  0.
        5    1    3    3  502    0 -0.53681014912E+03 -0.72809645097E+03 -0.13055238322E+04  0.15883022837E+04  0.46999998093E+01 0. -1.
       -5    1    3    3    0  502  0.53681014912E+03  0.72809645097E+03  0.72213781013E+03  0.11574950043E+04  0.46999998093E+01 0.  1.
</event>
<event>
 5   0  0.3514294E-05  0.2641704E+04  0.7818609E-02  0.8354172E-01
       -2   -1    0    0    0  501  0.00000000000E+00  0.00000000000E+00  0.15256978815E+04  0.15256978815E+04  0.25500000920E-02 0.  1.
        2   -1    0    0  501    0  0.00000000000E+00  0.00000000000E+00 -0.11435097228E+04  0.11435097228E+04  0.25500000920E-02 0. -1.
    10030    2    1    2    0    0  0.00000000000E+00  0.00000000000E+00  0.38218815871E+03  0.26692076043E+04  0.26417042692E+04 0.  0.
        2    1    3    3  502    0  0.91332768830E+03  0.13284159863E+03 -0.76364346925E+03  0.11979005404E+04  0.25500000920E-02 0. -1.
       -2    1    3    3    0  502 -0.91332768830E+03 -0.13284159863E+03  0.11458316280E+04  0.14713070639E+04  0.25500000920E-02 0.  1.
</event>
<event>
 5   0  0.3497949E-05  0.2753161E+04  0.7818609E-02  0.8317959E-01
        2   -1    0    0  501    0  0.00000000000E+00  0.00000000000E+00  0.16099722791E+04  0.16099722791E+04  0.25500000920E-02 0.  1.
       -2   -1    0    0    0  501  0.00000000000E+00  0.00000000000E+00 -0.11770228128E+04  0.11770228128E+04  0.25500000920E-02 0. -1.
    10030    2    1    2    0    0  0.00000000000E+00  0.00000000000E+00  0.43294946631E+03  0.27869950919E+04  0.27531611653E+04 0.  0.
        5    1    3    3  502    0 -0.11962516253E+04 -0.35039952947E+03  0.80773670671E+03  0.14853479251E+04  0.46999998093E+01 0.  1.
       -5    1    3    3    0  502  0.11962516253E+04  0.35039952947E+03 -0.37478724040E+03  0.13016471668E+04  0.46999998093E+01 0. -1.
</event>
<event>
 5   0  0.1484379E-05  0.2783235E+04  0.7818609E-02  0.8308492E-01
       -1   -1    0    0    0  501  0.00000000000E+00  0.00000000000E+00  0.10776183078E+04  0.10776183078E+04  0.50400001928E-02 0.  1.
        1   -1    0    0  501    0  0.00000000000E+00  0.00000000000E+00 -0.17971100330E+04  0.17971100330E+04  0.50400001928E-02 0. -1.
    10030    2    1    2    0    0  0.00000000000E+00  0.00000000000E+00 -0.71949172523E+03  0.28747283408E+04  0.27832345734E+04 0.  0.
        1    1    3    3  502    0 -0.91811767660E+03  0.37924400397E+03 -0.13663774017E+04  0.16893055634E+04  0.50400001928E-02 0. -1.
       -1    1    3    3    0  502  0.91811767660E+03 -0.37924400397E+03  0.64688567648E+03  0.11854227774E+04  0.50400001928E-02 0.  1.
</event>
<event>
 5   0  0.3514294E-05  0.2708229E+04  0.7818609E-02  0.8332340E-01
       -2   -1    0    0    0  501  0.00000000000E+00  0.00000000000E+00  0.11562383322E+04  0.11562383322E+04  0.25500000920E-02 0.  1.
        2   -1    0    0  501    0  0.00000000000E+00  0.00000000000E+00 -0.15858547641E+04  0.15858547641E+04  0.25500000920E-02 0. -1.
    10030    2    1    2    0    0  0.00000000000E+00  0.00000000000E+00 -0.42961643199E+03  0.27420930963E+04  0.27082289915E+04 0.  0.
        2    1    3    3  502    0 -0.46389989966E+03  0.11674586364E+04 -0.72656199340E+03  0.14512253839E+04  0.25500000920E-02 0. -1.
       -2    1    3    3    0  502  0.46389989966E+03 -0.11674586364E+04  0.29694556141E+03  0.12908677124E+04  0.25500000920E-02 0.  1.
</event>
<event>
 5   0  0.1495517E-05  0.1827832E+04  0.7818609E-02  0.8691637E-01
       -1   -1    0    0    0  501  0.00000000000E+00  0.00000000000E+00  0.62027211048E+03  0.62027211050E+03  0.50400001928E-02 0. -1.
        1   -1    0    0  501    0  0.00000000000E+00  0.00000000000E+00 -0.13465735381E+04  0.13465735381E+04  0.50400001928E-02 0.  1.
    10030    2    1    2    0    0  0.00000000000E+00  0.00000000000E+00 -0.72630142762E+03  0.19668456486E+04  0.18278315135E+04 0.  0.
        5    1    3    3  502    0  0.54986013171E+03  0.27804461077E+03  0.36313795805E+03  0.71522460569E+03  0.46999998093E+01 0. -1.
       -5    1    3    3    0  502 -0.54986013171E+03 -0.27804461077E+03 -0.10894393857E+04  0.12516210429E+04  0.46999998093E+01 0.  1.
</event>
<event>
 5   0  0.1449521E-05  0.2583917E+04  0.7818609E-02  0.8373685E-01
        1   -1    0    0  501    0  0.00000000000E+00  0.00000000000E+00  0.19363423669E+04  0.19363423669E+04  0.50400001928E-02 0. -1.
       -1   -1    0    0    0  501  0.00000000000E+00  0.00000000000E+00 -0.86201528128E+03  0.86201528130E+03  0.50400001928E-02 0.  1.
    10030    2    1    2    0    0  0.00000000000E+00  0.00000000000E+00  0.10743270856E+04  0.27983576482E+04  0.25839169569E+04 0.  0.
        3    1    3    3  502    0  0.37815499596E+03  0.63000122542E+03 -0.61369110891E+03  0.95735026629E+03  0.10100000352E+00 0.  1.
       -3    1    3    3    0  502 -0.37815499596E+03 -0.63000122542E+03  0.16880181945E+04  0.18410073819E+04  0.10100000352E+00 0. -1.
</event>
<event>
 5   0  0.3676724E-05  0.2697511E+04  0.7818609E-02  0.8335813E-01
        2   -1    0    0  501    0  0.00000000000E+00  0.00000000000E+00  0.18021441222E+04  0.18021441222E+04  0.25500000920E-02 0.  1.
       -2   -1    0    0    0  501  0.00000000000E+00  0.00000000000E+00 -0.10094313699E+04  0.10094313699E+04  0.25500000920E-02 0. -1.
    10030    2    1    2    0    0  0.00000000000E+00  0.00000000000E+00  0.79271275224E+03  0.28115754921E+04  0.26975105635E+04 0.  0.
        4    1    3    3  502    0  0.11352272388E+04  0.19101167671E+02  0.11551754480E+04  0.16197338260E+04  0.12699999809E+01 0. -1.
       -4    1    3    3    0  502 -0.11352272388E+04 -0.19101167671E+02 -0.36246269579E+03  0.11918416661E+04  0.12699999809E+01 0.  1.
</event>
<event>
 5   0  0.1449521E-05  0.2749637E+04  0.7818609E-02  0.8319077E-01
       -1   -1    0    0    0  501  0.00000000000E+00  0.00000000000E+00  0.20439450107E+04  0.20439450107E+04  0.50400001928E-02 0. -1.
        1   -1    0    0  501    0  0.00000000000E+00  0.00000000000E+00 -0.92474417284E+03  0.92474417285E+03  0.50400001928E-02 0.  1.
    10030    2    1    2    0    0  0.00000000000E+00  0.00000000000E+00  0.11192008378E+04  0.29686891835E+04  0.27496372402E+04 0.  0.
        3    1    3    3  502    0  0.17886361563E+03 -0.69199202890E+03  0.18275900916E+04  0.19623788406E+04  0.10100000352E+00 0. -1.
       -3    1    3    3    0  502 -0.17886361563E+03  0.69199202890E+03 -0.70838925379E+03  0.10063103429E+04  0.10100000352E+00 0.  1.
</event>
<event>
 5   0  0.1438701E-05  0.2807997E+04  0.7818609E-02  0.8300790E-01
       -1   -1    0    0    0  501  0.00000000000E+00  0.00000000000E+00  0.14231303122E+04  0.14231303122E+04  0.50400001928E-02 0.  1.
        1   -1    0    0  501    0  0.00000000000E+00  0.00000000000E+00 -0.13851236073E+04  0.13851236073E+04  0.50400001928E-02 0. -1.
    10030    2    1    2    0    0  0.00000000000E+00  0.00000000000E+00  0.38006704904E+02  0.28082539194E+04  0.28079967177E+04 0.  0.
        4    1    3    3  502    0  0.22298274186E+03  0.13285910317E+04 -0.37642424725E+03  0.13987752713E+04  0.12699999809E+01 0. -1.
       -4    1    3    3    0  502 -0.22298274186E+03 -0.13285910317E+04  0.41443095216E+03  0.14094786482E+04  0.12699999809E+01 0.  1.
</event>
<event>
 5   0  0.1449521E-05  0.2689178E+04  0.7818609E-02  0.8338525E-01
        1   -1    0    0  501    0  0.00000000000E+00  0.00000000000E+00  0.87298066760E+03  0.87298066761E+03  0.50400001928E-02 0.  1.
       -1   -1    0    0    0  501  0.00000000000E+00  0.00000000000E+00 -0.20709733279E+04  0.20709733279E+04  0.50400001928E-02 0. -1.
    10030    2    1    2    0    0  0.00000000000E+00  0.00000000000E+00 -0.11979926603E+04  0.29439539955E+04  0.26891780740E+04 0.  0.
        3    1    3    3  502    0  0.91226758862E+03  0.95965586030E+03 -0.85514739225E+03  0.15762133727E+04  0.10100000352E+00 0.  1.
       -3    1    3    3    0  502 -0.91226758862E+03 -0.95965586030E+03 -0.34284526808E+03  0.13677406229E+04  0.10100000352E+00 0. -1.
</event>
<event>
 5   0  0.3497949E-05  0.2691617E+04  0.7818609E-02  0.8337730E-01
        2   -1    0    0  501    0  0.00000000000E+00  0.00000000000E+00  0.12988904655E+04  0.12988904655E+04  0.25500000920E-02 0.  1.
       -2   -1    0    0    0  501  0.00000000000E+00  0.00000000000E+00 -0.13944209472E+04  0.13944209473E+04  0.25500000920E-02 0. -1.
    10030    2    1    2    0    0  0.00000000000E+00  0.00000000000E+00 -0.95530481719E+02  0.26933114128E+04  0.26916166691E+04 0.  0.
        5    1    3    3  502    0 -0.64054619707E+03  0.35769258657E+03  0.10811891632E+04  0.13066122277E+04  0.46999998093E+01 0.  1.
       -5    1    3    3    0  502  0.64054619707E+03 -0.35769258657E+03 -0.11767196449E+04  0.13866991850E+04  0.46999998093E+01 0. -1.
</event>
<event>
 5   0  0.1438701E-05  0.2763919E+04  0.7818609E-02  0.8314558E-01
       -1   -1    0    0    0  501  0.00000000000E+00  0.00000000000E+00  0.62526125310E+03  0.62526125312E+03  0.50400001928E-02 0. -1.
        1   -1    0    0  501    0  0.00000000000E+00  0.00000000000E+00 -0.30544220227E+04  0.30544220227E+04  0.50400001928E-02 0.  1.
    10030    2    1    2    0    0  0.00000000000E+00  0.00000000000E+00 -0.24291607696E+04  0.36796832758E+04  0.27639187698E+04 0.  0.
        4    1    3    3  502    0 -0.37359869208E+03  0.69359454319E+03  0.29702594515E+03  0.84194738438E+03  0.12699999809E+01 0. -1.
       -4    1    3    3    0  502  0.37359869208E+03 -0.69359454319E+03 -0.27261867148E+04  0.28377358915E+04  0.12699999809E+01 0.  1.
</event>
<event>
 5   0  0.1495517E-05  0.2710939E+04  0.7818609E-02  0.8331464E-01
       -1   -1    0    0    0  501  0.00000000000E+00  0.00000000000E+00  0.12468241290E+04  0.12468241290E+04  0.50400001928E-02 0.  1.
        1   -1    0    0  501    0  0.00000000000E+00  0.00000000000E+00 -0.14735820131E+04  0.14735820131E+04  0.50400001928E-02 0. -1.
    10030    2    1    2    0    0  0.00000000000E+00  0.00000000000E+00 -0.22675788411E+03  0.27204061421E+04  0.27109390329E+04 0.  0.
        5    1    3    3  502    0  0.76554738331E+03  0.10747226872E+04 -0.42459723663E+03  0.13861444924E+04  0.46999998093E+01 0. -1.
       -5    1    3    3    0  502 -0.76554738331E+03 -0.10747226872E+04  0.19783935252E+03  0.13342616497E+04  0.46999998093E+01 0.  1.
</event>
<event>
 5   0  0.3497949E-05  0.2682389E+04  0.7818609E-02  0.8340742E-01
       -2   -1    0    0    0  501  0.00000000000E+00  0.00000000000E+00  0.79069359626E+03  0.79069359627E+03  0.25500000920E-02 0.  1.
        2   -1    0    0  501    0  0.00000000000E+00  0.00000000000E+00 -0.22749681358E+04  0.22749681358E+04  0.25500000920E-02 0. -1.
    10030    2    1    2    0    0  0.00000000000E+00  0.00000000000E+00 -0.14842745396E+04  0.30656617321E+04  0.26823890372E+04 0.  0.
        5    1    3    3  502    0  0.86132356665E+03  0.14317696169E+03  0.42136367115E+03  0.96950882523E+03  0.46999998093E+01 0.  1.
       -5    1    3    3    0  502 -0.86132356665E+03 -0.14317696169E+03 -0.19056382107E+04  0.20961529069E+04  0.46999998093E+01 0. -1.
</event>
<event>
 5   0  0.1495517E-05  0.2690604E+04  0.7818609E-02  0.8338060E-01
       -1   -1    0    0    0  501  0.00000000000E+00  0.00000000000E+00  0.94550961807E+03  0.94550961808E+03  0.50400001928E-02 0.  1.
        1   -1    0    0  501    0  0.00000000000E+00  0.00000000000E+00 -0.19141397044E+04  0.19141397044E+04  0.50400001928E-02 0. -1.
    10030    2    1    2    0    0  0.00000000000E+00  0.00000000000E+00 -0.96863008631E+03  0.28596493225E+04  0.26906040220E+04 0.  0.
        5    1    3    3  502    0  0.37461281774E+03  0.39811843298E+03 -0.17907647303E+04  0.18723497161E+04  0.46999998093E+01 0. -1.
       -5    1    3    3    0  502 -0.37461281774E+03 -0.39811843298E+03  0.82213464402E+03  0.98729960640E+03  0.46999998093E+01 0.  1.
</event>
<event>
 5   0  0.3676724E-05  0.1960513E+04  0.7818609E-02  0.8625308E-01
       -2   -1    0    0    0  501  0.00000000000E+00  0.00000000000E+00  0.41275047121E+03  0.41275047122E+03  0.25500000920E-02 0.  1.
        2   -1    0    0  501    0  0.00000000000E+00  0.00000000000E+00 -0.23280483828E+04  0.23280483828E+04  0.25500000920E-02 0. -1.
    10030    2    1    2    0    0  0.00000000000E+00  0.00000000000E+00 -0.19152979116E+04  0.27407988541E+04  0.19605132665E+04 0.  0.
        4    1    3    3  502    0 -0.42072002305E+02 -0.58273273700E+03  0.14274183339E+03  0.60143523346E+03  0.12699999809E+01 0.  1.
       -4    1    3    3    0  502  0.42072002305E+02  0.58273273700E+03 -0.20580397450E+04  0.21393636206E+04  0.12699999809E+01 0. -1.
</event>
<event>
 5   0  0.1438701E-05  0.2649583E+04  0.7818609E-02  0.8351551E-01
       -1   -1    0    0    0  501  0.00000000000E+00  0.00000000000E+00  0.12353099879E+04  0.12353099879E+04  0.50400001928E-02 0.  1.
        1   -1    0    0  501    0  0.00000000000E+00  0.00000000000E+00 -0.14207548345E+04  0.14207548345E+04  0.50400001928E-02 0. -1.
    10030    2    1    2    0    0  0.00000000000E+00  0.00000000000E+00 -0.18544484657E+03  0.26560648224E+04  0.26495830898E+04 0.  0.
        4    1    3    3  502    0 -0.21059576050E+03 -0.31891033151E+03  0.11788508638E+04  0.12392519299E+04  0.12699999809E+01 0.  1.
       -4    1    3    3    0  502  0.21059576050E+03  0.31891033151E+03 -0.13642957104E+04  0.14168128924E+04  0.12699999809E+01 0. -1.
</event>
<event>
 5   0  0.1474012E-05  0.2708400E+04  0.7818609E-02  0.8332285E-01
        1   -1    0    0  501    0  0.00000000000E+00  0.00000000000E+00  0.22202030832E+04  0.22202030832E+04  0.50400001928E-02 0. -1.
       -1   -1    0    0    0  501  0.00000000000E+00  0.00000000000E+00 -0.82598639865E+03  0.82598639866E+03  0.50400001928E-02 0.  1.
    10030    2    1    2    0    0  0.00000000000E+00  0.00000000000E+00  0.13942166846E+04  0.30461894819E+04  0.27083999328E+04 0.  0.
        2    1    3    3  502    0  0.10806253264E+04 -0.30994136151E+03 -0.15206793708E+03  0.11344335155E+04  0.25500000920E-02 0.  1.
       -2    1    3    3    0  502 -0.10806253264E+04  0.30994136151E+03  0.15462846217E+04  0.19117559664E+04  0.25500000920E-02 0. -1.
</event>
<event>
 5   0  0.1449521E-05  0.2324663E+04  0.7818609E-02  0.8468260E-01
        1   -1    0    0  501    0  0.00000000000E+00  0.00000000000E+00  0.17209148748E+04  0.17209148748E+04  0.50400001928E-02 0.  1.
       -1   -1    0    0    0  501  0.00000000000E+00  0.00000000000E+00 -0.78505622284E+03  0.78505622286E+03  0.50400001928E-02 0. -1.
    10030    2    1    2    0    0  0.00000000000E+00  0.00000000000E+00  0.93585865192E+03  0.25059710976E+04  0.23246633575E+04 0.  0.
        3    1    3    3  502    0 -0.87644719293E+03  0.73988474752E+03  0.67082641615E+03  0.13287577704E+04  0.10100000352E+00 0. -1.
       -3    1    3    3    0  502  0.87644719293E+03 -0.73988474752E+03  0.26503223577E+03  0.11772133272E+04  0.10100000352E+00 0.  1.
</event>
<event>
 5   0  0.3568647E-05  0.2436723E+04  0.7818609E-02  0.8425882E-01
        2   -1    0    0  501    0  0.00000000000E+00  0.00000000000E+00  0.10246488733E+04  0.10246488733E+04  0.25500000920E-02 0. -1.
       -2   -1    0    0    0  501  0.00000000000E+00  0.00000000000E+00 -0.14486959836E+04  0.14486959836E+04  0.25500000920E-02 0.  1.
    10030    2    1    2    0    0  0.00000000000E+00  0.00000000000E+00 -0.42404711034E+03  0.24733448569E+04  0.24367229693E+04 0.  0.
        3    1    3    3  502    0 -0.48808941279E+03  0.18238632741E+03  0.90584969376E+03  0.10450166148E+04  0.10100000352E+00 0. -1.
       -3    1    3    3    0  502  0.48808941279E+03 -0.18238632741E+03 -0.13298968041E+04  0.14283282421E+04  0.10100000352E+00 0.  1.
</event>
<event>
 5   0  0.1474012E-05  0.1674667E+04  0.7818609E-02  0.8775946E-01
       -1   -1    0    0    0  501  0.00000000000E+00  0.00000000000E+00  0.10160234122E+04  0.10160234123E+04  0.50400001928E-02 0.  1.
        1   -1    0    0  501    0  0.00000000000E+00  0.00000000000E+00 -0.69006977369E+03  0.69006977370E+03  0.50400001928E-02 0. -1.
    10030    2    1    2    0    0  0.00000000000E+00  0.00000000000E+00  0.32595363856E+03  0.17060931860E+04  0.16746665891E+04 0.  0.
        2    1    3    3  502    0 -0.61969642915E+03 -0.51232240976E+03 -0.75138060864E+02  0.80755411214E+03  0.25500000920E-02 0.  1.
       -2    1    3    3    0  502  0.61969642915E+03  0.51232240976E+03  0.40109169943E+03  0.89853907383E+03  0.25500000920E-02 0. -1.
</event>
<event>
 5   0  0.1474012E-05  0.2650888E+04  0.7818609E-02  0.8351118E-01
       -1   -1    0    0    0  501  0.00000000000E+00  0.00000000000E+00  0.13101845443E+04  0.13101845443E+04  0.50400001928E-02 0.  1.
        1   -1    0    0  501    0  0.00000000000E+00  0.00000000000E+00 -0.13408816197E+04  0.13408816197E+04  0.50400001928E-02 0. -1.
    10030    2    1    2    0    0  0.00000000000E+00  0.00000000000E+00 -0.30697075451E+02  0.26510661640E+04  0.26508884351E+04 0.  0.
        2    1    3    3  502    0 -0.49288011150E+03  0.92239166359E+03 -0.82969128003E+03  0.13349624735E+04  0.25500000920E-02 0. -1.
       -2    1    3    3    0  502  0.49288011150E+03 -0.92239166359E+03  0.79899420458E+03  0.13161036906E+04  0.25500000920E-02 0.  1.
</event>
<event>
 5   0  0.3497949E-05  0.2701110E+04  0.7818609E-02  0.8334645E-01
       -2   -1    0    0    0  501  0.00000000000E+00  0.00000000000E+00  0.11521711620E+04  0.11521711620E+04  0.25500000920E-02 0.  1.
        2   -1    0    0  501    0  0.00000000000E+00  0.00000000000E+00 -0.15830968802E+04  0.15830968802E+04  0.25500000920E-02 0. -1.
    10030    2    1    2    0    0  0.00000000000E+00  0.00000000000E+00 -0.43092571816E+03  0.27352680422E+04  0.27011098253E+04 0.  0.
        5    1    3    3  502    0 -0.54954951297E+03 -0.41222999069E+03  0.96201334137E+03  0.11821294309E+04  0.46999998093E+01 0.  1.
       -5    1    3    3    0  502  0.54954951297E+03  0.41222999069E+03 -0.13929390595E+04  0.15531386113E+04  0.46999998093E+01 0. -1.
</event>
<event>
 5   0  0.3676724E-05  0.2579463E+04  0.7818609E-02  0.8375211E-01
       -2   -1    0    0    0  501  0.00000000000E+00  0.00000000000E+00  0.13681745277E+04  0.13681745277E+04  0.25500000920E-02 0. -1.
        2   -1    0    0  501    0  0.00000000000E+00  0.00000000000E+00 -0.12157861201E+04  0.12157861201E+04  0.25500000920E-02 0.  1.
    10030    2    1    2    0    0  0.00000000000E+00  0.00000000000E+00  0.15238840763E+03  0.25839606478E+04  0.25794632004E+04 0.  0.
        4    1    3    3  502    0  0.37765946785E+03  0.12235718594E+04  0.23025187283E+03  0.13010658349E+04  0.12699999809E+01 0.  1.
       -4    1    3    3    0  502 -0.37765946785E+03 -0.12235718594E+04 -0.77863465199E+02  0.12828948129E+04  0.12699999809E+01 0. -1.
</event>
<event>
 5   0  0.1474012E-05  0.2680538E+04  0.7818609E-02  0.8341347E-01
        1   -1    0    0  501    0  0.00000000000E+00  0.00000000000E+00  0.20432173172E+04  0.20432173172E+04  0.50400001928E-02 0.  1.
       -1   -1    0    0    0  501  0.00000000000E+00  0.00000000000E+00 -0.87916298074E+03  0.87916298075E+03  0.50400001928E-02 0. -1.
    10030    2    1    2    0    0  0.00000000000E+00  0.00000000000E+00  0.11640543365E+04  0.29223802980E+04  0.26805380258E+04 0.  0.
        2    1    3    3  502    0  0.12623083876E+03  0.10368516771E+04  0.14976350475E+04  0.18258987816E+04  0.25500000920E-02 0.  1.
       -2    1    3    3    0  502 -0.12623083876E+03 -0.10368516771E+04 -0.33358071105E+03  0.10964815164E+04  0.25500000920E-02 0. -1.
</event>
<event>
 5   0  0.1484379E-05  0.2708993E+04  0.7818609E-02  0.8332093E-01
        1   -1    0    0  501    0  0.00000000000E+00  0.00000000000E+00  0.19711064841E+04  0.19711064841E+04  0.50400001928E-02 0. -1.
       -1   -1    0    0    0  501  0.00000000000E+00  0.00000000000E+00 -0.93077738520E+03  0.93077738521E+03  0.50400001928E-02 0.  1.
    10030    2    1    2    0    0  0.00000000000E+00  0.00000000000E+00  0.10403290989E+04  0.29018838693E+04  0.27089934214E+04 0.  0.
        1    1    3    3  502    0 -0.13046037097E+04 -0.28846772483E+03  0.28194061206E+03  0.13655383467E+04  0.50400001928E-02 0.  1.
       -1    1    3    3    0  502  0.13046037097E+04  0.28846772483E+03  0.75838848683E+03  0.15363455226E+04  0.50400001928E-02 0. -1.
</event>
<event>
 5   0  0.1449521E-05  0.1550555E+04  0.7818609E-02  0.8851513E-01
        1   -1    0    0  501    0  0.00000000000E+00  0.00000000000E+00  0.12038852326E+04  0.12038852326E+04  0.50400001928E-02 0.  1.
       -1   -1    0    0    0  501  0.00000000000E+00  0.00000000000E+00 -0.49926273739E+03  0.49926273741E+03  0.50400001928E-02 0. -1.
    10030    2    1    2    0    0  0.00000000000E+00  0.00000000000E+00  0.70462249523E+03  0.17031479700E+04  0.15505547869E+04 0.  0.
        3    1    3    3  502    0 -0.20983119053E+03  0.69973080243E+03  0.67141192849E+02  0.73359408011E+03  0.10100000352E+00 0. -1.
       -3    1    3    3    0  502  0.20983119053E+03 -0.69973080243E+03  0.63748130238E+03  0.96955388993E+03  0.10100000352E+00 0.  1.
</event>
<event>
 5   0  0.3514294E-05  0.2769073E+04  0.7818609E-02  0.8312935E-01
       -2   -1    0    0    0  501  0.00000000000E+00  0.00000000000E+00  0.17069975148E+04  0.17069975148E+04  0.25500000920E-02 0.  1.
        2   -1    0    0  501    0  0.00000000000E+00  0.00000000000E+00 -0.11229904978E+04  0.11229904978E+04  0.25500000920E-02 0. -1.
    10030    2    1    2    0    0  0.00000000000E+00  0.00000000000E+00  0.58400701697E+03  0.28299880126E+04  0.27690734833E+04 0.  0.
        2    1    3    3  502    0  0.89818802290E+02  0.62310195045E+03  0.15522638052E+04  0.16750660820E+04  0.25500000920E-02 0.  1.
       -2    1    3    3    0  502 -0.89818802290E+02 -0.62310195045E+03 -0.96825678827E+03  0.11549219307E+04  0.25500000920E-02 0. -1.
</event>
<event>
 5   0  0.1484379E-05  0.2670013E+04  0.7818609E-02  0.8344801E-01
        1   -1    0    0  501    0  0.00000000000E+00  0.00000000000E+00  0.17522640511E+04  0.17522640511E+04  0.50400001928E-02 0.  1.
       -1   -1    0    0    0  501  0.00000000000E+00  0.00000000000E+00 -0.10171086629E+04  0.10171086630E+04  0.50400001928E-02 0. -1.
    10030    2    1    2    0    0  0.00000000000E+00  0.00000000000E+00  0.73515538818E+03  0.27693727141E+04  0.26700134428E+04 0.  0.
        1    1    3    3  502    0  0.29674945957E+03  0.12505955997E+04 -0.66727828970E+01  0.12853381352E+04  0.50400001928E-02 0. -1.
       -1    1    3    3    0  502 -0.29674945957E+03 -0.12505955997E+04  0.74182817108E+03  0.14840345789E+04  0.50400001928E-02 0.  1.
</event>
<event>
 5   0  0.3497949E-05  0.2596076E+04  0.7818609E-02  0.8369535E-01
        2   -1    0    0  501    0  0.00000000000E+00  0.00000000000E+00  0.11243377110E+04  0.11243377110E+04  0.25500000920E-02 0.  1.
       -2   -1    0    0    0  501  0.00000000000E+00  0.00000000000E+00 -0.14985734114E+04  0.14985734114E+04  0.25500000920E-02 0. -1.
    10030    2    1    2    0    0  0.00000000000E+00  0.00000000000E+00 -0.37423570036E+03  0.26229111225E+04  0.25960759613E+04 0.  0.
        5    1    3    3  502    0  0.10581953509E+03 -0.11682020971E+03  0.11146241054E+04  0.11257236436E+04  0.46999998093E+01 0.  1.
       -5    1    3    3    0  502 -0.10581953509E+03  0.11682020971E+03 -0.14888598058E+04  0.14971874788E+04  0.46999998093E+01 0. -1.
</event>
<event>
 5   0  0.1449521E-05  0.2728617E+04  0.7818609E-02  0.8325779E-01
        1   -1    0    0  501    0  0.00000000000E+00  0.00000000000E+00  0.15681453232E+04  0.15681453232E+04  0.50400001928E-02 0.  1.
       -1   -1    0    0    0  501  0.00000000000E+00  0.00000000000E+00 -0.11869678023E+04  0.11869678023E+04  0.50400001928E-02 0. -1.
    10030    2    1    2    0    0  0.00000000000E+00  0.00000000000E+00  0.38117752090E+03  0.27551131255E+04  0.27286172381E+04 0.  0.
        3    1    3    3  502    0 -0.93093016917E+02  0.10709421292E+04  0.10388384113E+04  0.14949142480E+04  0.10100000352E+00 0.  1.
       -3    1    3    3    0  502  0.93093016917E+02 -0.10709421292E+04 -0.65766089038E+03  0.12601988775E+04  0.10100000352E+00 0. -1.
</event>
<event>
 5   0  0.3514294E-05  0.2731597E+04  0.7818609E-02  0.8324825E-01
        2   -1    0    0  501    0  0.00000000000E+00  0.00000000000E+00  0.17248437304E+04  0.17248437304E+04  0.25500000920E-02 0. -1.
       -2   -1    0    0    0  501  0.00000000000E+00  0.00000000000E+00 -0.10814928306E+04  0.10814928306E+04  0.25500000920E-02 0.  1.
    10030    2    1    2    0    0  0.00000000000E+00  0.00000000000E+00  0.64335089979E+03  0.28063365611E+04  0.27315974289E+04 0.  0.
        2    1    3    3  502    0  0.11659311398E+04  0.66026165282E+03  0.59361627701E+03  0.14655105449E+04  0.25500000920E-02 0. -1.
       -2    1    3    3    0  502 -0.11659311398E+04 -0.66026165282E+03  0.49734622783E+02  0.13408260162E+04  0.25500000920E-02 0.  1.
</event>
<event>
 5   0  0.1228050E-05  0.2672389E+04  0.7818609E-02  0.8344020E-01
       -3   -1    0    0    0  501  0.00000000000E+00  0.00000000000E+00  0.13483578557E+04  0.13483578595E+04  0.10100000352E+00 0.  1.
        3   -1    0    0  501    0  0.00000000000E+00  0.00000000000E+00 -0.13241411283E+04  0.13241411322E+04  0.10100000352E+00 0. -1.
    10030    2    1    2    0    0  0.00000000000E+00  0.00000000000E+00  0.24216727367E+02  0.26724989916E+04  0.26723892700E+04 0.  0.
        3    1    3    3  502    0 -0.10267472027E+04 -0.78365959810E+02  0.86365084089E+03  0.13439657090E+04  0.10100000352E+00 0.  1.
       -3    1    3    3    0  502  0.10267472027E+04  0.78365959810E+02 -0.83943411353E+03  0.13285332826E+04  0.10100000352E+00 0. -1.
</event>
<event>
 5   0  0.3497949E-05  0.2465775E+04  0.7818609E-02  0.8415281E-01
        2   -1    0    0  501    0  0.00000000000E+00  0.00000000000E+00  0.19480189389E+04  0.19480189389E+04  0.25500000920E-02 0.  1.
       -2   -1    0    0    0  501  0.00000000000E+00  0.00000000000E+00 -0.78028580095E+03  0.78028580095E+03  0.25500000920E-02 0. -1.
    10030    2    1    2    0    0  0.00000000000E+00  0.00000000000E+00  0.11677331380E+04  0.27283047399E+04  0.24657749435E+04 0.  0.
        5    1    3    3  502    0  0.17198983574E+03  0.87744197943E+03  0.15230659342E+04  0.17661361388E+04  0.46999998093E+01 0.  1.
       -5    1    3    3    0  502 -0.17198983574E+03 -0.87744197943E+03 -0.35533279621E+03  0.96216860109E+03  0.46999998093E+01 0. -1.
</event>
<event>
 5   0  0.1484379E-05  0.2410414E+04  0.7818609E-02  0.8435615E-01
       -1   -1    0    0    0  501  0.00000000000E+00  0.00000000000E+00  0.64021600896E+03  0.64021600898E+03  0.50400001928E-02 0. -1.
        1   -1    0    0  501    0  0.00000000000E+00  0.00000000000E+00 -0.22688037255E+04  0.22688037255E+04  0.50400001928E-02 0.  1.
    10030    2    1    2    0    0  0.00000000000E+00  0.00000000000E+00 -0.16285877165E+04  0.29090197345E+04  0.24104144592E+04 0.  0.
        1    1    3    3  502    0  0.73911851587E+02 -0.50410140849E+03 -0.21324438769E+04  0.21924639290E+04  0.50400001928E-02 0.  1.
       -1    1    3    3    0  502 -0.73911851587E+02  0.50410140849E+03  0.50385616043E+03  0.71655580541E+03  0.50400001928E-02 0. -1.
</event>
<event>
 5   0  0.1438701E-05  0.2522452E+04  0.7818609E-02  0.8395030E-01
       -1   -1    0    0    0  501  0.00000000000E+00  0.00000000000E+00  0.64097257696E+03  0.64097257698E+03  0.50400001928E-02 0.  1.
        1   -1    0    0  501    0  0.00000000000E+00  0.00000000000E+00 -0.24816827297E+04  0.24816827297E+04  0.50400001928E-02 0. -1.
    10030    2    1    2    0    0  0.00000000000E+00  0.00000000000E+00 -0.18407101528E+04  0.31226553067E+04  0.25224516443E+04 0.  0.
        4    1    3    3  502    0  0.97724980413E+03  0.79438560441E+03 -0.83618127761E+03  0.15117097638E+04  0.12699999809E+01 0.  1.
       -4    1    3    3    0  502 -0.97724980413E+03 -0.79438560441E+03 -0.10045288752E+04  0.16109455429E+04  0.12699999809E+01 0. -1.
</event>
<event>
 5   0  0.3568647E-05  0.3062629E+04  0.7818609E-02  0.8226070E-01
        2   -1    0    0  501    0  0.00000000000E+00  0.00000000000E+00  0.16760542482E+04  0.16760542482E+04  0.25500000920E-02 0. -1.
       -2   -1    0    0    0  501  0.00000000000E+00  0.00000000000E+00 -0.13990741373E+04  0.13990741373E+04  0.25500000920E-02 0.  1.
    10030    2    1    2    0    0  0.00000000000E+00  0.00000000000E+00  0.27698011089E+03  0.30751283855E+04  0.30626290349E+04 0.  0.
        3    1    3    3  502    0 -0.14762607136E+04 -0.38225994991E+03  0.27854329192E+03  0.15501789379E+04  0.10100000352E+00 0. -1.
       -3    1    3    3    0  502  0.14762607136E+04  0.38225994991E+03 -0.15631810363E+01  0.15249494476E+04  0.10100000352E+00 0.  1.
</event>
<event>
 5   0  0.1495517E-05  0.2572769E+04  0.7818609E-02  0.8377510E-01
        1   -1    0    0  501    0  0.00000000000E+00  0.00000000000E+00  0.20099195383E+04  0.20099195383E+04  0.50400001928E-02 0.  1.
       -1   -1    0    0    0  501  0.00000000000E+00  0.00000000000E+00 -0.82330932175E+03  0.82330932177E+03  0.50400001928E-02 0. -1.
    10030    2    1    2    0    0  0.00000000000E+00  0.00000000000E+00  0.11866102165E+04  0.28332288600E+04  0.25727693187E+04 0.  0.
        5    1    3    3  502    0 -0.31456806248E+03  0.57653410437E+03  0.18113642549E+04  0.19267608033E+04  0.46999998093E+01 0.  1.
       -5    1    3    3    0  502  0.31456806248E+03 -0.57653410437E+03 -0.62475403835E+03  0.90646805672E+03  0.46999998093E+01 0. -1.
</event>
<event>
 5   0  0.3652331E-05  0.2683925E+04  0.7818609E-02  0.8340240E-01
       -2   -1    0    0    0  501  0.00000000000E+00  0.00000000000E+00  0.14423243264E+04  0.14423243264E+04  0.25500000920E-02 0. -1.
        2   -1    0    0  501    0  0.00000000000E+00  0.00000000000E+00 -0.12485840381E+04  0.12485840381E+04  0.25500000920E-02 0.  1.
    10030    2    1    2    0    0  0.00000000000E+00  0.00000000000E+00  0.19374028833E+03  0.26909083645E+04  0.26839248362E+04 0.  0.
        1    1    3    3  502    0  0.38989951963E+03  0.98130252541E+03  0.92720792247E+03  0.14052369243E+04  0.50400001928E-02 0. -1.
       -1    1    3    3    0  502 -0.38989951963E+03 -0.98130252541E+03 -0.73346763414E+03  0.12856714402E+04  0.50400001928E-02 0.  1.
</event>
<event>
 5   0  0.1484379E-05  0.2708031E+04  0.7818609E-02  0.8332404E-01
       -1   -1    0    0    0  501  0.00000000000E+00  0.00000000000E+00  0.67304460594E+03  0.67304460596E+03  0.50400001928E-02 0. -1.
        1   -1    0    0  501    0  0.00000000000E+00  0.00000000000E+00 -0.27239766810E+04  0.27239766810E+04  0.50400001928E-02 0.  1.
    10030    2    1    2    0    0  0.00000000000E+00  0.00000000000E+00 -0.20509320751E+04  0.33970212870E+04  0.27080308801E+04 0.  0.
        1    1    3    3  502    0  0.97357868271E+02  0.31726573711E+03  0.62123680282E+03  0.70432326929E+03  0.50400001928E-02 0. -1.
       -1    1    3    3    0  502 -0.97357868271E+02 -0.31726573711E+03 -0.26721688779E+04  0.26926980177E+04  0.50400001928E-02 0.  1.
</event>
<event>
 5   0  0.3514294E-05  0.2671740E+04  0.7818609E-02  0.8344233E-01
       -2   -1    0    0    0  501  0.00000000000E+00  0.00000000000E+00  0.11648600082E+04  0.11648600082E+04  0.25500000920E-02 0. -1.
        2   -1    0    0  501    0  0.00000000000E+00  0.00000000000E+00 -0.15319853189E+04  0.15319853189E+04  0.25500000920E-02 0.  1.
    10030    2    1    2    0    0  0.00000000000E+00  0.00000000000E+00 -0.36712531069E+03  0.26968453272E+04  0.26717398311E+04 0.  0.
        2    1    3    3  502    0 -0.77117488941E+03 -0.12026967867E+03 -0.12778962084E+04  0.14973958144E+04  0.25500000920E-02 0.  1.
       -2    1    3    3    0  502  0.77117488941E+03  0.12026967867E+03  0.91077089766E+03  0.11994495128E+04  0.25500000920E-02 0. -1.
</event>
<event>
 5   0  0.1449521E-05  0.2829711E+04  0.7818609E-02  0.8294103E-01
        1   -1    0    0  501    0  0.00000000000E+00  0.00000000000E+00  0.21574722541E+04  0.21574722541E+04  0.50400001928E-02 0. -1.
       -1   -1    0    0    0  501  0.00000000000E+00  0.00000000000E+00 -0.92785256831E+03  0.92785256832E+03  0.50400001928E-02 0.  1.
    10030    2    1    2    0    0  0.00000000000E+00  0.00000000000E+00  0.12296196858E+04  0.30853248225E+04  0.28297110609E+04 0.  0.
        3    1    3    3  502    0  0.71198856396E+03  0.89907930713E+03 -0.28861755364E+03  0.11826121165E+04  0.10100000352E+00 0.  1.
       -3    1    3    3    0  502 -0.71198856396E+03 -0.89907930713E+03  0.15182372395E+04  0.19027127059E+04  0.10100000352E+00 0. -1.
</event>
<event>
 5   0  0.3676724E-05  0.2703046E+04  0.7818609E-02  0.8334017E-01
       -2   -1    0    0    0  501  0.00000000000E+00  0.00000000000E+00  0.10823210874E+04  0.10823210874E+04  0.25500000920E-02 0. -1.
        2   -1    0    0  501    0  0.00000000000E+00  0.00000000000E+00 -0.16876827275E+04  0.16876827275E+04  0.25500000920E-02 0.  1.
    10030    2    1    2    0    0  0.00000000000E+00  0.00000000000E+00 -0.60536164009E+03  0.27700038149E+04  0.27030461371E+04 0.  0.
        4    1    3    3  502    0 -0.80278228416E+03  0.10773438602E+04 -0.45288516340E+03  0.14178278361E+04  0.12699999809E+01 0. -1.
       -4    1    3    3    0  502  0.80278228416E+03 -0.10773438602E+04 -0.15247647669E+03  0.13521759788E+04  0.12699999809E+01 0.  1.
</event>
<event>
 5   0  0.3652331E-05  0.2741175E+04  0.7818609E-02  0.8321767E-01
       -2   -1    0    0    0  501  0.00000000000E+00  0.00000000000E+00  0.10565289704E+04  0.10565289704E+04  0.25500000920E-02 0.  1.
        2   -1    0    0  501    0  0.00000000000E+00  0.00000000000E+00 -0.17780018790E+04  0.17780018790E+04  0.25500000920E-02 0. -1.
    10030    2    1    2    0    0  0.00000000000E+00  0.00000000000E+00 -0.72147290854E+03  0.28345308494E+04  0.27411752915E+04 0.  0.
        1    1    3    3  502    0 -0.19759634790E+03 -0.10365441311E+04  0.54371892069E+03  0.11870544711E+04  0.50400001928E-02 0.  1.
       -1    1    3    3    0  502  0.19759634790E+03  0.10365441311E+04 -0.12651918292E+04  0.16474763784E+04  0.50400001928E-02 0. -1.
</event>
<event>
 5   0  0.1449521E-05  0.1654713E+04  0.7818609E-02  0.8787623E-01
        1   -1    0    0  501    0  0.00000000000E+00  0.00000000000E+00  0.53292847562E+03  0.53292847564E+03  0.50400001928E-02 0. -1.
       -1   -1    0    0    0  501  0.00000000000E+00  0.00000000000E+00 -0.12844476059E+04  0.12844476059E+04  0.50400001928E-02 0.  1.
    10030    2    1    2    0    0  0.00000000000E+00  0.00000000000E+00 -0.75151913029E+03  0.18173760816E+04  0.16547129112E+04 0.  0.
        3    1    3    3  502    0 -0.30359894496E+02 -0.58109402104E+03  0.27021318890E+03  0.64156617908E+03  0.10100000352E+00 0. -1.
       -3    1    3    3    0  502  0.30359894496E+02  0.58109402104E+03 -0.10217323192E+04  0.11758099025E+04  0.10100000352E+00 0.  1.
</event>
<event>
 5   0  0.1495517E-05  0.2725912E+04  0.7818609E-02  0.8326646E-01
       -1   -1    0    0    0  501  0.00000000000E+00  0.00000000000E+00  0.10151410005E+04  0.10151410005E+04  0.50400001928E-02 0. -1.
        1   -1    0    0  501    0  0.00000000000E+00  0.00000000000E+00 -0.18299424023E+04  0.18299424023E+04  0.50400001928E-02 0.  1.
    10030    2    1    2    0    0  0.00000000000E+00  0.00000000000E+00 -0.81480140178E+03  0.28450834028E+04  0.27259123692E+04 0.  0.
        5    1    3    3  502    0  0.11951070892E+04 -0.28089677307E+03 -0.10252636150E+04  0.15994910197E+04  0.46999998093E+01 0.  1.
       -5    1    3    3    0  502 -0.11951070892E+04  0.28089677307E+03  0.21046221321E+03  0.12455923831E+04  0.46999998093E+01 0. -1.
</event>
<event>
 5   0  0.1449521E-05  0.2335561E+04  0.7818609E-02  0.8464031E-01
        1   -1    0    0  501    0  0.00000000000E+00  0.00000000000E+00  0.12445225227E+04  0.12445225227E+04  0.50400001928E-02 0. -1.
       -1   -1    0    0    0  501  0.00000000000E+00  0.00000000000E+00 -0.10957704086E+04  0.10957704087E+04  0.50400001928E-02 0.  1.
    10030    2    1    2    0    0  0.00000000000E+00  0.00000000000E+00  0.14875211403E+03  0.23402929313E+04  0.23355607063E+04 0.  0.
        3    1    3    3  502    0 -0.46147482614E+03 -0.95548877657E+03 -0.41425234666E+03  0.11390885981E+04  0.10100000352E+00 0.  1.
       -3    1    3    3    0  502  0.46147482614E+03  0.95548877657E+03  0.56300446069E+03  0.12012043333E+04  0.10100000352E+00 0. -1.
</event>
<event>
 5   0  0.1495517E-05  0.2738785E+04  0.7818609E-02  0.8322529E-01
        1   -1    0    0  501    0  0.00000000000E+00  0.00000000000E+00  0.10839405638E+04  0.10839405638E+04  0.50400001928E-02 0. -1.
       -1   -1    0    0    0  501  0.00000000000E+00  0.00000000000E+00 -0.17300178140E+04  0.17300178140E+04  0.50400001928E-02 0.  1.
    10030    2    1    2    0    0  0.00000000000E+00  0.00000000000E+00 -0.64607725020E+03  0.28139583778E+04  0.27387854861E+04 0.  0.
        5    1    3    3  502    0  0.11603402191E+04 -0.56321598389E+02  0.42188056532E+03  0.12359477529E+04  0.46999998093E+01 0. -1.
       -5    1    3    3    0  502 -0.11603402191E+04  0.56321598389E+02 -0.10679578155E+04  0.15780106249E+04  0.46999998093E+01 0.  1.
</event>
<event>
 5   0  0.3514294E-05  0.2602336E+04  0.7818609E-02  0.8367408E-01
        2   -1    0    0  501    0  0.00000000000E+00  0.00000000000E+00  0.22539578421E+04  0.22539578422E+04  0.25500000920E-02 0. -1.
       -2   -1    0    0    0  501  0.00000000000E+00  0.00000000000E+00 -0.75114016890E+03  0.75114016890E+03  0.25500000920E-02 0.  1.
    10030    2    1    2    0    0  0.00000000000E+00  0.00000000000E+00  0.15028176732E+04  0.30050980111E+04  0.26023360846E+04 0.  0.
        2    1    3    3  502    0  0.36077570327E+03 -0.94969716595E+03 -0.18740833754E+03  0.10330564845E+04  0.25500000920E-02 0.  1.
       -2    1    3    3    0  502 -0.36077570327E+03  0.94969716595E+03  0.16902260108E+04  0.19720415266E+04  0.25500000920E-02 0. -1.
</event>
<event>
 5   0  0.1449521E-05  0.2718424E+04  0.7818609E-02  0.8329052E-01
       -1   -1    0    0    0  501  0.00000000000E+00  0.00000000000E+00  0.18540346210E+04  0.18540346210E+04  0.50400001928E-02 0.  1.
        1   -1    0    0  501    0  0.00000000000E+00  0.00000000000E+00 -0.99645207833E+03  0.99645207834E+03  0.50400001928E-02 0. -1.
    10030    2    1    2    0    0  0.00000000000E+00  0.00000000000E+00  0.85758254266E+03  0.28504866993E+04  0.27184235516E+04 0.  0.
        3    1    3    3  502    0  0.27048674620E+03 -0.68131483616E+03 -0.77141177278E+03  0.10641565295E+04  0.10100000352E+00 0. -1.
       -3    1    3    3    0  502 -0.27048674620E+03  0.68131483616E+03  0.16289943154E+04  0.17863301699E+04  0.10100000352E+00 0.  1.
</event>
<event>
 5   0  0.3652331E-05  0.2719544E+04  0.7818609E-02  0.8328691E-01
        2   -1    0    0  501    0  0.00000000000E+00  0.00000000000E+00  0.16462746706E+04  0.16462746706E+04  0.25500000920E-02 0.  1.
       -2   -1    0    0    0  501  0.00000000000E+00  0.00000000000E+00 -0.11231299546E+04  0.11231299546E+04  0.25500000920E-02 0. -1.
    10030    2    1    2    0    0  0.00000000000E+00  0.00000000000E+00  0.52314471591E+03  0.27694046252E+04  0.27195443707E+04 0.  0.
        1    1    3    3  502    0 -0.65088776591E+03 -0.25201338111E+03  0.14499358027E+04  0.16091859619E+04  0.50400001928E-02 0.  1.
       -1    1    3    3    0  502  0.65088776591E+03  0.25201338111E+03 -0.92679108679E+03  0.11602186633E+04  0.50400001928E-02 0. -1.
</event>
<event>
 5   0  0.3676724E-05  0.2743420E+04  0.7818609E-02  0.8321053E-01
       -2   -1    0    0    0  501  0.00000000000E+00  0.00000000000E+00  0.10204964529E+04  0.10204964529E+04  0.25500000920E-02 0.  1.
        2   -1    0    0  501    0  0.00000000000E+00  0.00000000000E+00 -0.18437974918E+04  0.18437974918E+04  0.25500000920E-02 0. -1.
    10030    2    1    2    0    0  0.00000000000E+00  0.00000000000E+00 -0.82330103895E+03  0.28642939447E+04  0.27434203471E+04 0.  0.
        4    1    3    3  502    0  0.10960485123E+04 -0.15295468053E+03 -0.12578345950E+04  0.16753706924E+04  0.12699999809E+01 0. -1.
       -4    1    3    3    0  502 -0.10960485123E+04  0.15295468053E+03  0.43453355604E+03  0.11889232523E+04  0.12699999809E+01 0.  1.
</event>
<event>
 5   0  0.1449521E-05  0.2312248E+04  0.7818609E-02  0.8473108E-01
        1   -1    0    0  501    0  0.00000000000E+00  0.00000000000E+00  0.19741448788E+04  0.19741448788E+04  0.50400001928E-02 0.  1.
       -1   -1    0    0    0  501  0.00000000000E+00  0.00000000000E+00 -0.67706390914E+03  0.67706390916E+03  0.50400001928E-02 0. -1.
    10030    2    1    2    0    0  0.00000000000E+00  0.00000000000E+00  0.12970809697E+04  0.26512087880E+04  0.23122476069E+04 0.  0.
        3    1    3    3  502    0 -0.13161895470E+03  0.40281616311E+03 -0.58480108880E+03  0.72220269604E+03  0.10100000352E+00 0. -1.
       -3    1    3    3    0  502  0.13161895470E+03 -0.40281616311E+03  0.18818820585E+04  0.19290060919E+04  0.10100000352E+00 0.  1.
</event>
<event>
 5   0  0.3568647E-05  0.2804325E+04  0.7818609E-02  0.8301927E-01
       -2   -1    0    0    0  501  0.00000000000E+00  0.00000000000E+00  0.94946763791E+03  0.94946763791E+03  0.25500000920E-02 0. -1.
        2   -1    0    0  501    0  0.00000000000E+00  0.00000000000E+00 -0.20706972347E+04  0.20706972347E+04  0.25500000920E-02 0.  1.
    10030    2    1    2    0    0  0.00000000000E+00  0.00000000000E+00 -0.11212295967E+04  0.30201648726E+04  0.28043252395E+04 0.  0.
        3    1    3    3  502    0  0.71346230475E+03 -0.96395427254E+03 -0.13430469993E+04  0.18005586779E+04  0.10100000352E+00 0.  1.
       -3    1    3    3    0  502 -0.71346230475E+03  0.96395427254E+03  0.22181740259E+03  0.12196061947E+04  0.10100000352E+00 0. -1.
</event>
<event>
 5   0  0.3568647E-05  0.1609894E+04  0.7818609E-02  0.8814492E-01
       -2   -1    0    0    0  501  0.00000000000E+00  0.00000000000E+00  0.91641978180E+03  0.91641978180E+03  0.25500000920E-02 0. -1.
        2   -1    0    0  501    0  0.00000000000E+00  0.00000000000E+00 -0.70703409722E+03  0.70703409723E+03  0.25500000920E-02 0.  1.
    10030    2    1    2    0    0  0.00000000000E+00  0.00000000000E+00  0.20938568458E+03  0.16234538790E+04  0.16098944476E+04 0.  0.
        3    1    3    3  502    0  0.71466682729E+02 -0.13567404604E+03 -0.69216843828E+03  0.70895140219E+03  0.10100000352E+00 0.  1.
       -3    1    3    3    0  502 -0.71466682729E+02  0.13567404604E+03  0.90155412286E+03  0.91450247684E+03  0.10100000352E+00 0. -1.
</event>
<event>
 5   0  0.1474012E-05  0.2578112E+04  0.7818609E-02  0.8375674E-01
       -1   -1    0    0    0  501  0.00000000000E+00  0.00000000000E+00  0.12555326745E+04  0.12555326745E+04  0.50400001928E-02 0.  1.
        1   -1    0    0  501    0  0.00000000000E+00  0.00000000000E+00 -0.13234742941E+04  0.13234742941E+04  0.50400001928E-02 0. -1.
    10030    2    1    2    0    0  0.00000000000E+00  0.00000000000E+00 -0.67941619679E+02  0.25790069686E+04  0.25781118828E+04 0.  0.
        2    1    3    3  502    0 -0.11809725121E+04 -0.33187049723E+03 -0.43012739144E+03  0.12999398732E+04  0.25500000920E-02 0. -1.
       -2    1    3    3    0  502  0.11809725121E+04  0.33187049723E+03  0.36218577176E+03  0.12790670954E+04  0.25500000920E-02 0.  1.
</event>
<event>
 5   0  0.1495517E-05  0.2780140E+04  0.7818609E-02  0.8309461E-01
        1   -1    0    0  501    0  0.00000000000E+00  0.00000000000E+00  0.21499654368E+04  0.21499654368E+04  0.50400001928E-02 0.  1.
       -1   -1    0    0    0  501  0.00000000000E+00  0.00000000000E+00 -0.89875592745E+03  0.89875592746E+03  0.50400001928E-02 0. -1.
    10030    2    1    2    0    0  0.00000000000E+00  0.00000000000E+00  0.12512095094E+04  0.30487213643E+04  0.27801396945E+04 0.  0.
        5    1    3    3  502    0  0.11011280379E+04  0.83584498427E+03  0.78509344064E+03  0.15898155849E+04  0.46999998093E+01 0.  1.
       -5    1    3    3    0  502 -0.11011280379E+04 -0.83584498427E+03  0.46611606875E+03  0.14589057794E+04  0.46999998093E+01 0. -1.
</event>
<event>
 5   0  0.1484379E-05  0.2711617E+04  0.7818609E-02  0.8331246E-01
       -1   -1    0    0    0  501  0.00000000000E+00  0.00000000000E+00  0.18200645900E+04  0.18200645900E+04  0.50400001928E-02 0.  1.
        1   -1    0    0  501    0  0.00000000000E+00  0.00000000000E+00 -0.10099731261E+04  0.10099731261E+04  0.50400001928E-02 0. -1.
    10030    2    1    2    0    0  0.00000000000E+00  0.00000000000E+00  0.81009146388E+03  0.28300377161E+04  0.27116167308E+04 0.  0.
        1    1    3    3  502    0  0.77286668259E+03  0.58449422760E+03 -0.58466102533E+03  0.11317176882E+04  0.50400001928E-02 0. -1.
       -1    1    3    3    0  502 -0.77286668259E+03 -0.58449422760E+03  0.13947524892E+04  0.16983200280E+04  0.50400001928E-02 0.  1.
</event>
<event>
 5   0  0.3497949E-05  0.2153703E+04  0.7818609E-02  0.8537949E-01
       -2   -1    0    0    0  501  0.00000000000E+00  0.00000000000E+00  0.11044135030E+04  0.11044135030E+04  0.25500000920E-02 0.  1.
        2   -1    0    0  501    0  0.00000000000E+00  0.00000000000E+00 -0.10499774696E+04  0.10499774696E+04  0.25500000920E-02 0. -1.
    10030    2    1    2    0    0  0.00000000000E+00  0.00000000000E+00  0.54436033447E+02  0.21543909726E+04  0.21537031321E+04 0.  0.
        5    1    3    3  502    0  0.60385937821E+03  0.81340910458E+03  0.39244650503E+03  0.10864238903E+04  0.46999998093E+01 0.  1.
       -5    1    3    3    0  502 -0.60385937821E+03 -0.81340910458E+03 -0.33801047159E+03  0.10679670823E+04  0.46999998093E+01 0. -1.
</event>
<event>
 5   0  0.3568647E-05  0.2723097E+04  0.7818609E-02  0.8327549E-01
        2   -1    0    0  501    0  0.00000000000E+00  0.00000000000E+00  0.14473186596E+04  0.14473186596E+04  0.25500000920E-02 0.  1.
       -2   -1    0    0    0  501  0.00000000000E+00  0.00000000000E+00 -0.12808612065E+04  0.12808612065E+04  0.25500000920E-02 0. -1.
    10030    2    1    2    0    0  0.00000000000E+00  0.00000000000E+00  0.16645745309E+03  0.27281798661E+04  0.27230970049E+04 0.  0.
        3    1    3    3  502    0 -0.77534169487E+03 -0.11043597256E+04 -0.98904904607E+02  0.13529772126E+04  0.10100000352E+00 0. -1.
       -3    1    3    3    0  502  0.77534169487E+03  0.11043597256E+04  0.26536235770E+03  0.13752026536E+04  0.10100000352E+00 0.  1.
</event>
<event>
 5   0  0.3676724E-05  0.2659147E+04  0.7818609E-02  0.8348383E-01
        2   -1    0    0  501    0  0.00000000000E+00  0.00000000000E+00  0.12372718313E+04  0.12372718313E+04  0.25500000920E-02 0. -1.
       -2   -1    0    0    0  501  0.00000000000E+00  0.00000000000E+00 -0.14287612968E+04  0.14287612968E+04  0.25500000920E-02 0.  1.
    10030    2    1    2    0    0  0.00000000000E+00  0.00000000000E+00 -0.19148946544E+03  0.26660331281E+04  0.26591473116E+04 0.  0.
        4    1    3    3  502    0  0.61808132359E+03  0.60144333914E+03 -0.11102968696E+04  0.14058873939E+04  0.12699999809E+01 0.  1.
       -4    1    3    3    0  502 -0.61808132359E+03 -0.60144333914E+03  0.91880740411E+03  0.12601457342E+04  0.12699999809E+01 0. -1.
</event>
<event>
 5   0  0.3568647E-05  0.2624858E+04  0.7818609E-02  0.8359806E-01
       -2   -1    0    0    0  501  0.00000000000E+00  0.00000000000E+00  0.88180419844E+03  0.88180419844E+03  0.25500000920E-02 0. -1.
        2   -1    0    0  501    0  0.00000000000E+00  0.00000000000E+00 -0.19533478770E+04  0.19533478770E+04  0.25500000920E-02 0.  1.
    10030    2    1    2    0    0  0.00000000000E+00  0.00000000000E+00 -0.10715436786E+04  0.28351520754E+04  0.26248583649E+04 0.  0.
        3    1    3    3  502    0  0.29424537764E+03 -0.76713699165E+02 -0.19147740269E+04  0.19387689182E+04  0.10100000352E+00 0.  1.
       -3    1    3    3    0  502 -0.29424537764E+03  0.76713699165E+02  0.84323034837E+03  0.89638315720E+03  0.10100000352E+00 0. -1.
</event>
<event>
 5   0  0.1495517E-05  0.2679112E+04  0.7818609E-02  0.8341814E-01
       -1   -1    0    0    0  501  0.00000000000E+00  0.00000000000E+00  0.10861976609E+04  0.10861976609E+04  0.50400001928E-02 0.  1.
        1   -1    0    0  501    0  0.00000000000E+00  0.00000000000E+00 -0.16520107578E+04  0.16520107578E+04  0.50400001928E-02 0. -1.
    10030    2    1    2    0    0  0.00000000000E+00  0.00000000000E+00 -0.56581309690E+03  0.27382084187E+04  0.26791119580E+04 0.  0.
        5    1    3    3  502    0  0.11495603841E+04  0.40425876770E+03 -0.85148141038E+03  0.14865923820E+04  0.46999998093E+01 0. -1.
       -5    1    3    3    0  502 -0.11495603841E+04 -0.40425876770E+03  0.28566831348E+03  0.12516160367E+04  0.46999998093E+01 0.  1.
</event>
<event>
 5   0  0.1438701E-05  0.1670635E+04  0.7818609E-02  0.8778292E-01
        1   -1    0    0  501    0  0.00000000000E+00  0.00000000000E+00  0.14575123454E+04  0.14575123454E+04  0.50400001928E-02 0.  1.
       -1   -1    0    0    0  501  0.00000000000E+00  0.00000000000E+00 -0.47873050298E+03  0.47873050300E+03  0.50400001928E-02 0. -1.
    10030    2    1    2    0    0  0.00000000000E+00  0.00000000000E+00  0.97878184238E+03  0.19362428484E+04  0.16706353501E+04 0.  0.
        4    1    3    3  502    0 -0.72820882238E+03 -0.32040875380E+03  0.78443001034E+03  0.11172653725E+04  0.12699999809E+01 0.  1.
       -4    1    3    3    0  502  0.72820882238E+03  0.32040875380E+03  0.19435183203E+03  0.81897747589E+03  0.12699999809E+01 0. -1.
</event>
<event>
 5   0  0.1495517E-05  0.2669765E+04  0.7818609E-02  0.8344882E-01
       -1   -1    0    0    0  501  0.00000000000E+00  0.00000000000E+00  0.11654515898E+04  0.11654515898E+04  0.50400001928E-02 0. -1.
        1   -1    0    0  501    0  0.00000000000E+00  0.00000000000E+00 -0.15289447686E+04  0.15289447686E+04  0.50400001928E-02 0.  1.
    10030    2    1    2    0    0  0.00000000000E+00  0.00000000000E+00 -0.36349317876E+03  0.26943963584E+04  0.26697648670E+04 0.  0.
        5    1    3    3  502    0 -0.15581290043E+03 -0.10689058540E+04 -0.97323445028E+03  0.14539755053E+04  0.46999998093E+01 0.  1.
       -5    1    3    3    0  502  0.15581290043E+03  0.10689058540E+04  0.60974127153E+03  0.12404208531E+04  0.46999998093E+01 0. -1.
</event>
<event>
 5   0  0.1438701E-05  0.2713781E+04  0.7818609E-02  0.8330547E-01
        1   -1    0    0  501    0  0.00000000000E+00  0.00000000000E+00  0.19537598179E+04  0.19537598179E+04  0.50400001928E-02 0. -1.
       -1   -1    0    0    0  501  0.00000000000E+00  0.00000000000E+00 -0.94236374034E+03  0.94236374035E+03  0.50400001928E-02 0.  1.
    10030    2    1    2    0    0  0.00000000000E+00  0.00000000000E+00  0.10113960775E+04  0.28961235582E+04  0.27137814280E+04 0.  0.
        4    1    3    3  502    0 -0.99039158644E+03 -0.91796547438E+03  0.36406005868E+03  0.13985983862E+04  0.12699999809E+01 0.  1.
       -4    1    3    3    0  502  0.99039158644E+03  0.91796547438E+03  0.64733601883E+03  0.14975251720E+04  0.12699999809E+01 0. -1.
</event>
<event>
 5   0  0.3568647E-05  0.2840241E+04  0.7818609E-02  0.8290883E-01
        2   -1    0    0  501    0  0.00000000000E+00  0.00000000000E+00  0.14462382849E+04  0.14462382849E+04  0.25500000920E-02 0. -1.
       -2   -1    0    0    0  501  0.00000000000E+00  0.00000000000E+00 -0.13944744682E+04  0.13944744682E+04  0.25500000920E-02 0.  1.
    10030    2    1    2    0    0  0.00000000000E+00  0.00000000000E+00  0.51763816745E+02  0.28407127531E+04  0.28402410907E+04 0.  0.
        3    1    3    3  502    0 -0.62152349218E+03  0.12751092950E+04 -0.41562126139E+02  0.14191274031E+04  0.10100000352E+00 0.  1.
       -3    1    3    3    0  502  0.62152349218E+03 -0.12751092950E+04  0.93325942885E+02  0.14215853500E+04  0.10100000352E+00 0. -1.
</event>
<event>
 5   0  0.1449521E-05  0.2779892E+04  0.7818609E-02  0.8309538E-01
       -1   -1    0    0    0  501  0.00000000000E+00  0.00000000000E+00  0.12911678121E+04  0.12911678121E+04  0.50400001928E-02 0. -1.
        1   -1    0    0  501    0  0.00000000000E+00  0.00000000000E+00 -0.14962811837E+04  0.14962811838E+04  0.50400001928E-02 0.  1.
    10030    2    1    2    0    0  0.00000000000E+00  0.00000000000E+00 -0.20511337165E+03  0.27874489959E+04  0.27798921579E+04 0.  0.
        3    1    3    3  502    0 -0.85441679566E+03 -0.84826224751E+03 -0.79897560772E+03  0.14449702188E+04  0.10100000352E+00 0.  1.
       -3    1    3    3    0  502  0.85441679566E+03  0.84826224751E+03  0.59386223607E+03  0.13424787771E+04  0.10100000352E+00 0. -1.
</event>
<event>
 5   0  0.3497949E-05  0.2610266E+04  0.7818609E-02  0.8364722E-01
       -2   -1    0    0    0  501  0.00000000000E+00  0.00000000000E+00  0.10523712283E+04  0.10523712283E+04  0.25500000920E-02 0. -1.
        2   -1    0    0  501    0  0.00000000000E+00  0.00000000000E+00 -0.16186043272E+04  0.16186043272E+04  0.25500000920E-02 0.  1.
    10030    2    1    2    0    0  0.00000000000E+00  0.00000000000E+00 -0.56623309885E+03  0.26709755555E+04  0.26102663649E+04 0.  0.
        5    1    3    3  502    0 -0.88323342229E+02  0.12290154279E+04  0.15708726531E+03  0.12421668300E+04  0.46999998093E+01 0.  1.
       -5    1    3    3    0  502  0.88323342229E+02 -0.12290154279E+04 -0.72332036415E+03  0.14288087255E+04  0.46999998093E+01 0. -1.
</event>
<event>
 5   0  0.3568647E-05  0.2760333E+04  0.7818609E-02  0.8315690E-01
        2   -1    0    0  501    0  0.00000000000E+00  0.00000000000E+00  0.22163591266E+04  0.22163591266E+04  0.25500000920E-02 0. -1.
       -2   -1    0    0    0  501  0.00000000000E+00  0.00000000000E+00 -0.85945431492E+03  0.85945431492E+03  0.25500000920E-02 0.  1.
    10030    2    1    2    0    0  0.00000000000E+00  0.00000000000E+00  0.13569048117E+04  0.30758134415E+04  0.27603328892E+04 0.  0.
        3    1    3    3  502    0 -0.79671806082E+03 -0.18084353112E+03  0.19179702146E+04  0.20847239159E+04  0.10100000352E+00 0. -1.
       -3    1    3    3    0  502  0.79671806082E+03  0.18084353112E+03 -0.56106540295E+03  0.99108952561E+03  0.10100000352E+00 0.  1.
</event>
<event>
 5   0  0.1449521E-05  0.1988779E+04  0.7818609E-02  0.8611885E-01
       -1   -1    0    0    0  501  0.00000000000E+00  0.00000000000E+00  0.78234156897E+03  0.78234156899E+03  0.50400001928E-02 0.  1.
        1   -1    0    0  501    0  0.00000000000E+00  0.00000000000E+00 -0.12639109709E+04  0.12639109709E+04  0.50400001928E-02 0. -1.
    10030    2    1    2    0    0  0.00000000000E+00  0.00000000000E+00 -0.48156940196E+03  0.20462525399E+04  0.19887786122E+04 0.  0.
        3    1    3    3  502    0  0.12744520541E+03 -0.61197034428E+03 -0.10364770918E+04  0.12103862007E+04  0.10100000352E+00 0. -1.
       -3    1    3    3    0  502 -0.12744520541E+03  0.61197034428E+03  0.55490768987E+03  0.83586633927E+03  0.10100000352E+00 0.  1.
</event>
<event>
 5   0  0.3676724E-05  0.2246498E+04  0.7818609E-02  0.8499320E-01
       -2   -1    0    0    0  501  0.00000000000E+00  0.00000000000E+00  0.99584820449E+03  0.99584820450E+03  0.25500000920E-02 0.  1.
        2   -1    0    0  501    0  0.00000000000E+00  0.00000000000E+00 -0.12669487310E+04  0.12669487310E+04  0.25500000920E-02 0. -1.
    10030    2    1    2    0    0  0.00000000000E+00  0.00000000000E+00 -0.27110052648E+03  0.22627969355E+04  0.22464982697E+04 0.  0.
        4    1    3    3  502    0 -0.77152029115E+03  0.37728240968E+03  0.59365058587E+03  0.10440345815E+04  0.12699999809E+01 0.  1.
       -4    1    3    3    0  502  0.77152029115E+03 -0.37728240968E+03 -0.86475111235E+03  0.12187623540E+04  0.12699999809E+01 0. -1.
</event>
<event>
 5   0  0.3497949E-05  0.2698152E+04  0.7818609E-02  0.8335605E-01
        2   -1    0    0  501    0  0.00000000000E+00  0.00000000000E+00  0.19756991903E+04  0.19756991903E+04  0.25500000920E-02 0.  1.
       -2   -1    0    0    0  501  0.00000000000E+00  0.00000000000E+00 -0.92119588766E+03  0.92119588766E+03  0.25500000920E-02 0. -1.
    10030    2    1    2    0    0  0.00000000000E+00  0.00000000000E+00  0.10545033026E+04  0.28968950779E+04  0.26981519374E+04 0.  0.
        5    1    3    3  502    0 -0.46163593708E+03  0.45723515059E+03 -0.74212577479E+03  0.98637947918E+03  0.46999998093E+01 0. -1.
       -5    1    3    3    0  502  0.46163593708E+03 -0.45723515059E+03  0.17966290774E+04  0.19105155987E+04  0.46999998093E+01 0.  1.
</event>
<event>
 5   0  0.1474012E-05  0.2666993E+04  0.7818609E-02  0.8345795E-01
       -1   -1    0    0    0  501  0.00000000000E+00  0.00000000000E+00  0.82883222694E+03  0.82883222696E+03  0.50400001928E-02 0. -1.
        1   -1    0    0  501    0  0.00000000000E+00  0.00000000000E+00 -0.21454437468E+04  0.21454437468E+04  0.50400001928E-02 0.  1.
    10030    2    1    2    0    0  0.00000000000E+00  0.00000000000E+00 -0.13166115198E+04  0.29742759737E+04  0.26669930022E+04 0.  0.
        2    1    3    3  502    0  0.68328313704E+03 -0.15536651952E+03  0.60696105741E+03  0.92704710019E+03  0.25500000920E-02 0. -1.
       -2    1    3    3    0  502 -0.68328313704E+03  0.15536651952E+03 -0.19235725773E+04  0.20472288736E+04  0.25500000920E-02 0.  1.
</event>
<event>
 5   0  0.1438701E-05  0.2302685E+04  0.7818609E-02  0.8476863E-01
       -1   -1    0    0    0  501  0.00000000000E+00  0.00000000000E+00  0.68514489009E+03  0.68514489011E+03  0.50400001928E-02 0. -1.
        1   -1    0    0  501    0  0.00000000000E+00  0.00000000000E+00 -0.19347586781E+04  0.19347586781E+04  0.50400001928E-02 0.  1.
    10030    2    1    2    0    0  0.00000000000E+00  0.00000000000E+00 -0.12496137880E+04  0.26199035682E+04  0.23026854078E+04 0.  0.
        4    1    3    3  502    0  0.23249549086E+03  0.13717296331E+03 -0.18982434933E+04  0.19173420529E+04  0.12699999809E+01 0.  1.
       -4    1    3    3    0  502 -0.23249549086E+03 -0.13717296331E+03  0.64862970535E+03  0.70256151524E+03  0.12699999809E+01 0. -1.
</event>
<event>
 5   0  0.1449521E-05  0.2684718E+04  0.7818609E-02  0.8339980E-01
        1   -1    0    0  501    0  0.00000000000E+00  0.00000000000E+00  0.14500283041E+04  0.14500283041E+04  0.50400001928E-02 0. -1.
       -1   -1    0    0    0  501  0.00000000000E+00  0.00000000000E+00 -0.12426845376E+04  0.12426845376E+04  0.50400001928E-02 0.  1.
    10030    2    1    2    0    0  0.00000000000E+00  0.00000000000E+00  0.20734376647E+03  0.26927128417E+04  0.26847180505E+04 0.  0.
        3    1    3    3  502    0  0.19779860357E+03 -0.64093903472E+03 -0.10625462834E+04  0.12565555095E+04  0.10100000352E+00 0.  1.
       -3    1    3    3    0  502 -0.19779860357E+03  0.64093903472E+03  0.12698900499E+04  0.14361573322E+04  0.10100000352E+00 0. -1.
</event>
<event>
 5   0  0.1495517E-05  0.2189546E+04  0.7818609E-02  0.8522792E-01
        1   -1    0    0  501    0  0.00000000000E+00  0.00000000000E+00  0.83755869271E+03  0.83755869273E+03  0.50400001928E-02 0.  1.
       -1   -1    0    0    0  501  0.00000000000E+00  0.00000000000E+00 -0.14309776949E+04  0.14309776949E+04  0.50400001928E-02 0. -1.
    10030    2    1    2    0    0  0.00000000000E+00  0.00000000000E+00 -0.59341900215E+03  0.22685363876E+04  0.21895458958E+04 0.  0.
        5    1    3    3  502    0  0.65040171228E+03 -0.85492852970E+03 -0.77951293973E+02  0.10770439510E+04  0.46999998093E+01 0.  1.
       -5    1    3    3    0  502 -0.65040171228E+03  0.85492852970E+03 -0.51546770818E+03  0.11914924366E+04  0.46999998093E+01 0. -1.
</event>
<event>
 5   0  0.3568647E-05  0.2723995E+04  0.7818609E-02  0.8327261E-01
        2   -1    0    0  501    0  0.00000000000E+00  0.00000000000E+00  0.16160709904E+04  0.16160709904E+04  0.25500000920E-02 0. -1.
       -2   -1    0    0    0  501  0.00000000000E+00  0.00000000000E+00 -0.11478687100E+04  0.11478687100E+04  0.25500000920E-02 0.  1.
    10030    2    1    2    0    0  0.00000000000E+00  0.00000000000E+00  0.46820228036E+03  0.27639397004E+04  0.27239950977E+04 0.  0.
        3    1    3    3  502    0 -0.29343840134E+02 -0.13553816340E+04  0.36685113759E+03  0.14044572625E+04  0.10100000352E+00 0.  1.
       -3    1    3    3    0  502  0.29343840134E+02  0.13553816340E+04  0.10135114278E+03  0.13594824380E+04  0.10100000352E+00 0. -1.
</event>
<event>
 5   0  0.1484379E-05  0.2815367E+04  0.7818609E-02  0.8298513E-01
       -1   -1    0    0    0  501  0.00000000000E+00  0.00000000000E+00  0.11557731489E+04  0.11557731489E+04  0.50400001928E-02 0.  1.
        1   -1    0    0  501    0  0.00000000000E+00  0.00000000000E+00 -0.17145002340E+04  0.17145002340E+04  0.50400001928E-02 0. -1.
    10030    2    1    2    0    0  0.00000000000E+00  0.00000000000E+00 -0.55872708516E+03  0.28702733829E+04  0.28153673538E+04 0.  0.
        1    1    3    3  502    0  0.11860324151E+04 -0.47470766519E+03 -0.88212400608E+03  0.15524699737E+04  0.50400001928E-02 0.  1.
       -1    1    3    3    0  502 -0.11860324151E+04  0.47470766519E+03  0.32339692092E+03  0.13178034093E+04  0.50400001928E-02 0. -1.
</event>
<event>
 5   0  0.3652331E-05  0.2471202E+04  0.7818609E-02  0.8413317E-01
       -2   -1    0    0    0  501  0.00000000000E+00  0.00000000000E+00  0.10459154540E+04  0.10459154540E+04  0.25500000920E-02 0.  1.
        2   -1    0    0  501    0  0.00000000000E+00  0.00000000000E+00 -0.14596877726E+04  0.14596877726E+04  0.25500000920E-02 0. -1.
    10030    2    1    2    0    0  0.00000000000E+00  0.00000000000E+00 -0.41377231856E+03  0.25056032266E+04  0.24712021361E+04 0.  0.
        1    1    3    3  502    0 -0.10336533839E+03  0.22630043859E+03 -0.14340293112E+04  0.14554505650E+04  0.50400001928E-02 0. -1.
       -1    1    3    3    0  502  0.10336533839E+03 -0.22630043859E+03  0.10202569926E+04  0.10501526616E+04  0.50400001928E-02 0.  1.
</event>
<event>
 5   0  0.1449521E-05  0.2095721E+04  0.7818609E-02  0.8563131E-01
       -1   -1    0    0    0  501  0.00000000000E+00  0.00000000000E+00  0.99720984213E+03  0.99720984214E+03  0.50400001928E-02 0. -1.
        1   -1    0    0  501    0  0.00000000000E+00  0.00000000000E+00 -0.11010839334E+04  0.11010839334E+04  0.50400001928E-02 0.  1.
    10030    2    1    2    0    0  0.00000000000E+00  0.00000000000E+00 -0.10387409128E+03  0.20982937756E+04  0.20957211030E+04 0.  0.
        3    1    3    3  502    0 -0.37977815777E+03  0.30042332321E+03 -0.98233884325E+03  0.10952055676E+04  0.10100000352E+00 0.  1.
       -3    1    3    3    0  502  0.37977815777E+03 -0.30042332321E+03  0.87846475196E+03  0.10030882079E+04  0.10100000352E+00 0. -1.
</event>
<event>
 5   0  0.1474012E-05  0.2435217E+04  0.7818609E-02  0.8426435E-01
        1   -1    0    0  501    0  0.00000000000E+00  0.00000000000E+00  0.14947629683E+04  0.14947629683E+04  0.50400001928E-02 0.  1.
       -1   -1    0    0    0  501  0.00000000000E+00  0.00000000000E+00 -0.99184340146E+03  0.99184340148E+03  0.50400001928E-02 0. -1.
    10030    2    1    2    0    0  0.00000000000E+00  0.00000000000E+00  0.50291956684E+03  0.24866063698E+04  0.24352172691E+04 0.  0.
        2    1    3    3  502    0 -0.10744968274E+04 -0.19110404669E+02 -0.33303745489E+03  0.11250878125E+04  0.25500000920E-02 0. -1.
       -2    1    3    3    0  502  0.10744968274E+04  0.19110404669E+02  0.83595702172E+03  0.13615185572E+04  0.25500000920E-02 0.  1.
</event>
<event>
 5   0  0.1495517E-05  0.1465809E+04  0.7818609E-02  0.8907513E-01
       -1   -1    0    0    0  501  0.00000000000E+00  0.00000000000E+00  0.28300841522E+03  0.28300841527E+03  0.50400001928E-02 0.  1.
        1   -1    0    0  501    0  0.00000000000E+00  0.00000000000E+00 -0.18979973584E+04  0.18979973584E+04  0.50400001928E-02 0. -1.
    10030    2    1    2    0    0  0.00000000000E+00  0.00000000000E+00 -0.16149889431E+04  0.21810057736E+04  0.14658092980E+04 0.  0.
        5    1    3    3  502    0  0.51462052648E+03  0.44722898737E+03 -0.40747083428E+03  0.79429378960E+03  0.46999998093E+01 0.  1.
       -5    1    3    3    0  502 -0.51462052648E+03 -0.44722898737E+03 -0.12075181089E+04  0.13867119840E+04  0.46999998093E+01 0. -1.
</event>
<event>
 5   0  0.3497949E-05  0.2681891E+04  0.7818609E-02  0.8340905E-01
       -2   -1    0    0    0  501  0.00000000000E+00  0.00000000000E+00  0.10234155893E+04  0.10234155893E+04  0.25500000920E-02 0.  1.
        2   -1    0    0  501    0  0.00000000000E+00  0.00000000000E+00 -0.17569941932E+04  0.17569941932E+04  0.25500000920E-02 0. -1.
    10030    2    1    2    0    0  0.00000000000E+00  0.00000000000E+00 -0.73357860388E+03  0.27804097825E+04  0.26818913085E+04 0.  0.
        5    1    3    3  502    0  0.59029654469E+03 -0.38970157608E+03  0.81426760016E+03  0.10785968402E+04  0.46999998093E+01 0.  1.
       -5    1    3    3    0  502 -0.59029654469E+03  0.38970157608E+03 -0.15478462040E+04  0.17018129423E+04  0.46999998093E+01 0. -1.
</event>
<event>
 5   0  0.3497949E-05  0.2500754E+04  0.7818609E-02  0.8402717E-01
       -2   -1    0    0    0  501  0.00000000000E+00  0.00000000000E+00  0.89123498052E+03  0.89123498053E+03  0.25500000920E-02 0.  1.
        2   -1    0    0  501    0  0.00000000000E+00  0.00000000000E+00 -0.17542434652E+04  0.17542434652E+04  0.25500000920E-02 0. -1.
    10030    2    1    2    0    0  0.00000000000E+00  0.00000000000E+00 -0.86300848471E+03  0.26454784458E+04  0.25007543986E+04 0.  0.
        5    1    3    3  502    0  0.10210626941E+03 -0.11919061778E+04 -0.46643688109E+02  0.11971899392E+04  0.46999998093E+01 0.  1.
       -5    1    3    3    0  502 -0.10210626941E+03  0.11919061778E+04 -0.81636479660E+03  0.14482885065E+04  0.46999998093E+01 0. -1.
</event>
<event>
 5   0  0.3497949E-05  0.2482722E+04  0.7818609E-02  0.8409167E-01
        2   -1    0    0  501    0  0.00000000000E+00  0.00000000000E+00  0.17438974447E+04  0.17438974447E+04  0.25500000920E-02 0.  1.
       -2   -1    0    0    0  501  0.00000000000E+00  0.00000000000E+00 -0.88363962297E+03  0.88363962298E+03  0.25500000920E-02 0. -1.
    10030    2    1    2    0    0  0.00000000000E+00  0.00000000000E+00  0.86025782171E+03  0.26275370677E+04  0.24827217972E+04 0.  0.
        5    1    3    3  502    0 -0.10521258077E+04  0.65713125439E+03  0.47936784038E+03  0.13298894003E+04  0.46999998093E+01 0. -1.
       -5    1    3    3    0  502  0.10521258077E+04 -0.65713125439E+03  0.38088998132E+03  0.12976476673E+04  0.46999998093E+01 0.  1.
</event>
<event>
 5   0  0.1438701E-05  0.2562601E+04  0.7818609E-02  0.8381017E-01
       -1   -1    0    0    0  501  0.00000000000E+00  0.00000000000E+00  0.98734127053E+03  0.98734127054E+03  0.50400001928E-02 0.  1.
        1   -1    0    0  501    0  0.00000000000E+00  0.00000000000E+00 -0.16627790023E+04  0.16627790023E+04  0.50400001928E-02 0. -1.
    10030    2    1    2    0    0  0.00000000000E+00  0.00000000000E+00 -0.67543773179E+03  0.26501202729E+04  0.25626005017E+04 0.  0.
        4    1    3    3  502    0  0.93405163891E+02  0.12117503966E+04 -0.75736724782E+03  0.14320161694E+04  0.12699999809E+01 0. -1.
       -4    1    3    3    0  502 -0.93405163891E+02 -0.12117503966E+04  0.81929516029E+02  0.12181041035E+04  0.12699999809E+01 0.  1.
</event>
<event>
 5   0  0.3514294E-05  0.2679154E+04  0.7818609E-02  0.8341800E-01
        2   -1    0    0  501    0  0.00000000000E+00  0.00000000000E+00  0.21533434518E+04  0.21533434518E+04  0.25500000920E-02 0.  1.
       -2   -1    0    0    0  501  0.00000000000E+00  0.00000000000E+00 -0.83333990793E+03  0.83333990794E+03  0.25500000920E-02 0. -1.
    10030    2    1    2    0    0  0.00000000000E+00  0.00000000000E+00  0.13200035438E+04  0.29866833597E+04  0.26791543695E+04 0.  0.
        2    1    3    3  502    0  0.69176733386E+02 -0.12932436980E+04  0.10416467975E+04  0.16620146611E+04  0.25500000920E-02 0.  1.
       -2    1    3    3    0  502 -0.69176733386E+02  0.12932436980E+04  0.27835674630E+03  0.13246686986E+04  0.25500000920E-02 0. -1.
</event>
<event>
 5   0  0.3568647E-05  0.2062085E+04  0.7818609E-02  0.8578131E-01
       -2   -1    0    0    0  501  0.00000000000E+00  0.00000000000E+00  0.80525396380E+03  0.80525396381E+03  0.25500000920E-02 0.  1.
        2   -1    0    0  501    0  0.00000000000E+00  0.00000000000E+00 -0.13201413641E+04  0.13201413641E+04  0.25500000920E-02 0. -1.
    10030    2    1    2    0    0  0.00000000000E+00  0.00000000000E+00 -0.51488740032E+03  0.21253953279E+04  0.20620854165E+04 0.  0.
        3    1    3    3  502    0 -0.50956138413E+02  0.51784546341E+03 -0.11748775826E+04  0.12849505035E+04  0.10100000352E+00 0. -1.
       -3    1    3    3    0  502  0.50956138413E+02 -0.51784546341E+03  0.65999018231E+03  0.84044482446E+03  0.10100000352E+00 0.  1.
</event>
<event>
 5   0  0.1484379E-05  0.2928573E+04  0.7818609E-02  0.8264427E-01
       -1   -1    0    0    0  501  0.00000000000E+00  0.00000000000E+00  0.13474634806E+04  0.13474634806E+04  0.50400001928E-02 0.  1.
        1   -1    0    0  501    0  0.00000000000E+00  0.00000000000E+00 -0.15912376513E+04  0.15912376513E+04  0.50400001928E-02 0. -1.
    10030    2    1    2    0    0  0.00000000000E+00  0.00000000000E+00 -0.24377417068E+03  0.29387011320E+04  0.29285727747E+04 0.  0.
        1    1    3    3  502    0 -0.15088001769E+03  0.11189196499E+04 -0.10575219261E+04  0.15469643134E+04  0.50400001928E-02 0. -1.
       -1    1    3    3    0  502  0.15088001769E+03 -0.11189196499E+04  0.81374775545E+03  0.13917368186E+04  0.50400001928E-02 0.  1.
</event>
<event>
 5   0  0.3568647E-05  0.2715699E+04  0.7818609E-02  0.8329929E-01
        2   -1    0    0  501    0  0.00000000000E+00  0.00000000000E+00  0.69133104818E+03  0.69133104818E+03  0.25500000920E-02 0.  1.
       -2   -1    0    0    0  501  0.00000000000E+00  0.00000000000E+00 -0.26669652186E+04  0.26669652186E+04  0.25500000920E-02 0. -1.
    10030    2    1    2    0    0  0.00000000000E+00  0.00000000000E+00 -0.19756341704E+04  0.33582962668E+04  0.27156994385E+04 0.  0.
        3    1    3    3  502    0  0.13453476662E+04  0.15131343176E+03 -0.85871132583E+03  0.16031971959E+04  0.10100000352E+00 0. -1.
       -3    1    3    3    0  502 -0.13453476662E+04 -0.15131343176E+03 -0.11169228446E+04  0.17550990709E+04  0.10100000352E+00 0.  1.
</event>
<event>
 5   0  0.1438701E-05  0.2615132E+04  0.7818609E-02  0.8363079E-01
        1   -1    0    0  501    0  0.00000000000E+00  0.00000000000E+00  0.16320440826E+04  0.16320440826E+04  0.50400001928E-02 0. -1.
       -1   -1    0    0    0  501  0.00000000000E+00  0.00000000000E+00 -0.10475998045E+04  0.10475998045E+04  0.50400001928E-02 0.  1.
    10030    2    1    2    0    0  0.00000000000E+00  0.00000000000E+00  0.58444427809E+03  0.26796438871E+04  0.26151321663E+04 0.  0.
        4    1    3    3  502    0 -0.41268052514E+03  0.93289605728E+03 -0.54595878942E+03  0.11570103207E+04  0.12699999809E+01 0.  1.
       -4    1    3    3    0  502  0.41268052514E+03 -0.93289605728E+03  0.11304030675E+04  0.15226335664E+04  0.12699999809E+01 0. -1.
</event>
<event>
 5   0  0.3497949E-05  0.2666936E+04  0.7818609E-02  0.8345813E-01
        2   -1    0    0  501    0  0.00000000000E+00  0.00000000000E+00  0.12090447193E+04  0.12090447193E+04  0.25500000920E-02 0. -1.
       -2   -1    0    0    0  501  0.00000000000E+00  0.00000000000E+00 -0.14706961453E+04  0.14706961453E+04  0.25500000920E-02 0.  1.
    10030    2    1    2    0    0  0.00000000000E+00  0.00000000000E+00 -0.26165142600E+03  0.26797408647E+04  0.26669363759E+04 0.  0.
        5    1    3    3  502    0  0.12484778740E+03  0.80609232907E+03 -0.11907569178E+04  0.14433627195E+04  0.46999998093E+01 0.  1.
       -5    1    3    3    0  502 -0.12484778740E+03 -0.80609232907E+03  0.92910549175E+03  0.12363781451E+04  0.46999998093E+01 0. -1.
</event>
<event>
 5   0  0.1449521E-05  0.2719033E+04  0.7818609E-02  0.8328856E-01
       -1   -1    0    0    0  501  0.00000000000E+00  0.00000000000E+00  0.10128181115E+04  0.10128181115E+04  0.50400001928E-02 0. -1.
        1   -1    0    0  501    0  0.00000000000E+00  0.00000000000E+00 -0.18248931523E+04  0.18248931524E+04  0.50400001928E-02 0.  1.
    10030    2    1    2    0    0  0.00000000000E+00  0.00000000000E+00 -0.81207504085E+03  0.28377112639E+04  0.27190327959E+04 0.  0.
        3    1    3    3  502    0 -0.49654674938E+03 -0.76707201347E+03  0.64454094967E+03  0.11182089224E+04  0.10100000352E+00 0. -1.
       -3    1    3    3    0  502  0.49654674938E+03  0.76707201347E+03 -0.14566159905E+04  0.17195023414E+04  0.10100000352E+00 0.  1.
</event>
<event>
 5   0  0.3514294E-05  0.2766198E+04  0.7818609E-02  0.8313840E-01
        2   -1    0    0  501    0  0.00000000000E+00  0.00000000000E+00  0.26593444338E+04  0.26593444338E+04  0.25500000920E-02 0. -1.
       -2   -1    0    0    0  501  0.00000000000E+00  0.00000000000E+00 -0.71933618513E+03  0.71933618513E+03  0.25500000920E-02 0.  1.
    10030    2    1    2    0    0  0.00000000000E+00  0.00000000000E+00  0.19400082487E+04  0.33786806189E+04  0.27661978815E+04 0.  0.
        2    1    3    3  502    0 -0.72616403944E+03  0.31300581620E+03 -0.41600844132E+03  0.89350426771E+03  0.25500000920E-02 0.  1.
       -2    1    3    3    0  502  0.72616403944E+03 -0.31300581620E+03  0.23560166900E+04  0.24851763512E+04  0.25500000920E-02 0. -1.
</event>
<event>
 5   0  0.1495517E-05  0.1791652E+04  0.7818609E-02  0.8710752E-01
        1   -1    0    0  501    0  0.00000000000E+00  0.00000000000E+00  0.13051311378E+04  0.13051311378E+04  0.50400001928E-02 0.  1.
       -1   -1    0    0    0  501  0.00000000000E+00  0.00000000000E+00 -0.61488364426E+03  0.61488364428E+03  0.50400001928E-02 0. -1.
    10030    2    1    2    0    0  0.00000000000E+00  0.00000000000E+00  0.69024749353E+03  0.19200147821E+04  0.17916515178E+04 0.  0.
        5    1    3    3  502    0  0.80016478151E+02 -0.48915553977E+03 -0.45453179827E+03  0.67253031493E+03  0.46999998093E+01 0. -1.
       -5    1    3    3    0  502 -0.80016478151E+02  0.48915553977E+03  0.11447792918E+04  0.12474844672E+04  0.46999998093E+01 0.  1.
</event>
<event>
 5   0  0.1474012E-05  0.2697833E+04  0.7818609E-02  0.8335708E-01
       -1   -1    0    0    0  501  0.00000000000E+00  0.00000000000E+00  0.12038267039E+04  0.12038267039E+04  0.50400001928E-02 0.  1.
        1   -1    0    0  501    0  0.00000000000E+00  0.00000000000E+00 -0.15114934623E+04  0.15114934623E+04  0.50400001928E-02 0. -1.
    10030    2    1    2    0    0  0.00000000000E+00  0.00000000000E+00 -0.30766675837E+03  0.27153201662E+04  0.26978333475E+04 0.  0.
        2    1    3    3  502    0  0.59207507912E+03  0.94810874511E+03 -0.91378585972E+03  0.14437685719E+04  0.25500000920E-02 0. -1.
       -2    1    3    3    0  502 -0.59207507912E+03 -0.94810874511E+03  0.60611910135E+03  0.12715515943E+04  0.25500000920E-02 0.  1.
</event>
<event>
 5   0  0.1495517E-05  0.2738426E+04  0.7818609E-02  0.8322644E-01
       -1   -1    0    0    0  501  0.00000000000E+00  0.00000000000E+00  0.90175592696E+03  0.90175592698E+03  0.50400001928E-02 0.  1.
        1   -1    0    0  501    0  0.00000000000E+00  0.00000000000E+00 -0.20789929806E+04  0.20789929806E+04  0.50400001928E-02 0. -1.
    10030    2    1    2    0    0  0.00000000000E+00  0.00000000000E+00 -0.11772370536E+04  0.29807489075E+04  0.27384260022E+04 0.  0.
        5    1    3    3  502    0  0.11532412792E+04 -0.43716008836E+03 -0.12359248363E+04  0.17460259683E+04  0.46999998093E+01 0. -1.
       -5    1    3    3    0  502 -0.11532412792E+04  0.43716008836E+03  0.58687782654E+02  0.12347229393E+04  0.46999998093E+01 0.  1.
</event>
<event>
 5   0  0.3497949E-05  0.2630337E+04  0.7818609E-02  0.8357969E-01
        2   -1    0    0  501    0  0.00000000000E+00  0.00000000000E+00  0.14024116420E+04  0.14024116420E+04  0.25500000920E-02 0. -1.
       -2   -1    0    0    0  501  0.00000000000E+00  0.00000000000E+00 -0.12333525057E+04  0.12333525058E+04  0.25500000920E-02 0.  1.
    10030    2    1    2    0    0  0.00000000000E+00  0.00000000000E+00  0.16905913625E+03  0.26357641478E+04  0.26303367942E+04 0.  0.
        5    1    3    3  502    0  0.23522135178E+03  0.12780214059E+04  0.28737755206E+03  0.13308928378E+04  0.46999998093E+01 0.  1.
       -5    1    3    3    0  502 -0.23522135178E+03 -0.12780214059E+04 -0.11831841581E+03  0.13048713100E+04  0.46999998093E+01 0. -1.
</event>
<event>
 5   0  0.1495517E-05  0.2726117E+04  0.7818609E-02  0.8326580E-01
       -1   -1    0    0    0  501  0.00000000000E+00  0.00000000000E+00  0.10537570244E+04  0.10537570244E+04  0.50400001928E-02 0.  1.
        1   -1    0    0  501    0  0.00000000000E+00  0.00000000000E+00 -0.17631469373E+04  0.17631469373E+04  0.50400001928E-02 0. -1.
    10030    2    1    2    0    0  0.00000000000E+00  0.00000000000E+00 -0.70938991293E+03  0.28169039617E+04  0.27261169969E+04 0.  0.
        5    1    3    3  502    0 -0.12420938056E+04 -0.55866822780E+03 -0.29810647217E+03  0.13942011223E+04  0.46999998093E+01 0. -1.
       -5    1    3    3    0  502  0.12420938056E+04  0.55866822780E+03 -0.41128344076E+03  0.14227028394E+04  0.46999998093E+01 0.  1.
</event>
<event>
 5   0  0.3652331E-05  0.3336672E+04  0.7818609E-02  0.8153626E-01
        2   -1    0    0  501    0  0.00000000000E+00  0.00000000000E+00  0.22150943615E+04  0.22150943615E+04  0.25500000920E-02 0.  1.
       -2   -1    0    0    0  501  0.00000000000E+00  0.00000000000E+00 -0.12565357302E+04  0.12565357302E+04  0.25500000920E-02 0. -1.
    10030    2    1    2    0    0  0.00000000000E+00  0.00000000000E+00  0.95855863130E+03  0.34716300918E+04  0.33366721212E+04 0.  0.
        1    1    3    3  502    0  0.14507708608E+04  0.52542506421E+03  0.11393997094E+04  0.19180821897E+04  0.50400001928E-02 0.  1.
       -1    1    3    3    0  502 -0.14507708608E+04 -0.52542506421E+03 -0.18084107809E+03  0.15535479021E+04  0.50400001928E-02 0. -1.
</event>
<event>
 5   0  0.3497949E-05  0.2514846E+04  0.7818609E-02  0.8397716E-01
        2   -1    0    0  501    0  0.00000000000E+00  0.00000000000E+00  0.10392038996E+04  0.10392038996E+04  0.25500000920E-02 0.  1.
       -2   -1    0    0    0  501  0.00000000000E+00  0.00000000000E+00 -0.15214647455E+04  0.15214647455E+04  0.25500000920E-02 0. -1.
    10030    2    1    2    0    0  0.00000000000E+00  0.00000000000E+00 -0.48226084584E+03  0.25606686451E+04  0.25148455990E+04 0.  0.
        5    1    3    3  502    0  0.47017942536E+03 -0.82087014210E+03  0.60233127340E+03  0.11214818479E+04  0.46999998093E+01 0.  1.
       -5    1    3    3    0  502 -0.47017942536E+03  0.82087014210E+03 -0.10845921192E+04  0.14391867972E+04  0.46999998093E+01 0. -1.
</event>
<event>
 5   0  0.3497949E-05  0.1510810E+04  0.7818609E-02  0.8877296E-01
        2   -1    0    0  501    0  0.00000000000E+00  0.00000000000E+00  0.10732652428E+04  0.10732652428E+04  0.25500000920E-02 0. -1.
       -2   -1    0    0    0  501  0.00000000000E+00  0.00000000000E+00 -0.53168311002E+03  0.53168311003E+03  0.25500000920E-02 0.  1.
    10030    2    1    2    0    0  0.00000000000E+00  0.00000000000E+00  0.54158213275E+03  0.16049483528E+04  0.15108103814E+04 0.  0.
        5    1    3    3  502    0 -0.45790731709E+03 -0.56698514920E+03  0.59758402683E+02  0.73126221504E+03  0.46999998093E+01 0.  1.
       -5    1    3    3    0  502  0.45790731709E+03  0.56698514920E+03  0.48182373006E+03  0.87368613776E+03  0.46999998093E+01 0. -1.
</event>
<event>
 5   0  0.1495517E-05  0.2826842E+04  0.7818609E-02  0.8294983E-01
       -1   -1    0    0    0  501  0.00000000000E+00  0.00000000000E+00  0.11335277050E+04  0.11335277051E+04  0.50400001928E-02 0.  1.
        1   -1    0    0  501    0  0.00000000000E+00  0.00000000000E+00 -0.17624265875E+04  0.17624265875E+04  0.50400001928E-02 0. -1.
    10030    2    1    2    0    0  0.00000000000E+00  0.00000000000E+00 -0.62889888243E+03  0.28959542925E+04  0.28268423126E+04 0.  0.
        5    1    3    3  502    0  0.19179337270E+03 -0.68976942722E+03 -0.15629200083E+04  0.17191008123E+04  0.46999998093E+01 0. -1.
       -5    1    3    3    0  502 -0.19179337270E+03  0.68976942722E+03  0.93402112582E+03  0.11768534803E+04  0.46999998093E+01 0.  1.
</event>
<event>
 5   0  0.1495517E-05  0.2741954E+04  0.7818609E-02  0.8321519E-01
       -1   -1    0    0    0  501  0.00000000000E+00  0.00000000000E+00  0.10754315086E+04  0.10754315086E+04  0.50400001928E-02 0. -1.
        1   -1    0    0  501    0  0.00000000000E+00  0.00000000000E+00 -0.17477427573E+04  0.17477427573E+04  0.50400001928E-02 0.  1.
    10030    2    1    2    0    0  0.00000000000E+00  0.00000000000E+00 -0.67231124871E+03  0.28231742660E+04  0.27419537780E+04 0.  0.
        5    1    3    3  502    0  0.29508283685E+03 -0.63916415517E+03  0.87510580864E+03  0.11231371084E+04  0.46999998093E+01 0. -1.
       -5    1    3    3    0  502 -0.29508283685E+03  0.63916415517E+03 -0.15474170574E+04  0.17000371576E+04  0.46999998093E+01 0.  1.
</event>
<event>
 5   0  0.3497949E-05  0.2702050E+04  0.7818609E-02  0.8334340E-01
       -2   -1    0    0    0  501  0.00000000000E+00  0.00000000000E+00  0.21558359480E+04  0.21558359480E+04  0.25500000920E-02 0.  1.
        2   -1    0    0  501    0  0.00000000000E+00  0.00000000000E+00 -0.84666406791E+03  0.84666406791E+03  0.25500000920E-02 0. -1.
    10030    2    1    2    0    0  0.00000000000E+00  0.00000000000E+00  0.13091718801E+04  0.30025000159E+04  0.27020502094E+04 0.  0.
        5    1    3    3  502    0 -0.34545365641E+03 -0.21411491278E+03 -0.77711374784E+03  0.87698990398E+03  0.46999998093E+01 0. -1.
       -5    1    3    3    0  502  0.34545365641E+03  0.21411491278E+03  0.20862856279E+04  0.21255101119E+04  0.46999998093E+01 0.  1.
</event>
<event>
 5   0  0.1438701E-05  0.2535447E+04  0.7818609E-02  0.8390465E-01
        1   -1    0    0  501    0  0.00000000000E+00  0.00000000000E+00  0.12772563700E+04  0.12772563700E+04  0.50400001928E-02 0. -1.
       -1   -1    0    0    0  501  0.00000000000E+00  0.00000000000E+00 -0.12582616889E+04  0.12582616889E+04  0.50400001928E-02 0.  1.
    10030    2    1    2    0    0  0.00000000000E+00  0.00000000000E+00  0.18994681084E+02  0.25355180589E+04  0.25354469091E+04 0.  0.
        4    1    3    3  502    0  0.55209449890E+03 -0.95005912998E+03 -0.62273907987E+03  0.12630226683E+04  0.12699999809E+01 0.  1.
       -4    1    3    3    0  502 -0.55209449890E+03  0.95005912998E+03  0.64173376095E+03  0.12724953906E+04  0.12699999809E+01 0. -1.
</event>
<event>
 5   0  0.3652331E-05  0.2678897E+04  0.7818609E-02  0.8341885E-01
       -2   -1    0    0    0  501  0.00000000000E+00  0.00000000000E+00  0.32900371249E+04  0.32900371249E+04  0.25500000920E-02 0.  1.
        2   -1    0    0  501    0  0.00000000000E+00  0.00000000000E+00 -0.54531974478E+03  0.54531974479E+03  0.25500000920E-02 0. -1.
    10030    2    1    2    0    0  0.00000000000E+00  0.00000000000E+00  0.27447173801E+04  0.38353568697E+04  0.26788969411E+04 0.  0.
        1    1    3    3  502    0 -0.13959561169E+03 -0.70325714637E+03  0.29921748489E+04  0.30768763178E+04  0.50400001928E-02 0.  1.
       -1    1    3    3    0  502  0.13959561169E+03  0.70325714637E+03 -0.24745746877E+03  0.75848055189E+03  0.50400001928E-02 0. -1.
</event>
<event>
 5   0  0.1495517E-05  0.2731229E+04  0.7818609E-02  0.8324943E-01
        1   -1    0    0  501    0  0.00000000000E+00  0.00000000000E+00  0.33250141302E+04  0.33250141302E+04  0.50400001928E-02 0.  1.
       -1   -1    0    0    0  501  0.00000000000E+00  0.00000000000E+00 -0.56087086165E+03  0.56087086167E+03  0.50400001928E-02 0. -1.
    10030    2    1    2    0    0  0.00000000000E+00  0.00000000000E+00  0.27641432685E+04  0.38858849919E+04  0.27312294230E+04 0.  0.
        5    1    3    3  502    0  0.15118498954E+03  0.92413663628E+03 -0.32123568057E+02  0.93698422463E+03  0.46999998093E+01 0. -1.
       -5    1    3    3    0  502 -0.15118498954E+03 -0.92413663628E+03  0.27962668366E+04  0.29489007672E+04  0.46999998093E+01 0.  1.
</event>
<event>
 5   0  0.1484379E-05  0.2979027E+04  0.7818609E-02  0.8249745E-01
        1   -1    0    0  501    0  0.00000000000E+00  0.00000000000E+00  0.19591172072E+04  0.19591172072E+04  0.50400001928E-02 0. -1.
       -1   -1    0    0    0  501  0.00000000000E+00  0.00000000000E+00 -0.11324749617E+04  0.11324749617E+04  0.50400001928E-02 0.  1.
    10030    2    1    2    0    0  0.00000000000E+00  0.00000000000E+00  0.82664224549E+03  0.30915921689E+04  0.29790274817E+04 0.  0.
        1    1    3    3  502    0  0.24789683375E+03 -0.66580298867E+03 -0.94530833545E+03  0.11825203208E+04  0.50400001928E-02 0.  1.
       -1    1    3    3    0  502 -0.24789683375E+03  0.66580298867E+03  0.17719505809E+04  0.19090718481E+04  0.50400001928E-02 0. -1.
</event>
<event>
 5   0  0.1484379E-05  0.2742450E+04  0.7818609E-02  0.8321361E-01
        1   -1    0    0  501    0  0.00000000000E+00  0.00000000000E+00  0.10135710967E+04  0.10135710967E+04  0.50400001928E-02 0. -1.
       -1   -1    0    0    0  501  0.00000000000E+00  0.00000000000E+00 -0.18550827199E+04  0.18550827199E+04  0.50400001928E-02 0.  1.
    10030    2    1    2    0    0  0.00000000000E+00  0.00000000000E+00 -0.84151162319E+03  0.28686538165E+04  0.27424501649E+04 0.  0.
        1    1    3    3  502    0 -0.10656679593E+04  0.60392021439E+03  0.22396035081E+03  0.12452012141E+04  0.50400001928E-02 0. -1.
       -1    1    3    3    0  502  0.10656679593E+04 -0.60392021439E+03 -0.10654719740E+04  0.16234526024E+04  0.50400001928E-02 0.  1.
</event>
<event>
 5   0  0.1438701E-05  0.2707253E+04  0.7818609E-02  0.8332655E-01
       -1   -1    0    0    0  501  0.00000000000E+00  0.00000000000E+00  0.81604169124E+03  0.81604169125E+03  0.50400001928E-02 0.  1.
        1   -1    0    0  501    0  0.00000000000E+00  0.00000000000E+00 -0.22453573989E+04  0.22453573989E+04  0.50400001928E-02 0. -1.
    10030    2    1    2    0    0  0.00000000000E+00  0.00000000000E+00 -0.14293157076E+04  0.30613990901E+04  0.27072534046E+04 0.  0.
        4    1    3    3  502    0  0.10171862803E+04  0.87429915624E+03 -0.92081573533E+03  0.16269511900E+04  0.12699999809E+01 0.  1.
       -4    1    3    3    0  502 -0.10171862803E+04 -0.87429915624E+03 -0.50849997230E+03  0.14344479001E+04  0.12699999809E+01 0. -1.
</event>
<event>
 5   0  0.3676724E-05  0.2661930E+04  0.7818609E-02  0.8347464E-01
        2   -1    0    0  501    0  0.00000000000E+00  0.00000000000E+00  0.72305722436E+03  0.72305722437E+03  0.25500000920E-02 0. -1.
       -2   -1    0    0    0  501  0.00000000000E+00  0.00000000000E+00 -0.24499689334E+04  0.24499689334E+04  0.25500000920E-02 0.  1.
    10030    2    1    2    0    0  0.00000000000E+00  0.00000000000E+00 -0.17269117090E+04  0.31730261578E+04  0.26619299290E+04 0.  0.
        4    1    3    3  502    0  0.45689387951E+03  0.55951489029E+03  0.46906029146E+03  0.86129443254E+03  0.12699999809E+01 0. -1.
       -4    1    3    3    0  502 -0.45689387951E+03 -0.55951489029E+03 -0.21959720005E+04  0.23117317252E+04  0.12699999809E+01 0.  1.
</event>
<event>
 5   0  0.3568647E-05  0.2738810E+04  0.7818609E-02  0.8322521E-01
       -2   -1    0    0    0  501  0.00000000000E+00  0.00000000000E+00  0.13924033048E+04  0.13924033048E+04  0.25500000920E-02 0.  1.
        2   -1    0    0  501    0  0.00000000000E+00  0.00000000000E+00 -0.13467864408E+04  0.13467864408E+04  0.25500000920E-02 0. -1.
    10030    2    1    2    0    0  0.00000000000E+00  0.00000000000E+00  0.45616863979E+02  0.27391897456E+04  0.27388098810E+04 0.  0.
        3    1    3    3  502    0  0.31555985077E+03  0.12402645067E+04 -0.46453301163E+03  0.13614789734E+04  0.10100000352E+00 0. -1.
       -3    1    3    3    0  502 -0.31555985077E+03 -0.12402645067E+04  0.51014987561E+03  0.13777107722E+04  0.10100000352E+00 0.  1.
</event>
<event>
 5   0  0.1438701E-05  0.2734286E+04  0.7818609E-02  0.8323965E-01
        1   -1    0    0  501    0  0.00000000000E+00  0.00000000000E+00  0.13537445247E+04  0.13537445247E+04  0.50400001928E-02 0. -1.
       -1   -1    0    0    0  501  0.00000000000E+00  0.00000000000E+00 -0.13806738032E+04  0.13806738032E+04  0.50400001928E-02 0.  1.
    10030    2    1    2    0    0  0.00000000000E+00  0.00000000000E+00 -0.26929278482E+02  0.27344183279E+04  0.27342857213E+04 0.  0.
        4    1    3    3  502    0 -0.53716487791E+03  0.86679311562E+03  0.89718458405E+03  0.13582408483E+04  0.12699999809E+01 0. -1.
       -4    1    3    3    0  502  0.53716487791E+03 -0.86679311562E+03 -0.92411386254E+03  0.13761774795E+04  0.12699999809E+01 0.  1.
</event>
<event>
 5   0  0.3497949E-05  0.2708328E+04  0.7818609E-02  0.8332308E-01
        2   -1    0    0  501    0  0.00000000000E+00  0.00000000000E+00  0.23295669154E+04  0.23295669154E+04  0.25500000920E-02 0. -1.
       -2   -1    0    0    0  501  0.00000000000E+00  0.00000000000E+00 -0.78716792311E+03  0.78716792312E+03  0.25500000920E-02 0.  1.
    10030    2    1    2    0    0  0.00000000000E+00  0.00000000000E+00  0.15423989923E+04  0.31167348385E+04  0.27083281563E+04 0.  0.
        5    1    3    3  502    0 -0.11299598236E+04 -0.71319143739E+03  0.10240791123E+04  0.16835116119E+04  0.46999998093E+01 0.  1.
       -5    1    3    3    0  502  0.11299598236E+04  0.71319143739E+03  0.51831987999E+03  0.14332232266E+04  0.46999998093E+01 0. -1.
</event>
<event>
 5   0  0.3568647E-05  0.2160403E+04  0.7818609E-02  0.8535092E-01
        2   -1    0    0  501    0  0.00000000000E+00  0.00000000000E+00  0.15829084495E+04  0.15829084495E+04  0.25500000920E-02 0. -1.
       -2   -1    0    0    0  501  0.00000000000E+00  0.00000000000E+00 -0.73714621542E+03  0.73714621542E+03  0.25500000920E-02 0.  1.
    10030    2    1    2    0    0  0.00000000000E+00  0.00000000000E+00  0.84576223404E+03  0.23200546649E+04  0.21604027151E+04 0.  0.
        3    1    3    3  502    0  0.56295422226E+03  0.12473704736E+03 -0.55805283425E+03  0.80243365044E+03  0.10100000352E+00 0.  1.
       -3    1    3    3    0  502 -0.56295422226E+03 -0.12473704736E+03  0.14038150683E+04  0.15176210144E+04  0.10100000352E+00 0. -1.
</event>
<event>
 5   0  0.3676724E-05  0.2681481E+04  0.7818609E-02  0.8341039E-01
        2   -1    0    0  501    0  0.00000000000E+00  0.00000000000E+00  0.81677090595E+03  0.81677090595E+03  0.25500000920E-02 0. -1.
       -2   -1    0    0    0  501  0.00000000000E+00  0.00000000000E+00 -0.22008443359E+04  0.22008443359E+04  0.25500000920E-02 0.  1.
    10030    2    1    2    0    0  0.00000000000E+00  0.00000000000E+00 -0.13840734299E+04  0.30176152419E+04  0.26814813981E+04 0.  0.
        4    1    3    3  502    0 -0.25342748368E+03  0.29252884327E+03 -0.21366094071E+04  0.21713820450E+04  0.12699999809E+01 0.  1.
       -4    1    3    3    0  502  0.25342748368E+03 -0.29252884327E+03  0.75253597719E+03  0.84623319688E+03  0.12699999809E+01 0. -1.
</event>
<event>
 5   0  0.3514294E-05  0.2711257E+04  0.7818609E-02  0.8331362E-01
        2   -1    0    0  501    0  0.00000000000E+00  0.00000000000E+00  0.20551828072E+04  0.20551828072E+04  0.25500000920E-02 0. -1.
       -2   -1    0    0    0  501  0.00000000000E+00  0.00000000000E+00 -0.89419216763E+03  0.89419216763E+03  0.25500000920E-02 0.  1.
    10030    2    1    2    0    0  0.00000000000E+00  0.00000000000E+00  0.11609906396E+04  0.29493749749E+04  0.27112568077E+04 0.  0.
        2    1    3    3  502    0  0.77804846101E+03 -0.15443181836E+03 -0.61538086182E+03  0.10039433247E+04  0.25500000920E-02 0.  1.
       -2    1    3    3    0  502 -0.77804846101E+03  0.15443181836E+03  0.17763715014E+04  0.19454316501E+04  0.25500000920E-02 0. -1.
</event>
<event>
 5   0  0.3514294E-05  0.2684966E+04  0.7818609E-02  0.8339900E-01
       -2   -1    0    0    0  501  0.00000000000E+00  0.00000000000E+00  0.11109262209E+04  0.11109262209E+04  0.25500000920E-02 0.  1.
        2   -1    0    0  501    0  0.00000000000E+00  0.00000000000E+00 -0.16223043420E+04  0.16223043420E+04  0.25500000920E-02 0. -1.
    10030    2    1    2    0    0  0.00000000000E+00  0.00000000000E+00 -0.51137812110E+03  0.27332305630E+04  0.26849658709E+04 0.  0.
        2    1    3    3  502    0 -0.93319138943E+03  0.93005002895E+03  0.66668651775E+01  0.13175293821E+04  0.25500000920E-02 0.  1.
       -2    1    3    3    0  502  0.93319138943E+03 -0.93005002895E+03 -0.51804498627E+03  0.14157011809E+04  0.25500000920E-02 0. -1.
</event>
<event>
 5   0  0.3514294E-05  0.2809168E+04  0.7818609E-02  0.8300428E-01
        2   -1    0    0  501    0  0.00000000000E+00  0.00000000000E+00  0.16157251003E+04  0.16157251003E+04  0.25500000920E-02 0. -1.
       -2   -1    0    0    0  501  0.00000000000E+00  0.00000000000E+00 -0.12210341845E+04  0.12210341845E+04  0.25500000920E-02 0.  1.
    10030    2    1    2    0    0  0.00000000000E+00  0.00000000000E+00  0.39469091583E+03  0.28367592848E+04  0.28091675494E+04 0.  0.
        2    1    3    3  502    0  0.17818608096E+03  0.10009284705E+04  0.11760122798E+04  0.15545459031E+04  0.25500000920E-02 0. -1.
       -2    1    3    3    0  502 -0.17818608096E+03 -0.10009284705E+04 -0.78132136392E+03  0.12822133817E+04  0.25500000920E-02 0.  1.
</event>
<event>
 5   0  0.3568647E-05  0.2732020E+04  0.7818609E-02  0.8324690E-01
       -2   -1    0    0    0  501  0.00000000000E+00  0.00000000000E+00  0.25847038182E+04  0.25847038182E+04  0.25500000920E-02 0. -1.
        2   -1    0    0  501    0  0.00000000000E+00  0.00000000000E+00 -0.72193329734E+03  0.72193329734E+03  0.25500000920E-02 0.  1.
    10030    2    1    2    0    0  0.00000000000E+00  0.00000000000E+00  0.18627705209E+04  0.33066371155E+04  0.27320203148E+04 0.  0.
        3    1    3    3  502    0  0.11478086439E+04 -0.71153015266E+03  0.68262293469E+03  0.15131800694E+04  0.10100000352E+00 0. -1.
       -3    1    3    3    0  502 -0.11478086439E+04  0.71153015266E+03  0.11801475862E+04  0.17934570462E+04  0.10100000352E+00 0.  1.
</event>
<event>
 5   0  0.3676724E-05  0.2692732E+04  0.7818609E-02  0.8337367E-01
        2   -1    0    0  501    0  0.00000000000E+00  0.00000000000E+00  0.16463017203E+04  0.16463017203E+04  0.25500000920E-02 0.  1.
       -2   -1    0    0    0  501  0.00000000000E+00  0.00000000000E+00 -0.11010748230E+04  0.11010748230E+04  0.25500000920E-02 0. -1.
    10030    2    1    2    0    0  0.00000000000E+00  0.00000000000E+00  0.54522689731E+03  0.27473765434E+04  0.26927319773E+04 0.  0.
        4    1    3    3  502    0  0.45848102164E+03 -0.80352954129E+03  0.12706435224E+04  0.15717509806E+04  0.12699999809E+01 0.  1.
       -4    1    3    3    0  502 -0.45848102164E+03  0.80352954129E+03 -0.72541662514E+03  0.11756255628E+04  0.12699999809E+01 0. -1.
</event>
<event>
 5   0  0.3652331E-05  0.2609780E+04  0.7818609E-02  0.8364887E-01
       -2   -1    0    0    0  501  0.00000000000E+00  0.00000000000E+00  0.59975292342E+03  0.59975292343E+03  0.25500000920E-02 0.  1.
        2   -1    0    0  501    0  0.00000000000E+00  0.00000000000E+00 -0.28390659646E+04  0.28390659646E+04  0.25500000920E-02 0. -1.
    10030    2    1    2    0    0  0.00000000000E+00  0.00000000000E+00 -0.22393130411E+04  0.34388188880E+04  0.26097801532E+04 0.  0.
        1    1    3    3  502    0  0.40705993921E+03 -0.63602163817E+03  0.28260076381E+03  0.80627818404E+03  0.50400001928E-02 0.  1.
       -1    1    3    3    0  502 -0.40705993921E+03  0.63602163817E+03 -0.25219138050E+04  0.26325407040E+04  0.50400001928E-02 0. -1.
</event>
<event>
 5   0  0.1484379E-05  0.1560735E+04  0.7818609E-02  0.8845040E-01
       -1   -1    0    0    0  501  0.00000000000E+00  0.00000000000E+00  0.14062206202E+04  0.14062206202E+04  0.50400001928E-02 0. -1.
        1   -1    0    0  501    0  0.00000000000E+00  0.00000000000E+00 -0.43305660755E+03  0.43305660758E+03  0.50400001928E-02 0.  1.
    10030    2    1    2    0    0  0.00000000000E+00  0.00000000000E+00  0.97316401268E+03  0.18392772278E+04  0.15607346108E+04 0.  0.
        1    1    3    3  502    0  0.57919892015E+03 -0.24617507569E+03 -0.57175830222E+02  0.63193562376E+03  0.50400001928E-02 0.  1.
       -1    1    3    3    0  502 -0.57919892015E+03  0.24617507569E+03  0.10303398429E+04  0.12073416041E+04  0.50400001928E-02 0. -1.
</event>
<event>
 5   0  0.1449521E-05  0.2742855E+04  0.7818609E-02  0.8321233E-01
        1   -1    0    0  501    0  0.00000000000E+00  0.00000000000E+00  0.21843556990E+04  0.21843556990E+04  0.50400001928E-02 0. -1.
       -1   -1    0    0    0  501  0.00000000000E+00  0.00000000000E+00 -0.86103782970E+03  0.86103782971E+03  0.50400001928E-02 0.  1.
    10030    2    1    2    0    0  0.00000000000E+00  0.00000000000E+00  0.13233178693E+04  0.30453935287E+04  0.27428546373E+04 0.  0.
        3    1    3    3  502    0  0.25143288125E+03 -0.73632132126E+03  0.19155740629E+04  0.20675617482E+04  0.10100000352E+00 0. -1.
       -3    1    3    3    0  502 -0.25143288125E+03  0.73632132126E+03 -0.59225619361E+03  0.97783178052E+03  0.10100000352E+00 0.  1.
</event>
<event>
 5   0  0.1484379E-05  0.2019703E+04  0.7818609E-02  0.8597464E-01
        1   -1    0    0  501    0  0.00000000000E+00  0.00000000000E+00  0.21098015104E+04  0.21098015104E+04  0.50400001928E-02 0.  1.
       -1   -1    0    0    0  501  0.00000000000E+00  0.00000000000E+00 -0.48336310022E+03  0.48336310025E+03  0.50400001928E-02 0. -1.
    10030    2    1    2    0    0  0.00000000000E+00  0.00000000000E+00  0.16264384102E+04  0.25931646107E+04  0.20197031455E+04 0.  0.
        1    1    3    3  502    0 -0.83704190262E+03 -0.49108160300E+03  0.45463628555E+03  0.10716783285E+04  0.50400001928E-02 0.  1.
       -1    1    3    3    0  502  0.83704190262E+03  0.49108160300E+03  0.11718021246E+04  0.15214862822E+04  0.50400001928E-02 0. -1.
</event>
<event>
 5   0  0.3676724E-05  0.2109453E+04  0.7818609E-02  0.8557091E-01
       -2   -1    0    0    0  501  0.00000000000E+00  0.00000000000E+00  0.78204326106E+03  0.78204326106E+03  0.25500000920E-02 0.  1.
        2   -1    0    0  501    0  0.00000000000E+00  0.00000000000E+00 -0.14224885880E+04  0.14224885880E+04  0.25500000920E-02 0. -1.
    10030    2    1    2    0    0  0.00000000000E+00  0.00000000000E+00 -0.64044532694E+03  0.22045318491E+04  0.21094526439E+04 0.  0.
        4    1    3    3  502    0  0.69997034545E+03 -0.11529465080E+03 -0.11359117305E+04  0.13392342638E+04  0.12699999809E+01 0. -1.
       -4    1    3    3    0  502 -0.69997034545E+03  0.11529465080E+03  0.49546640358E+03  0.86529758522E+03  0.12699999809E+01 0.  1.
</event>
<event>
 5   0  0.3514294E-05  0.2358907E+04  0.7818609E-02  0.8455050E-01
        2   -1    0    0  501    0  0.00000000000E+00  0.00000000000E+00  0.15008511908E+04  0.15008511908E+04  0.25500000920E-02 0. -1.
       -2   -1    0    0    0  501  0.00000000000E+00  0.00000000000E+00 -0.92688110023E+03  0.92688110023E+03  0.25500000920E-02 0.  1.
    10030    2    1    2    0    0  0.00000000000E+00  0.00000000000E+00  0.57397009052E+03  0.24277322910E+04  0.23589070376E+04 0.  0.
        2    1    3    3  502    0  0.33554346514E+03 -0.11275228870E+04  0.37439436195E+03  0.12345316586E+04  0.25500000920E-02 0. -1.
       -2    1    3    3    0  502 -0.33554346514E+03  0.11275228870E+04  0.19957572857E+03  0.11932006324E+04  0.25500000920E-02 0.  1.
</event>
<event>
 5   0  0.3514294E-05  0.2771062E+04  0.7818609E-02  0.8312309E-01
       -2   -1    0    0    0  501  0.00000000000E+00  0.00000000000E+00  0.13233089671E+04  0.13233089671E+04  0.25500000920E-02 0.  1.
        2   -1    0    0  501    0  0.00000000000E+00  0.00000000000E+00 -0.14506784270E+04  0.14506784270E+04  0.25500000920E-02 0. -1.
    10030    2    1    2    0    0  0.00000000000E+00  0.00000000000E+00 -0.12736945993E+03  0.27739873942E+04  0.27710617250E+04 0.  0.
        2    1    3    3  502    0  0.62775112728E+03  0.38201783349E+03  0.11121560478E+04  0.13330041926E+04  0.25500000920E-02 0.  1.
       -2    1    3    3    0  502 -0.62775112728E+03 -0.38201783349E+03 -0.12395255077E+04  0.14409832015E+04  0.25500000920E-02 0. -1.
</event>
<event>
 5   0  0.3652331E-05  0.2693405E+04  0.7818609E-02  0.8337148E-01
       -2   -1    0    0    0  501  0.00000000000E+00  0.00000000000E+00  0.11675633359E+04  0.11675633359E+04  0.25500000920E-02 0.  1.
        2   -1    0    0  501    0  0.00000000000E+00  0.00000000000E+00 -0.15533267582E+04  0.15533267582E+04  0.25500000920E-02 0. -1.
    10030    2    1    2    0    0  0.00000000000E+00  0.00000000000E+00 -0.38576342230E+03  0.27208900941E+04  0.26934048129E+04 0.  0.
        1    1    3    3  502    0 -0.80534437967E+03 -0.88447609152E+03 -0.81784647564E+03  0.14490515464E+04  0.50400001928E-02 0. -1.
       -1    1    3    3    0  502  0.80534437967E+03  0.88447609152E+03  0.43208305334E+03  0.12718385477E+04  0.50400001928E-02 0.  1.
</event>
<event>
 5   0  0.3497949E-05  0.2081473E+04  0.7818609E-02  0.8569449E-01
        2   -1    0    0  501    0  0.00000000000E+00  0.00000000000E+00  0.12747352173E+04  0.12747352173E+04  0.25500000920E-02 0. -1.
       -2   -1    0    0    0  501  0.00000000000E+00  0.00000000000E+00 -0.84969235623E+03  0.84969235623E+03  0.25500000920E-02 0.  1.
    10030    2    1    2    0    0  0.00000000000E+00  0.00000000000E+00  0.42504286109E+03  0.21244275736E+04  0.20814732959E+04 0.  0.
        5    1    3    3  502    0 -0.72749935946E+03  0.56764093704E+03  0.70374256945E+03  0.11604943970E+04  0.46999998093E+01 0. -1.
       -5    1    3    3    0  502  0.72749935946E+03 -0.56764093704E+03 -0.27869970836E+03  0.96393317655E+03  0.46999998093E+01 0.  1.
</event>
<event>
 5   0  0.1474012E-05  0.2708121E+04  0.7818609E-02  0.8332375E-01
       -1   -1    0    0    0  501  0.00000000000E+00  0.00000000000E+00  0.13918283279E+04  0.13918283279E+04  0.50400001928E-02 0. -1.
        1   -1    0    0  501    0  0.00000000000E+00  0.00000000000E+00 -0.13173176652E+04  0.13173176652E+04  0.50400001928E-02 0.  1.
    10030    2    1    2    0    0  0.00000000000E+00  0.00000000000E+00  0.74510662752E+02  0.27091459931E+04  0.27081211519E+04 0.  0.
        2    1    3    3  502    0  0.75127883280E+03  0.75320839833E+03 -0.80075927969E+03  0.13315247650E+04  0.25500000920E-02 0.  1.
       -2    1    3    3    0  502 -0.75127883280E+03 -0.75320839833E+03  0.87526994244E+03  0.13776212281E+04  0.25500000920E-02 0. -1.
</event>
<event>
 5   0  0.1449521E-05  0.2287816E+04  0.7818609E-02  0.8482741E-01
        1   -1    0    0  501    0  0.00000000000E+00  0.00000000000E+00  0.12844539379E+04  0.12844539379E+04  0.50400001928E-02 0. -1.
       -1   -1    0    0    0  501  0.00000000000E+00  0.00000000000E+00 -0.10187404551E+04  0.10187404551E+04  0.50400001928E-02 0.  1.
    10030    2    1    2    0    0  0.00000000000E+00  0.00000000000E+00  0.26571348276E+03  0.23031943930E+04  0.22878157175E+04 0.  0.
        3    1    3    3  502    0 -0.67376416121E+03  0.89877413294E+03 -0.84865578635E+02  0.11264791448E+04  0.10100000352E+00 0. -1.
       -3    1    3    3    0  502  0.67376416121E+03 -0.89877413294E+03  0.35057906139E+03  0.11767152482E+04  0.10100000352E+00 0.  1.
</event>
<event>
 5   0  0.1484379E-05  0.2770470E+04  0.7818609E-02  0.8312495E-01
        1   -1    0    0  501    0  0.00000000000E+00  0.00000000000E+00  0.20431776288E+04  0.20431776288E+04  0.50400001928E-02 0. -1.
       -1   -1    0    0    0  501  0.00000000000E+00  0.00000000000E+00 -0.93916276757E+03  0.93916276758E+03  0.50400001928E-02 0.  1.
    10030    2    1    2    0    0  0.00000000000E+00  0.00000000000E+00  0.11040148612E+04  0.29823403964E+04  0.27704702536E+04 0.  0.
        1    1    3    3  502    0  0.49594072719E+03 -0.11328192215E+04  0.12239549498E+04  0.17399144556E+04  0.50400001928E-02 0. -1.
       -1    1    3    3    0  502 -0.49594072719E+03  0.11328192215E+04 -0.11994008865E+03  0.12424259408E+04  0.50400001928E-02 0.  1.
</event>
<event>
 5   0  0.1474012E-05  0.2732308E+04  0.7818609E-02  0.8324598E-01
        1   -1    0    0  501    0  0.00000000000E+00  0.00000000000E+00  0.16739051431E+04  0.16739051431E+04  0.50400001928E-02 0.  1.
       -1   -1    0    0    0  501  0.00000000000E+00  0.00000000000E+00 -0.11149839352E+04  0.11149839352E+04  0.50400001928E-02 0. -1.
    10030    2    1    2    0    0  0.00000000000E+00  0.00000000000E+00  0.55892120796E+03  0.27888890783E+04  0.27323084333E+04 0.  0.
        2    1    3    3  502    0 -0.38493868407E+03  0.77725214999E+03 -0.79789591643E+03  0.11785315391E+04  0.25500000920E-02 0. -1.
       -2    1    3    3    0  502  0.38493868407E+03 -0.77725214999E+03  0.13568171244E+04  0.16103575393E+04  0.25500000920E-02 0.  1.
</event>
<event>
 5   0  0.3568647E-05  0.1582219E+04  0.7818609E-02  0.8831546E-01
        2   -1    0    0  501    0  0.00000000000E+00  0.00000000000E+00  0.61561216789E+03  0.61561216789E+03  0.25500000920E-02 0. -1.
       -2   -1    0    0    0  501  0.00000000000E+00  0.00000000000E+00 -0.10166376780E+04  0.10166376780E+04  0.25500000920E-02 0.  1.
    10030    2    1    2    0    0  0.00000000000E+00  0.00000000000E+00 -0.40102551011E+03  0.16322498459E+04  0.15822193589E+04 0.  0.
        3    1    3    3  502    0 -0.53417074032E+03  0.31882812567E+03  0.30367928467E+03  0.69225058445E+03  0.10100000352E+00 0. -1.
       -3    1    3    3    0  502  0.53417074032E+03 -0.31882812567E+03 -0.70470479479E+03  0.93999926145E+03  0.10100000352E+00 0.  1.
</event>
<event>
 5   0  0.1474012E-05  0.2709407E+04  0.7818609E-02  0.8331959E-01
       -1   -1    0    0    0  501  0.00000000000E+00  0.00000000000E+00  0.11626186481E+04  0.11626186481E+04  0.50400001928E-02 0.  1.
        1   -1    0    0  501    0  0.00000000000E+00  0.00000000000E+00 -0.15785238090E+04  0.15785238090E+04  0.50400001928E-02 0. -1.
    10030    2    1    2    0    0  0.00000000000E+00  0.00000000000E+00 -0.41590516091E+03  0.27411424571E+04  0.27094067372E+04 0.  0.
        2    1    3    3  502    0  0.44289031590E+03 -0.12101546700E+04 -0.63069261195E+03  0.14347122805E+04  0.25500000920E-02 0. -1.
       -2    1    3    3    0  502 -0.44289031590E+03  0.12101546700E+04  0.21478745104E+03  0.13064301766E+04  0.25500000920E-02 0.  1.
</event>
<event>
 5   0  0.3497949E-05  0.2724616E+04  0.7818609E-02  0.8327062E-01
       -2   -1    0    0    0  501  0.00000000000E+00  0.00000000000E+00  0.68372846386E+03  0.68372846386E+03  0.25500000920E-02 0. -1.
        2   -1    0    0  501    0  0.00000000000E+00  0.00000000000E+00 -0.27143563073E+04  0.27143563073E+04  0.25500000920E-02 0.  1.
    10030    2    1    2    0    0  0.00000000000E+00  0.00000000000E+00 -0.20306278434E+04  0.33980847712E+04  0.27246156928E+04 0.  0.
        5    1    3    3  502    0  0.10856100288E+04 -0.14982138216E+03 -0.60497783860E+01  0.10959262161E+04  0.46999998093E+01 0.  1.
       -5    1    3    3    0  502 -0.10856100288E+04  0.14982138216E+03 -0.20245780651E+04  0.23021585551E+04  0.46999998093E+01 0. -1.
</event>
<event>
 5   0  0.3652331E-05  0.2653675E+04  0.7818609E-02  0.8350194E-01
       -2   -1    0    0    0  501  0.00000000000E+00  0.00000000000E+00  0.12015220381E+04  0.12015220381E+04  0.25500000920E-02 0.  1.
        2   -1    0    0  501    0  0.00000000000E+00  0.00000000000E+00 -0.14652229312E+04  0.14652229312E+04  0.25500000920E-02 0. -1.
    10030    2    1    2    0    0  0.00000000000E+00  0.00000000000E+00 -0.26370089316E+03  0.26667449693E+04  0.26536749179E+04 0.  0.
        1    1    3    3  502    0  0.97897510676E+03 -0.84709915880E+03  0.16031919245E+03  0.13044813099E+04  0.50400001928E-02 0.  1.
       -1    1    3    3    0  502 -0.97897510676E+03  0.84709915880E+03 -0.42402008561E+03  0.13622636593E+04  0.50400001928E-02 0. -1.
</event>
<event>
 5   0  0.1495517E-05  0.1751769E+04  0.7818609E-02  0.8732377E-01
       -1   -1    0    0    0  501  0.00000000000E+00  0.00000000000E+00  0.75755161631E+03  0.75755161633E+03  0.50400001928E-02 0.  1.
        1   -1    0    0  501    0  0.00000000000E+00  0.00000000000E+00 -0.10127020542E+04  0.10127020542E+04  0.50400001928E-02 0. -1.
    10030    2    1    2    0    0  0.00000000000E+00  0.00000000000E+00 -0.25515043787E+03  0.17702536705E+04  0.17517694803E+04 0.  0.
        5    1    3    3  502    0  0.27527984685E+03  0.74070739857E+03 -0.50935190234E+03  0.94015312305E+03  0.46999998093E+01 0. -1.
       -5    1    3    3    0  502 -0.27527984685E+03 -0.74070739857E+03  0.25420146447E+03  0.83010054747E+03  0.46999998093E+01 0.  1.
</event>
<event>
 5   0  0.1449521E-05  0.2800464E+04  0.7818609E-02  0.8303124E-01
       -1   -1    0    0    0  501  0.00000000000E+00  0.00000000000E+00  0.13493784896E+04  0.13493784896E+04  0.50400001928E-02 0. -1.
        1   -1    0    0  501    0  0.00000000000E+00  0.00000000000E+00 -0.14530016588E+04  0.14530016588E+04  0.50400001928E-02 0.  1.
    10030    2    1    2    0    0  0.00000000000E+00  0.00000000000E+00 -0.10362316912E+03  0.28023801484E+04  0.28004636643E+04 0.  0.
        3    1    3    3  502    0  0.13093436838E+04  0.48188412644E+03  0.66827467692E+02  0.13968031767E+04  0.10100000352E+00 0.  1.
       -3    1    3    3    0  502 -0.13093436838E+04 -0.48188412644E+03 -0.17045063681E+03  0.14055769717E+04  0.10100000352E+00 0. -1.
</event>
<event>
 5   0  0.1438701E-05  0.2675218E+04  0.7818609E-02  0.8343091E-01
       -1   -1    0    0    0  501  0.00000000000E+00  0.00000000000E+00  0.55577278738E+03  0.55577278740E+03  0.50400001928E-02 0. -1.
        1   -1    0    0  501    0  0.00000000000E+00  0.00000000000E+00 -0.32192961974E+04  0.32192961974E+04  0.50400001928E-02 0.  1.
    10030    2    1    2    0    0  0.00000000000E+00  0.00000000000E+00 -0.26635234100E+04  0.37750689848E+04  0.26752175396E+04 0.  0.
        4    1    3    3  502    0 -0.10810885294E+04  0.13269291415E+02 -0.24431227529E+04  0.26716621944E+04  0.12699999809E+01 0.  1.
       -4    1    3    3    0  502  0.10810885294E+04 -0.13269291415E+02 -0.22040065709E+03  0.11034067904E+04  0.12699999809E+01 0. -1.
</event>
<event>
 5   0  0.1495517E-05  0.2653564E+04  0.7818609E-02  0.8350231E-01
        1   -1    0    0  501    0  0.00000000000E+00  0.00000000000E+00  0.18170090888E+04  0.18170090888E+04  0.50400001928E-02 0.  1.
       -1   -1    0    0    0  501  0.00000000000E+00  0.00000000000E+00 -0.96881798802E+03  0.96881798803E+03  0.50400001928E-02 0. -1.
    10030    2    1    2    0    0  0.00000000000E+00  0.00000000000E+00  0.84819110080E+03  0.27858270769E+04  0.26535644629E+04 0.  0.
        5    1    3    3  502    0  0.90918992547E+01 -0.87069635173E+03 -0.62686751746E+03  0.10729304609E+04  0.46999998093E+01 0. -1.
       -5    1    3    3    0  502 -0.90918992547E+01  0.87069635173E+03  0.14750586183E+04  0.17128966159E+04  0.46999998093E+01 0.  1.
</event>
<event>
 5   0  0.3514294E-05  0.2777151E+04  0.7818609E-02  0.8310397E-01
        2   -1    0    0  501    0  0.00000000000E+00  0.00000000000E+00  0.19413279544E+04  0.19413279544E+04  0.25500000920E-02 0.  1.
       -2   -1    0    0    0  501  0.00000000000E+00  0.00000000000E+00 -0.99320759861E+03  0.99320759861E+03  0.25500000920E-02 0. -1.
    10030    2    1    2    0    0  0.00000000000E+00  0.00000000000E+00  0.94812035578E+03  0.29345355530E+04  0.27771508246E+04 0.  0.
        2    1    3    3  502    0  0.92854652070E+01 -0.45112595415E+03 -0.91357930822E+03  0.10189347373E+04  0.25500000920E-02 0. -1.
       -2    1    3    3    0  502 -0.92854652070E+01  0.45112595415E+03  0.18616996640E+04  0.19156008158E+04  0.25500000920E-02 0.  1.
</event>
<event>
 5   0  0.1474012E-05  0.2570444E+04  0.7818609E-02  0.8378311E-01
       -1   -1    0    0    0  501  0.00000000000E+00  0.00000000000E+00  0.13942679249E+04  0.13942679249E+04  0.50400001928E-02 0.  1.
        1   -1    0    0  501    0  0.00000000000E+00  0.00000000000E+00 -0.11847043978E+04  0.11847043978E+04  0.50400001928E-02 0. -1.
    10030    2    1    2    0    0  0.00000000000E+00  0.00000000000E+00  0.20956352717E+03  0.25789723227E+04  0.25704438079E+04 0.  0.
        2    1    3    3  502    0  0.79870991209E+03  0.10052042661E+04  0.46088076702E+02  0.12847167980E+04  0.25500000920E-02 0.  1.
       -2    1    3    3    0  502 -0.79870991209E+03 -0.10052042661E+04  0.16347545047E+03  0.12942555247E+04  0.25500000920E-02 0. -1.
</event>
<event>
 5   0  0.3497949E-05  0.2585043E+04  0.7818609E-02  0.8373299E-01
        2   -1    0    0  501    0  0.00000000000E+00  0.00000000000E+00  0.15089347628E+04  0.15089347628E+04  0.25500000920E-02 0.  1.
       -2   -1    0    0    0  501  0.00000000000E+00  0.00000000000E+00 -0.11071466532E+04  0.11071466532E+04  0.25500000920E-02 0. -1.
    10030    2    1    2    0    0  0.00000000000E+00  0.00000000000E+00  0.40178810958E+03  0.26160814160E+04  0.25850431892E+04 0.  0.
        5    1    3    3  502    0  0.89615279533E+03 -0.66122429772E+03  0.86472934051E+03  0.14099951513E+04  0.46999998093E+01 0.  1.
       -5    1    3    3    0  502 -0.89615279533E+03  0.66122429772E+03 -0.46294123093E+03  0.12060862646E+04  0.46999998093E+01 0. -1.
</event>
<event>
 5   0  0.1484379E-05  0.2716324E+04  0.7818609E-02  0.8329728E-01
        1   -1    0    0  501    0  0.00000000000E+00  0.00000000000E+00  0.14003018983E+04  0.14003018983E+04  0.50400001928E-02 0.  1.
       -1   -1    0    0    0  501  0.00000000000E+00  0.00000000000E+00 -0.13172904678E+04  0.13172904678E+04  0.50400001928E-02 0. -1.
    10030    2    1    2    0    0  0.00000000000E+00  0.00000000000E+00  0.83011430470E+02  0.27175923662E+04  0.27163242389E+04 0.  0.
        1    1    3    3  502    0  0.24593438901E+03  0.96525285722E+03 -0.88218450688E+03  0.13305811912E+04  0.50400001928E-02 0. -1.
       -1    1    3    3    0  502 -0.24593438901E+03 -0.96525285722E+03  0.96519593735E+03  0.13870111750E+04  0.50400001928E-02 0.  1.
</event>
<event>
 5   0  0.3568647E-05  0.2705935E+04  0.7818609E-02  0.8333082E-01
       -2   -1    0    0    0  501  0.00000000000E+00  0.00000000000E+00  0.70600269301E+03  0.70600269302E+03  0.25500000920E-02 0.  1.
        2   -1    0    0  501    0  0.00000000000E+00  0.00000000000E+00 -0.25927968716E+04  0.25927968716E+04  0.25500000920E-02 0. -1.
    10030    2    1    2    0    0  0.00000000000E+00  0.00000000000E+00 -0.18867941786E+04  0.32987995646E+04  0.27059353826E+04 0.  0.
        3    1    3    3  502    0  0.79345672126E+03 -0.10136659427E+04 -0.43570568853E+03  0.13590186419E+04  0.10100000352E+00 0. -1.
       -3    1    3    3    0  502 -0.79345672126E+03  0.10136659427E+04 -0.14510884900E+04  0.19397809227E+04  0.10100000352E+00 0.  1.
</event>
<event>
 5   0  0.3497949E-05  0.2677490E+04  0.7818609E-02  0.8342346E-01
       -2   -1    0    0    0  501  0.00000000000E+00  0.00000000000E+00  0.56091508110E+03  0.56091508110E+03  0.25500000920E-02 0. -1.
        2   -1    0    0  501    0  0.00000000000E+00  0.00000000000E+00 -0.31952045469E+04  0.31952045469E+04  0.25500000920E-02 0.  1.
    10030    2    1    2    0    0  0.00000000000E+00  0.00000000000E+00 -0.26342894658E+04  0.37561196280E+04  0.26774901812E+04 0.  0.
        5    1    3    3  502    0  0.57285238514E+03  0.11884731876E+04 -0.99851545139E+03  0.16545946843E+04  0.46999998093E+01 0. -1.
       -5    1    3    3    0  502 -0.57285238514E+03 -0.11884731876E+04 -0.16357740144E+04  0.21015249437E+04  0.46999998093E+01 0.  1.
</event>
<event>
 5   0  0.3497949E-05  0.2546022E+04  0.7818609E-02  0.8386771E-01
        2   -1    0    0  501    0  0.00000000000E+00  0.00000000000E+00  0.11259634249E+04  0.11259634249E+04  0.25500000920E-02 0.  1.
       -2   -1    0    0    0  501  0.00000000000E+00  0.00000000000E+00 -0.14392625302E+04  0.14392625302E+04  0.25500000920E-02 0. -1.
    10030    2    1    2    0    0  0.00000000000E+00  0.00000000000E+00 -0.31329910533E+03  0.25652259551E+04  0.25460219699E+04 0.  0.
        5    1    3    3  502    0  0.35894499109E+03  0.64001143276E+03 -0.12047258761E+04  0.14106178318E+04  0.46999998093E+01 0. -1.
       -5    1    3    3    0  502 -0.35894499109E+03 -0.64001143276E+03  0.89142677082E+03  0.11546081233E+04  0.46999998093E+01 0.  1.
</event>
<event>
 5   0  0.3568647E-05  0.1559196E+04  0.7818609E-02  0.8846015E-01
        2   -1    0    0  501    0  0.00000000000E+00  0.00000000000E+00  0.10645989235E+04  0.10645989235E+04  0.25500000920E-02 0.  1.
       -2   -1    0    0    0  501  0.00000000000E+00  0.00000000000E+00 -0.57089398253E+03  0.57089398253E+03  0.25500000920E-02 0. -1.
    10030    2    1    2    0    0  0.00000000000E+00  0.00000000000E+00  0.49370494096E+03  0.16354929060E+04  0.15591960996E+04 0.  0.
        3    1    3    3  502    0  0.12554963144E+03 -0.29025104491E+03  0.99429738345E+03  0.10433770536E+04  0.10100000352E+00 0.  1.
       -3    1    3    3    0  502 -0.12554963144E+03  0.29025104491E+03 -0.50059244249E+03  0.59211585243E+03  0.10100000352E+00 0. -1.
</event>
<event>
 5   0  0.1484379E-05  0.2328981E+04  0.7818609E-02  0.8466581E-01
        1   -1    0    0  501    0  0.00000000000E+00  0.00000000000E+00  0.24233913892E+04  0.24233913892E+04  0.50400001928E-02 0.  1.
       -1   -1    0    0    0  501  0.00000000000E+00  0.00000000000E+00 -0.55956232636E+03  0.55956232638E+03  0.50400001928E-02 0. -1.
    10030    2    1    2    0    0  0.00000000000E+00  0.00000000000E+00  0.18638290628E+04  0.29829537156E+04  0.23289813425E+04 0.  0.
        1    1    3    3  502    0  0.88275530706E+03  0.52998084591E+03  0.16286282756E+04  0.19268021926E+04  0.50400001928E-02 0.  1.
       -1    1    3    3    0  502 -0.88275530706E+03 -0.52998084591E+03  0.23520078721E+03  0.10561515230E+04  0.50400001928E-02 0. -1.
</event>
<event>
 5   0  0.1438701E-05  0.2304279E+04  0.7818609E-02  0.8476236E-01
        1   -1    0    0  501    0  0.00000000000E+00  0.00000000000E+00  0.17074812090E+04  0.17074812090E+04  0.50400001928E-02 0. -1.
       -1   -1    0    0    0  501  0.00000000000E+00  0.00000000000E+00 -0.77741720625E+03  0.77741720626E+03  0.50400001928E-02 0.  1.
    10030    2    1    2    0    0  0.00000000000E+00  0.00000000000E+00  0.93006400277E+03  0.24848984153E+04  0.23042788644E+04 0.  0.
        4    1    3    3  502    0  0.49628538845E+03  0.80517787623E+03  0.11744852486E+04  0.15079880010E+04  0.12699999809E+01 0. -1.
       -4    1    3    3    0  502 -0.49628538845E+03 -0.80517787623E+03 -0.24442124583E+03  0.97691041426E+03  0.12699999809E+01 0.  1.
</event>
<event>
 5   0  0.1495517E-05  0.2719002E+04  0.7818609E-02  0.8328866E-01
       -1   -1    0    0    0  501  0.00000000000E+00  0.00000000000E+00  0.11732249761E+04  0.11732249762E+04  0.50400001928E-02 0. -1.
        1   -1    0    0  501    0  0.00000000000E+00  0.00000000000E+00 -0.15753527518E+04  0.15753527518E+04  0.50400001928E-02 0.  1.
    10030    2    1    2    0    0  0.00000000000E+00  0.00000000000E+00 -0.40212777569E+03  0.27485777280E+04  0.27190021660E+04 0.  0.
        5    1    3    3  502    0  0.11504141437E+04 -0.38971674657E+03 -0.81835270166E+03  0.14646006551E+04  0.46999998093E+01 0. -1.
       -5    1    3    3    0  502 -0.11504141437E+04  0.38971674657E+03  0.41622492597E+03  0.12839770729E+04  0.46999998093E+01 0.  1.
</event>
<event>
 5   0  0.3514294E-05  0.2632285E+04  0.7818609E-02  0.8357317E-01
        2   -1    0    0  501    0  0.00000000000E+00  0.00000000000E+00  0.20397511059E+04  0.20397511059E+04  0.25500000920E-02 0.  1.
       -2   -1    0    0    0  501  0.00000000000E+00  0.00000000000E+00 -0.84923650374E+03  0.84923650374E+03  0.25500000920E-02 0. -1.
    10030    2    1    2    0    0  0.00000000000E+00  0.00000000000E+00  0.11905146021E+04  0.28889876096E+04  0.26322850132E+04 0.  0.
        2    1    3    3  502    0 -0.40770553755E+03  0.25741114051E+03  0.19393268431E+04  0.19983675600E+04  0.25500000920E-02 0.  1.
       -2    1    3    3    0  502  0.40770553755E+03 -0.25741114051E+03 -0.74881224093E+03  0.89062004962E+03  0.25500000920E-02 0. -1.
</event>
<event>
 5   0  0.1449521E-05  0.2699747E+04  0.7818609E-02  0.8335087E-01
        1   -1    0    0  501    0  0.00000000000E+00  0.00000000000E+00  0.17623395450E+04  0.17623395450E+04  0.50400001928E-02 0. -1.
       -1   -1    0    0    0  501  0.00000000000E+00  0.00000000000E+00 -0.10339427121E+04  0.10339427121E+04  0.50400001928E-02 0.  1.
    10030    2    1    2    0    0  0.00000000000E+00  0.00000000000E+00  0.72839683296E+03  0.27962822571E+04  0.26997467502E+04 0.  0.
        3    1    3    3  502    0  0.72741357882E+03 -0.99615562590E+03 -0.20377214965E+03  0.12501918432E+04  0.10100000352E+00 0.  1.
       -3    1    3    3    0  502 -0.72741357882E+03  0.99615562590E+03  0.93216898261E+03  0.15460904139E+04  0.10100000352E+00 0. -1.
</event>
<event>
 5   0  0.1438701E-05  0.2717411E+04  0.7818609E-02  0.8329378E-01
        1   -1    0    0  501    0  0.00000000000E+00  0.00000000000E+00  0.11956692380E+04  0.11956692380E+04  0.50400001928E-02 0. -1.
       -1   -1    0    0    0  501  0.00000000000E+00  0.00000000000E+00 -0.15439732017E+04  0.15439732017E+04  0.50400001928E-02 0.  1.
    10030    2    1    2    0    0  0.00000000000E+00  0.00000000000E+00 -0.34830396371E+03  0.27396424397E+04  0.27174114606E+04 0.  0.
        4    1    3    3  502    0  0.67368591045E+03  0.11332459309E+04 -0.50544429271E+03  0.14119400100E+04  0.12699999809E+01 0.  1.
       -4    1    3    3    0  502 -0.67368591045E+03 -0.11332459309E+04  0.15714032900E+03  0.13277024297E+04  0.12699999809E+01 0. -1.
</event>
<event>
 5   0  0.3676724E-05  0.2790234E+04  0.7818609E-02  0.8306307E-01
       -2   -1    0    0    0  501  0.00000000000E+00  0.00000000000E+00  0.75302885231E+03  0.75302885231E+03  0.25500000920E-02 0.  1.
        2   -1    0    0  501    0  0.00000000000E+00  0.00000000000E+00 -0.25846961174E+04  0.25846961174E+04  0.25500000920E-02 0. -1.
    10030    2    1    2    0    0  0.00000000000E+00  0.00000000000E+00 -0.18316672651E+04  0.33377249697E+04  0.27902335034E+04 0.  0.
        4    1    3    3  502    0 -0.48754389033E+03 -0.86452928416E+03 -0.20886384398E+04  0.23124709886E+04  0.12699999809E+01 0. -1.
       -4    1    3    3    0  502  0.48754389033E+03  0.86452928416E+03  0.25697117471E+03  0.10252539811E+04  0.12699999809E+01 0.  1.
</event>
<event>
 5   0  0.1438701E-05  0.2735661E+04  0.7818609E-02  0.8323526E-01
        1   -1    0    0  501    0  0.00000000000E+00  0.00000000000E+00  0.61147970497E+03  0.61147970499E+03  0.50400001928E-02 0.  1.
       -1   -1    0    0    0  501  0.00000000000E+00  0.00000000000E+00 -0.30597266923E+04  0.30597266923E+04  0.50400001928E-02 0. -1.
    10030    2    1    2    0    0  0.00000000000E+00  0.00000000000E+00 -0.24482469874E+04  0.36712063973E+04  0.27356613644E+04 0.  0.
        4    1    3    3  502    0 -0.29166000475E+03  0.39169785320E+03 -0.29387462746E+04  0.29790475065E+04  0.12699999809E+01 0. -1.
       -4    1    3    3    0  502  0.29166000475E+03 -0.39169785320E+03  0.49049928720E+03  0.69215889087E+03  0.12699999809E+01 0.  1.
</event>
<event>
 5   0  0.1438701E-05  0.2662804E+04  0.7818609E-02  0.8347176E-01
       -1   -1    0    0    0  501  0.00000000000E+00  0.00000000000E+00  0.76943137975E+03  0.76943137977E+03  0.50400001928E-02 0. -1.
        1   -1    0    0  501    0  0.00000000000E+00  0.00000000000E+00 -0.23038189882E+04  0.23038189882E+04  0.50400001928E-02 0.  1.
    10030    2    1    2    0    0  0.00000000000E+00  0.00000000000E+00 -0.15343876085E+04  0.30732503680E+04  0.26628035022E+04 0.  0.
        4    1    3    3  502    0  0.75714866376E+03 -0.10019205863E+04 -0.25687289159E+03  0.12818362827E+04  0.12699999809E+01 0.  1.
       -4    1    3    3    0  502 -0.75714866376E+03  0.10019205863E+04 -0.12775147169E+04  0.17914140853E+04  0.12699999809E+01 0. -1.
</event>
<event>
 5   0  0.1484379E-05  0.2716390E+04  0.7818609E-02  0.8329707E-01
       -1   -1    0    0    0  501  0.00000000000E+00  0.00000000000E+00  0.10866361636E+04  0.10866361636E+04  0.50400001928E-02 0.  1.
        1   -1    0    0  501    0  0.00000000000E+00  0.00000000000E+00 -0.16976183443E+04  0.16976183443E+04  0.50400001928E-02 0. -1.
    10030    2    1    2    0    0  0.00000000000E+00  0.00000000000E+00 -0.61098218078E+03  0.27842545079E+04  0.27163898725E+04 0.  0.
        1    1    3    3  502    0  0.32040522635E+03  0.21124846430E+03 -0.16408867464E+04  0.16851690530E+04  0.50400001928E-02 0. -1.
       -1    1    3    3    0  502 -0.32040522635E+03 -0.21124846430E+03  0.10299045656E+04  0.10990854549E+04  0.50400001928E-02 0.  1.
</event>
<event>
 5   0  0.3652331E-05  0.2685867E+04  0.7818609E-02  0.8339605E-01
        2   -1    0    0  501    0  0.00000000000E+00  0.00000000000E+00  0.25368573700E+04  0.25368573700E+04  0.25500000920E-02 0. -1.
       -2   -1    0    0    0  501  0.00000000000E+00  0.00000000000E+00 -0.71090751949E+03  0.71090751949E+03  0.25500000920E-02 0.  1.
    10030    2    1    2    0    0  0.00000000000E+00  0.00000000000E+00  0.18259498505E+04  0.32477648895E+04  0.26858674429E+04 0.  0.
        1    1    3    3  502    0  0.25249456410E+03  0.11118049495E+04  0.17710908974E+04  0.21063301540E+04  0.50400001928E-02 0. -1.
       -1    1    3    3    0  502 -0.25249456410E+03 -0.11118049495E+04  0.54858953072E+02  0.11414347355E+04  0.50400001928E-02 0.  1.
</event>
<event>
 5   0  0.1449521E-05  0.2551472E+04  0.7818609E-02  0.8384875E-01
       -1   -1    0    0    0  501  0.00000000000E+00  0.00000000000E+00  0.10359623399E+04  0.10359623399E+04  0.50400001928E-02 0.  1.
        1   -1    0    0  501    0  0.00000000000E+00  0.00000000000E+00 -0.15710050487E+04  0.15710050487E+04  0.50400001928E-02 0. -1.
    10030    2    1    2    0    0  0.00000000000E+00  0.00000000000E+00 -0.53504270880E+03  0.26069673886E+04  0.25514717841E+04 0.  0.
        3    1    3    3  502    0  0.10167097485E+04  0.75044256771E+03 -0.44636940818E+03  0.13401896951E+04  0.10100000352E+00 0. -1.
       -3    1    3    3    0  502 -0.10167097485E+04 -0.75044256771E+03 -0.88673300619E+02  0.12667776935E+04  0.10100000352E+00 0.  1.
</event>
<event>
 5   0  0.3514294E-05  0.2602000E+04  0.7818609E-02  0.8367522E-01
       -2   -1    0    0    0  501  0.00000000000E+00  0.00000000000E+00  0.12170960424E+04  0.12170960424E+04  0.25500000920E-02 0. -1.
        2   -1    0    0  501    0  0.00000000000E+00  0.00000000000E+00 -0.13906879495E+04  0.13906879495E+04  0.25500000920E-02 0.  1.
    10030    2    1    2    0    0  0.00000000000E+00  0.00000000000E+00 -0.17359190715E+03  0.26077839919E+04  0.26019998459E+04 0.  0.
        2    1    3    3  502    0  0.21604932457E+03 -0.12573793937E+04 -0.34215746553E+03  0.13208906017E+04  0.25500000920E-02 0. -1.
       -2    1    3    3    0  502 -0.21604932457E+03  0.12573793937E+04  0.16856555838E+03  0.12868933902E+04  0.25500000920E-02 0.  1.
</event>
<event>
 5   0  0.3568647E-05  0.1771028E+04  0.7818609E-02  0.8721860E-01
        2   -1    0    0  501    0  0.00000000000E+00  0.00000000000E+00  0.12372994026E+04  0.12372994026E+04  0.25500000920E-02 0. -1.
       -2   -1    0    0    0  501  0.00000000000E+00  0.00000000000E+00 -0.63374733451E+03  0.63374733452E+03  0.25500000920E-02 0.  1.
    10030    2    1    2    0    0  0.00000000000E+00  0.00000000000E+00  0.60355206804E+03  0.18710467371E+04  0.17710281741E+04 0.  0.
        3    1    3    3  502    0  0.68667479188E+03  0.46313339024E+03 -0.29155977565E+02  0.82877312226E+03  0.10100000352E+00 0.  1.
       -3    1    3    3    0  502 -0.68667479188E+03 -0.46313339024E+03  0.63270804560E+03  0.10422736148E+04  0.10100000352E+00 0. -1.
</event>
<event>
 5   0  0.1228050E-05  0.2635186E+04  0.7818609E-02  0.8356347E-01
        3   -1    0    0  501    0  0.00000000000E+00  0.00000000000E+00  0.10989271432E+04  0.10989271479E+04  0.10100000352E+00 0.  1.
       -3   -1    0    0    0  501  0.00000000000E+00  0.00000000000E+00 -0.15797692237E+04  0.15797692269E+04  0.10100000352E+00 0. -1.
    10030    2    1    2    0    0  0.00000000000E+00  0.00000000000E+00 -0.48084208043E+03  0.26786963748E+04  0.26351859824E+04 0.  0.
        5    1    3    3  502    0 -0.10159432040E+04  0.43214980384E+03 -0.97141577510E+03  0.14705661307E+04  0.46999998093E+01 0. -1.
       -5    1    3    3    0  502  0.10159432040E+04 -0.43214980384E+03  0.49057369467E+03  0.12081302440E+04  0.46999998093E+01 0.  1.
</event>
<event>
 5   0  0.1495517E-05  0.2737141E+04  0.7818609E-02  0.8323054E-01
       -1   -1    0    0    0  501  0.00000000000E+00  0.00000000000E+00  0.10042076226E+04  0.10042076226E+04  0.50400001928E-02 0.  1.
        1   -1    0    0  501    0  0.00000000000E+00  0.00000000000E+00 -0.18651367787E+04  0.18651367787E+04  0.50400001928E-02 0. -1.
    10030    2    1    2    0    0  0.00000000000E+00  0.00000000000E+00 -0.86092915613E+03  0.28693444013E+04  0.27371405301E+04 0.  0.
        5    1    3    3  502    0  0.83402190709E+03  0.86021436446E+03 -0.11237715404E+04  0.16426946945E+04  0.46999998093E+01 0. -1.
       -5    1    3    3    0  502 -0.83402190709E+03 -0.86021436446E+03  0.26284238425E+03  0.12266497068E+04  0.46999998093E+01 0.  1.
</event>
<event>
 5   0  0.3676724E-05  0.2313278E+04  0.7818609E-02  0.8472704E-01
       -2   -1    0    0    0  501  0.00000000000E+00  0.00000000000E+00  0.15168431712E+04  0.15168431712E+04  0.25500000920E-02 0. -1.
        2   -1    0    0  501    0  0.00000000000E+00  0.00000000000E+00 -0.88197226849E+03  0.88197226849E+03  0.25500000920E-02 0.  1.
    10030    2    1    2    0    0  0.00000000000E+00  0.00000000000E+00  0.63487090275E+03  0.23988154397E+04  0.23132778585E+04 0.  0.
        4    1    3    3  502    0  0.79575006586E+03  0.18769730657E+01 -0.55300159650E+03  0.96903770256E+03  0.12699999809E+01 0.  1.
       -4    1    3    3    0  502 -0.79575006586E+03 -0.18769730657E+01  0.11878724993E+04  0.14297777372E+04  0.12699999809E+01 0. -1.
</event>
<event>
 5   0  0.3676724E-05  0.2848289E+04  0.7818609E-02  0.8288432E-01
        2   -1    0    0  501    0  0.00000000000E+00  0.00000000000E+00  0.31500340562E+04  0.31500340562E+04  0.25500000920E-02 0. -1.
       -2   -1    0    0    0  501  0.00000000000E+00  0.00000000000E+00 -0.64386193973E+03  0.64386193974E+03  0.25500000920E-02 0.  1.
    10030    2    1    2    0    0  0.00000000000E+00  0.00000000000E+00  0.25061721165E+04  0.37938959959E+04  0.28482886354E+04 0.  0.
        4    1    3    3  502    0 -0.81499661715E+03  0.41725950836E+03  0.27060319361E+04  0.28567351006E+04  0.12699999809E+01 0. -1.
       -4    1    3    3    0  502  0.81499661715E+03 -0.41725950836E+03 -0.19985981961E+03  0.93716089530E+03  0.12699999809E+01 0.  1.
</event>
<event>
 5   0  0.3514294E-05  0.2562851E+04  0.7818609E-02  0.8380931E-01
       -2   -1    0    0    0  501  0.00000000000E+00  0.00000000000E+00  0.10898569071E+04  0.10898569071E+04  0.25500000920E-02 0.  1.
        2   -1    0    0  501    0  0.00000000000E+00  0.00000000000E+00 -0.15066665705E+04  0.15066665705E+04  0.25500000920E-02 0. -1.
    10030    2    1    2    0    0  0.00000000000E+00  0.00000000000E+00 -0.41680966343E+03  0.25965234775E+04  0.25628507319E+04 0.  0.
        2    1    3    3  502    0 -0.12507936267E+03  0.10492824350E+04 -0.94278195397E+03  0.14161483991E+04  0.25500000920E-02 0. -1.
       -2    1    3    3    0  502  0.12507936267E+03 -0.10492824350E+04  0.52597229054E+03  0.11803750785E+04  0.25500000920E-02 0.  1.
</event>
<event>
 5   0  0.1508162E-05  0.1377865E+04  0.7818609E-02  0.8969999E-01
        1   -1    0    0  501    0  0.00000000000E+00  0.00000000000E+00  0.45798410821E+03  0.45798410824E+03  0.50400001928E-02 0.  1.
       -1   -1    0    0    0  501  0.00000000000E+00  0.00000000000E+00 -0.10363418931E+04  0.10363418931E+04  0.50400001928E-02 0. -1.
    10030    2    1    2    0    0  0.00000000000E+00  0.00000000000E+00 -0.57835778486E+03  0.14943260013E+04  0.13778651860E+04 0.  0.
        5    1    3    3  502    0 -0.19653352158E+03  0.24231143978E+03 -0.95531400568E+03  0.10049811931E+04  0.46999998093E+01 0. -1.
       -5    1    3    3    0  502  0.19653352158E+03 -0.24231143978E+03  0.37695622082E+03  0.48934480826E+03  0.46999998093E+01 0.  1.
</event>
<event>
 5   0  0.3568647E-05  0.2737214E+04  0.7818609E-02  0.8323030E-01
       -2   -1    0    0    0  501  0.00000000000E+00  0.00000000000E+00  0.16081624949E+04  0.16081624949E+04  0.25500000920E-02 0.  1.
        2   -1    0    0  501    0  0.00000000000E+00  0.00000000000E+00 -0.11647359128E+04  0.11647359128E+04  0.25500000920E-02 0. -1.
    10030    2    1    2    0    0  0.00000000000E+00  0.00000000000E+00  0.44342658212E+03  0.27728984077E+04  0.27372136280E+04 0.  0.
        3    1    3    3  502    0 -0.44586786098E+02  0.12640522654E+04  0.75127922905E+03  0.14711344607E+04  0.10100000352E+00 0.  1.
       -3    1    3    3    0  502  0.44586786098E+02 -0.12640522654E+04 -0.30785264693E+03  0.13017639470E+04  0.10100000352E+00 0. -1.
</event>
<event>
 5   0  0.1228050E-05  0.2743882E+04  0.7818609E-02  0.8320906E-01
       -3   -1    0    0    0  501  0.00000000000E+00  0.00000000000E+00  0.71351622717E+03  0.71351623432E+03  0.10100000352E+00 0.  1.
        3   -1    0    0  501    0  0.00000000000E+00  0.00000000000E+00 -0.26379534181E+04  0.26379534200E+04  0.10100000352E+00 0. -1.
    10030    2    1    2    0    0  0.00000000000E+00  0.00000000000E+00 -0.19244371909E+04  0.33514696543E+04  0.27438823485E+04 0.  0.
        2    1    3    3  502    0  0.22713263298E+02 -0.38982471056E+03 -0.25686443019E+04  0.25981556433E+04  0.25500000920E-02 0. -1.
       -2    1    3    3    0  502 -0.22713263298E+02  0.38982471056E+03  0.64420711099E+03  0.75331401099E+03  0.25500000920E-02 0.  1.
</event>
<event>
 5   0  0.1449521E-05  0.2596913E+04  0.7818609E-02  0.8369251E-01
        1   -1    0    0  501    0  0.00000000000E+00  0.00000000000E+00  0.12886435806E+04  0.12886435806E+04  0.50400001928E-02 0. -1.
       -1   -1    0    0    0  501  0.00000000000E+00  0.00000000000E+00 -0.13083439949E+04  0.13083439949E+04  0.50400001928E-02 0.  1.
    10030    2    1    2    0    0  0.00000000000E+00  0.00000000000E+00 -0.19700414307E+02  0.25969875754E+04  0.25969128520E+04 0.  0.
        3    1    3    3  502    0  0.44044949451E+03  0.34461530208E+03 -0.11817344353E+04  0.13073835510E+04  0.10100000352E+00 0.  1.
       -3    1    3    3    0  502 -0.44044949451E+03 -0.34461530208E+03  0.11620340210E+04  0.12896040244E+04  0.10100000352E+00 0. -1.
</event>
<event>
 5   0  0.1228050E-05  0.2663433E+04  0.7818609E-02  0.8346968E-01
       -3   -1    0    0    0  501  0.00000000000E+00  0.00000000000E+00  0.99282930885E+03  0.99282931399E+03  0.10100000352E+00 0. -1.
        3   -1    0    0  501    0  0.00000000000E+00  0.00000000000E+00 -0.17862778054E+04  0.17862778083E+04  0.10100000352E+00 0.  1.
    10030    2    1    2    0    0  0.00000000000E+00  0.00000000000E+00 -0.79344849656E+03  0.27791071223E+04  0.26634331004E+04 0.  0.
        4    1    3    3  502    0 -0.25686990014E+03  0.10088580806E+04 -0.12632682954E+04  0.16369560689E+04  0.12699999809E+01 0.  1.
       -4    1    3    3    0  502  0.25686990014E+03 -0.10088580806E+04  0.46981979882E+03  0.11421510534E+04  0.12699999809E+01 0. -1.
</event>
<event>
 5   0  0.3676724E-05  0.1344867E+04  0.7818609E-02  0.8994723E-01
        2   -1    0    0  501    0  0.00000000000E+00  0.00000000000E+00  0.11052900663E+04  0.11052900663E+04  0.25500000920E-02 0. -1.
       -2   -1    0    0    0  501  0.00000000000E+00  0.00000000000E+00 -0.40909341010E+03  0.40909341010E+03  0.25500000920E-02 0.  1.
    10030    2    1    2    0    0  0.00000000000E+00  0.00000000000E+00  0.69619665617E+03  0.15143834764E+04  0.13448671048E+04 0.  0.
        4    1    3    3  502    0 -0.18213514502E+03  0.63875019871E+03  0.23004992394E+03  0.70292219185E+03  0.12699999809E+01 0. -1.
       -4    1    3    3    0  502  0.18213514502E+03 -0.63875019871E+03  0.46614673223E+03  0.81146128451E+03  0.12699999809E+01 0.  1.
</event>
<event>
 5   0  0.1438701E-05  0.2668009E+04  0.7818609E-02  0.8345460E-01
        1   -1    0    0  501    0  0.00000000000E+00  0.00000000000E+00  0.13968581935E+04  0.13968581935E+04  0.50400001928E-02 0. -1.
       -1   -1    0    0    0  501  0.00000000000E+00  0.00000000000E+00 -0.12739788263E+04  0.12739788263E+04  0.50400001928E-02 0.  1.
    10030    2    1    2    0    0  0.00000000000E+00  0.00000000000E+00  0.12287936719E+03  0.26708370198E+04  0.26680088169E+04 0.  0.
        4    1    3    3  502    0  0.58089881871E+02  0.50696007731E+03 -0.11724183711E+04  0.12786514006E+04  0.12699999809E+01 0.  1.
       -4    1    3    3    0  502 -0.58089881871E+02 -0.50696007731E+03  0.12952977383E+04  0.13921856192E+04  0.12699999809E+01 0. -1.
</event>
<event>
 5   0  0.1449521E-05  0.1439263E+04  0.7818609E-02  0.8925878E-01
       -1   -1    0    0    0  501  0.00000000000E+00  0.00000000000E+00  0.51850205502E+03  0.51850205505E+03  0.50400001928E-02 0. -1.
        1   -1    0    0  501    0  0.00000000000E+00  0.00000000000E+00 -0.99878063377E+03  0.99878063378E+03  0.50400001928E-02 0.  1.
    10030    2    1    2    0    0  0.00000000000E+00  0.00000000000E+00 -0.48027857875E+03  0.15172826888E+04  0.14392634382E+04 0.  0.
        3    1    3    3  502    0  0.47092089902E+03 -0.41976142897E+03 -0.60518093419E+03  0.87419112538E+03  0.10100000352E+00 0. -1.
       -3    1    3    3    0  502 -0.47092089902E+03  0.41976142897E+03  0.12490235545E+03  0.64309156345E+03  0.10100000352E+00 0.  1.
</event>
<event>
 5   0  0.3514294E-05  0.1768996E+04  0.7818609E-02  0.8722963E-01
       -2   -1    0    0    0  501  0.00000000000E+00  0.00000000000E+00  0.65776878535E+03  0.65776878535E+03  0.25500000920E-02 0. -1.
        2   -1    0    0  501    0  0.00000000000E+00  0.00000000000E+00 -0.11893789790E+04  0.11893789790E+04  0.25500000920E-02 0.  1.
    10030    2    1    2    0    0  0.00000000000E+00  0.00000000000E+00 -0.53161019367E+03  0.18471477644E+04  0.17689956092E+04 0.  0.
        2    1    3    3  502    0 -0.46688475120E+03 -0.36540209448E+03  0.41957427615E+03  0.72632130271E+03  0.25500000920E-02 0. -1.
       -2    1    3    3    0  502  0.46688475120E+03  0.36540209448E+03 -0.95118446982E+03  0.11208264617E+04  0.25500000920E-02 0.  1.
</event>
<event>
 5   0  0.1449521E-05  0.2849537E+04  0.7818609E-02  0.8288052E-01
        1   -1    0    0  501    0  0.00000000000E+00  0.00000000000E+00  0.14971683584E+04  0.14971683584E+04  0.50400001928E-02 0. -1.
       -1   -1    0    0    0  501  0.00000000000E+00  0.00000000000E+00 -0.13558694676E+04  0.13558694676E+04  0.50400001928E-02 0.  1.
    10030    2    1    2    0    0  0.00000000000E+00  0.00000000000E+00  0.14129889088E+03  0.28530378260E+04  0.28495367097E+04 0.  0.
        3    1    3    3  502    0  0.80425099697E+03  0.27910692189E+03  0.12145261402E+04  0.14831702854E+04  0.10100000352E+00 0. -1.
       -3    1    3    3    0  502 -0.80425099697E+03 -0.27910692189E+03 -0.10732272493E+04  0.13698675406E+04  0.10100000352E+00 0.  1.
</event>
<event>
 5   0  0.3676724E-05  0.2705470E+04  0.7818609E-02  0.8333232E-01
       -2   -1    0    0    0  501  0.00000000000E+00  0.00000000000E+00  0.85823616380E+03  0.85823616380E+03  0.25500000920E-02 0.  1.
        2   -1    0    0  501    0  0.00000000000E+00  0.00000000000E+00 -0.21321538375E+04  0.21321538375E+04  0.25500000920E-02 0. -1.
    10030    2    1    2    0    0  0.00000000000E+00  0.00000000000E+00 -0.12739176737E+04  0.29903900013E+04  0.27054696673E+04 0.  0.
        4    1    3    3  502    0 -0.10292138811E+04 -0.64199286760E+03 -0.12987207904E+04  0.17771081451E+04  0.12699999809E+01 0. -1.
       -4    1    3    3    0  502  0.10292138811E+04  0.64199286760E+03  0.24803116649E+02  0.12132818562E+04  0.12699999809E+01 0.  1.
</event>
<event>
 5   0  0.3652331E-05  0.2693027E+04  0.7818609E-02  0.8337271E-01
       -2   -1    0    0    0  501  0.00000000000E+00  0.00000000000E+00  0.19930132311E+04  0.19930132311E+04  0.25500000920E-02 0. -1.
        2   -1    0    0  501    0  0.00000000000E+00  0.00000000000E+00 -0.90972761664E+03  0.90972761664E+03  0.25500000920E-02 0.  1.
    10030    2    1    2    0    0  0.00000000000E+00  0.00000000000E+00  0.10832856145E+04  0.29027408478E+04  0.26930274241E+04 0.  0.
        1    1    3    3  502    0  0.11264452895E+04  0.35860587548E+03  0.12365339225E+04  0.17106996538E+04  0.50400001928E-02 0. -1.
       -1    1    3    3    0  502 -0.11264452895E+04 -0.35860587548E+03 -0.15324830804E+03  0.11920411939E+04  0.50400001928E-02 0.  1.
</event>
<event>
 5   0  0.3568647E-05  0.2535589E+04  0.7818609E-02  0.8390415E-01
       -2   -1    0    0    0  501  0.00000000000E+00  0.00000000000E+00  0.10305607536E+04  0.10305607536E+04  0.25500000920E-02 0.  1.
        2   -1    0    0  501    0  0.00000000000E+00  0.00000000000E+00 -0.15596391962E+04  0.15596391962E+04  0.25500000920E-02 0. -1.
    10030    2    1    2    0    0  0.00000000000E+00  0.00000000000E+00 -0.52907844261E+03  0.25901999499E+04  0.25355890404E+04 0.  0.
        3    1    3    3  502    0 -0.48210871528E+03  0.31505844350E+03 -0.14182946929E+04  0.15307679388E+04  0.10100000352E+00 0. -1.
       -3    1    3    3    0  502  0.48210871528E+03 -0.31505844350E+03  0.88921625031E+03  0.10594320111E+04  0.10100000352E+00 0.  1.
</event>
<event>
 5   0  0.3568647E-05  0.2664608E+04  0.7818609E-02  0.8346581E-01
       -2   -1    0    0    0  501  0.00000000000E+00  0.00000000000E+00  0.85038636227E+03  0.85038636227E+03  0.25500000920E-02 0. -1.
        2   -1    0    0  501    0  0.00000000000E+00  0.00000000000E+00 -0.20873257331E+04  0.20873257331E+04  0.25500000920E-02 0.  1.
    10030    2    1    2    0    0  0.00000000000E+00  0.00000000000E+00 -0.12369393709E+04  0.29377120954E+04  0.26646075411E+04 0.  0.
        3    1    3    3  502    0  0.46161198535E+03  0.33735363544E+03  0.70825645924E+03  0.91023091720E+03  0.10100000352E+00 0. -1.
       -3    1    3    3    0  502 -0.46161198535E+03 -0.33735363544E+03 -0.19451958301E+04  0.20274811782E+04  0.10100000352E+00 0.  1.
</event>
<event>
 5   0  0.3497949E-05  0.2620961E+04  0.7818609E-02  0.8361116E-01
       -2   -1    0    0    0  501  0.00000000000E+00  0.00000000000E+00  0.88394275512E+03  0.88394275513E+03  0.25500000920E-02 0.  1.
        2   -1    0    0  501    0  0.00000000000E+00  0.00000000000E+00 -0.19428394425E+04  0.19428394425E+04  0.25500000920E-02 0. -1.
    10030    2    1    2    0    0  0.00000000000E+00  0.00000000000E+00 -0.10588966874E+04  0.28267821976E+04  0.26209607777E+04 0.  0.
        5    1    3    3  502    0  0.10388434679E+04 -0.55538925745E+03  0.89822477229E+02  0.11814157378E+04  0.46999998093E+01 0.  1.
       -5    1    3    3    0  502 -0.10388434679E+04  0.55538925745E+03 -0.11487191646E+04  0.16453664599E+04  0.46999998093E+01 0. -1.
</event>
<event>
 5   0  0.1449521E-05  0.2644045E+04  0.7818609E-02  0.8353392E-01
       -1   -1    0    0    0  501  0.00000000000E+00  0.00000000000E+00  0.99908987267E+03  0.99908987269E+03  0.50400001928E-02 0.  1.
        1   -1    0    0  501    0  0.00000000000E+00  0.00000000000E+00 -0.17493351250E+04  0.17493351250E+04  0.50400001928E-02 0. -1.
    10030    2    1    2    0    0  0.00000000000E+00  0.00000000000E+00 -0.75024525229E+03  0.27484249977E+04  0.26440446345E+04 0.  0.
        3    1    3    3  502    0  0.12125234218E+04  0.24462250793E+03  0.10986887150E+03  0.12418230144E+04  0.10100000352E+00 0.  1.
       -3    1    3    3    0  502 -0.12125234218E+04 -0.24462250793E+03 -0.86011412379E+03  0.15066019833E+04  0.10100000352E+00 0. -1.
</event>
<event>
 5   0  0.1438701E-05  0.2033815E+04  0.7818609E-02  0.8590972E-01
        1   -1    0    0  501    0  0.00000000000E+00  0.00000000000E+00  0.18061406945E+04  0.18061406945E+04  0.50400001928E-02 0.  1.
       -1   -1    0    0    0  501  0.00000000000E+00  0.00000000000E+00 -0.57254732345E+03  0.57254732347E+03  0.50400001928E-02 0. -1.
    10030    2    1    2    0    0  0.00000000000E+00  0.00000000000E+00  0.12335933710E+04  0.23786880179E+04  0.20338151543E+04 0.  0.
        4    1    3    3  502    0 -0.65690779894E+03  0.32246314941E+03  0.14426394766E+04  0.16176280819E+04  0.12699999809E+01 0.  1.
       -4    1    3    3    0  502  0.65690779894E+03 -0.32246314941E+03 -0.20904610561E+03  0.76105993601E+03  0.12699999809E+01 0. -1.
</event>
<event>
 5   0  0.3676724E-05  0.2691941E+04  0.7818609E-02  0.8337625E-01
        2   -1    0    0  501    0  0.00000000000E+00  0.00000000000E+00  0.15433956204E+04  0.15433956204E+04  0.25500000920E-02 0.  1.
       -2   -1    0    0    0  501  0.00000000000E+00  0.00000000000E+00 -0.11737990993E+04  0.11737990993E+04  0.25500000920E-02 0. -1.
    10030    2    1    2    0    0  0.00000000000E+00  0.00000000000E+00  0.36959652116E+03  0.27171947197E+04  0.26919408531E+04 0.  0.
        4    1    3    3  502    0 -0.78946317148E+03  0.51842902077E+03 -0.78316314646E+03  0.12269339328E+04  0.12699999809E+01 0. -1.
       -4    1    3    3    0  502  0.78946317148E+03 -0.51842902077E+03  0.11527596676E+04  0.14902607869E+04  0.12699999809E+01 0.  1.
</event>
<event>
 5   0  0.1449521E-05  0.2587594E+04  0.7818609E-02  0.8372427E-01
       -1   -1    0    0    0  501  0.00000000000E+00  0.00000000000E+00  0.10476996542E+04  0.10476996542E+04  0.50400001928E-02 0.  1.
        1   -1    0    0  501    0  0.00000000000E+00  0.00000000000E+00 -0.15977008075E+04  0.15977008075E+04  0.50400001928E-02 0. -1.
    10030    2    1    2    0    0  0.00000000000E+00  0.00000000000E+00 -0.55000115331E+03  0.26454004617E+04  0.25875939276E+04 0.  0.
        3    1    3    3  502    0 -0.69369443813E+03 -0.34825594164E+03 -0.13332168756E+04  0.15427123588E+04  0.10100000352E+00 0. -1.
       -3    1    3    3    0  502  0.69369443813E+03  0.34825594164E+03  0.78321572233E+03  0.11026881029E+04  0.10100000352E+00 0.  1.
</event>
<event>
 5   0  0.1474012E-05  0.2462730E+04  0.7818609E-02  0.8416385E-01
       -1   -1    0    0    0  501  0.00000000000E+00  0.00000000000E+00  0.92377453180E+03  0.92377453181E+03  0.50400001928E-02 0. -1.
        1   -1    0    0  501    0  0.00000000000E+00  0.00000000000E+00 -0.16413745701E+04  0.16413745701E+04  0.50400001928E-02 0.  1.
    10030    2    1    2    0    0  0.00000000000E+00  0.00000000000E+00 -0.71760003830E+03  0.25651491019E+04  0.24627302126E+04 0.  0.
        2    1    3    3  502    0  0.47718837259E+03 -0.81482684354E+03 -0.11819893248E+04  0.15128616235E+04  0.25500000920E-02 0.  1.
       -2    1    3    3    0  502 -0.47718837259E+03  0.81482684354E+03  0.46438928648E+03  0.10522874784E+04  0.25500000920E-02 0. -1.
</event>
<event>
 5   0  0.1449521E-05  0.2586858E+04  0.7818609E-02  0.8372679E-01
       -1   -1    0    0    0  501  0.00000000000E+00  0.00000000000E+00  0.14115370178E+04  0.14115370178E+04  0.50400001928E-02 0. -1.
        1   -1    0    0  501    0  0.00000000000E+00  0.00000000000E+00 -0.11852031277E+04  0.11852031277E+04  0.50400001928E-02 0.  1.
    10030    2    1    2    0    0  0.00000000000E+00  0.00000000000E+00  0.22633389006E+03  0.25967401455E+04  0.25868576214E+04 0.  0.
        3    1    3    3  502    0  0.72719723706E+03 -0.10363573828E+04 -0.15261924997E+03  0.12752039414E+04  0.10100000352E+00 0.  1.
       -3    1    3    3    0  502 -0.72719723706E+03  0.10363573828E+04  0.37895314003E+03  0.13215362042E+04  0.10100000352E+00 0. -1.
</event>
<event>
 5   0  0.1449521E-05  0.1799296E+04  0.7818609E-02  0.8706674E-01
       -1   -1    0    0    0  501  0.00000000000E+00  0.00000000000E+00  0.72593298156E+03  0.72593298157E+03  0.50400001928E-02 0.  1.
        1   -1    0    0  501    0  0.00000000000E+00  0.00000000000E+00 -0.11149331040E+04  0.11149331040E+04  0.50400001928E-02 0. -1.
    10030    2    1    2    0    0  0.00000000000E+00  0.00000000000E+00 -0.38900012246E+03  0.18408660856E+04  0.17992962096E+04 0.  0.
        3    1    3    3  502    0  0.20729004426E+03 -0.86664741517E+03 -0.32113281326E+03  0.94719227120E+03  0.10100000352E+00 0. -1.
       -3    1    3    3    0  502 -0.20729004426E+03  0.86664741517E+03 -0.67867309203E+02  0.89367381440E+03  0.10100000352E+00 0.  1.
</event>
<event>
 5   0  0.1495517E-05  0.2724103E+04  0.7818609E-02  0.8327227E-01
        1   -1    0    0  501    0  0.00000000000E+00  0.00000000000E+00  0.21894543625E+04  0.21894543625E+04  0.50400001928E-02 0. -1.
       -1   -1    0    0    0  501  0.00000000000E+00  0.00000000000E+00 -0.84732697520E+03  0.84732697521E+03  0.50400001928E-02 0.  1.
    10030    2    1    2    0    0  0.00000000000E+00  0.00000000000E+00  0.13421273873E+04  0.30367813377E+04  0.27241025989E+04 0.  0.
        5    1    3    3  502    0 -0.93903114200E+03 -0.11217320463E+03  0.17637774463E+04  0.20013233831E+04  0.46999998093E+01 0. -1.
       -5    1    3    3    0  502  0.93903114200E+03  0.11217320463E+03 -0.42165005905E+03  0.10354579546E+04  0.46999998093E+01 0.  1.
</event>
<event>
 5   0  0.1474012E-05  0.2589466E+04  0.7818609E-02  0.8371788E-01
        1   -1    0    0  501    0  0.00000000000E+00  0.00000000000E+00  0.17822777779E+04  0.17822777779E+04  0.50400001928E-02 0. -1.
       -1   -1    0    0    0  501  0.00000000000E+00  0.00000000000E+00 -0.94055719470E+03  0.94055719471E+03  0.50400001928E-02 0.  1.
    10030    2    1    2    0    0  0.00000000000E+00  0.00000000000E+00  0.84172058320E+03  0.27228349726E+04  0.25894664987E+04 0.  0.
        2    1    3    3  502    0  0.46906994771E+03 -0.75168782702E+03 -0.57183598783E+03  0.10545414179E+04  0.25500000920E-02 0.  1.
       -2    1    3    3    0  502 -0.46906994771E+03  0.75168782702E+03  0.14135565710E+04  0.16682935547E+04  0.25500000920E-02 0. -1.
</event>
<event>
 5   0  0.1474012E-05  0.2764773E+04  0.7818609E-02  0.8314289E-01
        1   -1    0    0  501    0  0.00000000000E+00  0.00000000000E+00  0.20271120253E+04  0.20271120253E+04  0.50400001928E-02 0. -1.
       -1   -1    0    0    0  501  0.00000000000E+00  0.00000000000E+00 -0.94271681569E+03  0.94271681571E+03  0.50400001928E-02 0.  1.
    10030    2    1    2    0    0  0.00000000000E+00  0.00000000000E+00  0.10843952096E+04  0.29698288410E+04  0.27647731144E+04 0.  0.
        2    1    3    3  502    0  0.18641359481E+03 -0.68557470721E+03  0.18159942030E+04  0.19500250390E+04  0.25500000920E-02 0. -1.
       -2    1    3    3    0  502 -0.18641359481E+03  0.68557470721E+03 -0.73159899336E+03  0.10198038020E+04  0.25500000920E-02 0.  1.
</event>
<event>
 5   0  0.3497949E-05  0.2603701E+04  0.7818609E-02  0.8366945E-01
       -2   -1    0    0    0  501  0.00000000000E+00  0.00000000000E+00  0.94322940392E+03  0.94322940393E+03  0.25500000920E-02 0. -1.
        2   -1    0    0  501    0  0.00000000000E+00  0.00000000000E+00 -0.17968213884E+04  0.17968213884E+04  0.25500000920E-02 0.  1.
    10030    2    1    2    0    0  0.00000000000E+00  0.00000000000E+00 -0.85359198448E+03  0.27400507923E+04  0.26037010329E+04 0.  0.
        5    1    3    3  502    0 -0.37312584222E+03 -0.74047220505E+03  0.62939047316E+03  0.10409978090E+04  0.46999998093E+01 0. -1.
       -5    1    3    3    0  502  0.37312584222E+03  0.74047220505E+03 -0.14829824576E+04  0.16990529834E+04  0.46999998093E+01 0.  1.
</event>
<event>
 5   0  0.1449521E-05  0.2249756E+04  0.7818609E-02  0.8497999E-01
        1   -1    0    0  501    0  0.00000000000E+00  0.00000000000E+00  0.13867810691E+04  0.13867810691E+04  0.50400001928E-02 0. -1.
       -1   -1    0    0    0  501  0.00000000000E+00  0.00000000000E+00 -0.91243690740E+03  0.91243690742E+03  0.50400001928E-02 0.  1.
    10030    2    1    2    0    0  0.00000000000E+00  0.00000000000E+00  0.47434416172E+03  0.22992179766E+04  0.22497557467E+04 0.  0.
        3    1    3    3  502    0 -0.57576630323E+03  0.81536963015E+03  0.76724257489E+03  0.12589661030E+04  0.10100000352E+00 0. -1.
       -3    1    3    3    0  502  0.57576630323E+03 -0.81536963015E+03 -0.29289841316E+03  0.10402518735E+04  0.10100000352E+00 0.  1.
</event>
<event>
 5   0  0.3497949E-05  0.2724278E+04  0.7818609E-02  0.8327170E-01
       -2   -1    0    0    0  501  0.00000000000E+00  0.00000000000E+00  0.13251020828E+04  0.13251020829E+04  0.25500000920E-02 0. -1.
        2   -1    0    0  501    0  0.00000000000E+00  0.00000000000E+00 -0.14002115859E+04  0.14002115859E+04  0.25500000920E-02 0.  1.
    10030    2    1    2    0    0  0.00000000000E+00  0.00000000000E+00 -0.75109503065E+02  0.27253136688E+04  0.27242784652E+04 0.  0.
        5    1    3    3  502    0 -0.72067105752E+03  0.71800363199E+03  0.86860687825E+03  0.13376830670E+04  0.46999998093E+01 0. -1.
       -5    1    3    3    0  502  0.72067105752E+03 -0.71800363199E+03 -0.94371638132E+03  0.13876306018E+04  0.46999998093E+01 0.  1.
</event>
<event>
 5   0  0.1449521E-05  0.2705379E+04  0.7818609E-02  0.8333262E-01
       -1   -1    0    0    0  501  0.00000000000E+00  0.00000000000E+00  0.12315318281E+04  0.12315318281E+04  0.50400001928E-02 0. -1.
        1   -1    0    0  501    0  0.00000000000E+00  0.00000000000E+00 -0.14857666110E+04  0.14857666110E+04  0.50400001928E-02 0.  1.
    10030    2    1    2    0    0  0.00000000000E+00  0.00000000000E+00 -0.25423478293E+03  0.27172984391E+04  0.27053789905E+04 0.  0.
        3    1    3    3  502    0 -0.93515255225E+03  0.74951792621E+03 -0.75716207868E+03  0.14175972070E+04  0.10100000352E+00 0.  1.
       -3    1    3    3    0  502  0.93515255225E+03 -0.74951792621E+03  0.50292729576E+03  0.12997012321E+04  0.10100000352E+00 0. -1.
</event>
<event>
 5   0  0.3676724E-05  0.2670302E+04  0.7818609E-02  0.8344706E-01
       -2   -1    0    0    0  501  0.00000000000E+00  0.00000000000E+00  0.12514641567E+04  0.12514641567E+04  0.25500000920E-02 0. -1.
        2   -1    0    0  501    0  0.00000000000E+00  0.00000000000E+00 -0.14244341917E+04  0.14244341917E+04  0.25500000920E-02 0.  1.
    10030    2    1    2    0    0  0.00000000000E+00  0.00000000000E+00 -0.17297003505E+03  0.26758983484E+04  0.26703021061E+04 0.  0.
        4    1    3    3  502    0  0.10811910114E+04 -0.37599639213E+03 -0.77515115566E+03  0.13824645446E+04  0.12699999809E+01 0.  1.
       -4    1    3    3    0  502 -0.10811910114E+04  0.37599639213E+03  0.60218112061E+03  0.12934338038E+04  0.12699999809E+01 0. -1.
</event>
<event>
 5   0  0.1438701E-05  0.2686309E+04  0.7818609E-02  0.8339461E-01
       -1   -1    0    0    0  501  0.00000000000E+00  0.00000000000E+00  0.10328805409E+04  0.10328805409E+04  0.50400001928E-02 0.  1.
        1   -1    0    0  501    0  0.00000000000E+00  0.00000000000E+00 -0.17466334388E+04  0.17466334388E+04  0.50400001928E-02 0. -1.
    10030    2    1    2    0    0  0.00000000000E+00  0.00000000000E+00 -0.71375289785E+03  0.27795139797E+04  0.26863087619E+04 0.  0.
        4    1    3    3  502    0  0.13268427176E+04  0.31947718787E+02 -0.57025940481E+03  0.14445517145E+04  0.12699999809E+01 0. -1.
       -4    1    3    3    0  502 -0.13268427176E+04 -0.31947718787E+02 -0.14349349304E+03  0.13349622652E+04  0.12699999809E+01 0.  1.
</event>
<event>
 5   0  0.3676724E-05  0.1873035E+04  0.7818609E-02  0.8668396E-01
        2   -1    0    0  501    0  0.00000000000E+00  0.00000000000E+00  0.21742208323E+04  0.21742208323E+04  0.25500000920E-02 0. -1.
       -2   -1    0    0    0  501  0.00000000000E+00  0.00000000000E+00 -0.40339265222E+03  0.40339265223E+03  0.25500000920E-02 0.  1.
    10030    2    1    2    0    0  0.00000000000E+00  0.00000000000E+00  0.17708281801E+04  0.25776134846E+04  0.18730346586E+04 0.  0.
        4    1    3    3  502    0  0.19001403678E+02 -0.74835886213E+03  0.11100702082E+03  0.75678676749E+03  0.12699999809E+01 0.  1.
       -4    1    3    3    0  502 -0.19001403678E+02  0.74835886213E+03  0.16598211593E+04  0.18208267171E+04  0.12699999809E+01 0. -1.
</event>
<event>
 5   0  0.3514294E-05  0.2662368E+04  0.7818609E-02  0.8347320E-01
       -2   -1    0    0    0  501  0.00000000000E+00  0.00000000000E+00  0.81726596662E+03  0.81726596662E+03  0.25500000920E-02 0. -1.
        2   -1    0    0  501    0  0.00000000000E+00  0.00000000000E+00 -0.21682664628E+04  0.21682664628E+04  0.25500000920E-02 0.  1.
    10030    2    1    2    0    0  0.00000000000E+00  0.00000000000E+00 -0.13510004962E+04  0.29855324295E+04  0.26623676580E+04 0.  0.
        2    1    3    3  502    0  0.12553125658E+04 -0.23124615122E+03 -0.25179279004E+03  0.13010319095E+04  0.25500000920E-02 0.  1.
       -2    1    3    3    0  502 -0.12553125658E+04  0.23124615122E+03 -0.10992077062E+04  0.16845005200E+04  0.25500000920E-02 0. -1.
</event>
<event>
 5   0  0.1484379E-05  0.2700883E+04  0.7818609E-02  0.8334719E-01
       -1   -1    0    0    0  501  0.00000000000E+00  0.00000000000E+00  0.13548638620E+04  0.13548638620E+04  0.50400001928E-02 0.  1.
        1   -1    0    0  501    0  0.00000000000E+00  0.00000000000E+00 -0.13460336168E+04  0.13460336168E+04  0.50400001928E-02 0. -1.
    10030    2    1    2    0    0  0.00000000000E+00  0.00000000000E+00  0.88302452215E+01  0.27008974788E+04  0.27008830440E+04 0.  0.
        1    1    3    3  502    0 -0.13494662037E+04  0.41916186470E+02  0.34017691574E+02  0.13505455213E+04  0.50400001928E-02 0.  1.
       -1    1    3    3    0  502  0.13494662037E+04 -0.41916186470E+02 -0.25187446352E+02  0.13503519575E+04  0.50400001928E-02 0. -1.
</event>
<event>
 5   0  0.1228050E-05  0.2649046E+04  0.7818609E-02  0.8351730E-01
       -3   -1    0    0    0  501  0.00000000000E+00  0.00000000000E+00  0.16047115697E+04  0.16047115729E+04  0.10100000352E+00 0. -1.
        3   -1    0    0  501    0  0.00000000000E+00  0.00000000000E+00 -0.10932564979E+04  0.10932565026E+04  0.10100000352E+00 0.  1.
    10030    2    1    2    0    0  0.00000000000E+00  0.00000000000E+00  0.51145507180E+03  0.26979680754E+04  0.26490461388E+04 0.  0.
        4    1    3    3  502    0  0.25599559467E+03  0.10082743104E+04  0.10907524225E+04  0.15072800966E+04  0.12699999809E+01 0. -1.
       -4    1    3    3    0  502 -0.25599559467E+03 -0.10082743104E+04 -0.57929735067E+03  0.11906879788E+04  0.12699999809E+01 0.  1.
</event>
<event>
 5   0  0.1484379E-05  0.2721230E+04  0.7818609E-02  0.8328149E-01
       -1   -1    0    0    0  501  0.00000000000E+00  0.00000000000E+00  0.15462876740E+04  0.15462876741E+04  0.50400001928E-02 0. -1.
        1   -1    0    0  501    0  0.00000000000E+00  0.00000000000E+00 -0.11972374713E+04  0.11972374713E+04  0.50400001928E-02 0.  1.
    10030    2    1    2    0    0  0.00000000000E+00  0.00000000000E+00  0.34905020280E+03  0.27435251453E+04  0.27212302694E+04 0.  0.
        1    1    3    3  502    0 -0.61372267979E+03 -0.46981704448E+03 -0.95442140676E+03  0.12281302067E+04  0.50400001928E-02 0.  1.
       -1    1    3    3    0  502  0.61372267979E+03  0.46981704448E+03  0.13034716096E+04  0.15153949386E+04  0.50400001928E-02 0. -1.
</event>
<event>
 5   0  0.3497949E-05  0.2716963E+04  0.7818609E-02  0.8329522E-01
       -2   -1    0    0    0  501  0.00000000000E+00  0.00000000000E+00  0.87634520583E+03  0.87634520584E+03  0.25500000920E-02 0. -1.
        2   -1    0    0  501    0  0.00000000000E+00  0.00000000000E+00 -0.21058733400E+04  0.21058733400E+04  0.25500000920E-02 0.  1.
    10030    2    1    2    0    0  0.00000000000E+00  0.00000000000E+00 -0.12295281342E+04  0.29822185459E+04  0.27169630146E+04 0.  0.
        5    1    3    3  502    0 -0.33936192765E+02 -0.24752166343E+03  0.85090263308E+03  0.88683483244E+03  0.46999998093E+01 0. -1.
       -5    1    3    3    0  502  0.33936192765E+02  0.24752166343E+03 -0.20804307673E+04  0.20953837134E+04  0.46999998093E+01 0.  1.
</event>
<event>
 5   0  0.3568647E-05  0.2669736E+04  0.7818609E-02  0.8344892E-01
       -2   -1    0    0    0  501  0.00000000000E+00  0.00000000000E+00  0.85851454040E+03  0.85851454040E+03  0.25500000920E-02 0.  1.
        2   -1    0    0  501    0  0.00000000000E+00  0.00000000000E+00 -0.20755303084E+04  0.20755303084E+04  0.25500000920E-02 0. -1.
    10030    2    1    2    0    0  0.00000000000E+00  0.00000000000E+00 -0.12170157680E+04  0.29340448488E+04  0.26697362782E+04 0.  0.
        3    1    3    3  502    0  0.55858055149E+03  0.11781775888E+04 -0.92274989527E+03  0.15973672222E+04  0.10100000352E+00 0. -1.
       -3    1    3    3    0  502 -0.55858055149E+03 -0.11781775888E+04 -0.29426587271E+03  0.13366776265E+04  0.10100000352E+00 0.  1.
</event>
<event>
 5   0  0.3497949E-05  0.1852194E+04  0.7818609E-02  0.8679026E-01
        2   -1    0    0  501    0  0.00000000000E+00  0.00000000000E+00  0.11486343268E+04  0.11486343268E+04  0.25500000920E-02 0.  1.
       -2   -1    0    0    0  501  0.00000000000E+00  0.00000000000E+00 -0.74667392079E+03  0.74667392079E+03  0.25500000920E-02 0. -1.
    10030    2    1    2    0    0  0.00000000000E+00  0.00000000000E+00  0.40196040606E+03  0.18953082476E+04  0.18521936145E+04 0.  0.
        5    1    3    3  502    0 -0.26774405216E+03 -0.36433991505E+03  0.10280029862E+04  0.11230506136E+04  0.46999998093E+01 0.  1.
       -5    1    3    3    0  502  0.26774405216E+03  0.36433991505E+03 -0.62604258013E+03  0.77225763402E+03  0.46999998093E+01 0. -1.
</event>
<event>
 5   0  0.1474012E-05  0.2654256E+04  0.7818609E-02  0.8350002E-01
        1   -1    0    0  501    0  0.00000000000E+00  0.00000000000E+00  0.99968224187E+03  0.99968224188E+03  0.50400001928E-02 0.  1.
       -1   -1    0    0    0  501  0.00000000000E+00  0.00000000000E+00 -0.17618291477E+04  0.17618291477E+04  0.50400001928E-02 0. -1.
    10030    2    1    2    0    0  0.00000000000E+00  0.00000000000E+00 -0.76214690585E+03  0.27615113896E+04  0.26542564399E+04 0.  0.
        2    1    3    3  502    0  0.11964746048E+03 -0.11710872475E+04  0.25647591527E+03  0.12047990501E+04  0.25500000920E-02 0.  1.
       -2    1    3    3    0  502 -0.11964746048E+03  0.11710872475E+04 -0.10186228211E+04  0.15567123395E+04  0.25500000920E-02 0. -1.
</event>
<event>
 5   0  0.3676724E-05  0.2760274E+04  0.7818609E-02  0.8315709E-01
       -2   -1    0    0    0  501  0.00000000000E+00  0.00000000000E+00  0.14795168647E+04  0.14795168647E+04  0.25500000920E-02 0.  1.
        2   -1    0    0  501    0  0.00000000000E+00  0.00000000000E+00 -0.12874322022E+04  0.12874322022E+04  0.25500000920E-02 0. -1.
    10030    2    1    2    0    0  0.00000000000E+00  0.00000000000E+00  0.19208466244E+03  0.27669490669E+04  0.27602736497E+04 0.  0.
        4    1    3    3  502    0 -0.11092871460E+04 -0.10776391117E+03 -0.71995641442E+03  0.13268269986E+04  0.12699999809E+01 0. -1.
       -4    1    3    3    0  502  0.11092871460E+04  0.10776391117E+03  0.91204107686E+03  0.14401220683E+04  0.12699999809E+01 0.  1.
</event>
<event>
 5   0  0.1484379E-05  0.2663005E+04  0.7818609E-02  0.8347109E-01
       -1   -1    0    0    0  501  0.00000000000E+00  0.00000000000E+00  0.10955250730E+04  0.10955250731E+04  0.50400001928E-02 0. -1.
        1   -1    0    0  501    0  0.00000000000E+00  0.00000000000E+00 -0.16183102009E+04  0.16183102009E+04  0.50400001928E-02 0.  1.
    10030    2    1    2    0    0  0.00000000000E+00  0.00000000000E+00 -0.52278512782E+03  0.27138352739E+04  0.26630053707E+04 0.  0.
        1    1    3    3  502    0 -0.30101301550E+03  0.53336200170E+03 -0.14662519716E+04  0.15890181574E+04  0.50400001928E-02 0.  1.
       -1    1    3    3    0  502  0.30101301550E+03 -0.53336200170E+03  0.94346684375E+03  0.11248171165E+04  0.50400001928E-02 0. -1.
</event>
<event>
 5   0  0.3568647E-05  0.2725332E+04  0.7818609E-02  0.8326832E-01
        2   -1    0    0  501    0  0.00000000000E+00  0.00000000000E+00  0.16573066081E+04  0.16573066081E+04  0.25500000920E-02 0.  1.
       -2   -1    0    0    0  501  0.00000000000E+00  0.00000000000E+00 -0.11204076667E+04  0.11204076667E+04  0.25500000920E-02 0. -1.
    10030    2    1    2    0    0  0.00000000000E+00  0.00000000000E+00  0.53689894140E+03  0.27777142749E+04  0.27253322953E+04 0.  0.
        3    1    3    3  502    0 -0.10066693380E+04 -0.34381193583E+03 -0.59954654224E+03  0.12210838914E+04  0.10100000352E+00 0. -1.
       -3    1    3    3    0  502  0.10066693380E+04  0.34381193583E+03  0.11364454836E+04  0.15566303835E+04  0.10100000352E+00 0.  1.
</event>
<event>
 5   0  0.1484379E-05  0.2665735E+04  0.7818609E-02  0.8346209E-01
        1   -1    0    0  501    0  0.00000000000E+00  0.00000000000E+00  0.33788703458E+04  0.33788703458E+04  0.50400001928E-02 0. -1.
       -1   -1    0    0    0  501  0.00000000000E+00  0.00000000000E+00 -0.52577815575E+03  0.52577815577E+03  0.50400001928E-02 0.  1.
    10030    2    1    2    0    0  0.00000000000E+00  0.00000000000E+00  0.28530921900E+04  0.39046485016E+04  0.26657353349E+04 0.  0.
        1    1    3    3  502    0 -0.18618639645E+03 -0.12078397101E+04  0.22057544324E+04  0.25216849041E+04  0.50400001928E-02 0. -1.
       -1    1    3    3    0  502  0.18618639645E+03  0.12078397101E+04  0.64733775762E+03  0.13829635975E+04  0.50400001928E-02 0.  1.
</event>
<event>
 5   0  0.3497949E-05  0.2544550E+04  0.7818609E-02  0.8387284E-01
       -2   -1    0    0    0  501  0.00000000000E+00  0.00000000000E+00  0.11352833075E+04  0.11352833075E+04  0.25500000920E-02 0. -1.
        2   -1    0    0  501    0  0.00000000000E+00  0.00000000000E+00 -0.14257969663E+04  0.14257969663E+04  0.25500000920E-02 0.  1.
    10030    2    1    2    0    0  0.00000000000E+00  0.00000000000E+00 -0.29051365881E+03  0.25610802738E+04  0.25445498586E+04 0.  0.
        5    1    3    3  502    0  0.70531487843E+03  0.21923294298E+03 -0.11879060941E+04  0.13988120458E+04  0.46999998093E+01 0.  1.
       -5    1    3    3    0  502 -0.70531487843E+03 -0.21923294298E+03  0.89739243525E+03  0.11622682280E+04  0.46999998093E+01 0. -1.
</event>
<event>
 5   0  0.1228050E-05  0.2678499E+04  0.7818609E-02  0.8342015E-01
        3   -1    0    0  501    0  0.00000000000E+00  0.00000000000E+00  0.99398594082E+03  0.99398594595E+03  0.10100000352E+00 0.  1.
       -3   -1    0    0    0  501  0.00000000000E+00  0.00000000000E+00 -0.18044413009E+04  0.18044413037E+04  0.10100000352E+00 0. -1.
    10030    2    1    2    0    0  0.00000000000E+00  0.00000000000E+00 -0.81045536006E+03  0.27984272497E+04  0.26784990538E+04 0.  0.
        3    1    3    3  502    0 -0.64631438207E+03  0.11729717745E+04 -0.40737411629E+03  0.13998352564E+04  0.10100000352E+00 0.  1.
       -3    1    3    3    0  502  0.64631438207E+03 -0.11729717745E+04 -0.40308124377E+03  0.13985919932E+04  0.10100000352E+00 0. -1.
</event>
<event>
 5   0  0.1438701E-05  0.2702026E+04  0.7818609E-02  0.8334348E-01
        1   -1    0    0  501    0  0.00000000000E+00  0.00000000000E+00  0.21964094240E+04  0.21964094240E+04  0.50400001928E-02 0. -1.
       -1   -1    0    0    0  501  0.00000000000E+00  0.00000000000E+00 -0.83100936209E+03  0.83100936211E+03  0.50400001928E-02 0.  1.
    10030    2    1    2    0    0  0.00000000000E+00  0.00000000000E+00  0.13654000619E+04  0.30274187861E+04  0.27020264946E+04 0.  0.
        4    1    3    3  502    0 -0.12536825465E+03  0.13400382371E+04  0.55100594073E+03  0.14543138711E+04  0.12699999809E+01 0. -1.
       -4    1    3    3    0  502  0.12536825465E+03 -0.13400382371E+04  0.81439412113E+03  0.15731049150E+04  0.12699999809E+01 0.  1.
</event>
<event>
 5   0  0.3514294E-05  0.2661718E+04  0.7818609E-02  0.8347534E-01
        2   -1    0    0  501    0  0.00000000000E+00  0.00000000000E+00  0.96995719595E+03  0.96995719596E+03  0.25500000920E-02 0. -1.
       -2   -1    0    0    0  501  0.00000000000E+00  0.00000000000E+00 -0.18260453535E+04  0.18260453535E+04  0.25500000920E-02 0.  1.
    10030    2    1    2    0    0  0.00000000000E+00  0.00000000000E+00 -0.85608815754E+03  0.27960025495E+04  0.26617181149E+04 0.  0.
        2    1    3    3  502    0 -0.72958474157E+02 -0.72285672215E+03  0.74326265281E+03  0.10393671877E+04  0.25500000920E-02 0. -1.
       -2    1    3    3    0  502  0.72958474157E+02  0.72285672215E+03 -0.15993508104E+04  0.17566353618E+04  0.25500000920E-02 0.  1.
</event>
<event>
 5   0  0.3568647E-05  0.2714344E+04  0.7818609E-02  0.8330366E-01
       -2   -1    0    0    0  501  0.00000000000E+00  0.00000000000E+00  0.97419745695E+03  0.97419745696E+03  0.25500000920E-02 0. -1.
        2   -1    0    0  501    0  0.00000000000E+00  0.00000000000E+00 -0.18907012682E+04  0.18907012682E+04  0.25500000920E-02 0.  1.
    10030    2    1    2    0    0  0.00000000000E+00  0.00000000000E+00 -0.91650381127E+03  0.28648987252E+04  0.27143443904E+04 0.  0.
        3    1    3    3  502    0  0.74712997485E+03 -0.52070545876E+03 -0.15203356931E+04  0.17722183850E+04  0.10100000352E+00 0.  1.
       -3    1    3    3    0  502 -0.74712997485E+03  0.52070545876E+03  0.60383188186E+03  0.10926803402E+04  0.10100000352E+00 0. -1.
</event>
<event>
 5   0  0.1495517E-05  0.2620528E+04  0.7818609E-02  0.8361262E-01
        1   -1    0    0  501    0  0.00000000000E+00  0.00000000000E+00  0.23649503173E+04  0.23649503173E+04  0.50400001928E-02 0. -1.
       -1   -1    0    0    0  501  0.00000000000E+00  0.00000000000E+00 -0.72593132776E+03  0.72593132778E+03  0.50400001928E-02 0.  1.
    10030    2    1    2    0    0  0.00000000000E+00  0.00000000000E+00  0.16390189895E+04  0.30908816451E+04  0.26205278277E+04 0.  0.
        5    1    3    3  502    0  0.18182436968E+03 -0.11321200099E+04  0.15673586042E+04  0.19420069265E+04  0.46999998093E+01 0. -1.
       -5    1    3    3    0  502 -0.18182436968E+03  0.11321200099E+04  0.71660385321E+02  0.11488747186E+04  0.46999998093E+01 0.  1.
</event>
<event>
 5   0  0.1228050E-05  0.2654966E+04  0.7818609E-02  0.8349766E-01
       -4   -1    0    0    0  501  0.00000000000E+00  0.00000000000E+00  0.18837285578E+04  0.18837289859E+04  0.12699999809E+01 0. -1.
        4   -1    0    0  501    0  0.00000000000E+00  0.00000000000E+00 -0.93549035100E+03  0.93549121306E+03  0.12699999809E+01 0.  1.
    10030    2    1    2    0    0  0.00000000000E+00  0.00000000000E+00  0.94823820678E+03  0.28192201990E+04  0.26549664468E+04 0.  0.
        2    1    3    3  502    0  0.22821017242E+03  0.72101696819E+03 -0.68437023333E+03  0.10199548850E+04  0.25500000920E-02 0.  1.
       -2    1    3    3    0  502 -0.22821017242E+03 -0.72101696819E+03  0.16326084401E+04  0.17992653139E+04  0.25500000920E-02 0. -1.
</event>
<event>
 5   0  0.3676724E-05  0.2705561E+04  0.7818609E-02  0.8333203E-01
        2   -1    0    0  501    0  0.00000000000E+00  0.00000000000E+00  0.21116135631E+04  0.21116135631E+04  0.25500000920E-02 0.  1.
       -2   -1    0    0    0  501  0.00000000000E+00  0.00000000000E+00 -0.86664288771E+03  0.86664288771E+03  0.25500000920E-02 0. -1.
    10030    2    1    2    0    0  0.00000000000E+00  0.00000000000E+00  0.12449706753E+04  0.29782564508E+04  0.27055608483E+04 0.  0.
        4    1    3    3  502    0  0.12872521837E+04  0.35043506986E+03  0.37587296796E+03  0.13860393297E+04  0.12699999809E+01 0.  1.
       -4    1    3    3    0  502 -0.12872521837E+04 -0.35043506986E+03  0.86909770739E+03  0.15922171210E+04  0.12699999809E+01 0. -1.
</event>
<event>
 5   0  0.3514294E-05  0.1349050E+04  0.7818609E-02  0.8991547E-01
       -2   -1    0    0    0  501  0.00000000000E+00  0.00000000000E+00  0.43311553736E+03  0.43311553737E+03  0.25500000920E-02 0.  1.
        2   -1    0    0  501    0  0.00000000000E+00  0.00000000000E+00 -0.10504911293E+04  0.10504911293E+04  0.25500000920E-02 0. -1.
    10030    2    1    2    0    0  0.00000000000E+00  0.00000000000E+00 -0.61737559189E+03  0.14836066666E+04  0.13490500805E+04 0.  0.
        2    1    3    3  502    0 -0.24958156509E+03  0.16604469833E+03  0.35583493601E+03  0.46527443640E+03  0.25500000920E-02 0.  1.
       -2    1    3    3    0  502  0.24958156509E+03 -0.16604469833E+03 -0.97321052790E+03  0.10183322302E+04  0.25500000920E-02 0. -1.
</event>
<event>
 5   0  0.1474012E-05  0.2526329E+04  0.7818609E-02  0.8393665E-01
        1   -1    0    0  501    0  0.00000000000E+00  0.00000000000E+00  0.11336606243E+04  0.11336606243E+04  0.50400001928E-02 0.  1.
       -1   -1    0    0    0  501  0.00000000000E+00  0.00000000000E+00 -0.14074621130E+04  0.14074621130E+04  0.50400001928E-02 0. -1.
    10030    2    1    2    0    0  0.00000000000E+00  0.00000000000E+00 -0.27380148870E+03  0.25411227373E+04  0.25263288604E+04 0.  0.
        2    1    3    3  502    0 -0.14590036862E+03  0.39004287114E+03 -0.13364293303E+04  0.13998084561E+04  0.25500000920E-02 0. -1.
       -2    1    3    3    0  502  0.14590036862E+03 -0.39004287114E+03  0.10626278416E+04  0.11413142812E+04  0.25500000920E-02 0.  1.
</event>
<event>
 5   0  0.3514294E-05  0.2707880E+04  0.7818609E-02  0.8332453E-01
       -2   -1    0    0    0  501  0.00000000000E+00  0.00000000000E+00  0.98967959070E+03  0.98967959071E+03  0.25500000920E-02 0. -1.
        2   -1    0    0  501    0  0.00000000000E+00  0.00000000000E+00 -0.18522703531E+04  0.18522703531E+04  0.25500000920E-02 0.  1.
    10030    2    1    2    0    0  0.00000000000E+00  0.00000000000E+00 -0.86259076235E+03  0.28419499438E+04  0.27078804737E+04 0.  0.
        2    1    3    3  502    0  0.31014757439E+02 -0.12585100078E+04 -0.95431078260E+03  0.15797209958E+04  0.25500000920E-02 0.  1.
       -2    1    3    3    0  502 -0.31014757439E+02  0.12585100078E+04  0.91720020244E+02  0.12622289479E+04  0.25500000920E-02 0. -1.
</event>
<event>
 5   0  0.3497949E-05  0.2692590E+04  0.7818609E-02  0.8337413E-01
        2   -1    0    0  501    0  0.00000000000E+00  0.00000000000E+00  0.66679096637E+03  0.66679096637E+03  0.25500000920E-02 0. -1.
       -2   -1    0    0    0  501  0.00000000000E+00  0.00000000000E+00 -0.27182589447E+04  0.27182589447E+04  0.25500000920E-02 0.  1.
    10030    2    1    2    0    0  0.00000000000E+00  0.00000000000E+00 -0.20514679783E+04  0.33850499110E+04  0.26925902091E+04 0.  0.
        5    1    3    3  502    0 -0.71710350824E+03  0.10073052120E+04 -0.16952147740E+04  0.20982555735E+04  0.46999998093E+01 0. -1.
       -5    1    3    3    0  502  0.71710350824E+03 -0.10073052120E+04 -0.35625320432E+03  0.12867943376E+04  0.46999998093E+01 0.  1.
</event>
<event>
 5   0  0.3676724E-05  0.2829816E+04  0.7818609E-02  0.8294071E-01
       -2   -1    0    0    0  501  0.00000000000E+00  0.00000000000E+00  0.95495909365E+03  0.95495909366E+03  0.25500000920E-02 0.  1.
        2   -1    0    0  501    0  0.00000000000E+00  0.00000000000E+00 -0.20963881357E+04  0.20963881357E+04  0.25500000920E-02 0. -1.
    10030    2    1    2    0    0  0.00000000000E+00  0.00000000000E+00 -0.11414290421E+04  0.30513472294E+04  0.28298161877E+04 0.  0.
        4    1    3    3  502    0 -0.99161443455E+03 -0.98457224989E+03 -0.33134116960E+03  0.14361303164E+04  0.12699999809E+01 0.  1.
       -4    1    3    3    0  502  0.99161443455E+03  0.98457224989E+03 -0.81008787249E+03  0.16152169130E+04  0.12699999809E+01 0. -1.
</event>
<event>
 5   0  0.3514294E-05  0.2687164E+04  0.7818609E-02  0.8339182E-01
       -2   -1    0    0    0  501  0.00000000000E+00  0.00000000000E+00  0.88941886820E+03  0.88941886820E+03  0.25500000920E-02 0.  1.
        2   -1    0    0  501    0  0.00000000000E+00  0.00000000000E+00 -0.20296542461E+04  0.20296542461E+04  0.25500000920E-02 0. -1.
    10030    2    1    2    0    0  0.00000000000E+00  0.00000000000E+00 -0.11402353779E+04  0.29190731143E+04  0.26871641427E+04 0.  0.
        2    1    3    3  502    0 -0.16984486547E+03 -0.12619017771E+03  0.87120618909E+03  0.89653302404E+03  0.25500000920E-02 0.  1.
       -2    1    3    3    0  502  0.16984486547E+03  0.12619017771E+03 -0.20114415670E+04  0.20225400903E+04  0.25500000920E-02 0. -1.
</event>
<event>
 5   0  0.3497949E-05  0.2808865E+04  0.7818609E-02  0.8300521E-01
        2   -1    0    0  501    0  0.00000000000E+00  0.00000000000E+00  0.19826833390E+04  0.19826833390E+04  0.25500000920E-02 0.  1.
       -2   -1    0    0    0  501  0.00000000000E+00  0.00000000000E+00 -0.99482922698E+03  0.99482922699E+03  0.25500000920E-02 0. -1.
    10030    2    1    2    0    0  0.00000000000E+00  0.00000000000E+00  0.98785411202E+03  0.29775125660E+04  0.28088654888E+04 0.  0.
        5    1    3    3  502    0 -0.60394717226E+03  0.19142020972E+03  0.18225840453E+04  0.19295669400E+04  0.46999998093E+01 0.  1.
       -5    1    3    3    0  502  0.60394717226E+03 -0.19142020972E+03 -0.83472993330E+03  0.10479456260E+04  0.46999998093E+01 0. -1.
</event>
<event>
 5   0  0.1484379E-05  0.2552522E+04  0.7818609E-02  0.8384510E-01
       -1   -1    0    0    0  501  0.00000000000E+00  0.00000000000E+00  0.11922173492E+04  0.11922173492E+04  0.50400001928E-02 0.  1.
        1   -1    0    0  501    0  0.00000000000E+00  0.00000000000E+00 -0.13662292683E+04  0.13662292684E+04  0.50400001928E-02 0. -1.
    10030    2    1    2    0    0  0.00000000000E+00  0.00000000000E+00 -0.17401191912E+03  0.25584466176E+04  0.25525220757E+04 0.  0.
        1    1    3    3  502    0  0.24200911810E+03 -0.12531033124E+04 -0.89443041354E+02  0.12793890661E+04  0.50400001928E-02 0.  1.
       -1    1    3    3    0  502 -0.24200911810E+03  0.12531033124E+04 -0.84568877763E+02  0.12790575515E+04  0.50400001928E-02 0. -1.
</event>
<event>
 5   0  0.3568647E-05  0.2687543E+04  0.7818609E-02  0.8339058E-01
       -2   -1    0    0    0  501  0.00000000000E+00  0.00000000000E+00  0.13833041613E+04  0.13833041613E+04  0.25500000920E-02 0.  1.
        2   -1    0    0  501    0  0.00000000000E+00  0.00000000000E+00 -0.13053690187E+04  0.13053690187E+04  0.25500000920E-02 0. -1.
    10030    2    1    2    0    0  0.00000000000E+00  0.00000000000E+00  0.77935142687E+02  0.26886731800E+04  0.26875434103E+04 0.  0.
        3    1    3    3  502    0  0.75195212613E+03 -0.89036664714E+03  0.70823131850E+03  0.13637361831E+04  0.10100000352E+00 0.  1.
       -3    1    3    3    0  502 -0.75195212613E+03  0.89036664714E+03 -0.63029617581E+03  0.13249369969E+04  0.10100000352E+00 0. -1.
</event>
<event>
 5   0  0.1484379E-05  0.2719115E+04  0.7818609E-02  0.8328829E-01
        1   -1    0    0  501    0  0.00000000000E+00  0.00000000000E+00  0.17789631416E+04  0.17789631416E+04  0.50400001928E-02 0. -1.
       -1   -1    0    0    0  501  0.00000000000E+00  0.00000000000E+00 -0.10390301631E+04  0.10390301631E+04  0.50400001928E-02 0.  1.
    10030    2    1    2    0    0  0.00000000000E+00  0.00000000000E+00  0.73993297856E+03  0.28179933047E+04  0.27191148289E+04 0.  0.
        1    1    3    3  502    0  0.85425025637E+03  0.76908200382E+03 -0.38249797563E+03  0.12114187263E+04  0.50400001928E-02 0.  1.
       -1    1    3    3    0  502 -0.85425025637E+03 -0.76908200382E+03  0.11224309542E+04  0.16065745784E+04  0.50400001928E-02 0. -1.
</event>
<event>
 5   0  0.3514294E-05  0.2689624E+04  0.7818609E-02  0.8338379E-01
       -2   -1    0    0    0  501  0.00000000000E+00  0.00000000000E+00  0.73757329584E+03  0.73757329584E+03  0.25500000920E-02 0.  1.
        2   -1    0    0  501    0  0.00000000000E+00  0.00000000000E+00 -0.24519859855E+04  0.24519859855E+04  0.25500000920E-02 0. -1.
    10030    2    1    2    0    0  0.00000000000E+00  0.00000000000E+00 -0.17144126896E+04  0.31895592813E+04  0.26896240515E+04 0.  0.
        2    1    3    3  502    0  0.11012297106E+03  0.48212160736E+03 -0.23402388829E+04  0.23919210568E+04  0.25500000920E-02 0. -1.
       -2    1    3    3    0  502 -0.11012297106E+03 -0.48212160736E+03  0.62582619324E+03  0.79763822451E+03  0.25500000920E-02 0.  1.
</event>
<event>
 5   0  0.3497949E-05  0.2734613E+04  0.7818609E-02  0.8323861E-01
        2   -1    0    0  501    0  0.00000000000E+00  0.00000000000E+00  0.16477375461E+04  0.16477375461E+04  0.25500000920E-02 0. -1.
       -2   -1    0    0    0  501  0.00000000000E+00  0.00000000000E+00 -0.11346025297E+04  0.11346025298E+04  0.25500000920E-02 0.  1.
    10030    2    1    2    0    0  0.00000000000E+00  0.00000000000E+00  0.51313501638E+03  0.27823400759E+04  0.27346130902E+04 0.  0.
        5    1    3    3  502    0 -0.93216282473E+03  0.42422034421E+03 -0.66512054881E+03  0.12211870728E+04  0.46999998093E+01 0.  1.
       -5    1    3    3    0  502  0.93216282473E+03 -0.42422034421E+03  0.11782555652E+04  0.15611530031E+04  0.46999998093E+01 0. -1.
</event>
<event>
 5   0  0.1484379E-05  0.2534110E+04  0.7818609E-02  0.8390934E-01
        1   -1    0    0  501    0  0.00000000000E+00  0.00000000000E+00  0.17888193417E+04  0.17888193417E+04  0.50400001928E-02 0.  1.
       -1   -1    0    0    0  501  0.00000000000E+00  0.00000000000E+00 -0.89747900182E+03  0.89747900183E+03  0.50400001928E-02 0. -1.
    10030    2    1    2    0    0  0.00000000000E+00  0.00000000000E+00  0.89134033987E+03  0.26862983435E+04  0.25341095456E+04 0.  0.
        1    1    3    3  502    0 -0.42482331443E+02  0.10247334857E+03  0.17836618491E+04  0.17871080347E+04  0.50400001928E-02 0.  1.
       -1    1    3    3    0  502  0.42482331443E+02 -0.10247334857E+03 -0.89232150923E+03  0.89919030884E+03  0.50400001928E-02 0. -1.
</event>
<event>
 5   0  0.1438701E-05  0.1973723E+04  0.7818609E-02  0.8619005E-01
        1   -1    0    0  501    0  0.00000000000E+00  0.00000000000E+00  0.56905855954E+03  0.56905855956E+03  0.50400001928E-02 0. -1.
       -1   -1    0    0    0  501  0.00000000000E+00  0.00000000000E+00 -0.17114163331E+04  0.17114163331E+04  0.50400001928E-02 0.  1.
    10030    2    1    2    0    0  0.00000000000E+00  0.00000000000E+00 -0.11423577736E+04  0.22804748927E+04  0.19737234997E+04 0.  0.
        4    1    3    3  502    0 -0.91441832534E+03 -0.35806772370E+03 -0.68392024825E+03  0.11967129511E+04  0.12699999809E+01 0. -1.
       -4    1    3    3    0  502  0.91441832534E+03  0.35806772370E+03 -0.45843752531E+03  0.10837619416E+04  0.12699999809E+01 0.  1.
</event>
<event>
 5   0  0.1495517E-05  0.1753725E+04  0.7818609E-02  0.8731302E-01
       -1   -1    0    0    0  501  0.00000000000E+00  0.00000000000E+00  0.84714463532E+03  0.84714463533E+03  0.50400001928E-02 0. -1.
        1   -1    0    0  501    0  0.00000000000E+00  0.00000000000E+00 -0.90762302370E+03  0.90762302372E+03  0.50400001928E-02 0.  1.
    10030    2    1    2    0    0  0.00000000000E+00  0.00000000000E+00 -0.60478388388E+02  0.17547676591E+04  0.17537251500E+04 0.  0.
        5    1    3    3  502    0  0.86002254095E+03 -0.61813097132E+02 -0.18972734488E+03  0.88288061782E+03  0.46999998093E+01 0. -1.
       -5    1    3    3    0  502 -0.86002254095E+03  0.61813097132E+02  0.12924895649E+03  0.87188704123E+03  0.46999998093E+01 0.  1.
</event>
<event>
 5   0  0.1228050E-05  0.2702404E+04  0.7818609E-02  0.8334225E-01
        3   -1    0    0  501    0  0.00000000000E+00  0.00000000000E+00  0.11689838059E+04  0.11689838103E+04  0.10100000352E+00 0. -1.
       -3   -1    0    0    0  501  0.00000000000E+00  0.00000000000E+00 -0.15618238226E+04  0.15618238259E+04  0.10100000352E+00 0.  1.
    10030    2    1    2    0    0  0.00000000000E+00  0.00000000000E+00 -0.39284001670E+03  0.27308076362E+04  0.27024039422E+04 0.  0.
        3    1    3    3  502    0 -0.10247582654E+02 -0.65797563888E+03  0.99611505989E+03  0.11938518237E+04  0.10100000352E+00 0. -1.
       -3    1    3    3    0  502  0.10247582654E+02  0.65797563888E+03 -0.13889550766E+04  0.15369558124E+04  0.10100000352E+00 0.  1.
</event>
<event>
 5   0  0.1228050E-05  0.2640115E+04  0.7818609E-02  0.8354701E-01
       -3   -1    0    0    0  501  0.00000000000E+00  0.00000000000E+00  0.13085982807E+04  0.13085982846E+04  0.10100000352E+00 0.  1.
        3   -1    0    0  501    0  0.00000000000E+00  0.00000000000E+00 -0.13316174679E+04  0.13316174717E+04  0.10100000352E+00 0. -1.
    10030    2    1    2    0    0  0.00000000000E+00  0.00000000000E+00 -0.23019187202E+02  0.26402157563E+04  0.26401154060E+04 0.  0.
        2    1    3    3  502    0 -0.92399783147E+03 -0.91719293463E+03 -0.22954876712E+03  0.13220088912E+04  0.25500000920E-02 0. -1.
       -2    1    3    3    0  502  0.92399783147E+03  0.91719293463E+03  0.20652957992E+03  0.13182068651E+04  0.25500000920E-02 0.  1.
</event>
<event>
 5   0  0.1449521E-05  0.2647820E+04  0.7818609E-02  0.8352137E-01
        1   -1    0    0  501    0  0.00000000000E+00  0.00000000000E+00  0.19232843296E+04  0.19232843296E+04  0.50400001928E-02 0.  1.
       -1   -1    0    0    0  501  0.00000000000E+00  0.00000000000E+00 -0.91132500009E+03  0.91132500011E+03  0.50400001928E-02 0. -1.
    10030    2    1    2    0    0  0.00000000000E+00  0.00000000000E+00  0.10119593295E+04  0.28346093297E+04  0.26478195497E+04 0.  0.
        3    1    3    3  502    0  0.50417730202E+03  0.97306317809E+03 -0.28917668960E+03  0.11334327807E+04  0.10100000352E+00 0. -1.
       -3    1    3    3    0  502 -0.50417730202E+03 -0.97306317809E+03  0.13011360191E+04  0.17011765490E+04  0.10100000352E+00 0.  1.
</event>
<event>
 5   0  0.3497949E-05  0.2701716E+04  0.7818609E-02  0.8334449E-01
        2   -1    0    0  501    0  0.00000000000E+00  0.00000000000E+00  0.11833464243E+04  0.11833464243E+04  0.25500000920E-02 0.  1.
       -2   -1    0    0    0  501  0.00000000000E+00  0.00000000000E+00 -0.15420817528E+04  0.15420817528E+04  0.25500000920E-02 0. -1.
    10030    2    1    2    0    0  0.00000000000E+00  0.00000000000E+00 -0.35873532841E+03  0.27254281771E+04  0.27017156980E+04 0.  0.
        5    1    3    3  502    0  0.34490647149E+03 -0.94278732875E+03  0.73243847801E+03  0.12426973225E+04  0.46999998093E+01 0.  1.
       -5    1    3    3    0  502 -0.34490647149E+03  0.94278732875E+03 -0.10911738064E+04  0.14827308546E+04  0.46999998093E+01 0. -1.
</event>
<event>
 5   0  0.1228050E-05  0.2697403E+04  0.7818609E-02  0.8335848E-01
       -3   -1    0    0    0  501  0.00000000000E+00  0.00000000000E+00  0.14365313470E+04  0.14365313506E+04  0.10100000352E+00 0. -1.
        3   -1    0    0  501    0  0.00000000000E+00  0.00000000000E+00 -0.12662419166E+04  0.12662419206E+04  0.10100000352E+00 0.  1.
    10030    2    1    2    0    0  0.00000000000E+00  0.00000000000E+00  0.17028943046E+03  0.27027732712E+04  0.26974033560E+04 0.  0.
        2    1    3    3  502    0  0.11329882328E+04 -0.13682157640E+03 -0.63504463806E+03  0.13060107855E+04  0.25500000920E-02 0. -1.
       -2    1    3    3    0  502 -0.11329882328E+04  0.13682157640E+03  0.80533406852E+03  0.13967624857E+04  0.25500000920E-02 0.  1.
</event>
<event>
 5   0  0.3497949E-05  0.2648781E+04  0.7818609E-02  0.8351818E-01
       -2   -1    0    0    0  501  0.00000000000E+00  0.00000000000E+00  0.13161935365E+04  0.13161935365E+04  0.25500000920E-02 0. -1.
        2   -1    0    0  501    0  0.00000000000E+00  0.00000000000E+00 -0.13326382936E+04  0.13326382936E+04  0.25500000920E-02 0.  1.
    10030    2    1    2    0    0  0.00000000000E+00  0.00000000000E+00 -0.16444757158E+02  0.26488318301E+04  0.26487807826E+04 0.  0.
        5    1    3    3  502    0  0.58565668623E+03  0.78262534209E+03 -0.90182319315E+03  0.13299636619E+04  0.46999998093E+01 0.  1.
       -5    1    3    3    0  502 -0.58565668623E+03 -0.78262534209E+03  0.88537843599E+03  0.13188681682E+04  0.46999998093E+01 0. -1.
</event>
<event>
 5   0  0.1438701E-05  0.2655667E+04  0.7818609E-02  0.8349534E-01
        1   -1    0    0  501    0  0.00000000000E+00  0.00000000000E+00  0.12650148407E+04  0.12650148408E+04  0.50400001928E-02 0. -1.
       -1   -1    0    0    0  501  0.00000000000E+00  0.00000000000E+00 -0.13937721143E+04  0.13937721143E+04  0.50400001928E-02 0.  1.
    10030    2    1    2    0    0  0.00000000000E+00  0.00000000000E+00 -0.12875727359E+03  0.26587869551E+04  0.26556674561E+04 0.  0.
        4    1    3    3  502    0 -0.69703791850E+03  0.11301155492E+04 -0.53513141105E+02  0.13288672934E+04  0.12699999809E+01 0. -1.
       -4    1    3    3    0  502  0.69703791850E+03 -0.11301155492E+04 -0.75244132485E+02  0.13299196617E+04  0.12699999809E+01 0.  1.
</event>
<event>
 5   0  0.1495517E-05  0.2704511E+04  0.7818609E-02  0.8333543E-01
        1   -1    0    0  501    0  0.00000000000E+00  0.00000000000E+00  0.16392688085E+04  0.16392688085E+04  0.50400001928E-02 0.  1.
       -1   -1    0    0    0  501  0.00000000000E+00  0.00000000000E+00 -0.11154945443E+04  0.11154945443E+04  0.50400001928E-02 0. -1.
    10030    2    1    2    0    0  0.00000000000E+00  0.00000000000E+00  0.52377426422E+03  0.27547633529E+04  0.27045113515E+04 0.  0.
        5    1    3    3  502    0 -0.10325640680E+04 -0.56673029055E+03  0.93845910163E+03  0.15060210331E+04  0.46999998093E+01 0.  1.
       -5    1    3    3    0  502  0.10325640680E+04  0.56673029055E+03 -0.41468483741E+03  0.12487423198E+04  0.46999998093E+01 0. -1.
</event>
<event>
 5   0  0.3568647E-05  0.2678965E+04  0.7818609E-02  0.8341862E-01
       -2   -1    0    0    0  501  0.00000000000E+00  0.00000000000E+00  0.10683558217E+04  0.10683558217E+04  0.25500000920E-02 0.  1.
        2   -1    0    0  501    0  0.00000000000E+00  0.00000000000E+00 -0.16794160338E+04  0.16794160338E+04  0.25500000920E-02 0. -1.
    10030    2    1    2    0    0  0.00000000000E+00  0.00000000000E+00 -0.61106021211E+03  0.27477718554E+04  0.26789653948E+04 0.  0.
        3    1    3    3  502    0 -0.57811304049E+03  0.11019232407E+04  0.20294890168E+03  0.12608083847E+04  0.10100000352E+00 0.  1.
       -3    1    3    3    0  502  0.57811304049E+03 -0.11019232407E+04 -0.81400911379E+03  0.14869634708E+04  0.10100000352E+00 0. -1.
</event>
<event>
 5   0  0.3497949E-05  0.2544458E+04  0.7818609E-02  0.8387316E-01
       -2   -1    0    0    0  501  0.00000000000E+00  0.00000000000E+00  0.70513720158E+03  0.70513720158E+03  0.25500000920E-02 0.  1.
        2   -1    0    0  501    0  0.00000000000E+00  0.00000000000E+00 -0.22953921821E+04  0.22953921821E+04  0.25500000920E-02 0. -1.
    10030    2    1    2    0    0  0.00000000000E+00  0.00000000000E+00 -0.15902549805E+04  0.30005293837E+04  0.25444578360E+04 0.  0.
        5    1    3    3  502    0 -0.26157930447E+03  0.59995284124E+03  0.49136849723E+03  0.81843279156E+03  0.46999998093E+01 0.  1.
       -5    1    3    3    0  502  0.26157930447E+03 -0.59995284124E+03 -0.20816234777E+04  0.21820965921E+04  0.46999998093E+01 0. -1.
</event>
<event>
 5   0  0.1228050E-05  0.2661400E+04  0.7818609E-02  0.8347639E-01
       -3   -1    0    0    0  501  0.00000000000E+00  0.00000000000E+00  0.13282261848E+04  0.13282261887E+04  0.10100000352E+00 0. -1.
        3   -1    0    0  501    0  0.00000000000E+00  0.00000000000E+00 -0.13331781653E+04  0.13331781691E+04  0.10100000352E+00 0.  1.
    10030    2    1    2    0    0  0.00000000000E+00  0.00000000000E+00 -0.49519804521E+01  0.26614043578E+04  0.26613997508E+04 0.  0.
        4    1    3    3  502    0  0.22515021093E+03 -0.53366036367E+02  0.13079536872E+04  0.13282639090E+04  0.12699999809E+01 0. -1.
       -4    1    3    3    0  502 -0.22515021093E+03  0.53366036367E+02 -0.13129056676E+04  0.13331404488E+04  0.12699999809E+01 0.  1.
</event>
<event>
 5   0  0.3676724E-05  0.2535544E+04  0.7818609E-02  0.8390431E-01
       -2   -1    0    0    0  501  0.00000000000E+00  0.00000000000E+00  0.18241417677E+04  0.18241417678E+04  0.25500000920E-02 0. -1.
        2   -1    0    0  501    0  0.00000000000E+00  0.00000000000E+00 -0.88109675546E+03  0.88109675547E+03  0.25500000920E-02 0.  1.
    10030    2    1    2    0    0  0.00000000000E+00  0.00000000000E+00  0.94304501229E+03  0.27052385232E+04  0.25355436443E+04 0.  0.
        4    1    3    3  502    0  0.40470365175E+03 -0.78303750482E+03 -0.50067581926E+03  0.10137113340E+04  0.12699999809E+01 0.  1.
       -4    1    3    3    0  502 -0.40470365175E+03  0.78303750482E+03  0.14437208315E+04  0.16915271893E+04  0.12699999809E+01 0. -1.
</event>
<event>
 5   0  0.1484379E-05  0.2600966E+04  0.7818609E-02  0.8367873E-01
        1   -1    0    0  501    0  0.00000000000E+00  0.00000000000E+00  0.77893043936E+03  0.77893043938E+03  0.50400001928E-02 0.  1.
       -1   -1    0    0    0  501  0.00000000000E+00  0.00000000000E+00 -0.21712542374E+04  0.21712542374E+04  0.50400001928E-02 0. -1.
    10030    2    1    2    0    0  0.00000000000E+00  0.00000000000E+00 -0.13923237980E+04  0.29501846768E+04  0.26009659876E+04 0.  0.
        1    1    3    3  502    0 -0.13310999574E+02 -0.11740402037E+04 -0.61877064682E+02  0.11757450207E+04  0.50400001928E-02 0.  1.
       -1    1    3    3    0  502  0.13310999574E+02  0.11740402037E+04 -0.13304467333E+04  0.17744396560E+04  0.50400001928E-02 0. -1.
</event>
<event>
 5   0  0.1438701E-05  0.2716613E+04  0.7818609E-02  0.8329635E-01
       -1   -1    0    0    0  501  0.00000000000E+00  0.00000000000E+00  0.75396887785E+03  0.75396887787E+03  0.50400001928E-02 0. -1.
        1   -1    0    0  501    0  0.00000000000E+00  0.00000000000E+00 -0.24470455278E+04  0.24470455278E+04  0.50400001928E-02 0.  1.
    10030    2    1    2    0    0  0.00000000000E+00  0.00000000000E+00 -0.16930766499E+04  0.32010144057E+04  0.27166127223E+04 0.  0.
        4    1    3    3  502    0  0.30303948974E+03  0.45921836643E+03  0.61678915495E+03  0.82652581022E+03  0.12699999809E+01 0. -1.
       -4    1    3    3    0  502 -0.30303948974E+03 -0.45921836643E+03 -0.23098658049E+04  0.23744885954E+04  0.12699999809E+01 0.  1.
</event>
<event>
 5   0  0.1438701E-05  0.2690013E+04  0.7818609E-02  0.8338253E-01
       -1   -1    0    0    0  501  0.00000000000E+00  0.00000000000E+00  0.96091206555E+03  0.96091206556E+03  0.50400001928E-02 0. -1.
        1   -1    0    0  501    0  0.00000000000E+00  0.00000000000E+00 -0.18826312563E+04  0.18826312563E+04  0.50400001928E-02 0.  1.
    10030    2    1    2    0    0  0.00000000000E+00  0.00000000000E+00 -0.92171919077E+03  0.28435433219E+04  0.26900134492E+04 0.  0.
        4    1    3    3  502    0 -0.30304029263E+03  0.11791355128E+04 -0.10651949216E+04  0.16176636889E+04  0.12699999809E+01 0.  1.
       -4    1    3    3    0  502  0.30304029263E+03 -0.11791355128E+04  0.14347573082E+03  0.12258796330E+04  0.12699999809E+01 0. -1.
</event>
<event>
 5   0  0.1438701E-05  0.2739876E+04  0.7818609E-02  0.8322181E-01
        1   -1    0    0  501    0  0.00000000000E+00  0.00000000000E+00  0.10260837488E+04  0.10260837488E+04  0.50400001928E-02 0. -1.
       -1   -1    0    0    0  501  0.00000000000E+00  0.00000000000E+00 -0.18290222793E+04  0.18290222794E+04  0.50400001928E-02 0.  1.
    10030    2    1    2    0    0  0.00000000000E+00  0.00000000000E+00 -0.80293853052E+03  0.28551060282E+04  0.27398759367E+04 0.  0.
        4    1    3    3  502    0 -0.12121418142E+04 -0.36008030904E+03 -0.95068634201E+03  0.15820087675E+04  0.12699999809E+01 0.  1.
       -4    1    3    3    0  502  0.12121418142E+04  0.36008030904E+03  0.14774781149E+03  0.12730972607E+04  0.12699999809E+01 0. -1.
</event>
<event>
 5   0  0.1484379E-05  0.1662268E+04  0.7818609E-02  0.8783182E-01
       -1   -1    0    0    0  501  0.00000000000E+00  0.00000000000E+00  0.57533885376E+03  0.57533885378E+03  0.50400001928E-02 0.  1.
        1   -1    0    0  501    0  0.00000000000E+00  0.00000000000E+00 -0.12006560625E+04  0.12006560625E+04  0.50400001928E-02 0. -1.
    10030    2    1    2    0    0  0.00000000000E+00  0.00000000000E+00 -0.62531720872E+03  0.17759949163E+04  0.16622684293E+04 0.  0.
        1    1    3    3  502    0 -0.14063533466E+03 -0.34684113213E+03 -0.11055265599E+04  0.11671615325E+04  0.50400001928E-02 0. -1.
       -1    1    3    3    0  502  0.14063533466E+03  0.34684113213E+03  0.48020935114E+03  0.60883338381E+03  0.50400001928E-02 0.  1.
</event>
<event>
 5   0  0.1495517E-05  0.2644304E+04  0.7818609E-02  0.8353306E-01
        1   -1    0    0  501    0  0.00000000000E+00  0.00000000000E+00  0.10368261182E+04  0.10368261182E+04  0.50400001928E-02 0.  1.
       -1   -1    0    0    0  501  0.00000000000E+00  0.00000000000E+00 -0.16859975924E+04  0.16859975925E+04  0.50400001928E-02 0. -1.
    10030    2    1    2    0    0  0.00000000000E+00  0.00000000000E+00 -0.64917147423E+03  0.27228237107E+04  0.26443043237E+04 0.  0.
        5    1    3    3  502    0 -0.12277717238E+04 -0.37402321323E+03  0.22467232713E+01  0.12834889589E+04  0.46999998093E+01 0.  1.
       -5    1    3    3    0  502  0.12277717238E+04  0.37402321323E+03 -0.65141819750E+03  0.14393347518E+04  0.46999998093E+01 0. -1.
</event>
<event>
 5   0  0.3676724E-05  0.1763183E+04  0.7818609E-02  0.8726127E-01
        2   -1    0    0  501    0  0.00000000000E+00  0.00000000000E+00  0.19063371688E+04  0.19063371688E+04  0.25500000920E-02 0. -1.
       -2   -1    0    0    0  501  0.00000000000E+00  0.00000000000E+00 -0.40769451670E+03  0.40769451670E+03  0.25500000920E-02 0.  1.
    10030    2    1    2    0    0  0.00000000000E+00  0.00000000000E+00  0.14986426521E+04  0.23140316855E+04  0.17631825892E+04 0.  0.
        4    1    3    3  502    0  0.69661767910E+03 -0.49048322900E+03  0.10467268569E+04  0.13496253979E+04  0.12699999809E+01 0. -1.
       -4    1    3    3    0  502 -0.69661767910E+03  0.49048322900E+03  0.45191579524E+03  0.96440628765E+03  0.12699999809E+01 0.  1.
</event>
<event>
 5   0  0.1495517E-05  0.2700744E+04  0.7818609E-02  0.8334764E-01
       -1   -1    0    0    0  501  0.00000000000E+00  0.00000000000E+00  0.13422358555E+04  0.13422358555E+04  0.50400001928E-02 0.  1.
        1   -1    0    0  501    0  0.00000000000E+00  0.00000000000E+00 -0.13585569603E+04  0.13585569603E+04  0.50400001928E-02 0. -1.
    10030    2    1    2    0    0  0.00000000000E+00  0.00000000000E+00 -0.16321104813E+02  0.27007928159E+04  0.27007435005E+04 0.  0.
        5    1    3    3  502    0  0.43487751879E+03 -0.12712505662E+04  0.12706512299E+03  0.13495792285E+04  0.46999998093E+01 0. -1.
       -5    1    3    3    0  502 -0.43487751879E+03  0.12712505662E+04 -0.14338622780E+03  0.13512135874E+04  0.46999998093E+01 0.  1.
</event>
<event>
 5   0  0.3676724E-05  0.1422204E+04  0.7818609E-02  0.8937901E-01
       -2   -1    0    0    0  501  0.00000000000E+00  0.00000000000E+00  0.26312815007E+03  0.26312815008E+03  0.25500000920E-02 0.  1.
        2   -1    0    0  501    0  0.00000000000E+00  0.00000000000E+00 -0.19217480271E+04  0.19217480271E+04  0.25500000920E-02 0. -1.
    10030    2    1    2    0    0  0.00000000000E+00  0.00000000000E+00 -0.16586198770E+04  0.21848761771E+04  0.14222039281E+04 0.  0.
        4    1    3    3  502    0  0.16915009499E+03 -0.41247353747E+03 -0.16804015078E+04  0.17385330064E+04  0.12699999809E+01 0. -1.
       -4    1    3    3    0  502 -0.16915009499E+03  0.41247353747E+03  0.21781630854E+02  0.44634317077E+03  0.12699999809E+01 0.  1.
</event>
<event>
 5   0  0.1484379E-05  0.2685707E+04  0.7818609E-02  0.8339658E-01
        1   -1    0    0  501    0  0.00000000000E+00  0.00000000000E+00  0.23410835532E+04  0.23410835532E+04  0.50400001928E-02 0.  1.
       -1   -1    0    0    0  501  0.00000000000E+00  0.00000000000E+00 -0.77026526434E+03  0.77026526436E+03  0.50400001928E-02 0. -1.
    10030    2    1    2    0    0  0.00000000000E+00  0.00000000000E+00  0.15708182889E+04  0.31113488176E+04  0.26857068656E+04 0.  0.
        1    1    3    3  502    0 -0.69628076028E+03 -0.12481764591E+03 -0.53692273791E+03  0.88807227655E+03  0.50400001928E-02 0. -1.
       -1    1    3    3    0  502  0.69628076028E+03  0.12481764591E+03  0.21077410268E+04  0.22232765410E+04  0.50400001928E-02 0.  1.
</event>
<event>
 5   0  0.3652331E-05  0.2176897E+04  0.7818609E-02  0.8528106E-01
        2   -1    0    0  501    0  0.00000000000E+00  0.00000000000E+00  0.14782266320E+04  0.14782266320E+04  0.25500000920E-02 0.  1.
       -2   -1    0    0    0  501  0.00000000000E+00  0.00000000000E+00 -0.80144680150E+03  0.80144680150E+03  0.25500000920E-02 0. -1.
    10030    2    1    2    0    0  0.00000000000E+00  0.00000000000E+00  0.67677983052E+03  0.22796734335E+04  0.21768968796E+04 0.  0.
        1    1    3    3  502    0 -0.52241260508E+02  0.10871742653E+04  0.33152498828E+03  0.11377986862E+04  0.50400001928E-02 0. -1.
       -1    1    3    3    0  502  0.52241260508E+02 -0.10871742653E+04  0.34525484224E+03  0.11418747473E+04  0.50400001928E-02 0.  1.
</event>
<event>
 5   0  0.1449521E-05  0.2746733E+04  0.7818609E-02  0.8319999E-01
       -1   -1    0    0    0  501  0.00000000000E+00  0.00000000000E+00  0.13051921005E+04  0.13051921005E+04  0.50400001928E-02 0.  1.
        1   -1    0    0  501    0  0.00000000000E+00  0.00000000000E+00 -0.14451023454E+04  0.14451023454E+04  0.50400001928E-02 0. -1.
    10030    2    1    2    0    0  0.00000000000E+00  0.00000000000E+00 -0.13991024486E+03  0.27502944459E+04  0.27467334531E+04 0.  0.
        3    1    3    3  502    0 -0.33831456702E+03 -0.12404105378E+04  0.41343478333E+03  0.13505566922E+04  0.10100000352E+00 0.  1.
       -3    1    3    3    0  502  0.33831456702E+03  0.12404105378E+04 -0.55334502819E+03  0.13997377537E+04  0.10100000352E+00 0. -1.
</event>
<event>
 5   0  0.3514294E-05  0.1360336E+04  0.7818609E-02  0.8983040E-01
       -2   -1    0    0    0  501  0.00000000000E+00  0.00000000000E+00  0.46710343385E+03  0.46710343386E+03  0.25500000920E-02 0.  1.
        2   -1    0    0  501    0  0.00000000000E+00  0.00000000000E+00 -0.99042018290E+03  0.99042018290E+03  0.25500000920E-02 0. -1.
    10030    2    1    2    0    0  0.00000000000E+00  0.00000000000E+00 -0.52331674905E+03  0.14575236168E+04  0.13603362355E+04 0.  0.
        2    1    3    3  502    0  0.48549567085E+03 -0.50665296613E+02  0.24584372015E+03  0.54654565540E+03  0.25500000920E-02 0.  1.
       -2    1    3    3    0  502 -0.48549567085E+03  0.50665296613E+02 -0.76916046920E+03  0.91097796136E+03  0.25500000920E-02 0. -1.
</event>
<event>
 5   0  0.1484379E-05  0.2687436E+04  0.7818609E-02  0.8339093E-01
       -1   -1    0    0    0  501  0.00000000000E+00  0.00000000000E+00  0.11259962030E+04  0.11259962030E+04  0.50400001928E-02 0.  1.
        1   -1    0    0  501    0  0.00000000000E+00  0.00000000000E+00 -0.16035387341E+04  0.16035387341E+04  0.50400001928E-02 0. -1.
    10030    2    1    2    0    0  0.00000000000E+00  0.00000000000E+00 -0.47754253113E+03  0.27295349371E+04  0.26874363441E+04 0.  0.
        1    1    3    3  502    0 -0.10157175219E+04  0.77355961720E+03  0.18672079141E+03  0.12903260129E+04  0.50400001928E-02 0.  1.
       -1    1    3    3    0  502  0.10157175219E+04 -0.77355961720E+03 -0.66426332254E+03  0.14392089241E+04  0.50400001928E-02 0. -1.
</event>
<event>
 5   0  0.1449521E-05  0.2693702E+04  0.7818609E-02  0.8337051E-01
        1   -1    0    0  501    0  0.00000000000E+00  0.00000000000E+00  0.14589056206E+04  0.14589056207E+04  0.50400001928E-02 0. -1.
       -1   -1    0    0    0  501  0.00000000000E+00  0.00000000000E+00 -0.12434031433E+04  0.12434031433E+04  0.50400001928E-02 0.  1.
    10030    2    1    2    0    0  0.00000000000E+00  0.00000000000E+00  0.21550247731E+03  0.27023087640E+04  0.26937021621E+04 0.  0.
        3    1    3    3  502    0  0.46439397135E+03  0.12581735262E+04  0.23202375505E+03  0.13610648095E+04  0.10100000352E+00 0. -1.
       -3    1    3    3    0  502 -0.46439397135E+03 -0.12581735262E+04 -0.16521277737E+02  0.13412439545E+04  0.10100000352E+00 0.  1.
</event>
<event>
 5   0  0.1484379E-05  0.2672915E+04  0.7818609E-02  0.8343847E-01
       -1   -1    0    0    0  501  0.00000000000E+00  0.00000000000E+00  0.99871483343E+03  0.99871483344E+03  0.50400001928E-02 0.  1.
        1   -1    0    0  501    0  0.00000000000E+00  0.00000000000E+00 -0.17884175597E+04  0.17884175597E+04  0.50400001928E-02 0. -1.
    10030    2    1    2    0    0  0.00000000000E+00  0.00000000000E+00 -0.78970272631E+03  0.27871323932E+04  0.26729153711E+04 0.  0.
        1    1    3    3  502    0 -0.62901940716E+03  0.67514094386E+03  0.61322680412E+03  0.11079385461E+04  0.50400001928E-02 0.  1.
       -1    1    3    3    0  502  0.62901940716E+03 -0.67514094386E+03 -0.14029295304E+04  0.16791938471E+04  0.50400001928E-02 0. -1.
</event>
<event>
 5   0  0.3497949E-05  0.2696332E+04  0.7818609E-02  0.8336196E-01
       -2   -1    0    0    0  501  0.00000000000E+00  0.00000000000E+00  0.28665574949E+04  0.28665574949E+04  0.25500000920E-02 0.  1.
        2   -1    0    0  501    0  0.00000000000E+00  0.00000000000E+00 -0.63405385687E+03  0.63405385688E+03  0.25500000920E-02 0. -1.
    10030    2    1    2    0    0  0.00000000000E+00  0.00000000000E+00  0.22325036380E+04  0.35006113518E+04  0.26963322018E+04 0.  0.
        5    1    3    3  502    0 -0.88711854277E+03  0.54443534857E+01 -0.20169801104E+03  0.90978740790E+03  0.46999998093E+01 0. -1.
       -5    1    3    3    0  502  0.88711854277E+03 -0.54443534857E+01  0.24342016491E+04  0.25908239439E+04  0.46999998093E+01 0.  1.
</event>
<event>
 5   0  0.3568647E-05  0.2680458E+04  0.7818609E-02  0.8341374E-01
        2   -1    0    0  501    0  0.00000000000E+00  0.00000000000E+00  0.12578240173E+04  0.12578240173E+04  0.25500000920E-02 0. -1.
       -2   -1    0    0    0  501  0.00000000000E+00  0.00000000000E+00 -0.14280325000E+04  0.14280325000E+04  0.25500000920E-02 0.  1.
    10030    2    1    2    0    0  0.00000000000E+00  0.00000000000E+00 -0.17020848270E+03  0.26858565173E+04  0.26804578535E+04 0.  0.
        3    1    3    3  502    0  0.35833646028E+03  0.11838701429E+04  0.43193894006E+03  0.13101621244E+04  0.10100000352E+00 0.  1.
       -3    1    3    3    0  502 -0.35833646028E+03 -0.11838701429E+04 -0.60214742276E+03  0.13756943930E+04  0.10100000352E+00 0. -1.
</event>
<event>
 5   0  0.3652331E-05  0.2546761E+04  0.7818609E-02  0.8386514E-01
       -2   -1    0    0    0  501  0.00000000000E+00  0.00000000000E+00  0.12479461494E+04  0.12479461494E+04  0.25500000920E-02 0. -1.
        2   -1    0    0  501    0  0.00000000000E+00  0.00000000000E+00 -0.12993331746E+04  0.12993331746E+04  0.25500000920E-02 0.  1.
    10030    2    1    2    0    0  0.00000000000E+00  0.00000000000E+00 -0.51387025228E+02  0.25472793240E+04  0.25467609483E+04 0.  0.
        1    1    3    3  502    0  0.10715128315E+03  0.11508647613E+04 -0.56014929334E+03  0.12844213978E+04  0.50400001928E-02 0.  1.
       -1    1    3    3    0  502 -0.10715128315E+03 -0.11508647613E+04  0.50876226812E+03  0.12628579262E+04  0.50400001928E-02 0. -1.
</event>
<event>
 5   0  0.1474012E-05  0.2134215E+04  0.7818609E-02  0.8546319E-01
        1   -1    0    0  501    0  0.00000000000E+00  0.00000000000E+00  0.10985144622E+04  0.10985144622E+04  0.50400001928E-02 0. -1.
       -1   -1    0    0    0  501  0.00000000000E+00  0.00000000000E+00 -0.10365982081E+04  0.10365982081E+04  0.50400001928E-02 0.  1.
    10030    2    1    2    0    0  0.00000000000E+00  0.00000000000E+00  0.61916254100E+02  0.21351126704E+04  0.21342147250E+04 0.  0.
        2    1    3    3  502    0  0.63920171247E+03 -0.27700413835E+03 -0.77771853524E+03  0.10441054745E+04  0.25500000920E-02 0.  1.
       -2    1    3    3    0  502 -0.63920171247E+03  0.27700413835E+03  0.83963478934E+03  0.10910071958E+04  0.25500000920E-02 0. -1.
</event>
<event>
 5   0  0.1484379E-05  0.2650225E+04  0.7818609E-02  0.8351338E-01
       -1   -1    0    0    0  501  0.00000000000E+00  0.00000000000E+00  0.29605393868E+04  0.29605393868E+04  0.50400001928E-02 0. -1.
        1   -1    0    0  501    0  0.00000000000E+00  0.00000000000E+00 -0.59310901909E+03  0.59310901911E+03  0.50400001928E-02 0.  1.
    10030    2    1    2    0    0  0.00000000000E+00  0.00000000000E+00  0.23674303677E+04  0.35536484059E+04  0.26502246031E+04 0.  0.
        1    1    3    3  502    0  0.82262076774E+03  0.56224119722E+03  0.23550558455E+04  0.25571679895E+04  0.50400001928E-02 0. -1.
       -1    1    3    3    0  502 -0.82262076774E+03 -0.56224119722E+03  0.12374522216E+02  0.99648041636E+03  0.50400001928E-02 0.  1.
</event>
<event>
 5   0  0.3497949E-05  0.2760362E+04  0.7818609E-02  0.8315681E-01
       -2   -1    0    0    0  501  0.00000000000E+00  0.00000000000E+00  0.12403946213E+04  0.12403946213E+04  0.25500000920E-02 0.  1.
        2   -1    0    0  501    0  0.00000000000E+00  0.00000000000E+00 -0.15357210511E+04  0.15357210511E+04  0.25500000920E-02 0. -1.
    10030    2    1    2    0    0  0.00000000000E+00  0.00000000000E+00 -0.29532642981E+03  0.27761156724E+04  0.27603623904E+04 0.  0.
        5    1    3    3  502    0 -0.13766709607E+04  0.53367980317E+02 -0.64688025532E+02  0.13792308386E+04  0.46999998093E+01 0. -1.
       -5    1    3    3    0  502  0.13766709607E+04 -0.53367980317E+02 -0.23063840428E+03  0.13968848338E+04  0.46999998093E+01 0.  1.
</event>
<event>
 5   0  0.1449521E-05  0.2640446E+04  0.7818609E-02  0.8354591E-01
        1   -1    0    0  501    0  0.00000000000E+00  0.00000000000E+00  0.16359049671E+04  0.16359049671E+04  0.50400001928E-02 0. -1.
       -1   -1    0    0    0  501  0.00000000000E+00  0.00000000000E+00 -0.10654581685E+04  0.10654581685E+04  0.50400001928E-02 0.  1.
    10030    2    1    2    0    0  0.00000000000E+00  0.00000000000E+00  0.57044679861E+03  0.27013631357E+04  0.26404456519E+04 0.  0.
        3    1    3    3  502    0 -0.50757123996E+03 -0.31249727052E+02 -0.96123775959E+03  0.10874663902E+04  0.10100000352E+00 0.  1.
       -3    1    3    3    0  502  0.50757123996E+03  0.31249727052E+02  0.15316845582E+04  0.16138967455E+04  0.10100000352E+00 0. -1.
</event>
<event>
 5   0  0.1438701E-05  0.2670676E+04  0.7818609E-02  0.8344583E-01
       -1   -1    0    0    0  501  0.00000000000E+00  0.00000000000E+00  0.12540124709E+04  0.12540124709E+04  0.50400001928E-02 0.  1.
        1   -1    0    0  501    0  0.00000000000E+00  0.00000000000E+00 -0.14219374977E+04  0.14219374977E+04  0.50400001928E-02 0. -1.
    10030    2    1    2    0    0  0.00000000000E+00  0.00000000000E+00 -0.16792502686E+03  0.26759499686E+04  0.26706758358E+04 0.  0.
        4    1    3    3  502    0 -0.99887286990E+03  0.31121084185E+03  0.74745114764E+03  0.12858009291E+04  0.12699999809E+01 0.  1.
       -4    1    3    3    0  502  0.99887286990E+03 -0.31121084185E+03 -0.91537617450E+03  0.13901490395E+04  0.12699999809E+01 0. -1.
</event>
<event>
 5   0  0.3497949E-05  0.2690612E+04  0.7818609E-02  0.8338057E-01
       -2   -1    0    0    0  501  0.00000000000E+00  0.00000000000E+00  0.10320643013E+04  0.10320643013E+04  0.25500000920E-02 0. -1.
        2   -1    0    0  501    0  0.00000000000E+00  0.00000000000E+00 -0.17536200866E+04  0.17536200866E+04  0.25500000920E-02 0.  1.
    10030    2    1    2    0    0  0.00000000000E+00  0.00000000000E+00 -0.72155578528E+03  0.27856843878E+04  0.26906123387E+04 0.  0.
        5    1    3    3  502    0  0.70399252137E+03 -0.67099405482E+03  0.60157568036E+03  0.11435706716E+04  0.46999998093E+01 0.  1.
       -5    1    3    3    0  502 -0.70399252137E+03  0.67099405482E+03 -0.13231314656E+04  0.16421137163E+04  0.46999998093E+01 0. -1.
</event>
<event>
 5   0  0.1495517E-05  0.2672434E+04  0.7818609E-02  0.8344005E-01
       -1   -1    0    0    0  501  0.00000000000E+00  0.00000000000E+00  0.15026219901E+04  0.15026219901E+04  0.50400001928E-02 0.  1.
        1   -1    0    0  501    0  0.00000000000E+00  0.00000000000E+00 -0.11882404609E+04  0.11882404609E+04  0.50400001928E-02 0. -1.
    10030    2    1    2    0    0  0.00000000000E+00  0.00000000000E+00  0.31438152921E+03  0.26908624509E+04  0.26724342806E+04 0.  0.
        5    1    3    3  502    0  0.96133543223E+03 -0.61365659158E+03  0.85820560990E+03  0.14273328920E+04  0.46999998093E+01 0.  1.
       -5    1    3    3    0  502 -0.96133543223E+03  0.61365659158E+03 -0.54382408069E+03  0.12635295590E+04  0.46999998093E+01 0. -1.
</event>
<event>
 5   0  0.3497949E-05  0.2741531E+04  0.7818609E-02  0.8321654E-01
        2   -1    0    0  501    0  0.00000000000E+00  0.00000000000E+00  0.24574751718E+04  0.24574751718E+04  0.25500000920E-02 0.  1.
       -2   -1    0    0    0  501  0.00000000000E+00  0.00000000000E+00 -0.76460502573E+03  0.76460502573E+03  0.25500000920E-02 0. -1.
    10030    2    1    2    0    0  0.00000000000E+00  0.00000000000E+00  0.16928701461E+04  0.32220801976E+04  0.27415308621E+04 0.  0.
        5    1    3    3  502    0  0.59392619144E+03  0.11194133654E+04  0.23219691545E+03  0.12883214277E+04  0.46999998093E+01 0. -1.
       -5    1    3    3    0  502 -0.59392619144E+03 -0.11194133654E+04  0.14606732307E+04  0.19337587699E+04  0.46999998093E+01 0.  1.
</event>
<event>
 5   0  0.3676724E-05  0.2157440E+04  0.7818609E-02  0.8536354E-01
        2   -1    0    0  501    0  0.00000000000E+00  0.00000000000E+00  0.12700719621E+04  0.12700719621E+04  0.25500000920E-02 0. -1.
       -2   -1    0    0    0  501  0.00000000000E+00  0.00000000000E+00 -0.91619780426E+03  0.91619780427E+03  0.25500000920E-02 0.  1.
    10030    2    1    2    0    0  0.00000000000E+00  0.00000000000E+00  0.35387415786E+03  0.21862697664E+04  0.21574402823E+04 0.  0.
        4    1    3    3  502    0  0.59095791252E+03 -0.48393011849E+02  0.10901239621E+04  0.12409452057E+04  0.12699999809E+01 0. -1.
       -4    1    3    3    0  502 -0.59095791252E+03  0.48393011849E+02 -0.73624980421E+03  0.94532456070E+03  0.12699999809E+01 0.  1.
</event>
<event>
 5   0  0.3652331E-05  0.2663397E+04  0.7818609E-02  0.8346980E-01
        2   -1    0    0  501    0  0.00000000000E+00  0.00000000000E+00  0.19413103052E+04  0.19413103052E+04  0.25500000920E-02 0. -1.
       -2   -1    0    0    0  501  0.00000000000E+00  0.00000000000E+00 -0.91351776472E+03  0.91351776473E+03  0.25500000920E-02 0.  1.
    10030    2    1    2    0    0  0.00000000000E+00  0.00000000000E+00  0.10277925405E+04  0.28548280699E+04  0.26633974173E+04 0.  0.
        1    1    3    3  502    0 -0.33585162050E+03  0.88448568200E+03  0.15184379285E+04  0.17890681863E+04  0.50400001928E-02 0. -1.
       -1    1    3    3    0  502  0.33585162050E+03 -0.88448568200E+03 -0.49064538802E+03  0.10657598836E+04  0.50400001928E-02 0.  1.
</event>
<event>
 5   0  0.3652331E-05  0.2712816E+04  0.7818609E-02  0.8330858E-01
        2   -1    0    0  501    0  0.00000000000E+00  0.00000000000E+00  0.18096578603E+04  0.18096578603E+04  0.25500000920E-02 0.  1.
       -2   -1    0    0    0  501  0.00000000000E+00  0.00000000000E+00 -0.10166802043E+04  0.10166802043E+04  0.25500000920E-02 0. -1.
    10030    2    1    2    0    0  0.00000000000E+00  0.00000000000E+00  0.79297765601E+03  0.28263380646E+04  0.27128164871E+04 0.  0.
        1    1    3    3  502    0  0.10095721762E+04 -0.83507829855E+03  0.30725687045E+02  0.13105479051E+04  0.50400001928E-02 0.  1.
       -1    1    3    3    0  502 -0.10095721762E+04  0.83507829855E+03  0.76225196896E+03  0.15157901596E+04  0.50400001928E-02 0. -1.
</event>
<event>
 5   0  0.1474012E-05  0.2660031E+04  0.7818609E-02  0.8348091E-01
       -1   -1    0    0    0  501  0.00000000000E+00  0.00000000000E+00  0.81050544416E+03  0.81050544418E+03  0.50400001928E-02 0. -1.
        1   -1    0    0  501    0  0.00000000000E+00  0.00000000000E+00 -0.21825154382E+04  0.21825154382E+04  0.50400001928E-02 0.  1.
    10030    2    1    2    0    0  0.00000000000E+00  0.00000000000E+00 -0.13720099940E+04  0.29930208824E+04  0.26600305597E+04 0.  0.
        2    1    3    3  502    0  0.33186638501E+03 -0.10584454039E+04 -0.15116919839E+04  0.18750078999E+04  0.25500000920E-02 0.  1.
       -2    1    3    3    0  502 -0.33186638501E+03  0.10584454039E+04  0.13968198991E+03  0.11180129824E+04  0.25500000920E-02 0. -1.
</event>
<event>
 5   0  0.3652331E-05  0.2712297E+04  0.7818609E-02  0.8331026E-01
        2   -1    0    0  501    0  0.00000000000E+00  0.00000000000E+00  0.16141696299E+04  0.16141696299E+04  0.25500000920E-02 0.  1.
       -2   -1    0    0    0  501  0.00000000000E+00  0.00000000000E+00 -0.11393711408E+04  0.11393711408E+04  0.25500000920E-02 0. -1.
    10030    2    1    2    0    0  0.00000000000E+00  0.00000000000E+00  0.47479848912E+03  0.27535407707E+04  0.27122966598E+04 0.  0.
        1    1    3    3  502    0  0.13437366726E+04 -0.17098227667E+01  0.42323226995E+03  0.14088139420E+04  0.50400001928E-02 0.  1.
       -1    1    3    3    0  502 -0.13437366726E+04  0.17098227667E+01  0.51566219168E+02  0.13447268287E+04  0.50400001928E-02 0. -1.
</event>
<event>
 5   0  0.1495517E-05  0.2689985E+04  0.7818609E-02  0.8338262E-01
        1   -1    0    0  501    0  0.00000000000E+00  0.00000000000E+00  0.13153932526E+04  0.13153932526E+04  0.50400001928E-02 0. -1.
       -1   -1    0    0    0  501  0.00000000000E+00  0.00000000000E+00 -0.13752578170E+04  0.13752578170E+04  0.50400001928E-02 0.  1.
    10030    2    1    2    0    0  0.00000000000E+00  0.00000000000E+00 -0.59864564369E+02  0.26906510696E+04  0.26899850208E+04 0.  0.
        5    1    3    3  502    0  0.80132679264E+03 -0.29405761532E+03 -0.10696069114E+04  0.13684573595E+04  0.46999998093E+01 0.  1.
       -5    1    3    3    0  502 -0.80132679264E+03  0.29405761532E+03  0.10097423470E+04  0.13221937101E+04  0.46999998093E+01 0. -1.
</event>
<event>
 5   0  0.1449521E-05  0.2676056E+04  0.7818609E-02  0.8342816E-01
        1   -1    0    0  501    0  0.00000000000E+00  0.00000000000E+00  0.22975358624E+04  0.22975358625E+04  0.50400001928E-02 0.  1.
       -1   -1    0    0    0  501  0.00000000000E+00  0.00000000000E+00 -0.77923423064E+03  0.77923423065E+03  0.50400001928E-02 0. -1.
    10030    2    1    2    0    0  0.00000000000E+00  0.00000000000E+00  0.15183016318E+04  0.30767700931E+04  0.26760557469E+04 0.  0.
        3    1    3    3  502    0  0.90815500770E+03  0.14161724240E+03 -0.35883090301E+03  0.98669173935E+03  0.10100000352E+00 0. -1.
       -3    1    3    3    0  502 -0.90815500770E+03 -0.14161724240E+03  0.18771325348E+04  0.20900783538E+04  0.10100000352E+00 0.  1.
</event>
<event>
 5   0  0.3676724E-05  0.2621419E+04  0.7818609E-02  0.8360962E-01
        2   -1    0    0  501    0  0.00000000000E+00  0.00000000000E+00  0.11833385199E+04  0.11833385199E+04  0.25500000920E-02 0. -1.
       -2   -1    0    0    0  501  0.00000000000E+00  0.00000000000E+00 -0.14517903660E+04  0.14517903660E+04  0.25500000920E-02 0.  1.
    10030    2    1    2    0    0  0.00000000000E+00  0.00000000000E+00 -0.26845184608E+03  0.26351288859E+04  0.26214190530E+04 0.  0.
        4    1    3    3  502    0  0.49591102648E+03 -0.69810976105E+03  0.86327061057E+03  0.12159452063E+04  0.12699999809E+01 0. -1.
       -4    1    3    3    0  502 -0.49591102648E+03  0.69810976105E+03 -0.11317224567E+04  0.14191836796E+04  0.12699999809E+01 0.  1.
</event>
<event>
 5   0  0.1438701E-05  0.2726657E+04  0.7818609E-02  0.8326407E-01
       -1   -1    0    0    0  501  0.00000000000E+00  0.00000000000E+00  0.12354629471E+04  0.12354629471E+04  0.50400001928E-02 0. -1.
        1   -1    0    0  501    0  0.00000000000E+00  0.00000000000E+00 -0.15044277185E+04  0.15044277186E+04  0.50400001928E-02 0.  1.
    10030    2    1    2    0    0  0.00000000000E+00  0.00000000000E+00 -0.26896477144E+03  0.27398906657E+04  0.27266570763E+04 0.  0.
        4    1    3    3  502    0  0.29147489031E+03  0.13273665239E+04 -0.24365400668E+03  0.13806623006E+04  0.12699999809E+01 0.  1.
       -4    1    3    3    0  502 -0.29147489031E+03 -0.13273665239E+04 -0.25310764765E+02  0.13592283650E+04  0.12699999809E+01 0. -1.
</event>
<event>
 5   0  0.3568647E-05  0.2922251E+04  0.7818609E-02  0.8266288E-01
        2   -1    0    0  501    0  0.00000000000E+00  0.00000000000E+00  0.15989567508E+04  0.15989567508E+04  0.25500000920E-02 0. -1.
       -2   -1    0    0    0  501  0.00000000000E+00  0.00000000000E+00 -0.13351751084E+04  0.13351751084E+04  0.25500000920E-02 0.  1.
    10030    2    1    2    0    0  0.00000000000E+00  0.00000000000E+00  0.26378164245E+03  0.29341318592E+04  0.29222506758E+04 0.  0.
        3    1    3    3  502    0 -0.80901081563E+03  0.95072664958E+02 -0.10860330592E+04  0.13575732493E+04  0.10100000352E+00 0.  1.
       -3    1    3    3    0  502  0.80901081563E+03 -0.95072664958E+02  0.13498147016E+04  0.15765586099E+04  0.10100000352E+00 0. -1.
</event>
<event>
 5   0  0.3568647E-05  0.2721341E+04  0.7818609E-02  0.8328114E-01
        2   -1    0    0  501    0  0.00000000000E+00  0.00000000000E+00  0.17479921302E+04  0.17479921302E+04  0.25500000920E-02 0. -1.
       -2   -1    0    0    0  501  0.00000000000E+00  0.00000000000E+00 -0.10591721248E+04  0.10591721248E+04  0.25500000920E-02 0.  1.
    10030    2    1    2    0    0  0.00000000000E+00  0.00000000000E+00  0.68882000536E+03  0.28071642551E+04  0.27213412419E+04 0.  0.
        3    1    3    3  502    0 -0.74567653517E+03  0.41571894379E+03 -0.74851737264E+03  0.11354003711E+04  0.10100000352E+00 0.  1.
       -3    1    3    3    0  502  0.74567653517E+03 -0.41571894379E+03  0.14373373780E+04  0.16717638840E+04  0.10100000352E+00 0. -1.
</event>
<event>
 5   0  0.3568647E-05  0.1547576E+04  0.7818609E-02  0.8853418E-01
        2   -1    0    0  501    0  0.00000000000E+00  0.00000000000E+00  0.47267627395E+03  0.47267627396E+03  0.25500000920E-02 0. -1.
       -2   -1    0    0    0  501  0.00000000000E+00  0.00000000000E+00 -0.12667185168E+04  0.12667185168E+04  0.25500000920E-02 0.  1.
    10030    2    1    2    0    0  0.00000000000E+00  0.00000000000E+00 -0.79404224287E+03  0.17393947908E+04  0.15475758963E+04 0.  0.
        3    1    3    3  502    0 -0.10521571459E+03 -0.27526360819E+03 -0.12011800766E+04  0.12367998978E+04  0.10100000352E+00 0.  1.
       -3    1    3    3    0  502  0.10521571459E+03  0.27526360819E+03  0.40713783373E+03  0.50259489298E+03  0.10100000352E+00 0. -1.
</event>
<event>
 5   0  0.1474012E-05  0.2411934E+04  0.7818609E-02  0.8435049E-01
       -1   -1    0    0    0  501  0.00000000000E+00  0.00000000000E+00  0.65206100181E+03  0.65206100182E+03  0.50400001928E-02 0. -1.
        1   -1    0    0  501    0  0.00000000000E+00  0.00000000000E+00 -0.22303996407E+04  0.22303996407E+04  0.50400001928E-02 0.  1.
    10030    2    1    2    0    0  0.00000000000E+00  0.00000000000E+00 -0.15783386389E+04  0.28824606425E+04  0.24119341817E+04 0.  0.
        2    1    3    3  502    0  0.79993354999E+03  0.44329261378E+03 -0.17286248293E+04  0.19556446063E+04  0.25500000920E-02 0.  1.
       -2    1    3    3    0  502 -0.79993354999E+03 -0.44329261378E+03  0.15028619044E+03  0.92681603616E+03  0.25500000920E-02 0. -1.
</event>
<event>
 5   0  0.3497949E-05  0.2645608E+04  0.7818609E-02  0.8352872E-01
       -2   -1    0    0    0  501  0.00000000000E+00  0.00000000000E+00  0.86329251694E+03  0.86329251694E+03  0.25500000920E-02 0.  1.
        2   -1    0    0  501    0  0.00000000000E+00  0.00000000000E+00 -0.20269026517E+04  0.20269026517E+04  0.25500000920E-02 0. -1.
    10030    2    1    2    0    0  0.00000000000E+00  0.00000000000E+00 -0.11636101348E+04  0.28901951687E+04  0.26456075989E+04 0.  0.
        5    1    3    3  502    0  0.12327815361E+04 -0.19367329046E+03 -0.10611507850E+04  0.16380850826E+04  0.46999998093E+01 0. -1.
       -5    1    3    3    0  502 -0.12327815361E+04  0.19367329046E+03 -0.10245934974E+03  0.12521100861E+04  0.46999998093E+01 0.  1.
</event>
<event>
 5   0  0.3497949E-05  0.2617679E+04  0.7818609E-02  0.8362221E-01
       -2   -1    0    0    0  501  0.00000000000E+00  0.00000000000E+00  0.67246346821E+03  0.67246346821E+03  0.25500000920E-02 0.  1.
        2   -1    0    0  501    0  0.00000000000E+00  0.00000000000E+00 -0.25474414202E+04  0.25474414202E+04  0.25500000920E-02 0. -1.
    10030    2    1    2    0    0  0.00000000000E+00  0.00000000000E+00 -0.18749779520E+04  0.32199048884E+04  0.26176793482E+04 0.  0.
        5    1    3    3  502    0  0.89245739986E+03  0.95498997254E+03 -0.10204897804E+04  0.16582845173E+04  0.46999998093E+01 0.  1.
       -5    1    3    3    0  502 -0.89245739986E+03 -0.95498997254E+03 -0.85448817152E+03  0.15616203711E+04  0.46999998093E+01 0. -1.
</event>
<event>
 5   0  0.3676724E-05  0.2767077E+04  0.7818609E-02  0.8313563E-01
        2   -1    0    0  501    0  0.00000000000E+00  0.00000000000E+00  0.93618850385E+03  0.93618850385E+03  0.25500000920E-02 0.  1.
       -2   -1    0    0    0  501  0.00000000000E+00  0.00000000000E+00 -0.20446512789E+04  0.20446512789E+04  0.25500000920E-02 0. -1.
    10030    2    1    2    0    0  0.00000000000E+00  0.00000000000E+00 -0.11084627751E+04  0.29808397828E+04  0.27670771740E+04 0.  0.
        4    1    3    3  502    0  0.63033079641E+03 -0.78372506033E+03  0.46923497386E+03  0.11098310487E+04  0.12699999809E+01 0.  1.
       -4    1    3    3    0  502 -0.63033079641E+03  0.78372506033E+03 -0.15776977490E+04  0.18710087341E+04  0.12699999809E+01 0. -1.
</event>
<event>
 5   0  0.3676724E-05  0.2015231E+04  0.7818609E-02  0.8599532E-01
       -2   -1    0    0    0  501  0.00000000000E+00  0.00000000000E+00  0.49863349357E+03  0.49863349357E+03  0.25500000920E-02 0. -1.
        2   -1    0    0  501    0  0.00000000000E+00  0.00000000000E+00 -0.20361437209E+04  0.20361437209E+04  0.25500000920E-02 0.  1.
    10030    2    1    2    0    0  0.00000000000E+00  0.00000000000E+00 -0.15375102273E+04  0.25347772145E+04  0.20152314576E+04 0.  0.
        4    1    3    3  502    0 -0.28275518260E+03 -0.62053592624E+03  0.16429242442E+03  0.70143349126E+03  0.12699999809E+01 0. -1.
       -4    1    3    3    0  502  0.28275518260E+03  0.62053592624E+03 -0.17018026518E+04  0.18333437232E+04  0.12699999809E+01 0.  1.
</event>
<event>
 5   0  0.1474012E-05  0.2639263E+04  0.7818609E-02  0.8354985E-01
       -1   -1    0    0    0  501  0.00000000000E+00  0.00000000000E+00  0.84755255866E+03  0.84755255867E+03  0.50400001928E-02 0. -1.
        1   -1    0    0  501    0  0.00000000000E+00  0.00000000000E+00 -0.20546544833E+04  0.20546544833E+04  0.50400001928E-02 0.  1.
    10030    2    1    2    0    0  0.00000000000E+00  0.00000000000E+00 -0.12071019246E+04  0.29022070420E+04  0.26392632794E+04 0.  0.
        2    1    3    3  502    0 -0.48860149721E+03 -0.49935513196E+03 -0.18346138712E+04  0.19631339809E+04  0.25500000920E-02 0.  1.
       -2    1    3    3    0  502  0.48860149721E+03  0.49935513196E+03  0.62751194653E+03  0.93907306102E+03  0.25500000920E-02 0. -1.
</event>
<event>
 5   0  0.3568647E-05  0.2679877E+04  0.7818609E-02  0.8341564E-01
        2   -1    0    0  501    0  0.00000000000E+00  0.00000000000E+00  0.16346686705E+04  0.16346686705E+04  0.25500000920E-02 0. -1.
       -2   -1    0    0    0  501  0.00000000000E+00  0.00000000000E+00 -0.10983478610E+04  0.10983478610E+04  0.25500000920E-02 0.  1.
    10030    2    1    2    0    0  0.00000000000E+00  0.00000000000E+00  0.53632080956E+03  0.27330165315E+04  0.26798767417E+04 0.  0.
        3    1    3    3  502    0 -0.57451339548E+03  0.18484051194E+03  0.14882116824E+04  0.16059282917E+04  0.10100000352E+00 0. -1.
       -3    1    3    3    0  502  0.57451339548E+03 -0.18484051194E+03 -0.95189087279E+03  0.11270882398E+04  0.10100000352E+00 0.  1.
</event>
<event>
 5   0  0.1438701E-05  0.1610240E+04  0.7818609E-02  0.8814282E-01
        1   -1    0    0  501    0  0.00000000000E+00  0.00000000000E+00  0.14086813330E+04  0.14086813330E+04  0.50400001928E-02 0. -1.
       -1   -1    0    0    0  501  0.00000000000E+00  0.00000000000E+00 -0.46015981845E+03  0.46015981848E+03  0.50400001928E-02 0.  1.
    10030    2    1    2    0    0  0.00000000000E+00  0.00000000000E+00  0.94852151453E+03  0.18688411515E+04  0.16102404124E+04 0.  0.
        4    1    3    3  502    0 -0.65137206489E+03  0.44354665700E+03  0.28285808659E+03  0.83727505272E+03  0.12699999809E+01 0.  1.
       -4    1    3    3    0  502  0.65137206489E+03 -0.44354665700E+03  0.66566342794E+03  0.10315660987E+04  0.12699999809E+01 0. -1.
</event>
<event>
 5   0  0.3652331E-05  0.2469626E+04  0.7818609E-02  0.8413887E-01
       -2   -1    0    0    0  501  0.00000000000E+00  0.00000000000E+00  0.90837771590E+03  0.90837771590E+03  0.25500000920E-02 0. -1.
        2   -1    0    0  501    0  0.00000000000E+00  0.00000000000E+00 -0.16785561203E+04  0.16785561203E+04  0.25500000920E-02 0.  1.
    10030    2    1    2    0    0  0.00000000000E+00  0.00000000000E+00 -0.77017840439E+03  0.25869338362E+04  0.24696258620E+04 0.  0.
        1    1    3    3  502    0 -0.20270365500E+03  0.79247470845E+03  0.58386728431E+03  0.10049905179E+04  0.50400001928E-02 0. -1.
       -1    1    3    3    0  502  0.20270365500E+03 -0.79247470845E+03 -0.13540456887E+04  0.15819433183E+04  0.50400001928E-02 0.  1.
</event>
<event>
 5   0  0.3514294E-05  0.2626107E+04  0.7818609E-02  0.8359387E-01
       -2   -1    0    0    0  501  0.00000000000E+00  0.00000000000E+00  0.95445220655E+03  0.95445220655E+03  0.25500000920E-02 0. -1.
        2   -1    0    0  501    0  0.00000000000E+00  0.00000000000E+00 -0.18063861510E+04  0.18063861510E+04  0.25500000920E-02 0.  1.
    10030    2    1    2    0    0  0.00000000000E+00  0.00000000000E+00 -0.85193394448E+03  0.27608383576E+04  0.26261068126E+04 0.  0.
        2    1    3    3  502    0  0.81628451104E+03 -0.21275557515E+02 -0.15069904936E+04  0.17139992416E+04  0.25500000920E-02 0.  1.
       -2    1    3    3    0  502 -0.81628451104E+03  0.21275557515E+02  0.65505654910E+03  0.10468391160E+04  0.25500000920E-02 0. -1.
</event>
<event>
 5   0  0.1438701E-05  0.2682678E+04  0.7818609E-02  0.8340647E-01
        1   -1    0    0  501    0  0.00000000000E+00  0.00000000000E+00  0.17017889034E+04  0.17017889034E+04  0.50400001928E-02 0. -1.
       -1   -1    0    0    0  501  0.00000000000E+00  0.00000000000E+00 -0.10572347601E+04  0.10572347601E+04  0.50400001928E-02 0.  1.
    10030    2    1    2    0    0  0.00000000000E+00  0.00000000000E+00  0.64455414333E+03  0.27590236635E+04  0.26826780522E+04 0.  0.
        4    1    3    3  502    0 -0.99095899502E+03  0.80056637993E+03 -0.10953172353E+03  0.12786340641E+04  0.12699999809E+01 0. -1.
       -4    1    3    3    0  502  0.99095899502E+03 -0.80056637993E+03  0.75408586686E+03  0.14803895994E+04  0.12699999809E+01 0.  1.
</event>
<event>
 5   0  0.1474012E-05  0.2550580E+04  0.7818609E-02  0.8385184E-01
       -1   -1    0    0    0  501  0.00000000000E+00  0.00000000000E+00  0.13559238601E+04  0.13559238601E+04  0.50400001928E-02 0. -1.
        1   -1    0    0  501    0  0.00000000000E+00  0.00000000000E+00 -0.11994513231E+04  0.11994513231E+04  0.50400001928E-02 0.  1.
    10030    2    1    2    0    0  0.00000000000E+00  0.00000000000E+00  0.15647253702E+03  0.25553751832E+04  0.25505800658E+04 0.  0.
        2    1    3    3  502    0 -0.38185110995E+03  0.16257515493E+03  0.12863738402E+04  0.13516651242E+04  0.25500000920E-02 0. -1.
       -2    1    3    3    0  502  0.38185110995E+03 -0.16257515493E+03 -0.11299013032E+04  0.12037100590E+04  0.25500000920E-02 0.  1.
</event>
<event>
 5   0  0.3676724E-05  0.2687578E+04  0.7818609E-02  0.8339047E-01
        2   -1    0    0  501    0  0.00000000000E+00  0.00000000000E+00  0.79998997809E+03  0.79998997809E+03  0.25500000920E-02 0.  1.
       -2   -1    0    0    0  501  0.00000000000E+00  0.00000000000E+00 -0.22572385849E+04  0.22572385849E+04  0.25500000920E-02 0. -1.
    10030    2    1    2    0    0  0.00000000000E+00  0.00000000000E+00 -0.14572486068E+04  0.30572285630E+04  0.26875775308E+04 0.  0.
        4    1    3    3  502    0 -0.41176021489E+03 -0.12600814838E+04 -0.97892152859E+03  0.16479201414E+04  0.12699999809E+01 0. -1.
       -4    1    3    3    0  502  0.41176021489E+03  0.12600814838E+04 -0.47832707818E+03  0.14093084215E+04  0.12699999809E+01 0.  1.
</event>
<event>
 5   0  0.3676724E-05  0.2512771E+04  0.7818609E-02  0.8398450E-01
       -2   -1    0    0    0  501  0.00000000000E+00  0.00000000000E+00  0.11195321307E+04  0.11195321307E+04  0.25500000920E-02 0. -1.
        2   -1    0    0  501    0  0.00000000000E+00  0.00000000000E+00 -0.14099681086E+04  0.14099681086E+04  0.25500000920E-02 0.  1.
    10030    2    1    2    0    0  0.00000000000E+00  0.00000000000E+00 -0.29043597794E+03  0.25295002393E+04  0.25127710607E+04 0.  0.
        4    1    3    3  502    0 -0.11455473380E+04  0.15875099671E+03  0.34899085310E+03  0.12080053026E+04  0.12699999809E+01 0. -1.
       -4    1    3    3    0  502  0.11455473380E+04 -0.15875099671E+03 -0.63942683103E+03  0.13214949367E+04  0.12699999809E+01 0.  1.
</event>
<event>
 5   0  0.1438701E-05  0.1846439E+04  0.7818609E-02  0.8681986E-01
        1   -1    0    0  501    0  0.00000000000E+00  0.00000000000E+00  0.56149352157E+03  0.56149352159E+03  0.50400001928E-02 0. -1.
       -1   -1    0    0    0  501  0.00000000000E+00  0.00000000000E+00 -0.15179776970E+04  0.15179776970E+04  0.50400001928E-02 0.  1.
    10030    2    1    2    0    0  0.00000000000E+00  0.00000000000E+00 -0.95648417546E+03  0.20794712186E+04  0.18464394307E+04 0.  0.
        4    1    3    3  502    0  0.72349168318E+02 -0.81083617802E+03  0.12198746975E+02  0.81414994447E+03  0.12699999809E+01 0. -1.
       -4    1    3    3    0  502 -0.72349168318E+02  0.81083617802E+03 -0.96868292243E+03  0.12653212742E+04  0.12699999809E+01 0.  1.
</event>
<event>
 5   0  0.1474012E-05  0.2707747E+04  0.7818609E-02  0.8332496E-01
       -1   -1    0    0    0  501  0.00000000000E+00  0.00000000000E+00  0.17366032354E+04  0.17366032354E+04  0.50400001928E-02 0.  1.
        1   -1    0    0  501    0  0.00000000000E+00  0.00000000000E+00 -0.10554937235E+04  0.10554937235E+04  0.50400001928E-02 0. -1.
    10030    2    1    2    0    0  0.00000000000E+00  0.00000000000E+00  0.68110951186E+03  0.27920969589E+04  0.27077472668E+04 0.  0.
        2    1    3    3  502    0  0.11753067060E+04 -0.52006244759E+03  0.77944622211E+03  0.15031125094E+04  0.25500000920E-02 0. -1.
       -2    1    3    3    0  502 -0.11753067060E+04  0.52006244759E+03 -0.98336710259E+02  0.12889844496E+04  0.25500000920E-02 0.  1.
</event>
<event>
 5   0  0.3497949E-05  0.2694844E+04  0.7818609E-02  0.8336680E-01
        2   -1    0    0  501    0  0.00000000000E+00  0.00000000000E+00  0.19222457692E+04  0.19222457692E+04  0.25500000920E-02 0. -1.
       -2   -1    0    0    0  501  0.00000000000E+00  0.00000000000E+00 -0.94449240626E+03  0.94449240626E+03  0.25500000920E-02 0.  1.
    10030    2    1    2    0    0  0.00000000000E+00  0.00000000000E+00  0.97775336294E+03  0.28667381755E+04  0.26948443606E+04 0.  0.
        5    1    3    3  502    0  0.83606934643E+02 -0.66766860461E+03  0.17307088583E+04  0.18569186108E+04  0.46999998093E+01 0. -1.
       -5    1    3    3    0  502 -0.83606934643E+02  0.66766860461E+03 -0.75295549536E+03  0.10098195646E+04  0.46999998093E+01 0.  1.
</event>
<event>
 5   0  0.3497949E-05  0.2069804E+04  0.7818609E-02  0.8574663E-01
        2   -1    0    0  501    0  0.00000000000E+00  0.00000000000E+00  0.10999828229E+04  0.10999828229E+04  0.25500000920E-02 0. -1.
       -2   -1    0    0    0  501  0.00000000000E+00  0.00000000000E+00 -0.97367141887E+03  0.97367141888E+03  0.25500000920E-02 0.  1.
    10030    2    1    2    0    0  0.00000000000E+00  0.00000000000E+00  0.12631140404E+03  0.20736542418E+04  0.20698036969E+04 0.  0.
        5    1    3    3  502    0 -0.25075400796E+02 -0.32499665358E+03  0.10471988968E+04  0.10967676235E+04  0.46999998093E+01 0. -1.
       -5    1    3    3    0  502  0.25075400796E+02  0.32499665358E+03 -0.92088749278E+03  0.97688661825E+03  0.46999998093E+01 0.  1.
</event>
<event>
 5   0  0.1495517E-05  0.2688772E+04  0.7818609E-02  0.8338657E-01
       -1   -1    0    0    0  501  0.00000000000E+00  0.00000000000E+00  0.17675553743E+04  0.17675553743E+04  0.50400001928E-02 0.  1.
        1   -1    0    0  501    0  0.00000000000E+00  0.00000000000E+00 -0.10225273017E+04  0.10225273018E+04  0.50400001928E-02 0. -1.
    10030    2    1    2    0    0  0.00000000000E+00  0.00000000000E+00  0.74502807258E+03  0.27900826761E+04  0.26887719335E+04 0.  0.
        5    1    3    3  502    0  0.66248901425E+03  0.11107526075E+04 -0.83135024557E+01  0.12933500120E+04  0.46999998093E+01 0. -1.
       -5    1    3    3    0  502 -0.66248901425E+03 -0.11107526075E+04  0.75334157504E+03  0.14967326641E+04  0.46999998093E+01 0.  1.
</event>
<event>
 5   0  0.3514294E-05  0.2153588E+04  0.7818609E-02  0.8537998E-01
        2   -1    0    0  501    0  0.00000000000E+00  0.00000000000E+00  0.16350089013E+04  0.16350089013E+04  0.25500000920E-02 0. -1.
       -2   -1    0    0    0  501  0.00000000000E+00  0.00000000000E+00 -0.70916131811E+03  0.70916131811E+03  0.25500000920E-02 0.  1.
    10030    2    1    2    0    0  0.00000000000E+00  0.00000000000E+00  0.92584758315E+03  0.23441702194E+04  0.21535877670E+04 0.  0.
        2    1    3    3  502    0 -0.59261765184E+03  0.87608431020E+03  0.24315103850E+03  0.10852842150E+04  0.25500000920E-02 0.  1.
       -2    1    3    3    0  502  0.59261765184E+03 -0.87608431020E+03  0.68269654465E+03  0.12588860043E+04  0.25500000920E-02 0. -1.
</event>
<event>
 5   0  0.1438701E-05  0.2506492E+04  0.7818609E-02  0.8400676E-01
       -1   -1    0    0    0  501  0.00000000000E+00  0.00000000000E+00  0.54448645559E+03  0.54448645562E+03  0.50400001928E-02 0. -1.
        1   -1    0    0  501    0  0.00000000000E+00  0.00000000000E+00 -0.28845992942E+04  0.28845992942E+04  0.50400001928E-02 0.  1.
    10030    2    1    2    0    0  0.00000000000E+00  0.00000000000E+00 -0.23401128386E+04  0.34290857498E+04  0.25064917678E+04 0.  0.
        4    1    3    3  502    0  0.10286572572E+04 -0.72540494220E+02 -0.21444013102E+04  0.23794655845E+04  0.12699999809E+01 0.  1.
       -4    1    3    3    0  502 -0.10286572572E+04  0.72540494220E+02 -0.19571152841E+03  0.10496201653E+04  0.12699999809E+01 0. -1.
</event>
<event>
 5   0  0.3568647E-05  0.2746711E+04  0.7818609E-02  0.8320006E-01
       -2   -1    0    0    0  501  0.00000000000E+00  0.00000000000E+00  0.13888929752E+04  0.13888929752E+04  0.25500000920E-02 0. -1.
        2   -1    0    0  501    0  0.00000000000E+00  0.00000000000E+00 -0.13579916763E+04  0.13579916763E+04  0.25500000920E-02 0.  1.
    10030    2    1    2    0    0  0.00000000000E+00  0.00000000000E+00  0.30901298990E+02  0.27468846515E+04  0.27467108327E+04 0.  0.
        3    1    3    3  502    0 -0.18054335505E+02  0.10105368630E+04  0.94534516488E+03  0.13839032486E+04  0.10100000352E+00 0. -1.
       -3    1    3    3    0  502  0.18054335505E+02 -0.10105368630E+04 -0.91444386589E+03  0.13629814029E+04  0.10100000352E+00 0.  1.
</event>
<event>
 5   0  0.3497949E-05  0.2692771E+04  0.7818609E-02  0.8337354E-01
        2   -1    0    0  501    0  0.00000000000E+00  0.00000000000E+00  0.15520330380E+04  0.15520330380E+04  0.25500000920E-02 0.  1.
       -2   -1    0    0    0  501  0.00000000000E+00  0.00000000000E+00 -0.11679862598E+04  0.11679862598E+04  0.25500000920E-02 0. -1.
    10030    2    1    2    0    0  0.00000000000E+00  0.00000000000E+00  0.38404677819E+03  0.27200192977E+04  0.26927705161E+04 0.  0.
        5    1    3    3  502    0 -0.28242962020E+02  0.11609710528E+04  0.88015092741E+03  0.14571682111E+04  0.46999998093E+01 0.  1.
       -5    1    3    3    0  502  0.28242962020E+02 -0.11609710528E+04 -0.49610414922E+03  0.12628510867E+04  0.46999998093E+01 0. -1.
</event>
<event>
 5   0  0.3514294E-05  0.2542636E+04  0.7818609E-02  0.8387952E-01
        2   -1    0    0  501    0  0.00000000000E+00  0.00000000000E+00  0.17460818526E+04  0.17460818526E+04  0.25500000920E-02 0.  1.
       -2   -1    0    0    0  501  0.00000000000E+00  0.00000000000E+00 -0.92564373412E+03  0.92564373412E+03  0.25500000920E-02 0. -1.
    10030    2    1    2    0    0  0.00000000000E+00  0.00000000000E+00  0.82043811846E+03  0.26717255867E+04  0.25426362116E+04 0.  0.
        2    1    3    3  502    0 -0.23562065629E+03 -0.64539181335E+03 -0.71376196859E+03  0.99070875348E+03  0.25500000920E-02 0. -1.
       -2    1    3    3    0  502  0.23562065629E+03  0.64539181335E+03  0.15342000871E+04  0.16810168332E+04  0.25500000920E-02 0.  1.
</event>
<event>
 5   0  0.1449521E-05  0.2683647E+04  0.7818609E-02  0.8340330E-01
        1   -1    0    0  501    0  0.00000000000E+00  0.00000000000E+00  0.17929038797E+04  0.17929038797E+04  0.50400001928E-02 0. -1.
       -1   -1    0    0    0  501  0.00000000000E+00  0.00000000000E+00 -0.10042314939E+04  0.10042314939E+04  0.50400001928E-02 0.  1.
    10030    2    1    2    0    0  0.00000000000E+00  0.00000000000E+00  0.78867238578E+03  0.27971353735E+04  0.26836471761E+04 0.  0.
        3    1    3    3  502    0  0.19117446012E+03 -0.33462128207E+02  0.17781970950E+04  0.17887571962E+04  0.10100000352E+00 0. -1.
       -3    1    3    3    0  502 -0.19117446012E+03  0.33462128207E+02 -0.98952470919E+03  0.10083781773E+04  0.10100000352E+00 0.  1.
</event>
<event>
 5   0  0.3514294E-05  0.2686881E+04  0.7818609E-02  0.8339274E-01
       -2   -1    0    0    0  501  0.00000000000E+00  0.00000000000E+00  0.19670231332E+04  0.19670231332E+04  0.25500000920E-02 0.  1.
        2   -1    0    0  501    0  0.00000000000E+00  0.00000000000E+00 -0.91754474968E+03  0.91754474969E+03  0.25500000920E-02 0. -1.
    10030    2    1    2    0    0  0.00000000000E+00  0.00000000000E+00  0.10494783835E+04  0.28845678828E+04  0.26868805320E+04 0.  0.
        2    1    3    3  502    0 -0.33187307456E+03  0.67982569814E+03 -0.66713656404E+03  0.10086495489E+04  0.25500000920E-02 0. -1.
       -2    1    3    3    0  502  0.33187307456E+03 -0.67982569814E+03  0.17166149475E+04  0.18759183339E+04  0.25500000920E-02 0.  1.
</event>
<event>
 5   0  0.1495517E-05  0.2672465E+04  0.7818609E-02  0.8343995E-01
       -1   -1    0    0    0  501  0.00000000000E+00  0.00000000000E+00  0.92298596654E+03  0.92298596656E+03  0.50400001928E-02 0. -1.
        1   -1    0    0  501    0  0.00000000000E+00  0.00000000000E+00 -0.19345007000E+04  0.19345007000E+04  0.50400001928E-02 0.  1.
    10030    2    1    2    0    0  0.00000000000E+00  0.00000000000E+00 -0.10115147334E+04  0.28574866665E+04  0.26724647787E+04 0.  0.
        5    1    3    3  502    0  0.12155710541E+04  0.55503860177E+02  0.84553242855E+02  0.12197807208E+04  0.46999998093E+01 0. -1.
       -5    1    3    3    0  502 -0.12155710541E+04 -0.55503860177E+02 -0.10960679763E+04  0.16377059457E+04  0.46999998093E+01 0.  1.
</event>
<event>
 5   0  0.1438701E-05  0.2706259E+04  0.7818609E-02  0.8332977E-01
       -1   -1    0    0    0  501  0.00000000000E+00  0.00000000000E+00  0.10140564053E+04  0.10140564054E+04  0.50400001928E-02 0. -1.
        1   -1    0    0  501    0  0.00000000000E+00  0.00000000000E+00 -0.18055797387E+04  0.18055797387E+04  0.50400001928E-02 0.  1.
    10030    2    1    2    0    0  0.00000000000E+00  0.00000000000E+00 -0.79152333339E+03  0.28196361441E+04  0.27062591890E+04 0.  0.
        4    1    3    3  502    0  0.10625144701E+04  0.69653423363E+03  0.89431368044E+02  0.12736155308E+04  0.12699999809E+01 0.  1.
       -4    1    3    3    0  502 -0.10625144701E+04 -0.69653423363E+03 -0.88095470144E+03  0.15460206133E+04  0.12699999809E+01 0. -1.
</event>
<event>
 5   0  0.3568647E-05  0.2648054E+04  0.7818609E-02  0.8352059E-01
       -2   -1    0    0    0  501  0.00000000000E+00  0.00000000000E+00  0.25167687406E+04  0.25167687407E+04  0.25500000920E-02 0. -1.
        2   -1    0    0  501    0  0.00000000000E+00  0.00000000000E+00 -0.69654698969E+03  0.69654698969E+03  0.25500000920E-02 0.  1.
    10030    2    1    2    0    0  0.00000000000E+00  0.00000000000E+00  0.18202217510E+04  0.32133157303E+04  0.26480541460E+04 0.  0.
        3    1    3    3  502    0  0.82273287343E+03 -0.46712279632E+03 -0.21386940142E+03  0.96996557616E+03  0.10100000352E+00 0.  1.
       -3    1    3    3    0  502 -0.82273287343E+03  0.46712279632E+03  0.20340911524E+04  0.22433501542E+04  0.10100000352E+00 0. -1.
</event>
<event>
 5   0  0.1449521E-05  0.2570836E+04  0.7818609E-02  0.8378175E-01
       -1   -1    0    0    0  501  0.00000000000E+00  0.00000000000E+00  0.71936741697E+03  0.71936741698E+03  0.50400001928E-02 0.  1.
        1   -1    0    0  501    0  0.00000000000E+00  0.00000000000E+00 -0.22968789424E+04  0.22968789424E+04  0.50400001928E-02 0. -1.
    10030    2    1    2    0    0  0.00000000000E+00  0.00000000000E+00 -0.15775115254E+04  0.30162463594E+04  0.25708363401E+04 0.  0.
        3    1    3    3  502    0  0.34957607821E+03  0.29913156216E+03 -0.21969631178E+04  0.22446224798E+04  0.10100000352E+00 0. -1.
       -3    1    3    3    0  502 -0.34957607821E+03 -0.29913156216E+03  0.61945159238E+03  0.77162387951E+03  0.10100000352E+00 0.  1.
</event>
<event>
 5   0  0.1474012E-05  0.2681236E+04  0.7818609E-02  0.8341119E-01
        1   -1    0    0  501    0  0.00000000000E+00  0.00000000000E+00  0.19937330876E+04  0.19937330876E+04  0.50400001928E-02 0. -1.
       -1   -1    0    0    0  501  0.00000000000E+00  0.00000000000E+00 -0.90145300263E+03  0.90145300264E+03  0.50400001928E-02 0.  1.
    10030    2    1    2    0    0  0.00000000000E+00  0.00000000000E+00  0.10922800850E+04  0.28951860903E+04  0.26812360421E+04 0.  0.
        2    1    3    3  502    0  0.64624820015E+03 -0.19851837428E+03  0.17961916021E+04  0.19192057088E+04  0.25500000920E-02 0. -1.
       -2    1    3    3    0  502 -0.64624820015E+03  0.19851837428E+03 -0.70391151711E+03  0.97598038149E+03  0.25500000920E-02 0.  1.
</event>
<event>
 5   0  0.1474012E-05  0.2578948E+04  0.7818609E-02  0.8375388E-01
        1   -1    0    0  501    0  0.00000000000E+00  0.00000000000E+00  0.21584057767E+04  0.21584057767E+04  0.50400001928E-02 0.  1.
       -1   -1    0    0    0  501  0.00000000000E+00  0.00000000000E+00 -0.77035683541E+03  0.77035683542E+03  0.50400001928E-02 0. -1.
    10030    2    1    2    0    0  0.00000000000E+00  0.00000000000E+00  0.13880489413E+04  0.29287626121E+04  0.25789475712E+04 0.  0.
        2    1    3    3  502    0 -0.42383020629E+03 -0.66904028505E+02  0.20749557565E+04  0.21188557252E+04  0.25500000920E-02 0.  1.
       -2    1    3    3    0  502  0.42383020629E+03  0.66904028505E+02 -0.68690681518E+03  0.80990688696E+03  0.25500000920E-02 0. -1.
</event>
<event>
 5   0  0.3676724E-05  0.2749180E+04  0.7818609E-02  0.8319222E-01
       -2   -1    0    0    0  501  0.00000000000E+00  0.00000000000E+00  0.16226364586E+04  0.16226364586E+04  0.25500000920E-02 0.  1.
        2   -1    0    0  501    0  0.00000000000E+00  0.00000000000E+00 -0.11644618307E+04  0.11644618307E+04  0.25500000920E-02 0. -1.
    10030    2    1    2    0    0  0.00000000000E+00  0.00000000000E+00  0.45817462795E+03  0.27870982893E+04  0.27491804023E+04 0.  0.
        4    1    3    3  502    0 -0.12224456159E+04  0.22852782482E+02  0.86592415187E+03  0.14982395613E+04  0.12699999809E+01 0.  1.
       -4    1    3    3    0  502  0.12224456159E+04 -0.22852782482E+02 -0.40774952392E+03  0.12888587280E+04  0.12699999809E+01 0. -1.
</event>
<event>
 5   0  0.1438701E-05  0.2713641E+04  0.7818609E-02  0.8330592E-01
        1   -1    0    0  501    0  0.00000000000E+00  0.00000000000E+00  0.15952920915E+04  0.15952920915E+04  0.50400001928E-02 0.  1.
       -1   -1    0    0    0  501  0.00000000000E+00  0.00000000000E+00 -0.11539970103E+04  0.11539970103E+04  0.50400001928E-02 0. -1.
    10030    2    1    2    0    0  0.00000000000E+00  0.00000000000E+00  0.44129508123E+03  0.27492891018E+04  0.27136413206E+04 0.  0.
        4    1    3    3  502    0 -0.87041037160E+03 -0.26239061014E+03 -0.79980659081E+03  0.12108489761E+04  0.12699999809E+01 0.  1.
       -4    1    3    3    0  502  0.87041037160E+03  0.26239061014E+03  0.12411016720E+04  0.15384401257E+04  0.12699999809E+01 0. -1.
</event>
<event>
 5   0  0.1484379E-05  0.2692066E+04  0.7818609E-02  0.8337584E-01
        1   -1    0    0  501    0  0.00000000000E+00  0.00000000000E+00  0.19090119348E+04  0.19090119348E+04  0.50400001928E-02 0.  1.
       -1   -1    0    0    0  501  0.00000000000E+00  0.00000000000E+00 -0.94907962720E+03  0.94907962721E+03  0.50400001928E-02 0. -1.
    10030    2    1    2    0    0  0.00000000000E+00  0.00000000000E+00  0.95993230758E+03  0.28580915620E+04  0.26920656273E+04 0.  0.
        1    1    3    3  502    0  0.61262368921E+03  0.10967665773E+04 -0.33162853549E+02  0.12567038173E+04  0.50400001928E-02 0. -1.
       -1    1    3    3    0  502 -0.61262368921E+03 -0.10967665773E+04  0.99309516113E+03  0.16013877447E+04  0.50400001928E-02 0.  1.
</event>
<event>
 5   0  0.3497949E-05  0.2640045E+04  0.7818609E-02  0.8354725E-01
        2   -1    0    0  501    0  0.00000000000E+00  0.00000000000E+00  0.72103856743E+03  0.72103856743E+03  0.25500000920E-02 0. -1.
       -2   -1    0    0    0  501  0.00000000000E+00  0.00000000000E+00 -0.24165969342E+04  0.24165969342E+04  0.25500000920E-02 0.  1.
    10030    2    1    2    0    0  0.00000000000E+00  0.00000000000E+00 -0.16955583668E+04  0.31376355016E+04  0.26400451447E+04 0.  0.
        5    1    3    3  502    0 -0.55044978120E+03  0.11304564469E+04 -0.13254094828E+04  0.18269261417E+04  0.46999998093E+01 0.  1.
       -5    1    3    3    0  502  0.55044978120E+03 -0.11304564469E+04 -0.37014888396E+03  0.13107093600E+04  0.46999998093E+01 0. -1.
</event>
<event>
 5   0  0.3652331E-05  0.2670292E+04  0.7818609E-02  0.8344709E-01
       -2   -1    0    0    0  501  0.00000000000E+00  0.00000000000E+00  0.14253317862E+04  0.14253317862E+04  0.25500000920E-02 0. -1.
        2   -1    0    0  501    0  0.00000000000E+00  0.00000000000E+00 -0.12506665892E+04  0.12506665892E+04  0.25500000920E-02 0.  1.
    10030    2    1    2    0    0  0.00000000000E+00  0.00000000000E+00  0.17466519704E+03  0.26759983754E+04  0.26702920016E+04 0.  0.
        1    1    3    3  502    0 -0.12018619005E+04  0.56727223727E+03  0.21545346831E+03  0.13463617701E+04  0.50400001928E-02 0.  1.
       -1    1    3    3    0  502  0.12018619005E+04 -0.56727223727E+03 -0.40788271270E+02  0.13296366053E+04  0.50400001928E-02 0. -1.
</event>
<event>
 5   0  0.3652331E-05  0.2672731E+04  0.7818609E-02  0.8343907E-01
        2   -1    0    0  501    0  0.00000000000E+00  0.00000000000E+00  0.15523051964E+04  0.15523051964E+04  0.25500000920E-02 0. -1.
       -2   -1    0    0    0  501  0.00000000000E+00  0.00000000000E+00 -0.11504651487E+04  0.11504651487E+04  0.25500000920E-02 0.  1.
    10030    2    1    2    0    0  0.00000000000E+00  0.00000000000E+00  0.40184004766E+03  0.27027703451E+04  0.26727312088E+04 0.  0.
        1    1    3    3  502    0 -0.87081319510E+03 -0.65242558630E+03 -0.58362054328E+03  0.12347419589E+04  0.50400001928E-02 0.  1.
       -1    1    3    3    0  502  0.87081319510E+03  0.65242558630E+03  0.98546059094E+03  0.14680283862E+04  0.50400001928E-02 0. -1.
</event>
<event>
 5   0  0.1449521E-05  0.2682085E+04  0.7818609E-02  0.8340841E-01
        1   -1    0    0  501    0  0.00000000000E+00  0.00000000000E+00  0.13538877202E+04  0.13538877202E+04  0.50400001928E-02 0. -1.
       -1   -1    0    0    0  501  0.00000000000E+00  0.00000000000E+00 -0.13283187260E+04  0.13283187260E+04  0.50400001928E-02 0.  1.
    10030    2    1    2    0    0  0.00000000000E+00  0.00000000000E+00  0.25568994191E+02  0.26822064462E+04  0.26820845711E+04 0.  0.
        3    1    3    3  502    0  0.52716276228E+03 -0.10810514895E+04 -0.58038788530E+03  0.13354486169E+04  0.10100000352E+00 0.  1.
       -3    1    3    3    0  502 -0.52716276228E+03  0.10810514895E+04  0.60595687949E+03  0.13467578293E+04  0.10100000352E+00 0. -1.
</event>
<event>
 5   0  0.3497949E-05  0.2744035E+04  0.7818609E-02  0.8320857E-01
        2   -1    0    0  501    0  0.00000000000E+00  0.00000000000E+00  0.15545151374E+04  0.15545151374E+04  0.25500000920E-02 0.  1.
       -2   -1    0    0    0  501  0.00000000000E+00  0.00000000000E+00 -0.12109448872E+04  0.12109448872E+04  0.25500000920E-02 0. -1.
    10030    2    1    2    0    0  0.00000000000E+00  0.00000000000E+00  0.34357025016E+03  0.27654600245E+04  0.27440351001E+04 0.  0.
        5    1    3    3  502    0 -0.14031396664E+03 -0.29100107772E+02  0.15469444282E+04  0.15535745812E+04  0.46999998093E+01 0.  1.
       -5    1    3    3    0  502  0.14031396664E+03  0.29100107772E+02 -0.12033741780E+04  0.12118854433E+04  0.46999998093E+01 0. -1.
</event>
<event>
 5   0  0.3514294E-05  0.2683920E+04  0.7818609E-02  0.8340241E-01
       -2   -1    0    0    0  501  0.00000000000E+00  0.00000000000E+00  0.89486964667E+03  0.89486964667E+03  0.25500000920E-02 0.  1.
        2   -1    0    0  501    0  0.00000000000E+00  0.00000000000E+00 -0.20124236837E+04  0.20124236837E+04  0.25500000920E-02 0. -1.
    10030    2    1    2    0    0  0.00000000000E+00  0.00000000000E+00 -0.11175540371E+04  0.29072933304E+04  0.26839201708E+04 0.  0.
        2    1    3    3  502    0 -0.52847123056E+03 -0.11319912647E+04 -0.10896362396E+04  0.16577072116E+04  0.25500000920E-02 0.  1.
       -2    1    3    3    0  502  0.52847123056E+03  0.11319912647E+04 -0.27917797442E+02  0.12495861188E+04  0.25500000920E-02 0. -1.
</event>
<event>
 5   0  0.1495517E-05  0.2652605E+04  0.7818609E-02  0.8350549E-01
       -1   -1    0    0    0  501  0.00000000000E+00  0.00000000000E+00  0.62052971132E+03  0.62052971134E+03  0.50400001928E-02 0. -1.
        1   -1    0    0  501    0  0.00000000000E+00  0.00000000000E+00 -0.28348019590E+04  0.28348019590E+04  0.50400001928E-02 0.  1.
    10030    2    1    2    0    0  0.00000000000E+00  0.00000000000E+00 -0.22142722477E+04  0.34553316704E+04  0.26526053919E+04 0.  0.
        5    1    3    3  502    0  0.32587796002E+03 -0.12764338501E+04 -0.13071502859E+04  0.18558404506E+04  0.46999998093E+01 0.  1.
       -5    1    3    3    0  502 -0.32587796002E+03  0.12764338501E+04 -0.90712196183E+03  0.15994912197E+04  0.46999998093E+01 0. -1.
</event>
<event>
 5   0  0.3652331E-05  0.2695400E+04  0.7818609E-02  0.8336499E-01
       -2   -1    0    0    0  501  0.00000000000E+00  0.00000000000E+00  0.10496140119E+04  0.10496140119E+04  0.25500000920E-02 0.  1.
        2   -1    0    0  501    0  0.00000000000E+00  0.00000000000E+00 -0.17304413031E+04  0.17304413031E+04  0.25500000920E-02 0. -1.
    10030    2    1    2    0    0  0.00000000000E+00  0.00000000000E+00 -0.68082729121E+03  0.27800553149E+04  0.26954001101E+04 0.  0.
        1    1    3    3  502    0 -0.17609749995E+03  0.13336413330E+04 -0.25607817883E+03  0.13693741521E+04  0.50400001928E-02 0. -1.
       -1    1    3    3    0  502  0.17609749995E+03 -0.13336413330E+04 -0.42474911238E+03  0.14106811628E+04  0.50400001928E-02 0.  1.
</event>
<event>
 5   0  0.3676724E-05  0.2661619E+04  0.7818609E-02  0.8347567E-01
       -2   -1    0    0    0  501  0.00000000000E+00  0.00000000000E+00  0.99827040400E+03  0.99827040400E+03  0.25500000920E-02 0.  1.
        2   -1    0    0  501    0  0.00000000000E+00  0.00000000000E+00 -0.17741230221E+04  0.17741230221E+04  0.25500000920E-02 0. -1.
    10030    2    1    2    0    0  0.00000000000E+00  0.00000000000E+00 -0.77585261808E+03  0.27723934261E+04  0.26616194364E+04 0.  0.
        4    1    3    3  502    0  0.62101557884E+01 -0.84037050192E+03  0.68690730301E+03  0.10854051789E+04  0.12699999809E+01 0.  1.
       -4    1    3    3    0  502 -0.62101557884E+01  0.84037050192E+03 -0.14627599211E+04  0.16869882472E+04  0.12699999809E+01 0. -1.
</event>
<event>
 5   0  0.3652331E-05  0.2696077E+04  0.7818609E-02  0.8336279E-01
        2   -1    0    0  501    0  0.00000000000E+00  0.00000000000E+00  0.11564506524E+04  0.11564506524E+04  0.25500000920E-02 0. -1.
       -2   -1    0    0    0  501  0.00000000000E+00  0.00000000000E+00 -0.15713662576E+04  0.15713662576E+04  0.25500000920E-02 0.  1.
    10030    2    1    2    0    0  0.00000000000E+00  0.00000000000E+00 -0.41491560525E+03  0.27278169100E+04  0.26960768044E+04 0.  0.
        1    1    3    3  502    0 -0.10115354716E+04  0.82941805350E+03  0.12205905440E+03  0.13137871710E+04  0.50400001928E-02 0. -1.
       -1    1    3    3    0  502  0.10115354716E+04 -0.82941805350E+03 -0.53697465965E+03  0.14140297391E+04  0.50400001928E-02 0.  1.
</event>
<event>
 5   0  0.3514294E-05  0.1688302E+04  0.7818609E-02  0.8768065E-01
       -2   -1    0    0    0  501  0.00000000000E+00  0.00000000000E+00  0.82630079247E+03  0.82630079247E+03  0.25500000920E-02 0. -1.
        2   -1    0    0  501    0  0.00000000000E+00  0.00000000000E+00 -0.86238656074E+03  0.86238656074E+03  0.25500000920E-02 0.  1.
    10030    2    1    2    0    0  0.00000000000E+00  0.00000000000E+00 -0.36085768272E+02  0.16886873532E+04  0.16883017486E+04 0.  0.
        2    1    3    3  502    0  0.15308232511E+02  0.27108740630E+03  0.78143184361E+03  0.82725960257E+03  0.25500000920E-02 0. -1.
       -2    1    3    3    0  502 -0.15308232511E+02 -0.27108740630E+03 -0.81751761188E+03  0.86142775064E+03  0.25500000920E-02 0.  1.
</event>
<event>
 5   0  0.1474012E-05  0.2696059E+04  0.7818609E-02  0.8336285E-01
       -1   -1    0    0    0  501  0.00000000000E+00  0.00000000000E+00  0.11032215966E+04  0.11032215966E+04  0.50400001928E-02 0.  1.
        1   -1    0    0  501    0  0.00000000000E+00  0.00000000000E+00 -0.16471612059E+04  0.16471612059E+04  0.50400001928E-02 0. -1.
    10030    2    1    2    0    0  0.00000000000E+00  0.00000000000E+00 -0.54393960938E+03  0.27503828025E+04  0.26960592096E+04 0.  0.
        2    1    3    3  502    0  0.11863449132E+04  0.45738266217E+03  0.18490522521E+03  0.12848358242E+04  0.25500000920E-02 0.  1.
       -2    1    3    3    0  502 -0.11863449132E+04 -0.45738266217E+03 -0.72884483459E+03  0.14655469783E+04  0.25500000920E-02 0. -1.
</event>
<event>
 5   0  0.1474012E-05  0.2722968E+04  0.7818609E-02  0.8327591E-01
        1   -1    0    0  501    0  0.00000000000E+00  0.00000000000E+00  0.24141027420E+04  0.24141027420E+04  0.50400001928E-02 0. -1.
       -1   -1    0    0    0  501  0.00000000000E+00  0.00000000000E+00 -0.76783756574E+03  0.76783756576E+03  0.50400001928E-02 0.  1.
    10030    2    1    2    0    0  0.00000000000E+00  0.00000000000E+00  0.16462651762E+04  0.31819403077E+04  0.27229680666E+04 0.  0.
        2    1    3    3  502    0 -0.80015005216E+03 -0.49799355165E+03 -0.32502994865E+03  0.99693638261E+03  0.25500000920E-02 0.  1.
       -2    1    3    3    0  502  0.80015005216E+03  0.49799355165E+03  0.19712951249E+04  0.21850039251E+04  0.25500000920E-02 0. -1.
</event>
<event>
 5   0  0.3652331E-05  0.2707810E+04  0.7818609E-02  0.8332475E-01
       -2   -1    0    0    0  501  0.00000000000E+00  0.00000000000E+00  0.17336119165E+04  0.17336119165E+04  0.25500000920E-02 0.  1.
        2   -1    0    0  501    0  0.00000000000E+00  0.00000000000E+00 -0.10573641957E+04  0.10573641957E+04  0.25500000920E-02 0. -1.
    10030    2    1    2    0    0  0.00000000000E+00  0.00000000000E+00  0.67624772080E+03  0.27909761122E+04  0.27078103107E+04 0.  0.
        1    1    3    3  502    0 -0.96074559867E+03 -0.92218583886E+03  0.58975376981E+03  0.14564574610E+04  0.50400001928E-02 0.  1.
       -1    1    3    3    0  502  0.96074559867E+03  0.92218583886E+03  0.86493950993E+02  0.13345186512E+04  0.50400001928E-02 0. -1.
</event>
<event>
 5   0  0.1484379E-05  0.2680241E+04  0.7818609E-02  0.8341445E-01
        1   -1    0    0  501    0  0.00000000000E+00  0.00000000000E+00  0.12420754557E+04  0.12420754557E+04  0.50400001928E-02 0. -1.
       -1   -1    0    0    0  501  0.00000000000E+00  0.00000000000E+00 -0.14459045714E+04  0.14459045714E+04  0.50400001928E-02 0.  1.
    10030    2    1    2    0    0  0.00000000000E+00  0.00000000000E+00 -0.20382911576E+03  0.26879800271E+04  0.26802407201E+04 0.  0.
        1    1    3    3  502    0 -0.11072822486E+04  0.58352578869E+03 -0.58219849602E+03  0.13804098714E+04  0.50400001928E-02 0. -1.
       -1    1    3    3    0  502  0.11072822486E+04 -0.58352578869E+03  0.37836938025E+03  0.13075701557E+04  0.50400001928E-02 0.  1.
</event>
<event>
 5   0  0.1495517E-05  0.2614132E+04  0.7818609E-02  0.8363417E-01
       -1   -1    0    0    0  501  0.00000000000E+00  0.00000000000E+00  0.74443485104E+03  0.74443485105E+03  0.50400001928E-02 0.  1.
        1   -1    0    0  501    0  0.00000000000E+00  0.00000000000E+00 -0.22949241122E+04  0.22949241122E+04  0.50400001928E-02 0. -1.
    10030    2    1    2    0    0  0.00000000000E+00  0.00000000000E+00 -0.15504892612E+04  0.30393589633E+04  0.26141319704E+04 0.  0.
        5    1    3    3  502    0  0.64426605873E+03 -0.10011762188E+04 -0.14808770293E+03  0.11997435698E+04  0.46999998093E+01 0.  1.
       -5    1    3    3    0  502 -0.64426605873E+03  0.10011762188E+04 -0.14024015582E+04  0.18396153935E+04  0.46999998093E+01 0. -1.
</event>
<event>
 5   0  0.3568647E-05  0.2388515E+04  0.7818609E-02  0.8443816E-01
        2   -1    0    0  501    0  0.00000000000E+00  0.00000000000E+00  0.17816954265E+04  0.17816954265E+04  0.25500000920E-02 0. -1.
       -2   -1    0    0    0  501  0.00000000000E+00  0.00000000000E+00 -0.80050183686E+03  0.80050183687E+03  0.25500000920E-02 0.  1.
    10030    2    1    2    0    0  0.00000000000E+00  0.00000000000E+00  0.98119358959E+03  0.25821972633E+04  0.23885145690E+04 0.  0.
        3    1    3    3  502    0  0.26272442150E+02 -0.38710190028E+03 -0.73046571752E+03  0.82711444014E+03  0.10100000352E+00 0.  1.
       -3    1    3    3    0  502 -0.26272442150E+02  0.38710190028E+03  0.17116593071E+04  0.17550828232E+04  0.10100000352E+00 0. -1.
</event>
<event>
 5   0  0.1438701E-05  0.2426090E+04  0.7818609E-02  0.8429800E-01
       -1   -1    0    0    0  501  0.00000000000E+00  0.00000000000E+00  0.24069223618E+04  0.24069223619E+04  0.50400001928E-02 0.  1.
        1   -1    0    0  501    0  0.00000000000E+00  0.00000000000E+00 -0.61135232227E+03  0.61135232229E+03  0.50400001928E-02 0. -1.
    10030    2    1    2    0    0  0.00000000000E+00  0.00000000000E+00  0.17955700396E+04  0.30182746841E+04  0.24260895082E+04 0.  0.
        4    1    3    3  502    0 -0.89927058981E+03 -0.64337274056E+03  0.27715984246E+03  0.11399277469E+04  0.12699999809E+01 0. -1.
       -4    1    3    3    0  502  0.89927058981E+03  0.64337274056E+03  0.15184101971E+04  0.18783469372E+04  0.12699999809E+01 0.  1.
</event>
<event>
 5   0  0.3514294E-05  0.2335007E+04  0.7818609E-02  0.8464245E-01
       -2   -1    0    0    0  501  0.00000000000E+00  0.00000000000E+00  0.64437665627E+03  0.64437665628E+03  0.25500000920E-02 0. -1.
        2   -1    0    0  501    0  0.00000000000E+00  0.00000000000E+00 -0.21153225761E+04  0.21153225761E+04  0.25500000920E-02 0.  1.
    10030    2    1    2    0    0  0.00000000000E+00  0.00000000000E+00 -0.14709459198E+04  0.27596992324E+04  0.23350070565E+04 0.  0.
        2    1    3    3  502    0  0.99601747423E+03 -0.19512408527E+03 -0.14174295329E+04  0.17433389511E+04  0.25500000920E-02 0.  1.
       -2    1    3    3    0  502 -0.99601747423E+03  0.19512408527E+03 -0.53516386870E+02  0.10163602812E+04  0.25500000920E-02 0. -1.
</event>
<event>
 5   0  0.1438701E-05  0.2667357E+04  0.7818609E-02  0.8345675E-01
       -1   -1    0    0    0  501  0.00000000000E+00  0.00000000000E+00  0.12570842078E+04  0.12570842078E+04  0.50400001928E-02 0. -1.
        1   -1    0    0  501    0  0.00000000000E+00  0.00000000000E+00 -0.14149394649E+04  0.14149394649E+04  0.50400001928E-02 0.  1.
    10030    2    1    2    0    0  0.00000000000E+00  0.00000000000E+00 -0.15785525712E+03  0.26720236727E+04  0.26673567863E+04 0.  0.
        4    1    3    3  502    0  0.56921133452E+03 -0.10397912976E+04 -0.69116710424E+03  0.13721811341E+04  0.12699999809E+01 0.  1.
       -4    1    3    3    0  502 -0.56921133452E+03  0.10397912976E+04  0.53331184712E+03  0.12998425386E+04  0.12699999809E+01 0. -1.
</event>
<event>
 5   0  0.1484379E-05  0.2656135E+04  0.7818609E-02  0.8349380E-01
        1   -1    0    0  501    0  0.00000000000E+00  0.00000000000E+00  0.17189600153E+04  0.17189600153E+04  0.50400001928E-02 0.  1.
       -1   -1    0    0    0  501  0.00000000000E+00  0.00000000000E+00 -0.10260643088E+04  0.10260643088E+04  0.50400001928E-02 0. -1.
    10030    2    1    2    0    0  0.00000000000E+00  0.00000000000E+00  0.69289570653E+03  0.27450243241E+04  0.26561351773E+04 0.  0.
        1    1    3    3  502    0 -0.13718845069E+03 -0.43063240555E+03  0.16370385063E+04  0.16982814875E+04  0.50400001928E-02 0.  1.
       -1    1    3    3    0  502  0.13718845069E+03  0.43063240555E+03 -0.94414279974E+03  0.10467428366E+04  0.50400001928E-02 0. -1.
</event>
<event>
 5   0  0.3497949E-05  0.2602489E+04  0.7818609E-02  0.8367356E-01
       -2   -1    0    0    0  501  0.00000000000E+00  0.00000000000E+00  0.84546127070E+03  0.84546127070E+03  0.25500000920E-02 0. -1.
        2   -1    0    0  501    0  0.00000000000E+00  0.00000000000E+00 -0.20027372504E+04  0.20027372504E+04  0.25500000920E-02 0.  1.
    10030    2    1    2    0    0  0.00000000000E+00  0.00000000000E+00 -0.11572759797E+04  0.28481985211E+04  0.26024886402E+04 0.  0.
        5    1    3    3  502    0  0.26853930380E+03 -0.12474068237E+04 -0.85782615749E+03  0.15375386005E+04  0.46999998093E+01 0. -1.
       -5    1    3    3    0  502 -0.26853930380E+03  0.12474068237E+04 -0.29944982221E+03  0.13106599206E+04  0.46999998093E+01 0.  1.
</event>
<event>
 5   0  0.1449521E-05  0.2693128E+04  0.7818609E-02  0.8337238E-01
       -1   -1    0    0    0  501  0.00000000000E+00  0.00000000000E+00  0.14471497373E+04  0.14471497373E+04  0.50400001928E-02 0.  1.
        1   -1    0    0  501    0  0.00000000000E+00  0.00000000000E+00 -0.12529692898E+04  0.12529692898E+04  0.50400001928E-02 0. -1.
    10030    2    1    2    0    0  0.00000000000E+00  0.00000000000E+00  0.19418044749E+03  0.27001190272E+04  0.26931276826E+04 0.  0.
        3    1    3    3  502    0 -0.90357357603E+03 -0.94879413302E+03  0.40866804787E+03  0.13724667929E+04  0.10100000352E+00 0.  1.
       -3    1    3    3    0  502  0.90357357603E+03  0.94879413302E+03 -0.21448760037E+03  0.13276522342E+04  0.10100000352E+00 0. -1.
</event>
<event>
 5   0  0.1449521E-05  0.2830191E+04  0.7818609E-02  0.8293956E-01
        1   -1    0    0  501    0  0.00000000000E+00  0.00000000000E+00  0.24669963665E+04  0.24669963665E+04  0.50400001928E-02 0.  1.
       -1   -1    0    0    0  501  0.00000000000E+00  0.00000000000E+00 -0.81171415025E+03  0.81171415026E+03  0.50400001928E-02 0. -1.
    10030    2    1    2    0    0  0.00000000000E+00  0.00000000000E+00  0.16552822163E+04  0.32787105168E+04  0.28301914136E+04 0.  0.
        3    1    3    3  502    0 -0.70436110523E+03  0.12249347206E+04  0.73860999386E+03  0.15944072157E+04  0.10100000352E+00 0. -1.
       -3    1    3    3    0  502  0.70436110523E+03 -0.12249347206E+04  0.91667222239E+03  0.16843033010E+04  0.10100000352E+00 0.  1.
</event>
<event>
 5   0  0.3514294E-05  0.2815669E+04  0.7818609E-02  0.8298420E-01
        2   -1    0    0  501    0  0.00000000000E+00  0.00000000000E+00  0.18506062937E+04  0.18506062937E+04  0.25500000920E-02 0. -1.
       -2   -1    0    0    0  501  0.00000000000E+00  0.00000000000E+00 -0.10709994563E+04  0.10709994563E+04  0.25500000920E-02 0.  1.
    10030    2    1    2    0    0  0.00000000000E+00  0.00000000000E+00  0.77960683740E+03  0.29216057501E+04  0.28156692522E+04 0.  0.
        2    1    3    3  502    0 -0.12114640072E+04 -0.50562738443E+03 -0.13795279251E+03  0.13199754034E+04  0.25500000920E-02 0.  1.
       -2    1    3    3    0  502  0.12114640072E+04  0.50562738443E+03  0.91755962991E+03  0.16016303466E+04  0.25500000920E-02 0. -1.
</event>
<event>
 5   0  0.3676724E-05  0.2679125E+04  0.7818609E-02  0.8341810E-01
        2   -1    0    0  501    0  0.00000000000E+00  0.00000000000E+00  0.85684912036E+03  0.85684912037E+03  0.25500000920E-02 0.  1.
       -2   -1    0    0    0  501  0.00000000000E+00  0.00000000000E+00 -0.20942162980E+04  0.20942162980E+04  0.25500000920E-02 0. -1.
    10030    2    1    2    0    0  0.00000000000E+00  0.00000000000E+00 -0.12373671776E+04  0.29510654183E+04  0.26791247771E+04 0.  0.
        4    1    3    3  502    0  0.44656591647E+03 -0.36970694792E+03  0.71150287998E+03  0.91779208223E+03  0.12699999809E+01 0.  1.
       -4    1    3    3    0  502 -0.44656591647E+03  0.36970694792E+03 -0.19488700576E+04  0.20332733361E+04  0.12699999809E+01 0. -1.
</event>
<event>
 5   0  0.1449521E-05  0.2684535E+04  0.7818609E-02  0.8340040E-01
       -1   -1    0    0    0  501  0.00000000000E+00  0.00000000000E+00  0.11764181760E+04  0.11764181760E+04  0.50400001928E-02 0. -1.
        1   -1    0    0  501    0  0.00000000000E+00  0.00000000000E+00 -0.15314975559E+04  0.15314975559E+04  0.50400001928E-02 0.  1.
    10030    2    1    2    0    0  0.00000000000E+00  0.00000000000E+00 -0.35507937987E+03  0.27079157319E+04  0.26845346422E+04 0.  0.
        3    1    3    3  502    0 -0.63971181993E+03  0.39800018169E+03  0.94301186132E+03  0.12070239177E+04  0.10100000352E+00 0. -1.
       -3    1    3    3    0  502  0.63971181993E+03 -0.39800018169E+03 -0.12980912412E+04  0.15008918142E+04  0.10100000352E+00 0.  1.
</event>
<event>
 5   0  0.3514294E-05  0.1670241E+04  0.7818609E-02  0.8778521E-01
       -2   -1    0    0    0  501  0.00000000000E+00  0.00000000000E+00  0.38798290141E+03  0.38798290142E+03  0.25500000920E-02 0.  1.
        2   -1    0    0  501    0  0.00000000000E+00  0.00000000000E+00 -0.17975699591E+04  0.17975699591E+04  0.25500000920E-02 0. -1.
    10030    2    1    2    0    0  0.00000000000E+00  0.00000000000E+00 -0.14095870577E+04  0.21855528606E+04  0.16702411901E+04 0.  0.
        2    1    3    3  502    0  0.29880131118E+03  0.23418814755E+03  0.26854182471E+03  0.46501722940E+03  0.25500000920E-02 0.  1.
       -2    1    3    3    0  502 -0.29880131118E+03 -0.23418814755E+03 -0.16781288824E+04  0.17205356312E+04  0.25500000920E-02 0. -1.
</event>
<event>
 5   0  0.3676724E-05  0.1769975E+04  0.7818609E-02  0.8722431E-01
        2   -1    0    0  501    0  0.00000000000E+00  0.00000000000E+00  0.64875344463E+03  0.64875344463E+03  0.25500000920E-02 0. -1.
       -2   -1    0    0    0  501  0.00000000000E+00  0.00000000000E+00 -0.12072425646E+04  0.12072425646E+04  0.25500000920E-02 0.  1.
    10030    2    1    2    0    0  0.00000000000E+00  0.00000000000E+00 -0.55848911994E+03  0.18559960092E+04  0.17699748837E+04 0.  0.
        4    1    3    3  502    0  0.20550080865E+03  0.69939727758E+03 -0.80544340669E+03  0.10863368854E+04  0.12699999809E+01 0.  1.
       -4    1    3    3    0  502 -0.20550080865E+03 -0.69939727758E+03  0.24695428675E+03  0.76965912383E+03  0.12699999809E+01 0. -1.
</event>
<event>
 5   0  0.3568647E-05  0.2906178E+04  0.7818609E-02  0.8271042E-01
       -2   -1    0    0    0  501  0.00000000000E+00  0.00000000000E+00  0.27117352176E+04  0.27117352176E+04  0.25500000920E-02 0. -1.
        2   -1    0    0  501    0  0.00000000000E+00  0.00000000000E+00 -0.77864090961E+03  0.77864090961E+03  0.25500000920E-02 0.  1.
    10030    2    1    2    0    0  0.00000000000E+00  0.00000000000E+00  0.19330943080E+04  0.34903761272E+04  0.29061782302E+04 0.  0.
        3    1    3    3  502    0 -0.10346029483E+04  0.10070860587E+04  0.76977643937E+03  0.16362094508E+04  0.10100000352E+00 0.  1.
       -3    1    3    3    0  502  0.10346029483E+04 -0.10070860587E+04  0.11633178686E+04  0.18541666764E+04  0.10100000352E+00 0. -1.
</event>
<event>
 5   0  0.1449521E-05  0.2669679E+04  0.7818609E-02  0.8344910E-01
        1   -1    0    0  501    0  0.00000000000E+00  0.00000000000E+00  0.23074751671E+04  0.23074751671E+04  0.50400001928E-02 0.  1.
       -1   -1    0    0    0  501  0.00000000000E+00  0.00000000000E+00 -0.77218468621E+03  0.77218468622E+03  0.50400001928E-02 0. -1.
    10030    2    1    2    0    0  0.00000000000E+00  0.00000000000E+00  0.15352904809E+04  0.30796598533E+04  0.26696793724E+04 0.  0.
        3    1    3    3  502    0 -0.12371982621E+04 -0.45208550294E+03  0.51820704720E+03  0.14154785041E+04  0.10100000352E+00 0. -1.
       -3    1    3    3    0  502  0.12371982621E+04  0.45208550294E+03  0.10170834337E+04  0.16641813492E+04  0.10100000352E+00 0.  1.
</event>
<event>
 5   0  0.3514294E-05  0.2863515E+04  0.7818609E-02  0.8283816E-01
       -2   -1    0    0    0  501  0.00000000000E+00  0.00000000000E+00  0.75985964389E+03  0.75985964389E+03  0.25500000920E-02 0. -1.
        2   -1    0    0  501    0  0.00000000000E+00  0.00000000000E+00 -0.26977741642E+04  0.26977741642E+04  0.25500000920E-02 0.  1.
    10030    2    1    2    0    0  0.00000000000E+00  0.00000000000E+00 -0.19379145203E+04  0.34576338081E+04  0.28635151235E+04 0.  0.
        2    1    3    3  502    0 -0.13350627250E+04 -0.29898940355E+03 -0.14785971049E+04  0.20144568850E+04  0.25500000920E-02 0.  1.
       -2    1    3    3    0  502  0.13350627250E+04  0.29898940355E+03 -0.45931741539E+03  0.14431769230E+04  0.25500000920E-02 0. -1.
</event>
<event>
 5   0  0.1228050E-05  0.1609349E+04  0.7818609E-02  0.8814825E-01
        3   -1    0    0  501    0  0.00000000000E+00  0.00000000000E+00  0.19377123672E+04  0.19377123698E+04  0.10100000352E+00 0. -1.
       -3   -1    0    0    0  501  0.00000000000E+00  0.00000000000E+00 -0.33415738102E+03  0.33415739628E+03  0.10100000352E+00 0.  1.
    10030    2    1    2    0    0  0.00000000000E+00  0.00000000000E+00  0.16035549862E+04  0.22718697661E+04  0.16093488250E+04 0.  0.
        2    1    3    3  502    0  0.43500737001E+03  0.50242903467E+03  0.14422380607E+04  0.15879914894E+04  0.25500000920E-02 0. -1.
       -2    1    3    3    0  502 -0.43500737001E+03 -0.50242903467E+03  0.16131692550E+03  0.68387827667E+03  0.25500000920E-02 0.  1.
</event>
<event>
 5   0  0.1438701E-05  0.2660080E+04  0.7818609E-02  0.8348075E-01
       -1   -1    0    0    0  501  0.00000000000E+00  0.00000000000E+00  0.55399459974E+03  0.55399459976E+03  0.50400001928E-02 0.  1.
        1   -1    0    0  501    0  0.00000000000E+00  0.00000000000E+00 -0.31931843709E+04  0.31931843709E+04  0.50400001928E-02 0. -1.
    10030    2    1    2    0    0  0.00000000000E+00  0.00000000000E+00 -0.26391897711E+04  0.37471789706E+04  0.26600803728E+04 0.  0.
        4    1    3    3  502    0 -0.92235814641E+02 -0.10523265812E+04 -0.24580127847E+04  0.26753928948E+04  0.12699999809E+01 0. -1.
       -4    1    3    3    0  502  0.92235814641E+02  0.10523265812E+04 -0.18117698641E+03  0.10717860758E+04  0.12699999809E+01 0.  1.
</event>
<event>
 5   0  0.3514294E-05  0.2394541E+04  0.7818609E-02  0.8441550E-01
       -2   -1    0    0    0  501  0.00000000000E+00  0.00000000000E+00  0.74560521096E+03  0.74560521096E+03  0.25500000920E-02 0. -1.
        2   -1    0    0  501    0  0.00000000000E+00  0.00000000000E+00 -0.19225418209E+04  0.19225418209E+04  0.25500000920E-02 0.  1.
    10030    2    1    2    0    0  0.00000000000E+00  0.00000000000E+00 -0.11769366099E+04  0.26681470318E+04  0.23945414592E+04 0.  0.
        2    1    3    3  502    0  0.53263147404E+03 -0.10469768652E+04 -0.33049709746E+03  0.12202807771E+04  0.25500000920E-02 0. -1.
       -2    1    3    3    0  502 -0.53263147404E+03  0.10469768652E+04 -0.84643951245E+03  0.14478662548E+04  0.25500000920E-02 0.  1.
</event>
<event>
 5   0  0.1495517E-05  0.2747566E+04  0.7818609E-02  0.8319735E-01
       -1   -1    0    0    0  501  0.00000000000E+00  0.00000000000E+00  0.10173824055E+04  0.10173824055E+04  0.50400001928E-02 0.  1.
        1   -1    0    0  501    0  0.00000000000E+00  0.00000000000E+00 -0.18550343448E+04  0.18550343448E+04  0.50400001928E-02 0. -1.
    10030    2    1    2    0    0  0.00000000000E+00  0.00000000000E+00 -0.83765193926E+03  0.28724167503E+04  0.27475656891E+04 0.  0.
        5    1    3    3  502    0  0.20677275074E+02  0.99589966356E+03 -0.14078666733E+04  0.17246316561E+04  0.46999998093E+01 0. -1.
       -5    1    3    3    0  502 -0.20677275074E+02 -0.99589966356E+03  0.57021473400E+03  0.11477850942E+04  0.46999998093E+01 0.  1.
</event>
<event>
 5   0  0.1449521E-05  0.1695254E+04  0.7818609E-02  0.8764076E-01
        1   -1    0    0  501    0  0.00000000000E+00  0.00000000000E+00  0.15743300383E+04  0.15743300383E+04  0.50400001928E-02 0. -1.
       -1   -1    0    0    0  501  0.00000000000E+00  0.00000000000E+00 -0.45636643350E+03  0.45636643353E+03  0.50400001928E-02 0.  1.
    10030    2    1    2    0    0  0.00000000000E+00  0.00000000000E+00  0.11179636048E+04  0.20306964718E+04  0.16952538273E+04 0.  0.
        3    1    3    3  502    0 -0.51847055289E+03 -0.14245044140E+03  0.13439008734E+04  0.14474713849E+04  0.10100000352E+00 0. -1.
       -3    1    3    3    0  502  0.51847055289E+03  0.14245044140E+03 -0.22593726860E+03  0.58322508692E+03  0.10100000352E+00 0.  1.
</event>
<event>
 5   0  0.1449521E-05  0.2557248E+04  0.7818609E-02  0.8382870E-01
        1   -1    0    0  501    0  0.00000000000E+00  0.00000000000E+00  0.13532881989E+04  0.13532881989E+04  0.50400001928E-02 0. -1.
       -1   -1    0    0    0  501  0.00000000000E+00  0.00000000000E+00 -0.12080795209E+04  0.12080795209E+04  0.50400001928E-02 0.  1.
    10030    2    1    2    0    0  0.00000000000E+00  0.00000000000E+00  0.14520867802E+03  0.25613677198E+04  0.25572483329E+04 0.  0.
        3    1    3    3  502    0  0.84799467765E+03  0.34362595102E+03  0.96718694990E+03  0.13313994043E+04  0.10100000352E+00 0. -1.
       -3    1    3    3    0  502 -0.84799467765E+03 -0.34362595102E+03 -0.82197827188E+03  0.12299683155E+04  0.10100000352E+00 0.  1.
</event>
<event>
 5   0  0.1474012E-05  0.2743704E+04  0.7818609E-02  0.8320962E-01
       -1   -1    0    0    0  501  0.00000000000E+00  0.00000000000E+00  0.13929490457E+04  0.13929490457E+04  0.50400001928E-02 0.  1.
        1   -1    0    0  501    0  0.00000000000E+00  0.00000000000E+00 -0.13510743353E+04  0.13510743353E+04  0.50400001928E-02 0. -1.
    10030    2    1    2    0    0  0.00000000000E+00  0.00000000000E+00  0.41874710386E+02  0.27440233811E+04  0.27437038514E+04 0.  0.
        2    1    3    3  502    0 -0.13117962129E+04  0.35301458594E+03  0.21213781920E+03  0.13749294733E+04  0.25500000920E-02 0. -1.
       -2    1    3    3    0  502  0.13117962129E+04 -0.35301458594E+03 -0.17026310881E+03  0.13690939078E+04  0.25500000920E-02 0.  1.
</event>
<event>
 5   0  0.3497949E-05  0.2703047E+04  0.7818609E-02  0.8334017E-01
       -2   -1    0    0    0  501  0.00000000000E+00  0.00000000000E+00  0.97277103148E+03  0.97277103148E+03  0.25500000920E-02 0.  1.
        2   -1    0    0  501    0  0.00000000000E+00  0.00000000000E+00 -0.18777450402E+04  0.18777450402E+04  0.25500000920E-02 0. -1.
    10030    2    1    2    0    0  0.00000000000E+00  0.00000000000E+00 -0.90497400874E+03  0.28505160717E+04  0.27030471543E+04 0.  0.
        5    1    3    3  502    0  0.79266192098E+03 -0.56818848033E+03  0.53420989725E+03  0.11120042151E+04  0.46999998093E+01 0.  1.
       -5    1    3    3    0  502 -0.79266192098E+03  0.56818848033E+03 -0.14391839060E+04  0.17385118566E+04  0.46999998093E+01 0. -1.
</event>
<event>
 5   0  0.1438701E-05  0.2725181E+04  0.7818609E-02  0.8326881E-01
       -1   -1    0    0    0  501  0.00000000000E+00  0.00000000000E+00  0.15412494120E+04  0.15412494120E+04  0.50400001928E-02 0.  1.
        1   -1    0    0  501    0  0.00000000000E+00  0.00000000000E+00 -0.12046413895E+04  0.12046413895E+04  0.50400001928E-02 0. -1.
    10030    2    1    2    0    0  0.00000000000E+00  0.00000000000E+00  0.33660802250E+03  0.27458908014E+04  0.27251809724E+04 0.  0.
        4    1    3    3  502    0  0.27530437461E+02 -0.56620638996E+03  0.14167939622E+04  0.15259929047E+04  0.12699999809E+01 0.  1.
       -4    1    3    3    0  502 -0.27530437461E+02  0.56620638996E+03 -0.10801859397E+04  0.12198978967E+04  0.12699999809E+01 0. -1.
</event>
<event>
 5   0  0.1449521E-05  0.2861280E+04  0.7818609E-02  0.8284492E-01
       -1   -1    0    0    0  501  0.00000000000E+00  0.00000000000E+00  0.97216142540E+03  0.97216142541E+03  0.50400001928E-02 0.  1.
        1   -1    0    0  501    0  0.00000000000E+00  0.00000000000E+00 -0.21053408347E+04  0.21053408347E+04  0.50400001928E-02 0. -1.
    10030    2    1    2    0    0  0.00000000000E+00  0.00000000000E+00 -0.11331794093E+04  0.30775022601E+04  0.28612802357E+04 0.  0.
        3    1    3    3  502    0 -0.13574853160E+04  0.37216970659E+03 -0.84176384441E+03  0.16400741001E+04  0.10100000352E+00 0.  1.
       -3    1    3    3    0  502  0.13574853160E+04 -0.37216970659E+03 -0.29141556490E+03  0.14374281601E+04  0.10100000352E+00 0. -1.
</event>
<event>
 5   0  0.3514294E-05  0.2532709E+04  0.7818609E-02  0.8391425E-01
        2   -1    0    0  501    0  0.00000000000E+00  0.00000000000E+00  0.30262354521E+04  0.30262354521E+04  0.25500000920E-02 0. -1.
       -2   -1    0    0    0  501  0.00000000000E+00  0.00000000000E+00 -0.52991710275E+03  0.52991710275E+03  0.25500000920E-02 0.  1.
    10030    2    1    2    0    0  0.00000000000E+00  0.00000000000E+00  0.24963183494E+04  0.35561525549E+04  0.25327091606E+04 0.  0.
        2    1    3    3  502    0 -0.20184134585E+02  0.10540459404E+04  0.22332600953E+04  0.24695892163E+04  0.25500000920E-02 0. -1.
       -2    1    3    3    0  502  0.20184134585E+02 -0.10540459404E+04  0.26305825409E+03  0.10865633386E+04  0.25500000920E-02 0.  1.
</event>
<event>
 5   0  0.1474012E-05  0.1426140E+04  0.7818609E-02  0.8935112E-01
        1   -1    0    0  501    0  0.00000000000E+00  0.00000000000E+00  0.14215388570E+04  0.14215388570E+04  0.50400001928E-02 0. -1.
       -1   -1    0    0    0  501  0.00000000000E+00  0.00000000000E+00 -0.35768891533E+03  0.35768891536E+03  0.50400001928E-02 0.  1.
    10030    2    1    2    0    0  0.00000000000E+00  0.00000000000E+00  0.10638499417E+04  0.17792277724E+04  0.14261398135E+04 0.  0.
        2    1    3    3  502    0  0.11704944090E+03 -0.67829021938E+03  0.29955782934E+03  0.75067508714E+03  0.25500000920E-02 0. -1.
       -2    1    3    3    0  502 -0.11704944090E+03  0.67829021938E+03  0.76429211235E+03  0.10285526852E+04  0.25500000920E-02 0.  1.
</event>
<event>
 5   0  0.3497949E-05  0.2688344E+04  0.7818609E-02  0.8338797E-01
        2   -1    0    0  501    0  0.00000000000E+00  0.00000000000E+00  0.62984347139E+03  0.62984347140E+03  0.25500000920E-02 0.  1.
       -2   -1    0    0    0  501  0.00000000000E+00  0.00000000000E+00 -0.28686465508E+04  0.28686465508E+04  0.25500000920E-02 0. -1.
    10030    2    1    2    0    0  0.00000000000E+00  0.00000000000E+00 -0.22388030794E+04  0.34984900222E+04  0.26883439525E+04 0.  0.
        5    1    3    3  502    0 -0.28899158623E+03 -0.12218576345E+04 -0.49485414613E+03  0.13495758341E+04  0.46999998093E+01 0. -1.
       -5    1    3    3    0  502  0.28899158623E+03  0.12218576345E+04 -0.17439489333E+04  0.21489141881E+04  0.46999998093E+01 0.  1.
</event>
<event>
 5   0  0.1484379E-05  0.2304201E+04  0.7818609E-02  0.8476267E-01
        1   -1    0    0  501    0  0.00000000000E+00  0.00000000000E+00  0.83735778804E+03  0.83735778805E+03  0.50400001928E-02 0.  1.
       -1   -1    0    0    0  501  0.00000000000E+00  0.00000000000E+00 -0.15851473721E+04  0.15851473721E+04  0.50400001928E-02 0. -1.
    10030    2    1    2    0    0  0.00000000000E+00  0.00000000000E+00 -0.74778958403E+03  0.24225051601E+04  0.23042009437E+04 0.  0.
        1    1    3    3  502    0 -0.47071724165E+03  0.10362338171E+04 -0.18588290811E+03  0.11532162420E+04  0.50400001928E-02 0.  1.
       -1    1    3    3    0  502  0.47071724165E+03 -0.10362338171E+04 -0.56190667592E+03  0.12692889181E+04  0.50400001928E-02 0. -1.
</event>
<event>
 5   0  0.3568647E-05  0.2337263E+04  0.7818609E-02  0.8463372E-01
        2   -1    0    0  501    0  0.00000000000E+00  0.00000000000E+00  0.16404620948E+04  0.16404620948E+04  0.25500000920E-02 0. -1.
       -2   -1    0    0    0  501  0.00000000000E+00  0.00000000000E+00 -0.83250907252E+03  0.83250907253E+03  0.25500000920E-02 0.  1.
    10030    2    1    2    0    0  0.00000000000E+00  0.00000000000E+00  0.80795302230E+03  0.24729711673E+04  0.23372629951E+04 0.  0.
        3    1    3    3  502    0  0.29524762382E+03 -0.87616939227E+03 -0.35226506585E+03  0.98941126441E+03  0.10100000352E+00 0.  1.
       -3    1    3    3    0  502 -0.29524762382E+03  0.87616939227E+03  0.11602180881E+04  0.14835599029E+04  0.10100000352E+00 0. -1.
</event>
<event>
 5   0  0.3497949E-05  0.1655680E+04  0.7818609E-02  0.8787053E-01
        2   -1    0    0  501    0  0.00000000000E+00  0.00000000000E+00  0.63682577888E+03  0.63682577889E+03  0.25500000920E-02 0.  1.
       -2   -1    0    0    0  501  0.00000000000E+00  0.00000000000E+00 -0.10761482799E+04  0.10761482799E+04  0.25500000920E-02 0. -1.
    10030    2    1    2    0    0  0.00000000000E+00  0.00000000000E+00 -0.43932250103E+03  0.17129740588E+04  0.16556798804E+04 0.  0.
        5    1    3    3  502    0 -0.20348355428E+03  0.54728226941E+03  0.38747929636E+03  0.70077509543E+03  0.46999998093E+01 0.  1.
       -5    1    3    3    0  502  0.20348355428E+03 -0.54728226941E+03 -0.82680179740E+03  0.10121989634E+04  0.46999998093E+01 0. -1.
</event>
<event>
 5   0  0.1484379E-05  0.2703626E+04  0.7818609E-02  0.8333829E-01
       -1   -1    0    0    0  501  0.00000000000E+00  0.00000000000E+00  0.16273171429E+04  0.16273171429E+04  0.50400001928E-02 0. -1.
        1   -1    0    0  501    0  0.00000000000E+00  0.00000000000E+00 -0.11229519792E+04  0.11229519792E+04  0.50400001928E-02 0.  1.
    10030    2    1    2    0    0  0.00000000000E+00  0.00000000000E+00  0.50436516369E+03  0.27502691221E+04  0.27036264582E+04 0.  0.
        1    1    3    3  502    0 -0.37911792165E+03 -0.11975140866E+04 -0.25606543554E+03  0.12819281935E+04  0.50400001928E-02 0. -1.
       -1    1    3    3    0  502  0.37911792165E+03  0.11975140866E+04  0.76043059923E+03  0.14683409285E+04  0.50400001928E-02 0.  1.
</event>
<event>
 5   0  0.3514294E-05  0.1895897E+04  0.7818609E-02  0.8656901E-01
        2   -1    0    0  501    0  0.00000000000E+00  0.00000000000E+00  0.16574354247E+04  0.16574354247E+04  0.25500000920E-02 0. -1.
       -2   -1    0    0    0  501  0.00000000000E+00  0.00000000000E+00 -0.54216666488E+03  0.54216666489E+03  0.25500000920E-02 0.  1.
    10030    2    1    2    0    0  0.00000000000E+00  0.00000000000E+00  0.11152687598E+04  0.21996020896E+04  0.18958968711E+04 0.  0.
        2    1    3    3  502    0 -0.34564391766E+03 -0.26433612670E+03 -0.41945219216E+03  0.60438683573E+03  0.25500000920E-02 0.  1.
       -2    1    3    3    0  502  0.34564391766E+03  0.26433612670E+03  0.15347209519E+04  0.15952152538E+04  0.25500000920E-02 0. -1.
</event>
<event>
 5   0  0.3497949E-05  0.2225382E+04  0.7818609E-02  0.8507937E-01
        2   -1    0    0  501    0  0.00000000000E+00  0.00000000000E+00  0.12405128033E+04  0.12405128033E+04  0.25500000920E-02 0.  1.
       -2   -1    0    0    0  501  0.00000000000E+00  0.00000000000E+00 -0.99803948897E+03  0.99803948897E+03  0.25500000920E-02 0. -1.
    10030    2    1    2    0    0  0.00000000000E+00  0.00000000000E+00  0.24247331432E+03  0.22385522923E+04  0.22253815531E+04 0.  0.
        5    1    3    3  502    0 -0.73070025458E+02  0.10596514705E+04 -0.21217364337E+03  0.10831621358E+04  0.46999998093E+01 0.  1.
       -5    1    3    3    0  502  0.73070025458E+02 -0.10596514705E+04  0.45464695769E+03  0.11553901565E+04  0.46999998093E+01 0. -1.
</event>
<event>
 5   0  0.1474012E-05  0.2675817E+04  0.7818609E-02  0.8342894E-01
       -1   -1    0    0    0  501  0.00000000000E+00  0.00000000000E+00  0.12263701601E+04  0.12263701602E+04  0.50400001928E-02 0. -1.
        1   -1    0    0  501    0  0.00000000000E+00  0.00000000000E+00 -0.14595917143E+04  0.14595917143E+04  0.50400001928E-02 0.  1.
    10030    2    1    2    0    0  0.00000000000E+00  0.00000000000E+00 -0.23322155414E+03  0.26859618744E+04  0.26758174261E+04 0.  0.
        2    1    3    3  502    0 -0.11859347054E+04 -0.23508455925E+03  0.45853076679E+03  0.12930415073E+04  0.25500000920E-02 0. -1.
       -2    1    3    3    0  502  0.11859347054E+04  0.23508455925E+03 -0.69175232093E+03  0.13929203671E+04  0.25500000920E-02 0.  1.
</event>
<event>
 5   0  0.3497949E-05  0.2471414E+04  0.7818609E-02  0.8413241E-01
       -2   -1    0    0    0  501  0.00000000000E+00  0.00000000000E+00  0.10749273832E+04  0.10749273832E+04  0.25500000920E-02 0. -1.
        2   -1    0    0  501    0  0.00000000000E+00  0.00000000000E+00 -0.14205345260E+04  0.14205345260E+04  0.25500000920E-02 0.  1.
    10030    2    1    2    0    0  0.00000000000E+00  0.00000000000E+00 -0.34560714284E+03  0.24954619092E+04  0.24714137337E+04 0.  0.
        5    1    3    3  502    0 -0.98644276415E+03  0.45397544734E+03  0.42266898057E+03  0.11652614260E+04  0.46999998093E+01 0. -1.
       -5    1    3    3    0  502  0.98644276415E+03 -0.45397544734E+03 -0.76827612341E+03  0.13302004832E+04  0.46999998093E+01 0.  1.
</event>
<event>
 5   0  0.1438701E-05  0.2652662E+04  0.7818609E-02  0.8350530E-01
       -1   -1    0    0    0  501  0.00000000000E+00  0.00000000000E+00  0.10612657510E+04  0.10612657510E+04  0.50400001928E-02 0.  1.
        1   -1    0    0  501    0  0.00000000000E+00  0.00000000000E+00 -0.16576002973E+04  0.16576002973E+04  0.50400001928E-02 0. -1.
    10030    2    1    2    0    0  0.00000000000E+00  0.00000000000E+00 -0.59633454633E+03  0.27188660483E+04  0.26526623791E+04 0.  0.
        4    1    3    3  502    0 -0.17059503165E+03 -0.12727309067E+04  0.42091098654E+02  0.12848034477E+04  0.12699999809E+01 0. -1.
       -4    1    3    3    0  502  0.17059503165E+03  0.12727309067E+04 -0.63842564498E+03  0.14340626007E+04  0.12699999809E+01 0.  1.
</event>
<event>
 5   0  0.1495517E-05  0.2055306E+04  0.7818609E-02  0.8581191E-01
       -1   -1    0    0    0  501  0.00000000000E+00  0.00000000000E+00  0.53538496374E+03  0.53538496376E+03  0.50400001928E-02 0.  1.
        1   -1    0    0  501    0  0.00000000000E+00  0.00000000000E+00 -0.19725436685E+04  0.19725436685E+04  0.50400001928E-02 0. -1.
    10030    2    1    2    0    0  0.00000000000E+00  0.00000000000E+00 -0.14371587048E+04  0.25079286323E+04  0.20553055446E+04 0.  0.
        5    1    3    3  502    0 -0.24453750240E+03  0.73598336660E+03  0.10412349102E+03  0.78251766585E+03  0.46999998093E+01 0.  1.
       -5    1    3    3    0  502  0.24453750240E+03 -0.73598336660E+03 -0.15412821958E+04  0.17254109664E+04  0.46999998093E+01 0. -1.
</event>
<event>
 5   0  0.1495517E-05  0.1545029E+04  0.7818609E-02  0.8855049E-01
       -1   -1    0    0    0  501  0.00000000000E+00  0.00000000000E+00  0.49053393176E+03  0.49053393178E+03  0.50400001928E-02 0.  1.
        1   -1    0    0  501    0  0.00000000000E+00  0.00000000000E+00 -0.12165897697E+04  0.12165897697E+04  0.50400001928E-02 0. -1.
    10030    2    1    2    0    0  0.00000000000E+00  0.00000000000E+00 -0.72605583789E+03  0.17071237014E+04  0.15450288840E+04 0.  0.
        5    1    3    3  502    0 -0.35032929939E+03 -0.53404595583E+03  0.11709592426E+03  0.64936064435E+03  0.46999998093E+01 0.  1.
       -5    1    3    3    0  502  0.35032929939E+03  0.53404595583E+03 -0.84315176215E+03  0.10577630571E+04  0.46999998093E+01 0. -1.
</event>
<event>
 5   0  0.1228050E-05  0.2617674E+04  0.7818609E-02  0.8362222E-01
       -3   -1    0    0    0  501  0.00000000000E+00  0.00000000000E+00  0.14420939667E+04  0.14420939703E+04  0.10100000352E+00 0. -1.
        3   -1    0    0  501    0  0.00000000000E+00  0.00000000000E+00 -0.11878935102E+04  0.11878935145E+04  0.10100000352E+00 0.  1.
    10030    2    1    2    0    0  0.00000000000E+00  0.00000000000E+00  0.25420045648E+03  0.26299874848E+04  0.26176738334E+04 0.  0.
        2    1    3    3  502    0 -0.57155792535E+03 -0.53137892706E+03 -0.92856217955E+03  0.12129590873E+04  0.25500000920E-02 0.  1.
       -2    1    3    3    0  502  0.57155792535E+03  0.53137892706E+03  0.11827626360E+04  0.14170283975E+04  0.25500000920E-02 0. -1.
</event>
<event>
 5   0  0.3568647E-05  0.2584001E+04  0.7818609E-02  0.8373656E-01
       -2   -1    0    0    0  501  0.00000000000E+00  0.00000000000E+00  0.92348339260E+03  0.92348339261E+03  0.25500000920E-02 0. -1.
        2   -1    0    0  501    0  0.00000000000E+00  0.00000000000E+00 -0.18075750591E+04  0.18075750591E+04  0.25500000920E-02 0.  1.
    10030    2    1    2    0    0  0.00000000000E+00  0.00000000000E+00 -0.88409166650E+03  0.27310584517E+04  0.25840011981E+04 0.  0.
        3    1    3    3  502    0 -0.60191397302E+03  0.90312122416E+03 -0.11828920898E+04  0.16053541923E+04  0.10100000352E+00 0.  1.
       -3    1    3    3    0  502  0.60191397302E+03 -0.90312122416E+03  0.29880042331E+03  0.11257042594E+04  0.10100000352E+00 0. -1.
</event>
<event>
 5   0  0.1495517E-05  0.2758495E+04  0.7818609E-02  0.8316271E-01
       -1   -1    0    0    0  501  0.00000000000E+00  0.00000000000E+00  0.77414510072E+03  0.77414510074E+03  0.50400001928E-02 0.  1.
        1   -1    0    0  501    0  0.00000000000E+00  0.00000000000E+00 -0.24573210957E+04  0.24573210958E+04  0.50400001928E-02 0. -1.
    10030    2    1    2    0    0  0.00000000000E+00  0.00000000000E+00 -0.16831759950E+04  0.32314661965E+04  0.27584945802E+04 0.  0.
        5    1    3    3  502    0  0.23514297495E+02 -0.57701202429E+03 -0.23088645998E+04  0.23799944598E+04  0.46999998093E+01 0. -1.
       -5    1    3    3    0  502 -0.23514297495E+02  0.57701202429E+03  0.62568860475E+03  0.85147173674E+03  0.46999998093E+01 0.  1.
</event>
<event>
 5   0  0.1495517E-05  0.2035521E+04  0.7818609E-02  0.8590191E-01
        1   -1    0    0  501    0  0.00000000000E+00  0.00000000000E+00  0.61569997799E+03  0.61569997801E+03  0.50400001928E-02 0.  1.
       -1   -1    0    0    0  501  0.00000000000E+00  0.00000000000E+00 -0.16823715591E+04  0.16823715591E+04  0.50400001928E-02 0. -1.
    10030    2    1    2    0    0  0.00000000000E+00  0.00000000000E+00 -0.10666715811E+04  0.22980715372E+04  0.20355207019E+04 0.  0.
        5    1    3    3  502    0 -0.47455540222E+03  0.54233606802E+03  0.27802861689E+03  0.77243332544E+03  0.46999998093E+01 0.  1.
       -5    1    3    3    0  502  0.47455540222E+03 -0.54233606802E+03 -0.13447001980E+04  0.15256382117E+04  0.46999998093E+01 0. -1.
</event>
<event>
 5   0  0.3568647E-05  0.2687491E+04  0.7818609E-02  0.8339075E-01
        2   -1    0    0  501    0  0.00000000000E+00  0.00000000000E+00  0.15465921159E+04  0.15465921159E+04  0.25500000920E-02 0. -1.
       -2   -1    0    0    0  501  0.00000000000E+00  0.00000000000E+00 -0.11675040899E+04  0.11675040899E+04  0.25500000920E-02 0.  1.
    10030    2    1    2    0    0  0.00000000000E+00  0.00000000000E+00  0.37908802605E+03  0.27140962058E+04  0.26874914851E+04 0.  0.
        3    1    3    3  502    0 -0.27870759893E+03 -0.11037331847E+04  0.91057809943E+03  0.14577576459E+04  0.10100000352E+00 0. -1.
       -3    1    3    3    0  502  0.27870759893E+03  0.11037331847E+04 -0.53149007338E+03  0.12563385599E+04  0.10100000352E+00 0.  1.
</event>
<event>
 5   0  0.3652331E-05  0.2647209E+04  0.7818609E-02  0.8352340E-01
       -2   -1    0    0    0  501  0.00000000000E+00  0.00000000000E+00  0.15353781862E+04  0.15353781862E+04  0.25500000920E-02 0.  1.
        2   -1    0    0  501    0  0.00000000000E+00  0.00000000000E+00 -0.11410406736E+04  0.11410406736E+04  0.25500000920E-02 0. -1.
    10030    2    1    2    0    0  0.00000000000E+00  0.00000000000E+00  0.39433751267E+03  0.26764188598E+04  0.26472090660E+04 0.  0.
        1    1    3    3  502    0 -0.54389665920E+02 -0.44083092189E+03  0.14577783107E+04  0.15239447957E+04  0.50400001928E-02 0.  1.
       -1    1    3    3    0  502  0.54389665920E+02  0.44083092189E+03 -0.10634407980E+04  0.11524740640E+04  0.50400001928E-02 0. -1.
</event>
<event>
 5   0  0.3676724E-05  0.2781915E+04  0.7818609E-02  0.8308905E-01
       -2   -1    0    0    0  501  0.00000000000E+00  0.00000000000E+00  0.10921974368E+04  0.10921974369E+04  0.25500000920E-02 0.  1.
        2   -1    0    0  501    0  0.00000000000E+00  0.00000000000E+00 -0.17714399491E+04  0.17714399491E+04  0.25500000920E-02 0. -1.
    10030    2    1    2    0    0  0.00000000000E+00  0.00000000000E+00 -0.67924251221E+03  0.28636373859E+04  0.27819145723E+04 0.  0.
        4    1    3    3  502    0  0.19596938211E+03  0.12343008325E+04 -0.96818014995E+03  0.15809101681E+04  0.12699999809E+01 0.  1.
       -4    1    3    3    0  502 -0.19596938211E+03 -0.12343008325E+04  0.28893763775E+03  0.12827272178E+04  0.12699999809E+01 0. -1.
</event>
<event>
 5   0  0.1474012E-05  0.2652071E+04  0.7818609E-02  0.8350726E-01
       -1   -1    0    0    0  501  0.00000000000E+00  0.00000000000E+00  0.11023302668E+04  0.11023302668E+04  0.50400001928E-02 0. -1.
        1   -1    0    0  501    0  0.00000000000E+00  0.00000000000E+00 -0.15951388932E+04  0.15951388932E+04  0.50400001928E-02 0.  1.
    10030    2    1    2    0    0  0.00000000000E+00  0.00000000000E+00 -0.49280862636E+03  0.26974691600E+04  0.26520707998E+04 0.  0.
        2    1    3    3  502    0  0.27065486219E+03 -0.72403518087E+03 -0.13422936487E+04  0.15489458470E+04  0.25500000920E-02 0.  1.
       -2    1    3    3    0  502 -0.27065486219E+03  0.72403518087E+03  0.84948502230E+03  0.11485233131E+04  0.25500000920E-02 0. -1.
</event>
<event>
 5   0  0.3497949E-05  0.2479153E+04  0.7818609E-02  0.8410450E-01
       -2   -1    0    0    0  501  0.00000000000E+00  0.00000000000E+00  0.71727501711E+03  0.71727501712E+03  0.25500000920E-02 0. -1.
        2   -1    0    0  501    0  0.00000000000E+00  0.00000000000E+00 -0.21422040571E+04  0.21422040571E+04  0.25500000920E-02 0.  1.
    10030    2    1    2    0    0  0.00000000000E+00  0.00000000000E+00 -0.14249290400E+04  0.28594790742E+04  0.24791526389E+04 0.  0.
        5    1    3    3  502    0 -0.84064964353E+03  0.41854033532E+03  0.22077130476E+03  0.96469160589E+03  0.46999998093E+01 0. -1.
       -5    1    3    3    0  502  0.84064964353E+03 -0.41854033532E+03 -0.16457003448E+04  0.18947874683E+04  0.46999998093E+01 0.  1.
</event>
<event>
 5   0  0.1438701E-05  0.2361409E+04  0.7818609E-02  0.8454094E-01
       -1   -1    0    0    0  501  0.00000000000E+00  0.00000000000E+00  0.11202819972E+04  0.11202819973E+04  0.50400001928E-02 0. -1.
        1   -1    0    0  501    0  0.00000000000E+00  0.00000000000E+00 -0.12443861133E+04  0.12443861133E+04  0.50400001928E-02 0.  1.
    10030    2    1    2    0    0  0.00000000000E+00  0.00000000000E+00 -0.12410411608E+03  0.23646681106E+04  0.23614092067E+04 0.  0.
        4    1    3    3  502    0  0.11659817456E+04 -0.49900441104E+02 -0.24134736926E+03  0.11917439535E+04  0.12699999809E+01 0.  1.
       -4    1    3    3    0  502 -0.11659817456E+04  0.49900441104E+02  0.11724325319E+03  0.11729241571E+04  0.12699999809E+01 0. -1.
</event>
<event>
 5   0  0.3652331E-05  0.2793775E+04  0.7818609E-02  0.8305204E-01
        2   -1    0    0  501    0  0.00000000000E+00  0.00000000000E+00  0.21252727824E+04  0.21252727824E+04  0.25500000920E-02 0.  1.
       -2   -1    0    0    0  501  0.00000000000E+00  0.00000000000E+00 -0.91813831264E+03  0.91813831264E+03  0.25500000920E-02 0. -1.
    10030    2    1    2    0    0  0.00000000000E+00  0.00000000000E+00  0.12071344698E+04  0.30434110950E+04  0.27937747700E+04 0.  0.
        1    1    3    3  502    0  0.84593128737E+03  0.33260426587E+03  0.17590376034E+04  0.19800097552E+04  0.50400001928E-02 0.  1.
       -1    1    3    3    0  502 -0.84593128737E+03 -0.33260426587E+03 -0.55190313362E+03  0.10634013398E+04  0.50400001928E-02 0. -1.
</event>
<event>
 5   0  0.3497949E-05  0.2728349E+04  0.7818609E-02  0.8325865E-01
       -2   -1    0    0    0  501  0.00000000000E+00  0.00000000000E+00  0.15748323617E+04  0.15748323617E+04  0.25500000920E-02 0. -1.
        2   -1    0    0  501    0  0.00000000000E+00  0.00000000000E+00 -0.11816954413E+04  0.11816954413E+04  0.25500000920E-02 0.  1.
    10030    2    1    2    0    0  0.00000000000E+00  0.00000000000E+00  0.39313692038E+03  0.27565278030E+04  0.27283491145E+04 0.  0.
        5    1    3    3  502    0 -0.89359820139E+03  0.82880134125E+03  0.81569495689E+03  0.14665639302E+04  0.46999998093E+01 0. -1.
       -5    1    3    3    0  502  0.89359820139E+03 -0.82880134125E+03 -0.42255803651E+03  0.12899638728E+04  0.46999998093E+01 0.  1.
</event>
<event>
 5   0  0.3514294E-05  0.2674012E+04  0.7818609E-02  0.8343487E-01
       -2   -1    0    0    0  501  0.00000000000E+00  0.00000000000E+00  0.69205643831E+03  0.69205643832E+03  0.25500000920E-02 0. -1.
        2   -1    0    0  501    0  0.00000000000E+00  0.00000000000E+00 -0.25830037566E+04  0.25830037566E+04  0.25500000920E-02 0.  1.
    10030    2    1    2    0    0  0.00000000000E+00  0.00000000000E+00 -0.18909473183E+04  0.32750601949E+04  0.26740115033E+04 0.  0.
        2    1    3    3  502    0  0.10068189595E+04  0.15780231414E+03 -0.20054506992E+04  0.22495373957E+04  0.25500000920E-02 0.  1.
       -2    1    3    3    0  502 -0.10068189595E+04 -0.15780231414E+03  0.11450338088E+03  0.10255227993E+04  0.25500000920E-02 0. -1.
</event>
<event>
 5   0  0.1484379E-05  0.1789134E+04  0.7818609E-02  0.8712100E-01
        1   -1    0    0  501    0  0.00000000000E+00  0.00000000000E+00  0.86151690633E+03  0.86151690635E+03  0.50400001928E-02 0.  1.
       -1   -1    0    0    0  501  0.00000000000E+00  0.00000000000E+00 -0.92888447798E+03  0.92888447800E+03  0.50400001928E-02 0. -1.
    10030    2    1    2    0    0  0.00000000000E+00  0.00000000000E+00 -0.67367571650E+02  0.17904013843E+04  0.17891335130E+04 0.  0.
        1    1    3    3  502    0 -0.43847265024E+03  0.44621861945E+03 -0.67357445835E+03  0.91927790810E+03  0.50400001928E-02 0. -1.
       -1    1    3    3    0  502  0.43847265024E+03 -0.44621861945E+03  0.60620688670E+03  0.87112347625E+03  0.50400001928E-02 0.  1.
</event>
<event>
 5   0  0.1438701E-05  0.2412232E+04  0.7818609E-02  0.8434938E-01
        1   -1    0    0  501    0  0.00000000000E+00  0.00000000000E+00  0.18827581581E+04  0.18827581581E+04  0.50400001928E-02 0.  1.
       -1   -1    0    0    0  501  0.00000000000E+00  0.00000000000E+00 -0.77265153649E+03  0.77265153651E+03  0.50400001928E-02 0. -1.
    10030    2    1    2    0    0  0.00000000000E+00  0.00000000000E+00  0.11101066216E+04  0.26554096946E+04  0.24122321478E+04 0.  0.
        4    1    3    3  502    0 -0.11033163412E+04 -0.35326788054E+03  0.92445546491E+03  0.14821351705E+04  0.12699999809E+01 0.  1.
       -4    1    3    3    0  502  0.11033163412E+04  0.35326788054E+03  0.18565115674E+03  0.11732745242E+04  0.12699999809E+01 0. -1.
</event>
<event>
 5   0  0.3514294E-05  0.2409617E+04  0.7818609E-02  0.8435912E-01
        2   -1    0    0  501    0  0.00000000000E+00  0.00000000000E+00  0.21489352941E+04  0.21489352941E+04  0.25500000920E-02 0. -1.
       -2   -1    0    0    0  501  0.00000000000E+00  0.00000000000E+00 -0.67548021184E+03  0.67548021185E+03  0.25500000920E-02 0.  1.
    10030    2    1    2    0    0  0.00000000000E+00  0.00000000000E+00  0.14734550822E+04  0.28244155059E+04  0.24096167892E+04 0.  0.
        2    1    3    3  502    0  0.11265591248E+04  0.36771786877E+03  0.48204221042E+03  0.12793422471E+04  0.25500000920E-02 0.  1.
       -2    1    3    3    0  502 -0.11265591248E+04 -0.36771786877E+03  0.99141287178E+03  0.15450732588E+04  0.25500000920E-02 0. -1.
</event>
<event>
 5   0  0.3497949E-05  0.2697955E+04  0.7818609E-02  0.8335669E-01
        2   -1    0    0  501    0  0.00000000000E+00  0.00000000000E+00  0.22051514799E+04  0.22051514799E+04  0.25500000920E-02 0. -1.
       -2   -1    0    0    0  501  0.00000000000E+00  0.00000000000E+00 -0.82522261199E+03  0.82522261199E+03  0.25500000920E-02 0.  1.
    10030    2    1    2    0    0  0.00000000000E+00  0.00000000000E+00  0.13799288679E+04  0.30303740919E+04  0.26979554215E+04 0.  0.
        5    1    3    3  502    0  0.78977694793E+03 -0.70082387745E+03 -0.25300946591E+03  0.10857889365E+04  0.46999998093E+01 0.  1.
       -5    1    3    3    0  502 -0.78977694793E+03  0.70082387745E+03  0.16329383338E+04  0.19445851554E+04  0.46999998093E+01 0. -1.
</event>
<event>
 5   0  0.1438701E-05  0.2736512E+04  0.7818609E-02  0.8323255E-01
       -1   -1    0    0    0  501  0.00000000000E+00  0.00000000000E+00  0.18345742775E+04  0.18345742775E+04  0.50400001928E-02 0. -1.
        1   -1    0    0  501    0  0.00000000000E+00  0.00000000000E+00 -0.10204678298E+04  0.10204678298E+04  0.50400001928E-02 0.  1.
    10030    2    1    2    0    0  0.00000000000E+00  0.00000000000E+00  0.81410644769E+03  0.28550421073E+04  0.27365116712E+04 0.  0.
        4    1    3    3  502    0  0.94701426865E+03 -0.57263065185E+03  0.12465036038E+04  0.16668877394E+04  0.12699999809E+01 0. -1.
       -4    1    3    3    0  502 -0.94701426865E+03  0.57263065185E+03 -0.43239715615E+03  0.11881543679E+04  0.12699999809E+01 0.  1.
</event>
<event>
 5   0  0.1474012E-05  0.2641455E+04  0.7818609E-02  0.8354255E-01
       -1   -1    0    0    0  501  0.00000000000E+00  0.00000000000E+00  0.14632245576E+04  0.14632245576E+04  0.50400001928E-02 0.  1.
        1   -1    0    0  501    0  0.00000000000E+00  0.00000000000E+00 -0.11921079595E+04  0.11921079595E+04  0.50400001928E-02 0. -1.
    10030    2    1    2    0    0  0.00000000000E+00  0.00000000000E+00  0.27111659809E+03  0.26553325171E+04  0.26414553879E+04 0.  0.
        2    1    3    3  502    0  0.37821099324E+02 -0.37492016520E+03 -0.11369220487E+04  0.11977425895E+04  0.25500000920E-02 0. -1.
       -2    1    3    3    0  502 -0.37821099324E+02  0.37492016520E+03  0.14080386468E+04  0.14575899275E+04  0.25500000920E-02 0.  1.
</event>
<event>
 5   0  0.3676724E-05  0.2725695E+04  0.7818609E-02  0.8326716E-01
        2   -1    0    0  501    0  0.00000000000E+00  0.00000000000E+00  0.11781293313E+04  0.11781293313E+04  0.25500000920E-02 0.  1.
       -2   -1    0    0    0  501  0.00000000000E+00  0.00000000000E+00 -0.15765270967E+04  0.15765270967E+04  0.25500000920E-02 0. -1.
    10030    2    1    2    0    0  0.00000000000E+00  0.00000000000E+00 -0.39839776533E+03  0.27546564280E+04  0.27256946375E+04 0.  0.
        4    1    3    3  502    0 -0.43841791625E+03 -0.78464648047E+03  0.83612307854E+03  0.12275926784E+04  0.12699999809E+01 0. -1.
       -4    1    3    3    0  502  0.43841791625E+03  0.78464648047E+03 -0.12345208439E+04  0.15270637496E+04  0.12699999809E+01 0.  1.
</event>
<event>
 5   0  0.1495517E-05  0.2730082E+04  0.7818609E-02  0.8325310E-01
       -1   -1    0    0    0  501  0.00000000000E+00  0.00000000000E+00  0.12103211523E+04  0.12103211523E+04  0.50400001928E-02 0. -1.
        1   -1    0    0  501    0  0.00000000000E+00  0.00000000000E+00 -0.15395390510E+04  0.15395390510E+04  0.50400001928E-02 0.  1.
    10030    2    1    2    0    0  0.00000000000E+00  0.00000000000E+00 -0.32921789866E+03  0.27498602033E+04  0.27300818144E+04 0.  0.
        5    1    3    3  502    0 -0.26459679823E+03  0.11432928399E+04  0.53771189010E+03  0.12908470670E+04  0.46999998093E+01 0. -1.
       -5    1    3    3    0  502  0.26459679823E+03 -0.11432928399E+04 -0.86692978876E+03  0.14590131364E+04  0.46999998093E+01 0.  1.
</event>
<event>
 5   0  0.3676724E-05  0.2503135E+04  0.7818609E-02  0.8401869E-01
       -2   -1    0    0    0  501  0.00000000000E+00  0.00000000000E+00  0.82829705737E+03  0.82829705737E+03  0.25500000920E-02 0.  1.
        2   -1    0    0  501    0  0.00000000000E+00  0.00000000000E+00 -0.18911353160E+04  0.18911353160E+04  0.25500000920E-02 0. -1.
    10030    2    1    2    0    0  0.00000000000E+00  0.00000000000E+00 -0.10628382587E+04  0.27194323734E+04  0.25031354876E+04 0.  0.
        4    1    3    3  502    0  0.28372274835E+02  0.10643977755E+04 -0.12460365508E+04  0.16390107716E+04  0.12699999809E+01 0. -1.
       -4    1    3    3    0  502 -0.28372274835E+02 -0.10643977755E+04  0.18319829211E+03  0.10804216018E+04  0.12699999809E+01 0.  1.
</event>
<event>
 5   0  0.3676724E-05  0.2608142E+04  0.7818609E-02  0.8365441E-01
       -2   -1    0    0    0  501  0.00000000000E+00  0.00000000000E+00  0.12733368578E+04  0.12733368578E+04  0.25500000920E-02 0. -1.
        2   -1    0    0  501    0  0.00000000000E+00  0.00000000000E+00 -0.13355471176E+04  0.13355471176E+04  0.25500000920E-02 0.  1.
    10030    2    1    2    0    0  0.00000000000E+00  0.00000000000E+00 -0.62210259810E+02  0.26088839753E+04  0.26081421511E+04 0.  0.
        4    1    3    3  502    0  0.56089306849E+03 -0.92341617663E+03 -0.76158764209E+03  0.13218607412E+04  0.12699999809E+01 0.  1.
       -4    1    3    3    0  502 -0.56089306849E+03  0.92341617663E+03  0.69937738228E+03  0.12870232342E+04  0.12699999809E+01 0. -1.
</event>
<event>
 5   0  0.3568647E-05  0.2570390E+04  0.7818609E-02  0.8378329E-01
        2   -1    0    0  501    0  0.00000000000E+00  0.00000000000E+00  0.21959092975E+04  0.21959092975E+04  0.25500000920E-02 0. -1.
       -2   -1    0    0    0  501  0.00000000000E+00  0.00000000000E+00 -0.75218322466E+03  0.75218322467E+03  0.25500000920E-02 0.  1.
    10030    2    1    2    0    0  0.00000000000E+00  0.00000000000E+00  0.14437260728E+04  0.29480925221E+04  0.25703899599E+04 0.  0.
        3    1    3    3  502    0  0.43955433717E+03 -0.21138945547E+03  0.20856329027E+04  0.21419052575E+04  0.10100000352E+00 0. -1.
       -3    1    3    3    0  502 -0.43955433717E+03  0.21138945547E+03 -0.64190682987E+03  0.80618726463E+03  0.10100000352E+00 0.  1.
</event>
<event>
 5   0  0.1474012E-05  0.2747492E+04  0.7818609E-02  0.8319758E-01
       -1   -1    0    0    0  501  0.00000000000E+00  0.00000000000E+00  0.10990891396E+04  0.10990891396E+04  0.50400001928E-02 0. -1.
        1   -1    0    0  501    0  0.00000000000E+00  0.00000000000E+00 -0.17170378618E+04  0.17170378618E+04  0.50400001928E-02 0.  1.
    10030    2    1    2    0    0  0.00000000000E+00  0.00000000000E+00 -0.61794872220E+03  0.28161270015E+04  0.27474917043E+04 0.  0.
        2    1    3    3  502    0 -0.72885733286E+02 -0.27945442667E+03  0.10676216096E+04  0.11059941265E+04  0.25500000920E-02 0. -1.
       -2    1    3    3    0  502  0.72885733286E+02  0.27945442667E+03 -0.16855703318E+04  0.17101328750E+04  0.25500000920E-02 0.  1.
</event>
<event>
 5   0  0.1484379E-05  0.2696077E+04  0.7818609E-02  0.8336279E-01
        1   -1    0    0  501    0  0.00000000000E+00  0.00000000000E+00  0.18745074950E+04  0.18745074950E+04  0.50400001928E-02 0. -1.
       -1   -1    0    0    0  501  0.00000000000E+00  0.00000000000E+00 -0.96943231031E+03  0.96943231032E+03  0.50400001928E-02 0.  1.
    10030    2    1    2    0    0  0.00000000000E+00  0.00000000000E+00  0.90507518469E+03  0.28439398053E+04  0.26960772478E+04 0.  0.
        1    1    3    3  502    0  0.64565489880E+02 -0.10260429587E+03 -0.96367067466E+03  0.97126593332E+03  0.50400001928E-02 0.  1.
       -1    1    3    3    0  502 -0.64565489880E+02  0.10260429587E+03  0.18687458593E+04  0.18726738720E+04  0.50400001928E-02 0. -1.
</event>
<event>
 5   0  0.1495517E-05  0.1474409E+04  0.7818609E-02  0.8901651E-01
        1   -1    0    0  501    0  0.00000000000E+00  0.00000000000E+00  0.75867901441E+03  0.75867901443E+03  0.50400001928E-02 0. -1.
       -1   -1    0    0    0  501  0.00000000000E+00  0.00000000000E+00 -0.71633822563E+03  0.71633822565E+03  0.50400001928E-02 0.  1.
    10030    2    1    2    0    0  0.00000000000E+00  0.00000000000E+00  0.42340788778E+02  0.14750172401E+04  0.14744094127E+04 0.  0.
        5    1    3    3  502    0 -0.67917149373E+03 -0.14952692775E+01 -0.26560530328E+03  0.72927664219E+03  0.46999998093E+01 0.  1.
       -5    1    3    3    0  502  0.67917149373E+03  0.14952692775E+01  0.30794609206E+03  0.74574059788E+03  0.46999998093E+01 0. -1.
</event>
<event>
 5   0  0.3652331E-05  0.2823297E+04  0.7818609E-02  0.8296072E-01
       -2   -1    0    0    0  501  0.00000000000E+00  0.00000000000E+00  0.97098459207E+03  0.97098459207E+03  0.25500000920E-02 0.  1.
        2   -1    0    0  501    0  0.00000000000E+00  0.00000000000E+00 -0.20522992189E+04  0.20522992189E+04  0.25500000920E-02 0. -1.
    10030    2    1    2    0    0  0.00000000000E+00  0.00000000000E+00 -0.10813146269E+04  0.30232838110E+04  0.28232965979E+04 0.  0.
        1    1    3    3  502    0  0.70030249571E+01 -0.32033268585E+03  0.93153153443E+03  0.98509546321E+03  0.50400001928E-02 0.  1.
       -1    1    3    3    0  502 -0.70030249571E+01  0.32033268585E+03 -0.20128461613E+04  0.20381883478E+04  0.50400001928E-02 0. -1.
</event>
<event>
 5   0  0.3497949E-05  0.2711281E+04  0.7818609E-02  0.8331354E-01
       -2   -1    0    0    0  501  0.00000000000E+00  0.00000000000E+00  0.13256875008E+04  0.13256875008E+04  0.25500000920E-02 0. -1.
        2   -1    0    0  501    0  0.00000000000E+00  0.00000000000E+00 -0.13862703269E+04  0.13862703269E+04  0.25500000920E-02 0.  1.
    10030    2    1    2    0    0  0.00000000000E+00  0.00000000000E+00 -0.60582826090E+02  0.27119578277E+04  0.27112810589E+04 0.  0.
        5    1    3    3  502    0 -0.10872091926E+03  0.11435596913E+04  0.68974252688E+03  0.13398939694E+04  0.46999998093E+01 0. -1.
       -5    1    3    3    0  502  0.10872091926E+03 -0.11435596913E+04 -0.75032535297E+03  0.13720638583E+04  0.46999998093E+01 0.  1.
</event>
<event>
 5   0  0.3676724E-05  0.2702980E+04  0.7818609E-02  0.8334039E-01
        2   -1    0    0  501    0  0.00000000000E+00  0.00000000000E+00  0.20093359428E+04  0.20093359428E+04  0.25500000920E-02 0. -1.
       -2   -1    0    0    0  501  0.00000000000E+00  0.00000000000E+00 -0.90901957661E+03  0.90901957662E+03  0.25500000920E-02 0.  1.
    10030    2    1    2    0    0  0.00000000000E+00  0.00000000000E+00  0.11003163662E+04  0.29183555195E+04  0.27029803610E+04 0.  0.
        4    1    3    3  502    0  0.10024599658E+04  0.73069854927E+03  0.11292513465E+04  0.16775149983E+04  0.12699999809E+01 0. -1.
       -4    1    3    3    0  502 -0.10024599658E+04 -0.73069854927E+03 -0.28934980297E+02  0.12408405212E+04  0.12699999809E+01 0.  1.
</event>
<event>
 5   0  0.1495517E-05  0.2601921E+04  0.7818609E-02  0.8367549E-01
       -1   -1    0    0    0  501  0.00000000000E+00  0.00000000000E+00  0.10796862493E+04  0.10796862493E+04  0.50400001928E-02 0.  1.
        1   -1    0    0  501    0  0.00000000000E+00  0.00000000000E+00 -0.15675829816E+04  0.15675829816E+04  0.50400001928E-02 0. -1.
    10030    2    1    2    0    0  0.00000000000E+00  0.00000000000E+00 -0.48789673236E+03  0.26472692309E+04  0.26019206674E+04 0.  0.
        5    1    3    3  502    0 -0.52500827291E+03 -0.62919738559E+03  0.78408418049E+03  0.11341662703E+04  0.46999998093E+01 0.  1.
       -5    1    3    3    0  502  0.52500827291E+03  0.62919738559E+03 -0.12719809129E+04  0.15131029606E+04  0.46999998093E+01 0. -1.
</event>
<event>
 5   0  0.1484379E-05  0.2832822E+04  0.7818609E-02  0.8293150E-01
       -1   -1    0    0    0  501  0.00000000000E+00  0.00000000000E+00  0.15428233261E+04  0.15428233261E+04  0.50400001928E-02 0. -1.
        1   -1    0    0  501    0  0.00000000000E+00  0.00000000000E+00 -0.13003560719E+04  0.13003560719E+04  0.50400001928E-02 0.  1.
    10030    2    1    2    0    0  0.00000000000E+00  0.00000000000E+00  0.24246725414E+03  0.28431793980E+04  0.28328216887E+04 0.  0.
        1    1    3    3  502    0  0.78980894433E+03  0.10481327739E+04  0.65594720423E+03  0.14671902450E+04  0.50400001928E-02 0.  1.
       -1    1    3    3    0  502 -0.78980894433E+03 -0.10481327739E+04 -0.41347995008E+03  0.13759891531E+04  0.50400001928E-02 0. -1.
</event>
<event>
 5   0  0.1474012E-05  0.2533123E+04  0.7818609E-02  0.8391279E-01
       -1   -1    0    0    0  501  0.00000000000E+00  0.00000000000E+00  0.97964735381E+03  0.97964735382E+03  0.50400001928E-02 0. -1.
        1   -1    0    0  501    0  0.00000000000E+00  0.00000000000E+00 -0.16375059586E+04  0.16375059586E+04  0.50400001928E-02 0.  1.
    10030    2    1    2    0    0  0.00000000000E+00  0.00000000000E+00 -0.65785860477E+03  0.26171533124E+04  0.25331232731E+04 0.  0.
        2    1    3    3  502    0  0.55656120371E+03 -0.10075570876E+04 -0.87489691461E+03  0.14458133591E+04  0.25500000920E-02 0. -1.
       -2    1    3    3    0  502 -0.55656120371E+03  0.10075570876E+04  0.21703830984E+03  0.11713399533E+04  0.25500000920E-02 0.  1.
</event>
<event>
 5   0  0.1474012E-05  0.2649614E+04  0.7818609E-02  0.8351541E-01
       -1   -1    0    0    0  501  0.00000000000E+00  0.00000000000E+00  0.11235411227E+04  0.11235411228E+04  0.50400001928E-02 0. -1.
        1   -1    0    0  501    0  0.00000000000E+00  0.00000000000E+00 -0.15621266285E+04  0.15621266285E+04  0.50400001928E-02 0.  1.
    10030    2    1    2    0    0  0.00000000000E+00  0.00000000000E+00 -0.43858550578E+03  0.26856677513E+04  0.26496139387E+04 0.  0.
        2    1    3    3  502    0 -0.31027350142E+03 -0.29106874433E+03  0.10524199097E+04  0.11351556395E+04  0.25500000920E-02 0. -1.
       -2    1    3    3    0  502  0.31027350142E+03  0.29106874433E+03 -0.14910054155E+04  0.15505121117E+04  0.25500000920E-02 0.  1.
</event>
<event>
 5   0  0.1495517E-05  0.2611365E+04  0.7818609E-02  0.8364351E-01
       -1   -1    0    0    0  501  0.00000000000E+00  0.00000000000E+00  0.16529201270E+04  0.16529201270E+04  0.50400001928E-02 0. -1.
        1   -1    0    0  501    0  0.00000000000E+00  0.00000000000E+00 -0.10313907635E+04  0.10313907635E+04  0.50400001928E-02 0.  1.
    10030    2    1    2    0    0  0.00000000000E+00  0.00000000000E+00  0.62152936350E+03  0.26843108906E+04  0.26113648170E+04 0.  0.
        5    1    3    3  502    0  0.30426075508E+03 -0.63363954871E+03  0.14418242264E+04  0.16040426661E+04  0.46999998093E+01 0. -1.
       -5    1    3    3    0  502 -0.30426075508E+03  0.63363954871E+03 -0.82029486289E+03  0.10802682245E+04  0.46999998093E+01 0.  1.
</event>
<event>
 5   0  0.3652331E-05  0.2511459E+04  0.7818609E-02  0.8398914E-01
       -2   -1    0    0    0  501  0.00000000000E+00  0.00000000000E+00  0.18736191514E+04  0.18736191514E+04  0.25500000920E-02 0. -1.
        2   -1    0    0  501    0  0.00000000000E+00  0.00000000000E+00 -0.84161028575E+03  0.84161028575E+03  0.25500000920E-02 0.  1.
    10030    2    1    2    0    0  0.00000000000E+00  0.00000000000E+00  0.10320088657E+04  0.27152294372E+04  0.25114594557E+04 0.  0.
        1    1    3    3  502    0 -0.92715029832E+03  0.78574070707E+03  0.85765201370E+03  0.14874686925E+04  0.50400001928E-02 0. -1.
       -1    1    3    3    0  502  0.92715029832E+03 -0.78574070707E+03  0.17435685197E+03  0.12277607447E+04  0.50400001928E-02 0.  1.
</event>
<event>
 5   0  0.1474012E-05  0.2288009E+04  0.7818609E-02  0.8482664E-01
       -1   -1    0    0    0  501  0.00000000000E+00  0.00000000000E+00  0.12071752493E+04  0.12071752493E+04  0.50400001928E-02 0.  1.
        1   -1    0    0  501    0  0.00000000000E+00  0.00000000000E+00 -0.10841395224E+04  0.10841395224E+04  0.50400001928E-02 0. -1.
    10030    2    1    2    0    0  0.00000000000E+00  0.00000000000E+00  0.12303572689E+03  0.22913147717E+04  0.22880090894E+04 0.  0.
        2    1    3    3  502    0 -0.42913207692E+03 -0.65476962988E+03  0.89691058871E+03  0.11905151036E+04  0.25500000920E-02 0.  1.
       -2    1    3    3    0  502  0.42913207692E+03  0.65476962988E+03 -0.77387486182E+03  0.11007996682E+04  0.25500000920E-02 0. -1.
</event>
<event>
 5   0  0.1484379E-05  0.2722202E+04  0.7818609E-02  0.8327837E-01
       -1   -1    0    0    0  501  0.00000000000E+00  0.00000000000E+00  0.18918963366E+04  0.18918963366E+04  0.50400001928E-02 0.  1.
        1   -1    0    0  501    0  0.00000000000E+00  0.00000000000E+00 -0.97922695179E+03  0.97922695180E+03  0.50400001928E-02 0. -1.
    10030    2    1    2    0    0  0.00000000000E+00  0.00000000000E+00  0.91266938483E+03  0.28711232884E+04  0.27222019637E+04 0.  0.
        1    1    3    3  502    0 -0.13266610435E+03  0.64394961293E+01  0.18850447563E+04  0.18897183641E+04  0.50400001928E-02 0.  1.
       -1    1    3    3    0  502  0.13266610435E+03 -0.64394961293E+01 -0.97237537149E+03  0.98140492431E+03  0.50400001928E-02 0. -1.
</event>
<event>
 5   0  0.3676724E-05  0.2658454E+04  0.7818609E-02  0.8348612E-01
       -2   -1    0    0    0  501  0.00000000000E+00  0.00000000000E+00  0.12870470530E+04  0.12870470530E+04  0.25500000920E-02 0. -1.
        2   -1    0    0  501    0  0.00000000000E+00  0.00000000000E+00 -0.13727894841E+04  0.13727894841E+04  0.25500000920E-02 0.  1.
    10030    2    1    2    0    0  0.00000000000E+00  0.00000000000E+00 -0.85742431140E+02  0.26598365371E+04  0.26584541824E+04 0.  0.
        4    1    3    3  502    0 -0.72330314221E+03  0.28177904607E+03  0.10367061584E+04  0.12951170365E+04  0.12699999809E+01 0. -1.
       -4    1    3    3    0  502  0.72330314221E+03 -0.28177904607E+03 -0.11224485896E+04  0.13647195007E+04  0.12699999809E+01 0.  1.
</event>
<event>
 5   0  0.1495517E-05  0.2755889E+04  0.7818609E-02  0.8317095E-01
       -1   -1    0    0    0  501  0.00000000000E+00  0.00000000000E+00  0.13157762801E+04  0.13157762801E+04  0.50400001928E-02 0.  1.
        1   -1    0    0  501    0  0.00000000000E+00  0.00000000000E+00 -0.14430498618E+04  0.14430498618E+04  0.50400001928E-02 0. -1.
    10030    2    1    2    0    0  0.00000000000E+00  0.00000000000E+00 -0.12727358167E+03  0.27588261419E+04  0.27558888070E+04 0.  0.
        5    1    3    3  502    0  0.13105122051E+04  0.35610873984E+03  0.16996362218E+03  0.13686363276E+04  0.46999998093E+01 0.  1.
       -5    1    3    3    0  502 -0.13105122051E+04 -0.35610873984E+03 -0.29723720385E+03  0.13901898143E+04  0.46999998093E+01 0. -1.
</event>
<event>
 5   0  0.1495517E-05  0.2627167E+04  0.7818609E-02  0.8359031E-01
       -1   -1    0    0    0  501  0.00000000000E+00  0.00000000000E+00  0.13258371484E+04  0.13258371484E+04  0.50400001928E-02 0. -1.
        1   -1    0    0  501    0  0.00000000000E+00  0.00000000000E+00 -0.13014434071E+04  0.13014434071E+04  0.50400001928E-02 0.  1.
    10030    2    1    2    0    0  0.00000000000E+00  0.00000000000E+00  0.24393741298E+02  0.26272805554E+04  0.26271673076E+04 0.  0.
        5    1    3    3  502    0  0.11055446741E+04 -0.12157240438E+03  0.71113403738E+03  0.13201297607E+04  0.46999998093E+01 0. -1.
       -5    1    3    3    0  502 -0.11055446741E+04  0.12157240438E+03 -0.68674029608E+03  0.13071507947E+04  0.46999998093E+01 0.  1.
</event>
<event>
 5   0  0.1474012E-05  0.2447122E+04  0.7818609E-02  0.8422070E-01
        1   -1    0    0  501    0  0.00000000000E+00  0.00000000000E+00  0.26557943250E+04  0.26557943250E+04  0.50400001928E-02 0.  1.
       -1   -1    0    0    0  501  0.00000000000E+00  0.00000000000E+00 -0.56371140601E+03  0.56371140603E+03  0.50400001928E-02 0. -1.
    10030    2    1    2    0    0  0.00000000000E+00  0.00000000000E+00  0.20920829190E+04  0.32195057311E+04  0.24471220264E+04 0.  0.
        2    1    3    3  502    0  0.65294183688E+02  0.12199130372E+04  0.95632359513E+03  0.15514528570E+04  0.25500000920E-02 0.  1.
       -2    1    3    3    0  502 -0.65294183688E+02 -0.12199130372E+04  0.11357593239E+04  0.16680528741E+04  0.25500000920E-02 0. -1.
</event>
<event>
 5   0  0.3652331E-05  0.2788406E+04  0.7818609E-02  0.8306877E-01
       -2   -1    0    0    0  501  0.00000000000E+00  0.00000000000E+00  0.12885792050E+04  0.12885792050E+04  0.25500000920E-02 0. -1.
        2   -1    0    0  501    0  0.00000000000E+00  0.00000000000E+00 -0.15084849377E+04  0.15084849377E+04  0.25500000920E-02 0.  1.
    10030    2    1    2    0    0  0.00000000000E+00  0.00000000000E+00 -0.21990573268E+03  0.27970641427E+04  0.27884062270E+04 0.  0.
        1    1    3    3  502    0 -0.72171299549E+03 -0.69800004553E+03  0.86038132798E+03  0.13222442063E+04  0.50400001928E-02 0. -1.
       -1    1    3    3    0  502  0.72171299549E+03  0.69800004553E+03 -0.10802870607E+04  0.14748199364E+04  0.50400001928E-02 0.  1.
</event>
<event>
 5   0  0.1438701E-05  0.2617033E+04  0.7818609E-02  0.8362438E-01
       -1   -1    0    0    0  501  0.00000000000E+00  0.00000000000E+00  0.83650437124E+03  0.83650437126E+03  0.50400001928E-02 0.  1.
        1   -1    0    0  501    0  0.00000000000E+00  0.00000000000E+00 -0.20468700769E+04  0.20468700769E+04  0.50400001928E-02 0. -1.
    10030    2    1    2    0    0  0.00000000000E+00  0.00000000000E+00 -0.12103657056E+04  0.28833744481E+04  0.26170332567E+04 0.  0.
        4    1    3    3  502    0  0.37040247764E+03 -0.11270741288E+03 -0.19823157554E+04  0.20197718493E+04  0.12699999809E+01 0. -1.
       -4    1    3    3    0  502 -0.37040247764E+03  0.11270741288E+03  0.77195004979E+03  0.86360259878E+03  0.12699999809E+01 0.  1.
</event>
<event>
 5   0  0.3652331E-05  0.3799017E+04  0.7818609E-02  0.8046366E-01
       -2   -1    0    0    0  501  0.00000000000E+00  0.00000000000E+00  0.13598783070E+04  0.13598783070E+04  0.25500000920E-02 0.  1.
        2   -1    0    0  501    0  0.00000000000E+00  0.00000000000E+00 -0.26532755357E+04  0.26532755357E+04  0.25500000920E-02 0. -1.
    10030    2    1    2    0    0  0.00000000000E+00  0.00000000000E+00 -0.12933972288E+04  0.40131538427E+04  0.37990166325E+04 0.  0.
        1    1    3    3  502    0 -0.94206735904E+03  0.15177855507E+03 -0.23817155909E+04  0.25657546248E+04  0.50400001928E-02 0. -1.
       -1    1    3    3    0  502  0.94206735904E+03 -0.15177855507E+03  0.10883183621E+04  0.14473992180E+04  0.50400001928E-02 0.  1.
</event>
<event>
 5   0  0.3568647E-05  0.2734917E+04  0.7818609E-02  0.8323764E-01
       -2   -1    0    0    0  501  0.00000000000E+00  0.00000000000E+00  0.58043151196E+03  0.58043151197E+03  0.25500000920E-02 0. -1.
        2   -1    0    0  501    0  0.00000000000E+00  0.00000000000E+00 -0.32216423383E+04  0.32216423383E+04  0.25500000920E-02 0.  1.
    10030    2    1    2    0    0  0.00000000000E+00  0.00000000000E+00 -0.26412108264E+04  0.38020738503E+04  0.27349169885E+04 0.  0.
        3    1    3    3  502    0 -0.36573165977E+03 -0.11524916195E+04 -0.43267728272E+03  0.12842142427E+04  0.10100000352E+00 0. -1.
       -3    1    3    3    0  502  0.36573165977E+03  0.11524916195E+04 -0.22085335437E+04  0.25178596076E+04  0.10100000352E+00 0.  1.
</event>
<event>
 5   0  0.3568647E-05  0.2587813E+04  0.7818609E-02  0.8372353E-01
       -2   -1    0    0    0  501  0.00000000000E+00  0.00000000000E+00  0.10260120450E+04  0.10260120450E+04  0.25500000920E-02 0.  1.
        2   -1    0    0  501    0  0.00000000000E+00  0.00000000000E+00 -0.16317492680E+04  0.16317492680E+04  0.25500000920E-02 0. -1.
    10030    2    1    2    0    0  0.00000000000E+00  0.00000000000E+00 -0.60573722294E+03  0.26577613130E+04  0.25878132880E+04 0.  0.
        3    1    3    3  502    0 -0.64192077450E+03 -0.41324505749E+03 -0.13757882122E+04  0.15734125248E+04  0.10100000352E+00 0. -1.
       -3    1    3    3    0  502  0.64192077450E+03  0.41324505749E+03  0.77005098923E+03  0.10843487882E+04  0.10100000352E+00 0.  1.
</event>
<event>
 5   0  0.1484379E-05  0.2724650E+04  0.7818609E-02  0.8327051E-01
        1   -1    0    0  501    0  0.00000000000E+00  0.00000000000E+00  0.20662235481E+04  0.20662235481E+04  0.50400001928E-02 0.  1.
       -1   -1    0    0    0  501  0.00000000000E+00  0.00000000000E+00 -0.89822265224E+03  0.89822265225E+03  0.50400001928E-02 0. -1.
    10030    2    1    2    0    0  0.00000000000E+00  0.00000000000E+00  0.11680008958E+04  0.29644462003E+04  0.27246495521E+04 0.  0.
        1    1    3    3  502    0 -0.11530802709E+04 -0.70539222393E+03  0.39949852544E+03  0.14095287768E+04  0.50400001928E-02 0. -1.
       -1    1    3    3    0  502  0.11530802709E+04  0.70539222393E+03  0.76850237039E+03  0.15549174235E+04  0.50400001928E-02 0.  1.
</event>
<event>
 5   0  0.1495517E-05  0.2694424E+04  0.7818609E-02  0.8336817E-01
        1   -1    0    0  501    0  0.00000000000E+00  0.00000000000E+00  0.21125246533E+04  0.21125246533E+04  0.50400001928E-02 0. -1.
       -1   -1    0    0    0  501  0.00000000000E+00  0.00000000000E+00 -0.85915190917E+03  0.85915190918E+03  0.50400001928E-02 0.  1.
    10030    2    1    2    0    0  0.00000000000E+00  0.00000000000E+00  0.12533727441E+04  0.29716765625E+04  0.26944235666E+04 0.  0.
        5    1    3    3  502    0 -0.73567360565E+03 -0.54820886047E+03 -0.46133820204E+03  0.10269389638E+04  0.46999998093E+01 0.  1.
       -5    1    3    3    0  502  0.73567360565E+03  0.54820886047E+03  0.17147109462E+04  0.19447375987E+04  0.46999998093E+01 0. -1.
</event>
<event>
 5   0  0.3568647E-05  0.2665588E+04  0.7818609E-02  0.8346257E-01
       -2   -1    0    0    0  501  0.00000000000E+00  0.00000000000E+00  0.68601862285E+03  0.68601862285E+03  0.25500000920E-02 0. -1.
        2   -1    0    0  501    0  0.00000000000E+00  0.00000000000E+00 -0.25893467868E+04  0.25893467868E+04  0.25500000920E-02 0.  1.
    10030    2    1    2    0    0  0.00000000000E+00  0.00000000000E+00 -0.19033281640E+04  0.32753654096E+04  0.26655882028E+04 0.  0.
        3    1    3    3  502    0 -0.75500358725E+03  0.72926380152E+03  0.57478485112E+02  0.10512658538E+04  0.10100000352E+00 0. -1.
       -3    1    3    3    0  502  0.75500358725E+03 -0.72926380152E+03 -0.19608066491E+04  0.22240995558E+04  0.10100000352E+00 0.  1.
</event>
<event>
 5   0  0.1495517E-05  0.1876734E+04  0.7818609E-02  0.8666525E-01
        1   -1    0    0  501    0  0.00000000000E+00  0.00000000000E+00  0.10391254502E+04  0.10391254502E+04  0.50400001928E-02 0.  1.
       -1   -1    0    0    0  501  0.00000000000E+00  0.00000000000E+00 -0.84737877547E+03  0.84737877548E+03  0.50400001928E-02 0. -1.
    10030    2    1    2    0    0  0.00000000000E+00  0.00000000000E+00  0.19174667472E+03  0.18865042257E+04  0.18767342396E+04 0.  0.
        5    1    3    3  502    0 -0.86240218632E+03 -0.97037726644E+02 -0.26285547685E+03  0.90679046260E+03  0.46999998093E+01 0. -1.
       -5    1    3    3    0  502  0.86240218632E+03  0.97037726644E+02  0.45460215157E+03  0.97971376308E+03  0.46999998093E+01 0.  1.
</event>
<event>
 5   0  0.3514294E-05  0.2312638E+04  0.7818609E-02  0.8472955E-01
       -2   -1    0    0    0  501  0.00000000000E+00  0.00000000000E+00  0.83643086098E+03  0.83643086099E+03  0.25500000920E-02 0. -1.
        2   -1    0    0  501    0  0.00000000000E+00  0.00000000000E+00 -0.15985462451E+04  0.15985462451E+04  0.25500000920E-02 0.  1.
    10030    2    1    2    0    0  0.00000000000E+00  0.00000000000E+00 -0.76211538413E+03  0.24349771061E+04  0.23126378118E+04 0.  0.
        2    1    3    3  502    0  0.91524334646E+03 -0.57935638271E+03  0.45008297018E+02  0.10841355765E+04  0.25500000920E-02 0. -1.
       -2    1    3    3    0  502 -0.91524334646E+03  0.57935638271E+03 -0.80712368115E+03  0.13508415296E+04  0.25500000920E-02 0.  1.
</event>
<event>
 5   0  0.1484379E-05  0.2627966E+04  0.7818609E-02  0.8358763E-01
        1   -1    0    0  501    0  0.00000000000E+00  0.00000000000E+00  0.16115372315E+04  0.16115372315E+04  0.50400001928E-02 0. -1.
       -1   -1    0    0    0  501  0.00000000000E+00  0.00000000000E+00 -0.10713691723E+04  0.10713691723E+04  0.50400001928E-02 0.  1.
    10030    2    1    2    0    0  0.00000000000E+00  0.00000000000E+00  0.54016805919E+03  0.26829064038E+04  0.26279659890E+04 0.  0.
        1    1    3    3  502    0  0.91651186242E+03 -0.29770281484E+03 -0.64186018783E+03  0.11578451799E+04  0.50400001928E-02 0.  1.
       -1    1    3    3    0  502 -0.91651186242E+03  0.29770281484E+03  0.11820282470E+04  0.15250612239E+04  0.50400001928E-02 0. -1.
</event>
<event>
 5   0  0.1484379E-05  0.2656533E+04  0.7818609E-02  0.8349248E-01
       -1   -1    0    0    0  501  0.00000000000E+00  0.00000000000E+00  0.13768504344E+04  0.13768504344E+04  0.50400001928E-02 0. -1.
        1   -1    0    0  501    0  0.00000000000E+00  0.00000000000E+00 -0.12813969697E+04  0.12813969698E+04  0.50400001928E-02 0.  1.
    10030    2    1    2    0    0  0.00000000000E+00  0.00000000000E+00  0.95453464663E+02  0.26582474042E+04  0.26565330598E+04 0.  0.
        1    1    3    3  502    0  0.11769322231E+03 -0.75021880375E+03 -0.10427526704E+04  0.12899663095E+04  0.50400001928E-02 0.  1.
       -1    1    3    3    0  502 -0.11769322231E+03  0.75021880375E+03  0.11382061351E+04  0.13682810946E+04  0.50400001928E-02 0. -1.
</event>
<event>
 5   0  0.1438701E-05  0.1844232E+04  0.7818609E-02  0.8683125E-01
       -1   -1    0    0    0  501  0.00000000000E+00  0.00000000000E+00  0.51707364896E+03  0.51707364899E+03  0.50400001928E-02 0. -1.
        1   -1    0    0  501    0  0.00000000000E+00  0.00000000000E+00 -0.16444426478E+04  0.16444426478E+04  0.50400001928E-02 0.  1.
    10030    2    1    2    0    0  0.00000000000E+00  0.00000000000E+00 -0.11273689989E+04  0.21615162968E+04  0.18442320466E+04 0.  0.
        4    1    3    3  502    0  0.59592504150E+03  0.21729920733E+03 -0.13481215218E+04  0.14898922280E+04  0.12699999809E+01 0.  1.
       -4    1    3    3    0  502 -0.59592504150E+03 -0.21729920733E+03  0.22075252291E+03  0.67162406885E+03  0.12699999809E+01 0. -1.
</event>
<event>
 5   0  0.3676724E-05  0.2641827E+04  0.7818609E-02  0.8354131E-01
        2   -1    0    0  501    0  0.00000000000E+00  0.00000000000E+00  0.21165960677E+04  0.21165960677E+04  0.25500000920E-02 0.  1.
       -2   -1    0    0    0  501  0.00000000000E+00  0.00000000000E+00 -0.82434821395E+03  0.82434821395E+03  0.25500000920E-02 0. -1.
    10030    2    1    2    0    0  0.00000000000E+00  0.00000000000E+00  0.12922478537E+04  0.29409442816E+04  0.26418267832E+04 0.  0.
        4    1    3    3  502    0  0.97128061498E+03  0.80426762425E+03  0.10838037067E+04  0.16627881801E+04  0.12699999809E+01 0.  1.
       -4    1    3    3    0  502 -0.97128061498E+03 -0.80426762425E+03  0.20844414703E+03  0.12781561015E+04  0.12699999809E+01 0. -1.
</event>
<event>
 5   0  0.1449521E-05  0.2761017E+04  0.7818609E-02  0.8315474E-01
       -1   -1    0    0    0  501  0.00000000000E+00  0.00000000000E+00  0.13273332253E+04  0.13273332254E+04  0.50400001928E-02 0.  1.
        1   -1    0    0  501    0  0.00000000000E+00  0.00000000000E+00 -0.14358140147E+04  0.14358140147E+04  0.50400001928E-02 0. -1.
    10030    2    1    2    0    0  0.00000000000E+00  0.00000000000E+00 -0.10848078939E+03  0.27631472401E+04  0.27610169483E+04 0.  0.
        3    1    3    3  502    0 -0.44451696903E+02  0.13688164470E+04  0.11958650454E+03  0.13747491993E+04  0.10100000352E+00 0. -1.
       -3    1    3    3    0  502  0.44451696903E+02 -0.13688164470E+04 -0.22806729393E+03  0.13883980408E+04  0.10100000352E+00 0.  1.
</event>
<event>
 5   0  0.1495517E-05  0.2807203E+04  0.7818609E-02  0.8301035E-01
       -1   -1    0    0    0  501  0.00000000000E+00  0.00000000000E+00  0.11185972705E+04  0.11185972705E+04  0.50400001928E-02 0.  1.
        1   -1    0    0  501    0  0.00000000000E+00  0.00000000000E+00 -0.17612216930E+04  0.17612216930E+04  0.50400001928E-02 0. -1.
    10030    2    1    2    0    0  0.00000000000E+00  0.00000000000E+00 -0.64262442252E+03  0.28798189636E+04  0.28072034330E+04 0.  0.
        5    1    3    3  502    0  0.13065765646E+04  0.56787028249E+02  0.20148645244E+03  0.13232482633E+04  0.46999998093E+01 0. -1.
       -5    1    3    3    0  502 -0.13065765646E+04 -0.56787028249E+02 -0.84411087496E+03  0.15565707003E+04  0.46999998093E+01 0.  1.
</event>
<event>
 5   0  0.1438701E-05  0.3048632E+04  0.7818609E-02  0.8229978E-01
       -1   -1    0    0    0  501  0.00000000000E+00  0.00000000000E+00  0.15065219175E+04  0.15065219175E+04  0.50400001928E-02 0.  1.
        1   -1    0    0  501    0  0.00000000000E+00  0.00000000000E+00 -0.15423203545E+04  0.15423203545E+04  0.50400001928E-02 0. -1.
    10030    2    1    2    0    0  0.00000000000E+00  0.00000000000E+00 -0.35798437032E+02  0.30488422720E+04  0.30486320984E+04 0.  0.
        4    1    3    3  502    0 -0.44391265544E+03 -0.92827602174E+03  0.11068040231E+04  0.15112152649E+04  0.12699999809E+01 0.  1.
       -4    1    3    3    0  502  0.44391265544E+03  0.92827602174E+03 -0.11426024602E+04  0.15376270071E+04  0.12699999809E+01 0. -1.
</event>
<event>
 5   0  0.3514294E-05  0.2745409E+04  0.7818609E-02  0.8320420E-01
       -2   -1    0    0    0  501  0.00000000000E+00  0.00000000000E+00  0.10551522828E+04  0.10551522828E+04  0.25500000920E-02 0.  1.
        2   -1    0    0  501    0  0.00000000000E+00  0.00000000000E+00 -0.17858248615E+04  0.17858248615E+04  0.25500000920E-02 0. -1.
    10030    2    1    2    0    0  0.00000000000E+00  0.00000000000E+00 -0.73067257867E+03  0.28409771443E+04  0.27454086612E+04 0.  0.
        2    1    3    3  502    0 -0.48026872842E+03 -0.12385960177E+04 -0.75566607770E+01  0.13284710195E+04  0.25500000920E-02 0.  1.
       -2    1    3    3    0  502  0.48026872842E+03  0.12385960177E+04 -0.72311591790E+03  0.15125061247E+04  0.25500000920E-02 0. -1.
</event>
<event>
 5   0  0.3676724E-05  0.2706360E+04  0.7818609E-02  0.8332944E-01
       -2   -1    0    0    0  501  0.00000000000E+00  0.00000000000E+00  0.12914494912E+04  0.12914494912E+04  0.25500000920E-02 0. -1.
        2   -1    0    0  501    0  0.00000000000E+00  0.00000000000E+00 -0.14178613264E+04  0.14178613264E+04  0.25500000920E-02 0.  1.
    10030    2    1    2    0    0  0.00000000000E+00  0.00000000000E+00 -0.12641183522E+03  0.27093108175E+04  0.27063601301E+04 0.  0.
        4    1    3    3  502    0 -0.42784900553E+03 -0.12725844590E+04  0.10600114027E+03  0.13467604952E+04  0.12699999809E+01 0. -1.
       -4    1    3    3    0  502  0.42784900553E+03  0.12725844590E+04 -0.23241297548E+03  0.13625503223E+04  0.12699999809E+01 0.  1.
</event>
<event>
 5   0  0.3676724E-05  0.2605297E+04  0.7818609E-02  0.8366404E-01
       -2   -1    0    0    0  501  0.00000000000E+00  0.00000000000E+00  0.88902240126E+03  0.88902240126E+03  0.25500000920E-02 0.  1.
        2   -1    0    0  501    0  0.00000000000E+00  0.00000000000E+00 -0.19087183210E+04  0.19087183210E+04  0.25500000920E-02 0. -1.
    10030    2    1    2    0    0  0.00000000000E+00  0.00000000000E+00 -0.10196959198E+04  0.27977407223E+04  0.26052971770E+04 0.  0.
        4    1    3    3  502    0 -0.11271504005E+03 -0.51373514209E+03  0.76992998371E+03  0.93242815765E+03  0.12699999809E+01 0.  1.
       -4    1    3    3    0  502  0.11271504005E+03  0.51373514209E+03 -0.17896259035E+04  0.18653125646E+04  0.12699999809E+01 0. -1.
</event>
<event>
 5   0  0.1438701E-05  0.2751864E+04  0.7818609E-02  0.8318370E-01
       -1   -1    0    0    0  501  0.00000000000E+00  0.00000000000E+00  0.62193632598E+03  0.62193632600E+03  0.50400001928E-02 0. -1.
        1   -1    0    0  501    0  0.00000000000E+00  0.00000000000E+00 -0.30440241515E+04  0.30440241515E+04  0.50400001928E-02 0.  1.
    10030    2    1    2    0    0  0.00000000000E+00  0.00000000000E+00 -0.24220878255E+04  0.36659604775E+04  0.27518642387E+04 0.  0.
        4    1    3    3  502    0  0.56307797910E+03 -0.51734475064E+03  0.31281647049E+03  0.82617078057E+03  0.12699999809E+01 0. -1.
       -4    1    3    3    0  502 -0.56307797910E+03  0.51734475064E+03 -0.27349042960E+04  0.28397896969E+04  0.12699999809E+01 0.  1.
</event>
<event>
 5   0  0.3514294E-05  0.2679132E+04  0.7818609E-02  0.8341808E-01
       -2   -1    0    0    0  501  0.00000000000E+00  0.00000000000E+00  0.11873402822E+04  0.11873402822E+04  0.25500000920E-02 0.  1.
        2   -1    0    0  501    0  0.00000000000E+00  0.00000000000E+00 -0.15113080634E+04  0.15113080634E+04  0.25500000920E-02 0. -1.
    10030    2    1    2    0    0  0.00000000000E+00  0.00000000000E+00 -0.32396778118E+03  0.26986483456E+04  0.26791319060E+04 0.  0.
        2    1    3    3  502    0 -0.71974249438E+03  0.10573279427E+04  0.23899295629E+03  0.13011876382E+04  0.25500000920E-02 0.  1.
       -2    1    3    3    0  502  0.71974249438E+03 -0.10573279427E+04 -0.56296073747E+03  0.13974607074E+04  0.25500000920E-02 0. -1.
</event>
<event>
 5   0  0.3676724E-05  0.2710032E+04  0.7818609E-02  0.8331757E-01
       -2   -1    0    0    0  501  0.00000000000E+00  0.00000000000E+00  0.59678416351E+03  0.59678416352E+03  0.25500000920E-02 0.  1.
        2   -1    0    0  501    0  0.00000000000E+00  0.00000000000E+00 -0.30766026004E+04  0.30766026004E+04  0.25500000920E-02 0. -1.
    10030    2    1    2    0    0  0.00000000000E+00  0.00000000000E+00 -0.24798184369E+04  0.36733867639E+04  0.27100315196E+04 0.  0.
        4    1    3    3  502    0 -0.85704483301E+03 -0.85691838445E+03 -0.41849529326E+03  0.12821758408E+04  0.12699999809E+01 0. -1.
       -4    1    3    3    0  502  0.85704483301E+03  0.85691838445E+03 -0.20613231436E+04  0.23912109231E+04  0.12699999809E+01 0.  1.
</event>
<event>
 5   0  0.3497949E-05  0.2639890E+04  0.7818609E-02  0.8354776E-01
       -2   -1    0    0    0  501  0.00000000000E+00  0.00000000000E+00  0.81602470953E+03  0.81602470953E+03  0.25500000920E-02 0.  1.
        2   -1    0    0  501    0  0.00000000000E+00  0.00000000000E+00 -0.21350522516E+04  0.21350522516E+04  0.25500000920E-02 0. -1.
    10030    2    1    2    0    0  0.00000000000E+00  0.00000000000E+00 -0.13190275421E+04  0.29510769612E+04  0.26398904473E+04 0.  0.
        5    1    3    3  502    0 -0.43132759914E+03 -0.60429020551E+03  0.56047190947E+03  0.93024781729E+03  0.46999998093E+01 0.  1.
       -5    1    3    3    0  502  0.43132759914E+03  0.60429020551E+03 -0.18794994516E+04  0.20208291439E+04  0.46999998093E+01 0. -1.
</event>
<event>
 5   0  0.1228050E-05  0.2671091E+04  0.7818609E-02  0.8344446E-01
        4   -1    0    0  501    0  0.00000000000E+00  0.00000000000E+00  0.16340563656E+04  0.16340568592E+04  0.12699999809E+01 0. -1.
       -4   -1    0    0    0  501  0.00000000000E+00  0.00000000000E+00 -0.10915656163E+04  0.10915663551E+04  0.12699999809E+01 0.  1.
    10030    2    1    2    0    0  0.00000000000E+00  0.00000000000E+00  0.54249074930E+03  0.27256232143E+04  0.26710907310E+04 0.  0.
        1    1    3    3  502    0 -0.11237595866E+04  0.69917245148E+03  0.45379345064E+03  0.13991448178E+04  0.50400001928E-02 0. -1.
       -1    1    3    3    0  502  0.11237595866E+04 -0.69917245148E+03  0.88697298661E+02  0.13264783964E+04  0.50400001928E-02 0.  1.
</event>
<event>
 5   0  0.3497949E-05  0.2716212E+04  0.7818609E-02  0.8329764E-01
       -2   -1    0    0    0  501  0.00000000000E+00  0.00000000000E+00  0.16058623404E+04  0.16058623404E+04  0.25500000920E-02 0. -1.
        2   -1    0    0  501    0  0.00000000000E+00  0.00000000000E+00 -0.11485740514E+04  0.11485740514E+04  0.25500000920E-02 0.  1.
    10030    2    1    2    0    0  0.00000000000E+00  0.00000000000E+00  0.45728828894E+03  0.27544363918E+04  0.27162119316E+04 0.  0.
        5    1    3    3  502    0 -0.26134367550E+03 -0.35869913795E+03 -0.10729544759E+04  0.11611283244E+04  0.46999998093E+01 0.  1.
       -5    1    3    3    0  502  0.26134367550E+03  0.35869913795E+03  0.15302427649E+04  0.15933080674E+04  0.46999998093E+01 0. -1.
</event>
<event>
 5   0  0.1495517E-05  0.2102783E+04  0.7818609E-02  0.8560018E-01
        1   -1    0    0  501    0  0.00000000000E+00  0.00000000000E+00  0.15159119305E+04  0.15159119305E+04  0.50400001928E-02 0.  1.
       -1   -1    0    0    0  501  0.00000000000E+00  0.00000000000E+00 -0.72921424013E+03  0.72921424015E+03  0.50400001928E-02 0. -1.
    10030    2    1    2    0    0  0.00000000000E+00  0.00000000000E+00  0.78669769037E+03  0.22451261707E+04  0.21027834568E+04 0.  0.
        5    1    3    3  502    0 -0.44352783804E+03  0.67327264487E+03  0.11138550034E+04  0.13750302019E+04  0.46999998093E+01 0.  1.
       -5    1    3    3    0  502  0.44352783804E+03 -0.67327264487E+03 -0.32715731302E+03  0.87009596879E+03  0.46999998093E+01 0. -1.
</event>
<event>
 5   0  0.1474012E-05  0.1347041E+04  0.7818609E-02  0.8993071E-01
       -1   -1    0    0    0  501  0.00000000000E+00  0.00000000000E+00  0.45744128688E+03  0.45744128691E+03  0.50400001928E-02 0.  1.
        1   -1    0    0  501    0  0.00000000000E+00  0.00000000000E+00 -0.99166845566E+03  0.99166845567E+03  0.50400001928E-02 0. -1.
    10030    2    1    2    0    0  0.00000000000E+00  0.00000000000E+00 -0.53422716877E+03  0.14491097426E+04  0.13470413424E+04 0.  0.
        2    1    3    3  502    0 -0.66183799342E+03 -0.10629693022E+03 -0.33766922022E+03  0.75056583269E+03  0.25500000920E-02 0.  1.
       -2    1    3    3    0  502  0.66183799342E+03  0.10629693022E+03 -0.19655794855E+03  0.69854390989E+03  0.25500000920E-02 0. -1.
</event>
<event>
 5   0  0.3652331E-05  0.2610249E+04  0.7818609E-02  0.8364728E-01
        2   -1    0    0  501    0  0.00000000000E+00  0.00000000000E+00  0.12220633006E+04  0.12220633006E+04  0.25500000920E-02 0. -1.
       -2   -1    0    0    0  501  0.00000000000E+00  0.00000000000E+00 -0.13938306868E+04  0.13938306868E+04  0.25500000920E-02 0.  1.
    10030    2    1    2    0    0  0.00000000000E+00  0.00000000000E+00 -0.17176738622E+03  0.26158939874E+04  0.26102485166E+04 0.  0.
        1    1    3    3  502    0 -0.11936676790E+04 -0.63944548245E+02  0.43909840898E+03  0.12734751061E+04  0.50400001928E-02 0. -1.
       -1    1    3    3    0  502  0.11936676790E+04  0.63944548245E+02 -0.61086579520E+03  0.13424188813E+04  0.50400001928E-02 0.  1.
</event>
<event>
 5   0  0.1438701E-05  0.2655918E+04  0.7818609E-02  0.8349452E-01
        1   -1    0    0  501    0  0.00000000000E+00  0.00000000000E+00  0.17977275838E+04  0.17977275838E+04  0.50400001928E-02 0. -1.
       -1   -1    0    0    0  501  0.00000000000E+00  0.00000000000E+00 -0.98094643943E+03  0.98094643944E+03  0.50400001928E-02 0.  1.
    10030    2    1    2    0    0  0.00000000000E+00  0.00000000000E+00  0.81678114433E+03  0.27786740232E+04  0.26559175231E+04 0.  0.
        4    1    3    3  502    0  0.62315142068E+03 -0.52765598526E+03 -0.68726420144E+03  0.10672732674E+04  0.12699999809E+01 0.  1.
       -4    1    3    3    0  502 -0.62315142068E+03  0.52765598526E+03  0.15040453458E+04  0.17114007558E+04  0.12699999809E+01 0. -1.
</event>
<event>
 5   0  0.3568647E-05  0.2662449E+04  0.7818609E-02  0.8347293E-01
        2   -1    0    0  501    0  0.00000000000E+00  0.00000000000E+00  0.13770730488E+04  0.13770730488E+04  0.25500000920E-02 0.  1.
       -2   -1    0    0    0  501  0.00000000000E+00  0.00000000000E+00 -0.12869023999E+04  0.12869023999E+04  0.25500000920E-02 0. -1.
    10030    2    1    2    0    0  0.00000000000E+00  0.00000000000E+00  0.90170648915E+02  0.26639754488E+04  0.26624489565E+04 0.  0.
        3    1    3    3  502    0 -0.73004852349E+03 -0.11111927285E+04  0.11174540050E+03  0.13342440448E+04  0.10100000352E+00 0. -1.
       -3    1    3    3    0  502  0.73004852349E+03  0.11111927285E+04 -0.21574751582E+02  0.13297314039E+04  0.10100000352E+00 0.  1.
</event>
<event>
 5   0  0.1495517E-05  0.2607826E+04  0.7818609E-02  0.8365548E-01
        1   -1    0    0  501    0  0.00000000000E+00  0.00000000000E+00  0.11839116229E+04  0.11839116229E+04  0.50400001928E-02 0.  1.
       -1   -1    0    0    0  501  0.00000000000E+00  0.00000000000E+00 -0.14360779062E+04  0.14360779062E+04  0.50400001928E-02 0. -1.
    10030    2    1    2    0    0  0.00000000000E+00  0.00000000000E+00 -0.25216628329E+03  0.26199895290E+04  0.26078261633E+04 0.  0.
        5    1    3    3  502    0  0.11733802100E+04 -0.15105553836E+03 -0.67684471869E+03  0.13630039458E+04  0.46999998093E+01 0. -1.
       -5    1    3    3    0  502 -0.11733802100E+04  0.15105553836E+03  0.42467843540E+03  0.12569855832E+04  0.46999998093E+01 0.  1.
</event>
<event>
 5   0  0.1449521E-05  0.2668316E+04  0.7818609E-02  0.8345359E-01
        1   -1    0    0  501    0  0.00000000000E+00  0.00000000000E+00  0.95332997176E+03  0.95332997177E+03  0.50400001928E-02 0. -1.
       -1   -1    0    0    0  501  0.00000000000E+00  0.00000000000E+00 -0.18671152347E+04  0.18671152347E+04  0.50400001928E-02 0.  1.
    10030    2    1    2    0    0  0.00000000000E+00  0.00000000000E+00 -0.91378526292E+03  0.28204452065E+04  0.26683155091E+04 0.  0.
        3    1    3    3  502    0  0.82870145119E+03  0.63933425680E+03  0.41761109883E+03  0.11268954819E+04  0.10100000352E+00 0. -1.
       -3    1    3    3    0  502 -0.82870145119E+03 -0.63933425680E+03 -0.13313963618E+04  0.16935497245E+04  0.10100000352E+00 0.  1.
</event>
<event>
 5   0  0.1228050E-05  0.2707427E+04  0.7818609E-02  0.8332599E-01
       -3   -1    0    0    0  501  0.00000000000E+00  0.00000000000E+00  0.95130472462E+03  0.95130472999E+03  0.10100000352E+00 0. -1.
        3   -1    0    0  501    0  0.00000000000E+00  0.00000000000E+00 -0.19263442702E+04  0.19263442729E+04  0.10100000352E+00 0.  1.
    10030    2    1    2    0    0  0.00000000000E+00  0.00000000000E+00 -0.97503954560E+03  0.28776490029E+04  0.27074271307E+04 0.  0.
        4    1    3    3  502    0  0.16167539960E+03  0.12258679478E+04 -0.10732073352E+04  0.16372741852E+04  0.12699999809E+01 0.  1.
       -4    1    3    3    0  502 -0.16167539960E+03 -0.12258679478E+04  0.98167789608E+02  0.12403748176E+04  0.12699999809E+01 0. -1.
</event>
<event>
 5   0  0.3514294E-05  0.2611653E+04  0.7818609E-02  0.8364254E-01
        2   -1    0    0  501    0  0.00000000000E+00  0.00000000000E+00  0.15803132842E+04  0.15803132842E+04  0.25500000920E-02 0.  1.
       -2   -1    0    0    0  501  0.00000000000E+00  0.00000000000E+00 -0.10790160593E+04  0.10790160593E+04  0.25500000920E-02 0. -1.
    10030    2    1    2    0    0  0.00000000000E+00  0.00000000000E+00  0.50129722491E+03  0.26593293435E+04  0.26116534321E+04 0.  0.
        2    1    3    3  502    0  0.59195385705E+03  0.11507136105E+04  0.72432942160E+02  0.12960701036E+04  0.25500000920E-02 0.  1.
       -2    1    3    3    0  502 -0.59195385705E+03 -0.11507136105E+04  0.42886428275E+03  0.13632592399E+04  0.25500000920E-02 0. -1.
</event>
<event>
 5   0  0.3497949E-05  0.2673444E+04  0.7818609E-02  0.8343673E-01
        2   -1    0    0  501    0  0.00000000000E+00  0.00000000000E+00  0.11141641541E+04  0.11141641541E+04  0.25500000920E-02 0.  1.
       -2   -1    0    0    0  501  0.00000000000E+00  0.00000000000E+00 -0.16037367150E+04  0.16037367150E+04  0.25500000920E-02 0. -1.
    10030    2    1    2    0    0  0.00000000000E+00  0.00000000000E+00 -0.48957256093E+03  0.27179008692E+04  0.26734441910E+04 0.  0.
        5    1    3    3  502    0 -0.57341791412E+02 -0.12223417462E+04  0.30211518357E+03  0.12604376620E+04  0.46999998093E+01 0.  1.
       -5    1    3    3    0  502  0.57341791412E+02  0.12223417462E+04 -0.79168774450E+03  0.14574632072E+04  0.46999998093E+01 0. -1.
</event>
<event>
 5   0  0.1438701E-05  0.2786974E+04  0.7818609E-02  0.8307324E-01
       -1   -1    0    0    0  501  0.00000000000E+00  0.00000000000E+00  0.10119725767E+04  0.10119725768E+04  0.50400001928E-02 0. -1.
        1   -1    0    0  501    0  0.00000000000E+00  0.00000000000E+00 -0.19188325834E+04  0.19188325835E+04  0.50400001928E-02 0.  1.
    10030    2    1    2    0    0  0.00000000000E+00  0.00000000000E+00 -0.90686000671E+03  0.29308051602E+04  0.27869739531E+04 0.  0.
        4    1    3    3  502    0  0.12075487478E+04 -0.27204698642E+02 -0.11841958868E+04  0.16915187215E+04  0.12699999809E+01 0.  1.
       -4    1    3    3    0  502 -0.12075487478E+04  0.27204698642E+02  0.27733588007E+03  0.12392864387E+04  0.12699999809E+01 0. -1.
</event>
<event>
 5   0  0.3676724E-05  0.2490768E+04  0.7818609E-02  0.8406282E-01
        2   -1    0    0  501    0  0.00000000000E+00  0.00000000000E+00  0.14257211628E+04  0.14257211628E+04  0.25500000920E-02 0.  1.
       -2   -1    0    0    0  501  0.00000000000E+00  0.00000000000E+00 -0.10878571715E+04  0.10878571715E+04  0.25500000920E-02 0. -1.
    10030    2    1    2    0    0  0.00000000000E+00  0.00000000000E+00  0.33786399125E+03  0.25135783343E+04  0.24907677464E+04 0.  0.
        4    1    3    3  502    0  0.48719445184E+03 -0.41495477046E+03  0.12470951727E+04  0.14017110537E+04  0.12699999809E+01 0.  1.
       -4    1    3    3    0  502 -0.48719445184E+03  0.41495477046E+03 -0.90923118147E+03  0.11118672806E+04  0.12699999809E+01 0. -1.
</event>
<event>
 5   0  0.1495517E-05  0.2812284E+04  0.7818609E-02  0.8299465E-01
        1   -1    0    0  501    0  0.00000000000E+00  0.00000000000E+00  0.20534772038E+04  0.20534772038E+04  0.50400001928E-02 0. -1.
       -1   -1    0    0    0  501  0.00000000000E+00  0.00000000000E+00 -0.96287192865E+03  0.96287192866E+03  0.50400001928E-02 0.  1.
    10030    2    1    2    0    0  0.00000000000E+00  0.00000000000E+00  0.10906052751E+04  0.30163491324E+04  0.28122841646E+04 0.  0.
        5    1    3    3  502    0  0.67256757740E+02  0.13607263418E+04  0.91856934182E+03  0.16431346185E+04  0.46999998093E+01 0. -1.
       -5    1    3    3    0  502 -0.67256757740E+02 -0.13607263418E+04  0.17203593330E+03  0.13732145139E+04  0.46999998093E+01 0.  1.
</event>
<event>
 5   0  0.3514294E-05  0.1954901E+04  0.7818609E-02  0.8628001E-01
        2   -1    0    0  501    0  0.00000000000E+00  0.00000000000E+00  0.10077770499E+04  0.10077770499E+04  0.25500000920E-02 0. -1.
       -2   -1    0    0    0  501  0.00000000000E+00  0.00000000000E+00 -0.94803608100E+03  0.94803608101E+03  0.25500000920E-02 0.  1.
    10030    2    1    2    0    0  0.00000000000E+00  0.00000000000E+00  0.59740968944E+02  0.19558131310E+04  0.19549005141E+04 0.  0.
        2    1    3    3  502    0 -0.95273495906E+01  0.24727429579E+03  0.97591948745E+03  0.10068039500E+04  0.25500000920E-02 0. -1.
       -2    1    3    3    0  502  0.95273495906E+01 -0.24727429579E+03 -0.91617851851E+03  0.94900918095E+03  0.25500000920E-02 0.  1.
</event>
<event>
 5   0  0.3568647E-05  0.2642964E+04  0.7818609E-02  0.8353752E-01
        2   -1    0    0  501    0  0.00000000000E+00  0.00000000000E+00  0.23074081828E+04  0.23074081828E+04  0.25500000920E-02 0.  1.
       -2   -1    0    0    0  501  0.00000000000E+00  0.00000000000E+00 -0.75682958475E+03  0.75682958475E+03  0.25500000920E-02 0. -1.
    10030    2    1    2    0    0  0.00000000000E+00  0.00000000000E+00  0.15505785980E+04  0.30642377675E+04  0.26429640760E+04 0.  0.
        3    1    3    3  502    0  0.68888804913E+03 -0.94983672585E+02  0.20781133993E+04  0.21913794634E+04  0.10100000352E+00 0.  1.
       -3    1    3    3    0  502 -0.68888804913E+03  0.94983672585E+02 -0.52753480125E+03  0.87285830409E+03  0.10100000352E+00 0. -1.
</event>
<event>
 5   0  0.1474012E-05  0.1596257E+04  0.7818609E-02  0.8822851E-01
        1   -1    0    0  501    0  0.00000000000E+00  0.00000000000E+00  0.13971527592E+04  0.13971527592E+04  0.50400001928E-02 0.  1.
       -1   -1    0    0    0  501  0.00000000000E+00  0.00000000000E+00 -0.45593367882E+03  0.45593367885E+03  0.50400001928E-02 0. -1.
    10030    2    1    2    0    0  0.00000000000E+00  0.00000000000E+00  0.94121908034E+03  0.18530864380E+04  0.15962568683E+04 0.  0.
        2    1    3    3  502    0  0.36952848913E+02  0.78048294018E+03  0.65955339282E+03  0.10225115212E+04  0.25500000920E-02 0.  1.
       -2    1    3    3    0  502 -0.36952848913E+02 -0.78048294018E+03  0.28166568752E+03  0.83057491684E+03  0.25500000920E-02 0. -1.
</event>
<event>
 5   0  0.1495517E-05  0.2713240E+04  0.7818609E-02  0.8330722E-01
       -1   -1    0    0    0  501  0.00000000000E+00  0.00000000000E+00  0.57651668909E+03  0.57651668911E+03  0.50400001928E-02 0. -1.
        1   -1    0    0  501    0  0.00000000000E+00  0.00000000000E+00 -0.31923063960E+04  0.31923063960E+04  0.50400001928E-02 0.  1.
    10030    2    1    2    0    0  0.00000000000E+00  0.00000000000E+00 -0.26157897069E+04  0.37688230851E+04  0.27132400661E+04 0.  0.
        5    1    3    3  502    0  0.51534439085E+03  0.72472898247E+03 -0.27309643406E+04  0.28721072854E+04  0.46999998093E+01 0.  1.
       -5    1    3    3    0  502 -0.51534439085E+03 -0.72472898247E+03  0.11517463369E+03  0.89671579972E+03  0.46999998093E+01 0. -1.
</event>
<event>
 5   0  0.3568647E-05  0.2974647E+04  0.7818609E-02  0.8251008E-01
        2   -1    0    0  501    0  0.00000000000E+00  0.00000000000E+00  0.11522594435E+04  0.11522594435E+04  0.25500000920E-02 0. -1.
       -2   -1    0    0    0  501  0.00000000000E+00  0.00000000000E+00 -0.19198200396E+04  0.19198200396E+04  0.25500000920E-02 0.  1.
    10030    2    1    2    0    0  0.00000000000E+00  0.00000000000E+00 -0.76756059600E+03  0.30720794831E+04  0.29746467155E+04 0.  0.
        3    1    3    3  502    0 -0.13831705232E+04 -0.36851327353E+03  0.33391163329E+02  0.14318092432E+04  0.10100000352E+00 0. -1.
       -3    1    3    3    0  502  0.13831705232E+04  0.36851327353E+03 -0.80095175933E+03  0.16402702399E+04  0.10100000352E+00 0.  1.
</event>
<event>
 5   0  0.3568647E-05  0.2741684E+04  0.7818609E-02  0.8321605E-01
        2   -1    0    0  501    0  0.00000000000E+00  0.00000000000E+00  0.17241613479E+04  0.17241613479E+04  0.25500000920E-02 0. -1.
       -2   -1    0    0    0  501  0.00000000000E+00  0.00000000000E+00 -0.10899260667E+04  0.10899260667E+04  0.25500000920E-02 0.  1.
    10030    2    1    2    0    0  0.00000000000E+00  0.00000000000E+00  0.63423528113E+03  0.28140874146E+04  0.27416844430E+04 0.  0.
        3    1    3    3  502    0 -0.43933548754E+03  0.15933038250E+02  0.16498441176E+04  0.17074118293E+04  0.10100000352E+00 0. -1.
       -3    1    3    3    0  502  0.43933548754E+03 -0.15933038250E+02 -0.10156088364E+04  0.11066755853E+04  0.10100000352E+00 0.  1.
</event>
<event>
 5   0  0.3514294E-05  0.2700731E+04  0.7818609E-02  0.8334768E-01
        2   -1    0    0  501    0  0.00000000000E+00  0.00000000000E+00  0.12936000410E+04  0.12936000410E+04  0.25500000920E-02 0. -1.
       -2   -1    0    0    0  501  0.00000000000E+00  0.00000000000E+00 -0.14096220945E+04  0.14096220945E+04  0.25500000920E-02 0.  1.
    10030    2    1    2    0    0  0.00000000000E+00  0.00000000000E+00 -0.11602205353E+03  0.27032221355E+04  0.27007311597E+04 0.  0.
        2    1    3    3  502    0  0.36683265630E+03 -0.12336547540E+04 -0.46706503582E+03  0.13691676294E+04  0.25500000920E-02 0. -1.
       -2    1    3    3    0  502 -0.36683265630E+03  0.12336547540E+04  0.35104298229E+03  0.13340545061E+04  0.25500000920E-02 0.  1.
</event>
<event>
 5   0  0.1484379E-05  0.2684620E+04  0.7818609E-02  0.8340012E-01
        1   -1    0    0  501    0  0.00000000000E+00  0.00000000000E+00  0.23587830720E+04  0.23587830720E+04  0.50400001928E-02 0. -1.
       -1   -1    0    0    0  501  0.00000000000E+00  0.00000000000E+00 -0.76386693965E+03  0.76386693967E+03  0.50400001928E-02 0.  1.
    10030    2    1    2    0    0  0.00000000000E+00  0.00000000000E+00  0.15949161324E+04  0.31226500117E+04  0.26846202015E+04 0.  0.
        1    1    3    3  502    0 -0.88027603247E+03  0.10112949999E+04  0.87277620736E+03  0.15997942925E+04  0.50400001928E-02 0.  1.
       -1    1    3    3    0  502  0.88027603247E+03 -0.10112949999E+04  0.72213992503E+03  0.15228557192E+04  0.50400001928E-02 0. -1.
</event>
<event>
 5   0  0.3676724E-05  0.1911435E+04  0.7818609E-02  0.8649185E-01
       -2   -1    0    0    0  501  0.00000000000E+00  0.00000000000E+00  0.10790917037E+04  0.10790917037E+04  0.25500000920E-02 0. -1.
        2   -1    0    0  501    0  0.00000000000E+00  0.00000000000E+00 -0.84644864027E+03  0.84644864027E+03  0.25500000920E-02 0.  1.
    10030    2    1    2    0    0  0.00000000000E+00  0.00000000000E+00  0.23264306340E+03  0.19255403439E+04  0.19114347546E+04 0.  0.
        4    1    3    3  502    0 -0.41583629755E+03 -0.29384740304E+03  0.93107178439E+03  0.10612079924E+04  0.12699999809E+01 0. -1.
       -4    1    3    3    0  502  0.41583629755E+03  0.29384740304E+03 -0.69842872099E+03  0.86433235150E+03  0.12699999809E+01 0.  1.
</event>
<event>
 5   0  0.3568647E-05  0.2645931E+04  0.7818609E-02  0.8352765E-01
        2   -1    0    0  501    0  0.00000000000E+00  0.00000000000E+00  0.17528343827E+04  0.17528343827E+04  0.25500000920E-02 0. -1.
       -2   -1    0    0    0  501  0.00000000000E+00  0.00000000000E+00 -0.99851823115E+03  0.99851823116E+03  0.25500000920E-02 0.  1.
    10030    2    1    2    0    0  0.00000000000E+00  0.00000000000E+00  0.75431615157E+03  0.27513526139E+04  0.26459305262E+04 0.  0.
        3    1    3    3  502    0  0.82671858518E+03 -0.12819340554E+03 -0.68853648720E+03  0.10835034253E+04  0.10100000352E+00 0.  1.
       -3    1    3    3    0  502 -0.82671858518E+03  0.12819340554E+03  0.14428526388E+04  0.16678491885E+04  0.10100000352E+00 0. -1.
</event>
<event>
 5   0  0.1474012E-05  0.2496239E+04  0.7818609E-02  0.8404327E-01
       -1   -1    0    0    0  501  0.00000000000E+00  0.00000000000E+00  0.10537078642E+04  0.10537078642E+04  0.50400001928E-02 0.  1.
        1   -1    0    0  501    0  0.00000000000E+00  0.00000000000E+00 -0.14784009000E+04  0.14784009000E+04  0.50400001928E-02 0. -1.
    10030    2    1    2    0    0  0.00000000000E+00  0.00000000000E+00 -0.42469303584E+03  0.25321087642E+04  0.24962392952E+04 0.  0.
        2    1    3    3  502    0  0.78262722812E+03 -0.92086937536E+03  0.10406011262E+03  0.12129856931E+04  0.25500000920E-02 0.  1.
       -2    1    3    3    0  502 -0.78262722812E+03  0.92086937536E+03 -0.52875314846E+03  0.13191230711E+04  0.25500000920E-02 0. -1.
</event>
<event>
 5   0  0.1484379E-05  0.2688990E+04  0.7818609E-02  0.8338586E-01
       -1   -1    0    0    0  501  0.00000000000E+00  0.00000000000E+00  0.97751304914E+03  0.97751304915E+03  0.50400001928E-02 0. -1.
        1   -1    0    0  501    0  0.00000000000E+00  0.00000000000E+00 -0.18492513876E+04  0.18492513876E+04  0.50400001928E-02 0.  1.
    10030    2    1    2    0    0  0.00000000000E+00  0.00000000000E+00 -0.87173833848E+03  0.28267644368E+04  0.26889904147E+04 0.  0.
        1    1    3    3  502    0  0.61059790915E+03 -0.11951026907E+04 -0.35067935674E+03  0.13871107595E+04  0.50400001928E-02 0. -1.
       -1    1    3    3    0  502 -0.61059790915E+03  0.11951026907E+04 -0.52105898173E+03  0.14396536772E+04  0.50400001928E-02 0.  1.
</event>
<event>
 5   0  0.3652331E-05  0.1455994E+04  0.7818609E-02  0.8914256E-01
       -2   -1    0    0    0  501  0.00000000000E+00  0.00000000000E+00  0.44020808229E+03  0.44020808229E+03  0.25500000920E-02 0. -1.
        2   -1    0    0  501    0  0.00000000000E+00  0.00000000000E+00 -0.12039295142E+04  0.12039295142E+04  0.25500000920E-02 0.  1.
    10030    2    1    2    0    0  0.00000000000E+00  0.00000000000E+00 -0.76372143188E+03  0.16441375965E+04  0.14559938223E+04 0.  0.
        1    1    3    3  502    0  0.22210140651E+03  0.46976386790E+03  0.19390026564E+03  0.55462098716E+03  0.50400001928E-02 0. -1.
       -1    1    3    3    0  502 -0.22210140651E+03 -0.46976386790E+03 -0.95762169752E+03  0.10895166093E+04  0.50400001928E-02 0.  1.
</event>
<event>
 5   0  0.1495517E-05  0.2607323E+04  0.7818609E-02  0.8365718E-01
       -1   -1    0    0    0  501  0.00000000000E+00  0.00000000000E+00  0.80311372951E+03  0.80311372952E+03  0.50400001928E-02 0.  1.
        1   -1    0    0  501    0  0.00000000000E+00  0.00000000000E+00 -0.21161795316E+04  0.21161795317E+04  0.50400001928E-02 0. -1.
    10030    2    1    2    0    0  0.00000000000E+00  0.00000000000E+00 -0.13130658021E+04  0.29192932612E+04  0.26073226390E+04 0.  0.
        5    1    3    3  502    0  0.75429529212E+03  0.85184132106E+03  0.55934944742E+02  0.11391864782E+04  0.46999998093E+01 0.  1.
       -5    1    3    3    0  502 -0.75429529212E+03 -0.85184132106E+03 -0.13690007469E+04  0.17801067830E+04  0.46999998093E+01 0. -1.
</event>
<event>
 5   0  0.1438701E-05  0.2728644E+04  0.7818609E-02  0.8325770E-01
       -1   -1    0    0    0  501  0.00000000000E+00  0.00000000000E+00  0.91711900702E+03  0.91711900703E+03  0.50400001928E-02 0. -1.
        1   -1    0    0  501    0  0.00000000000E+00  0.00000000000E+00 -0.20295890074E+04  0.20295890074E+04  0.50400001928E-02 0.  1.
    10030    2    1    2    0    0  0.00000000000E+00  0.00000000000E+00 -0.11124700004E+04  0.29467080144E+04  0.27286440993E+04 0.  0.
        4    1    3    3  502    0  0.15620445259E+03 -0.12372132151E+02 -0.20198387956E+04  0.20259080122E+04  0.12699999809E+01 0.  1.
       -4    1    3    3    0  502 -0.15620445259E+03  0.12372132151E+02  0.90736879524E+03  0.92080000225E+03  0.12699999809E+01 0. -1.
</event>
<event>
 5   0  0.3568647E-05  0.1943480E+04  0.7818609E-02  0.8633511E-01
        2   -1    0    0  501    0  0.00000000000E+00  0.00000000000E+00  0.96069891706E+03  0.96069891706E+03  0.25500000920E-02 0.  1.
       -2   -1    0    0    0  501  0.00000000000E+00  0.00000000000E+00 -0.98290813690E+03  0.98290813690E+03  0.25500000920E-02 0. -1.
    10030    2    1    2    0    0  0.00000000000E+00  0.00000000000E+00 -0.22209219846E+02  0.19436070540E+04  0.19434801596E+04 0.  0.
        3    1    3    3  502    0  0.83282245627E+03 -0.46657162729E+03 -0.19276570757E+03  0.97387933302E+03  0.10100000352E+00 0. -1.
       -3    1    3    3    0  502 -0.83282245627E+03  0.46657162729E+03  0.17055648772E+03  0.96972772095E+03  0.10100000352E+00 0.  1.
</event>
<event>
 5   0  0.1438701E-05  0.2490993E+04  0.7818609E-02  0.8406202E-01
       -1   -1    0    0    0  501  0.00000000000E+00  0.00000000000E+00  0.80960100798E+03  0.80960100799E+03  0.50400001928E-02 0. -1.
        1   -1    0    0  501    0  0.00000000000E+00  0.00000000000E+00 -0.19160808742E+04  0.19160808742E+04  0.50400001928E-02 0.  1.
    10030    2    1    2    0    0  0.00000000000E+00  0.00000000000E+00 -0.11064798662E+04  0.27256818822E+04  0.24909925790E+04 0.  0.
        4    1    3    3  502    0  0.24839291875E+02  0.11221052351E+04  0.37557478094E+02  0.11230090499E+04  0.12699999809E+01 0.  1.
       -4    1    3    3    0  502 -0.24839291875E+02 -0.11221052351E+04 -0.11440373443E+04  0.16026728322E+04  0.12699999809E+01 0. -1.
</event>
<event>
 5   0  0.1484379E-05  0.2340039E+04  0.7818609E-02  0.8462299E-01
       -1   -1    0    0    0  501  0.00000000000E+00  0.00000000000E+00  0.75325577037E+03  0.75325577039E+03  0.50400001928E-02 0. -1.
        1   -1    0    0  501    0  0.00000000000E+00  0.00000000000E+00 -0.18173721181E+04  0.18173721181E+04  0.50400001928E-02 0.  1.
    10030    2    1    2    0    0  0.00000000000E+00  0.00000000000E+00 -0.10641163477E+04  0.25706278885E+04  0.23400393457E+04 0.  0.
        1    1    3    3  502    0  0.81371560236E+03 -0.10839498147E+03  0.38380013698E+03  0.90619263885E+03  0.50400001928E-02 0. -1.
       -1    1    3    3    0  502 -0.81371560236E+03  0.10839498147E+03 -0.14479164847E+04  0.16644352496E+04  0.50400001928E-02 0.  1.
</event>
<event>
 5   0  0.1474012E-05  0.2676354E+04  0.7818609E-02  0.8342718E-01
        1   -1    0    0  501    0  0.00000000000E+00  0.00000000000E+00  0.16590396429E+04  0.16590396429E+04  0.50400001928E-02 0. -1.
       -1   -1    0    0    0  501  0.00000000000E+00  0.00000000000E+00 -0.10793701738E+04  0.10793701738E+04  0.50400001928E-02 0.  1.
    10030    2    1    2    0    0  0.00000000000E+00  0.00000000000E+00  0.57966946910E+03  0.27384098168E+04  0.26763541677E+04 0.  0.
        2    1    3    3  502    0  0.53788058881E+03 -0.12250175840E+04  0.31756099601E+03  0.13750740326E+04  0.25500000920E-02 0. -1.
       -2    1    3    3    0  502 -0.53788058881E+03  0.12250175840E+04  0.26210847309E+03  0.13633357842E+04  0.25500000920E-02 0.  1.
</event>
<event>
 5   0  0.3652331E-05  0.2731651E+04  0.7818609E-02  0.8324808E-01
       -2   -1    0    0    0  501  0.00000000000E+00  0.00000000000E+00  0.73236119352E+03  0.73236119353E+03  0.25500000920E-02 0. -1.
        2   -1    0    0  501    0  0.00000000000E+00  0.00000000000E+00 -0.25472120315E+04  0.25472120315E+04  0.25500000920E-02 0.  1.
    10030    2    1    2    0    0  0.00000000000E+00  0.00000000000E+00 -0.18148508380E+04  0.32795732250E+04  0.27316509613E+04 0.  0.
        1    1    3    3  502    0 -0.76570943403E+03 -0.10228219569E+04 -0.32789879143E+03  0.13190880601E+04  0.50400001928E-02 0. -1.
       -1    1    3    3    0  502  0.76570943403E+03  0.10228219569E+04 -0.14869520465E+04  0.19604851649E+04  0.50400001928E-02 0.  1.
</event>
<event>
 5   0  0.1228050E-05  0.2626798E+04  0.7818609E-02  0.8359155E-01
        3   -1    0    0  501    0  0.00000000000E+00  0.00000000000E+00  0.12730727380E+04  0.12730727420E+04  0.10100000352E+00 0.  1.
       -3   -1    0    0    0  501  0.00000000000E+00  0.00000000000E+00 -0.13550022582E+04  0.13550022620E+04  0.10100000352E+00 0. -1.
    10030    2    1    2    0    0  0.00000000000E+00  0.00000000000E+00 -0.81929520244E+02  0.26280750040E+04  0.26267976284E+04 0.  0.
        4    1    3    3  502    0 -0.47794998892E+03  0.12212446365E+04  0.30765138856E+02  0.13118013420E+04  0.12699999809E+01 0. -1.
       -4    1    3    3    0  502  0.47794998892E+03 -0.12212446365E+04 -0.11269465910E+03  0.13162736620E+04  0.12699999809E+01 0.  1.
</event>
<event>
 5   0  0.3568647E-05  0.2633455E+04  0.7818609E-02  0.8356925E-01
        2   -1    0    0  501    0  0.00000000000E+00  0.00000000000E+00  0.18251006750E+04  0.18251006750E+04  0.25500000920E-02 0.  1.
       -2   -1    0    0    0  501  0.00000000000E+00  0.00000000000E+00 -0.94995928714E+03  0.94995928714E+03  0.25500000920E-02 0. -1.
    10030    2    1    2    0    0  0.00000000000E+00  0.00000000000E+00  0.87514138787E+03  0.27750599622E+04  0.26334550205E+04 0.  0.
        3    1    3    3  502    0  0.76371069211E+03 -0.10409069120E+04  0.71039396862E+03  0.14735673794E+04  0.10100000352E+00 0.  1.
       -3    1    3    3    0  502 -0.76371069211E+03  0.10409069120E+04  0.16474741924E+03  0.13014925828E+04  0.10100000352E+00 0. -1.
</event>
<event>
 5   0  0.3514294E-05  0.2698453E+04  0.7818609E-02  0.8335507E-01
        2   -1    0    0  501    0  0.00000000000E+00  0.00000000000E+00  0.95993363999E+03  0.95993364000E+03  0.25500000920E-02 0. -1.
       -2   -1    0    0    0  501  0.00000000000E+00  0.00000000000E+00 -0.18963942122E+04  0.18963942122E+04  0.25500000920E-02 0.  1.
    10030    2    1    2    0    0  0.00000000000E+00  0.00000000000E+00 -0.93646057220E+03  0.28563278522E+04  0.26984533340E+04 0.  0.
        2    1    3    3  502    0 -0.81877836368E+03  0.43094362754E+03  0.57121041187E+03  0.10873783857E+04  0.25500000920E-02 0. -1.
       -2    1    3    3    0  502  0.81877836368E+03 -0.43094362754E+03 -0.15076709841E+04  0.17689494665E+04  0.25500000920E-02 0.  1.
</event>
<event>
 5   0  0.3676724E-05  0.2681080E+04  0.7818609E-02  0.8341170E-01
        2   -1    0    0  501    0  0.00000000000E+00  0.00000000000E+00  0.17970773707E+04  0.17970773707E+04  0.25500000920E-02 0. -1.
       -2   -1    0    0    0  501  0.00000000000E+00  0.00000000000E+00 -0.99998355036E+03  0.99998355036E+03  0.25500000920E-02 0.  1.
    10030    2    1    2    0    0  0.00000000000E+00  0.00000000000E+00  0.79709382038E+03  0.27970609211E+04  0.26810802371E+04 0.  0.
        4    1    3    3  502    0  0.34217708536E+03 -0.34598622917E+03  0.17016832191E+04  0.17698923752E+04  0.12699999809E+01 0. -1.
       -4    1    3    3    0  502 -0.34217708536E+03  0.34598622917E+03 -0.90458939874E+03  0.10271685459E+04  0.12699999809E+01 0.  1.
</event>
<event>
 5   0  0.3568647E-05  0.1678005E+04  0.7818609E-02  0.8774009E-01
       -2   -1    0    0    0  501  0.00000000000E+00  0.00000000000E+00  0.14921787270E+04  0.14921787270E+04  0.25500000920E-02 0.  1.
        2   -1    0    0  501    0  0.00000000000E+00  0.00000000000E+00 -0.47174308611E+03  0.47174308611E+03  0.25500000920E-02 0. -1.
    10030    2    1    2    0    0  0.00000000000E+00  0.00000000000E+00  0.10204356409E+04  0.19639218132E+04  0.16780047649E+04 0.  0.
        3    1    3    3  502    0  0.33302458653E+03  0.54236725988E+03  0.11500454461E+04  0.13144094333E+04  0.10100000352E+00 0.  1.
       -3    1    3    3    0  502 -0.33302458653E+03 -0.54236725988E+03 -0.12960980522E+03  0.64951237990E+03  0.10100000352E+00 0. -1.
</event>
<event>
 5   0  0.1531083E-05  0.1404982E+04  0.7818609E-02  0.8950220E-01
       -1   -1    0    0    0  501  0.00000000000E+00  0.00000000000E+00  0.30036315493E+03  0.30036315497E+03  0.50400001928E-02 0.  1.
        1   -1    0    0  501    0  0.00000000000E+00  0.00000000000E+00 -0.16429908814E+04  0.16429908814E+04  0.50400001928E-02 0. -1.
    10030    2    1    2    0    0  0.00000000000E+00  0.00000000000E+00 -0.13426277265E+04  0.19433540364E+04  0.14049824550E+04 0.  0.
        1    1    3    3  502    0 -0.52178556939E+03  0.40317457281E+03 -0.10063880020E+04  0.12031736064E+04  0.50400001928E-02 0. -1.
       -1    1    3    3    0  502  0.52178556939E+03 -0.40317457281E+03 -0.33623972451E+03  0.74018042999E+03  0.50400001928E-02 0.  1.
</event>
<event>
 5   0  0.1228050E-05  0.2672717E+04  0.7818609E-02  0.8343912E-01
        3   -1    0    0  501    0  0.00000000000E+00  0.00000000000E+00  0.16866594545E+04  0.16866594575E+04  0.10100000352E+00 0. -1.
       -3   -1    0    0    0  501  0.00000000000E+00  0.00000000000E+00 -0.10588108894E+04  0.10588108942E+04  0.10100000352E+00 0.  1.
    10030    2    1    2    0    0  0.00000000000E+00  0.00000000000E+00  0.62784856508E+03  0.27454703517E+04  0.26727165266E+04 0.  0.
        2    1    3    3  502    0 -0.17049249377E+02  0.58108964545E+03 -0.92211643191E+03  0.10900709000E+04  0.25500000920E-02 0.  1.
       -2    1    3    3    0  502  0.17049249377E+02 -0.58108964545E+03  0.15499649970E+04  0.16553994517E+04  0.25500000920E-02 0. -1.
</event>
<event>
 5   0  0.1228050E-05  0.2705721E+04  0.7818609E-02  0.8333151E-01
        3   -1    0    0  501    0  0.00000000000E+00  0.00000000000E+00  0.11538006760E+04  0.11538006805E+04  0.10100000352E+00 0. -1.
       -3   -1    0    0    0  501  0.00000000000E+00  0.00000000000E+00 -0.15862635441E+04  0.15862635474E+04  0.10100000352E+00 0.  1.
    10030    2    1    2    0    0  0.00000000000E+00  0.00000000000E+00 -0.43246286810E+03  0.27400642278E+04  0.27057213161E+04 0.  0.
        5    1    3    3  502    0  0.64468487398E+03  0.28440486593E+03 -0.13857512771E+04  0.15546168037E+04  0.46999998093E+01 0.  1.
       -5    1    3    3    0  502 -0.64468487398E+03 -0.28440486593E+03  0.95328840900E+03  0.11854474241E+04  0.46999998093E+01 0. -1.
</event>
<event>
 5   0  0.3676724E-05  0.2920412E+04  0.7818609E-02  0.8266830E-01
       -2   -1    0    0    0  501  0.00000000000E+00  0.00000000000E+00  0.12050508098E+04  0.12050508098E+04  0.25500000920E-02 0.  1.
        2   -1    0    0  501    0  0.00000000000E+00  0.00000000000E+00 -0.17693867293E+04  0.17693867293E+04  0.25500000920E-02 0. -1.
    10030    2    1    2    0    0  0.00000000000E+00  0.00000000000E+00 -0.56433591945E+03  0.29744375391E+04  0.29204115539E+04 0.  0.
        4    1    3    3  502    0 -0.53655099189E+03  0.28309830580E+02  0.11007093432E+04  0.12248473719E+04  0.12699999809E+01 0.  1.
       -4    1    3    3    0  502  0.53655099189E+03 -0.28309830580E+02 -0.16650452627E+04  0.17495901672E+04  0.12699999809E+01 0. -1.
</event>
<event>
 5   0  0.3514294E-05  0.2695012E+04  0.7818609E-02  0.8336625E-01
        2   -1    0    0  501    0  0.00000000000E+00  0.00000000000E+00  0.16192329897E+04  0.16192329897E+04  0.25500000920E-02 0.  1.
       -2   -1    0    0    0  501  0.00000000000E+00  0.00000000000E+00 -0.11213784408E+04  0.11213784408E+04  0.25500000920E-02 0. -1.
    10030    2    1    2    0    0  0.00000000000E+00  0.00000000000E+00  0.49785454888E+03  0.27406114305E+04  0.26950124046E+04 0.  0.
        2    1    3    3  502    0 -0.33485585412E+03 -0.10300476711E+04  0.10641432988E+04  0.15183963937E+04  0.25500000920E-02 0.  1.
       -2    1    3    3    0  502  0.33485585412E+03  0.10300476711E+04 -0.56628874995E+03  0.12222150368E+04  0.25500000920E-02 0. -1.
</event>
<event>
 5   0  0.1474012E-05  0.2761154E+04  0.7818609E-02  0.8315431E-01
        1   -1    0    0  501    0  0.00000000000E+00  0.00000000000E+00  0.25243052239E+04  0.25243052239E+04  0.50400001928E-02 0.  1.
       -1   -1    0    0    0  501  0.00000000000E+00  0.00000000000E+00 -0.75505634923E+03  0.75505634925E+03  0.50400001928E-02 0. -1.
    10030    2    1    2    0    0  0.00000000000E+00  0.00000000000E+00  0.17692488746E+04  0.32793615731E+04  0.27611538796E+04 0.  0.
        2    1    3    3  502    0  0.16563000252E+03  0.10070159268E+04 -0.21964675821E+03  0.10439152613E+04  0.25500000920E-02 0. -1.
       -2    1    3    3    0  502 -0.16563000252E+03 -0.10070159268E+04  0.19888956329E+04  0.22354463118E+04  0.25500000920E-02 0.  1.
</event>
<event>
 5   0  0.1228050E-05  0.1939579E+04  0.7818609E-02  0.8635403E-01
       -4   -1    0    0    0  501  0.00000000000E+00  0.00000000000E+00  0.97750630593E+03  0.97750713094E+03  0.12699999809E+01 0.  1.
        4   -1    0    0  501    0  0.00000000000E+00  0.00000000000E+00 -0.96213147559E+03  0.96213231378E+03  0.12699999809E+01 0. -1.
    10030    2    1    2    0    0  0.00000000000E+00  0.00000000000E+00  0.15374830342E+02  0.19396394447E+04  0.19395785084E+04 0.  0.
        5    1    3    3  502    0  0.16673998760E+03 -0.95219855697E+03  0.85051284158E+02  0.97043295817E+03  0.46999998093E+01 0.  1.
       -5    1    3    3    0  502 -0.16673998760E+03  0.95219855697E+03 -0.69676453816E+02  0.96920648655E+03  0.46999998093E+01 0. -1.
</event>
<event>
 5   0  0.3652331E-05  0.2683859E+04  0.7818609E-02  0.8340261E-01
       -2   -1    0    0    0  501  0.00000000000E+00  0.00000000000E+00  0.61280453602E+03  0.61280453603E+03  0.25500000920E-02 0. -1.
        2   -1    0    0  501    0  0.00000000000E+00  0.00000000000E+00 -0.29385791861E+04  0.29385791861E+04  0.25500000920E-02 0.  1.
    10030    2    1    2    0    0  0.00000000000E+00  0.00000000000E+00 -0.23257746500E+04  0.35513837221E+04  0.26838589044E+04 0.  0.
        1    1    3    3  502    0  0.10012734023E+03 -0.75486578217E+03 -0.26250063783E+04  0.27332226985E+04  0.50400001928E-02 0.  1.
       -1    1    3    3    0  502 -0.10012734023E+03  0.75486578217E+03  0.29923172825E+03  0.81816102362E+03  0.50400001928E-02 0. -1.
</event>
<event>
 5   0  0.1438701E-05  0.2683285E+04  0.7818609E-02  0.8340449E-01
        1   -1    0    0  501    0  0.00000000000E+00  0.00000000000E+00  0.10328843709E+04  0.10328843710E+04  0.50400001928E-02 0. -1.
       -1   -1    0    0    0  501  0.00000000000E+00  0.00000000000E+00 -0.17426967851E+04  0.17426967851E+04  0.50400001928E-02 0.  1.
    10030    2    1    2    0    0  0.00000000000E+00  0.00000000000E+00 -0.70981241414E+03  0.27755811561E+04  0.26832847576E+04 0.  0.
        4    1    3    3  502    0 -0.97617533082E+03 -0.16023115631E+03  0.58258511132E+03  0.11480415170E+04  0.12699999809E+01 0. -1.
       -4    1    3    3    0  502  0.97617533082E+03  0.16023115631E+03 -0.12923975255E+04  0.16275396390E+04  0.12699999809E+01 0.  1.
</event>
<event>
 5   0  0.1495517E-05  0.2636497E+04  0.7818609E-02  0.8355909E-01
        1   -1    0    0  501    0  0.00000000000E+00  0.00000000000E+00  0.10682205842E+04  0.10682205842E+04  0.50400001928E-02 0.  1.
       -1   -1    0    0    0  501  0.00000000000E+00  0.00000000000E+00 -0.16267980273E+04  0.16267980273E+04  0.50400001928E-02 0. -1.
    10030    2    1    2    0    0  0.00000000000E+00  0.00000000000E+00 -0.55857744305E+03  0.26950186115E+04  0.26364970238E+04 0.  0.
        5    1    3    3  502    0 -0.20098327638E+03  0.12986944291E+04 -0.17327774775E+03  0.13255371611E+04  0.46999998093E+01 0. -1.
       -5    1    3    3    0  502  0.20098327638E+03 -0.12986944291E+04 -0.38529969530E+03  0.13694814504E+04  0.46999998093E+01 0.  1.
</event>
<event>
 5   0  0.1484379E-05  0.2468687E+04  0.7818609E-02  0.8414227E-01
        1   -1    0    0  501    0  0.00000000000E+00  0.00000000000E+00  0.11904398679E+04  0.11904398679E+04  0.50400001928E-02 0. -1.
       -1   -1    0    0    0  501  0.00000000000E+00  0.00000000000E+00 -0.12798665160E+04  0.12798665160E+04  0.50400001928E-02 0.  1.
    10030    2    1    2    0    0  0.00000000000E+00  0.00000000000E+00 -0.89426648090E+02  0.24703063839E+04  0.24686872027E+04 0.  0.
        1    1    3    3  502    0 -0.47424310859E+03 -0.90984112922E+03  0.64194861588E+03  0.12102955969E+04  0.50400001928E-02 0. -1.
       -1    1    3    3    0  502  0.47424310859E+03  0.90984112922E+03 -0.73137526397E+03  0.12600107870E+04  0.50400001928E-02 0.  1.
</event>
<event>
 5   0  0.1449521E-05  0.2714718E+04  0.7818609E-02  0.8330245E-01
        1   -1    0    0  501    0  0.00000000000E+00  0.00000000000E+00  0.13569569738E+04  0.13569569738E+04  0.50400001928E-02 0. -1.
       -1   -1    0    0    0  501  0.00000000000E+00  0.00000000000E+00 -0.13577613284E+04  0.13577613284E+04  0.50400001928E-02 0.  1.
    10030    2    1    2    0    0  0.00000000000E+00  0.00000000000E+00 -0.80435456818E+00  0.27147183022E+04  0.27147181831E+04 0.  0.
        3    1    3    3  502    0 -0.62282432717E+03  0.35630222495E+02  0.12051035944E+04  0.13570019671E+04  0.10100000352E+00 0. -1.
       -3    1    3    3    0  502  0.62282432717E+03 -0.35630222495E+02 -0.12059079489E+04  0.13577163352E+04  0.10100000352E+00 0.  1.
</event>
<event>
 5   0  0.3568647E-05  0.2769224E+04  0.7818609E-02  0.8312887E-01
        2   -1    0    0  501    0  0.00000000000E+00  0.00000000000E+00  0.15398053544E+04  0.15398053544E+04  0.25500000920E-02 0. -1.
       -2   -1    0    0    0  501  0.00000000000E+00  0.00000000000E+00 -0.12450604131E+04  0.12450604131E+04  0.25500000920E-02 0.  1.
    10030    2    1    2    0    0  0.00000000000E+00  0.00000000000E+00  0.29474494138E+03  0.27848657675E+04  0.27692242167E+04 0.  0.
        3    1    3    3  502    0 -0.76894436357E+03 -0.53869855982E+02 -0.10093300529E+04  0.12700096699E+04  0.10100000352E+00 0.  1.
       -3    1    3    3    0  502  0.76894436357E+03  0.53869855982E+02  0.13040749943E+04  0.15148560976E+04  0.10100000352E+00 0. -1.
</event>
<event>
 5   0  0.3652331E-05  0.2649710E+04  0.7818609E-02  0.8351509E-01
        2   -1    0    0  501    0  0.00000000000E+00  0.00000000000E+00  0.11462178047E+04  0.11462178047E+04  0.25500000920E-02 0. -1.
       -2   -1    0    0    0  501  0.00000000000E+00  0.00000000000E+00 -0.15313323727E+04  0.15313323727E+04  0.25500000920E-02 0.  1.
    10030    2    1    2    0    0  0.00000000000E+00  0.00000000000E+00 -0.38511456799E+03  0.26775501774E+04  0.26497097430E+04 0.  0.
        1    1    3    3  502    0 -0.14998937544E+02 -0.24489073793E+03  0.11230607023E+04  0.11495485126E+04  0.50400001928E-02 0. -1.
       -1    1    3    3    0  502  0.14998937544E+02  0.24489073793E+03 -0.15081752703E+04  0.15280016648E+04  0.50400001928E-02 0.  1.
</event>
<event>
 5   0  0.1228050E-05  0.2579874E+04  0.7818609E-02  0.8375070E-01
       -3   -1    0    0    0  501  0.00000000000E+00  0.00000000000E+00  0.19298059998E+04  0.19298060025E+04  0.10100000352E+00 0. -1.
        3   -1    0    0  501    0  0.00000000000E+00  0.00000000000E+00 -0.86223071169E+03  0.86223071760E+03  0.10100000352E+00 0.  1.
    10030    2    1    2    0    0  0.00000000000E+00  0.00000000000E+00  0.10675752881E+04  0.27920367201E+04  0.25798744253E+04 0.  0.
        4    1    3    3  502    0 -0.64398405162E+03  0.38682947932E+03  0.16686331536E+04  0.18299428185E+04  0.12699999809E+01 0. -1.
       -4    1    3    3    0  502  0.64398405162E+03 -0.38682947932E+03 -0.60105786549E+03  0.96209390154E+03  0.12699999809E+01 0.  1.
</event>
<event>
 5   0  0.3676724E-05  0.2641212E+04  0.7818609E-02  0.8354336E-01
       -2   -1    0    0    0  501  0.00000000000E+00  0.00000000000E+00  0.27946425561E+04  0.27946425561E+04  0.25500000920E-02 0.  1.
        2   -1    0    0  501    0  0.00000000000E+00  0.00000000000E+00 -0.62405106489E+03  0.62405106489E+03  0.25500000920E-02 0. -1.
    10030    2    1    2    0    0  0.00000000000E+00  0.00000000000E+00  0.21705914913E+04  0.34186936210E+04  0.26412115880E+04 0.  0.
        4    1    3    3  502    0 -0.74975141795E+03 -0.45397739290E+03 -0.19329606222E+03  0.89754534290E+03  0.12699999809E+01 0. -1.
       -4    1    3    3    0  502  0.74975141795E+03  0.45397739290E+03  0.23638875535E+04  0.25211482781E+04  0.12699999809E+01 0.  1.
</event>
<event>
 5   0  0.1474012E-05  0.2686801E+04  0.7818609E-02  0.8339300E-01
       -1   -1    0    0    0  501  0.00000000000E+00  0.00000000000E+00  0.15331505193E+04  0.15331505194E+04  0.50400001928E-02 0. -1.
        1   -1    0    0  501    0  0.00000000000E+00  0.00000000000E+00 -0.11771352204E+04  0.11771352205E+04  0.50400001928E-02 0.  1.
    10030    2    1    2    0    0  0.00000000000E+00  0.00000000000E+00  0.35601529890E+03  0.27102857398E+04  0.26868014252E+04 0.  0.
        2    1    3    3  502    0  0.36856259023E+03  0.29426292236E+03  0.14468960677E+04  0.15218203840E+04  0.25500000920E-02 0. -1.
       -2    1    3    3    0  502 -0.36856259023E+03 -0.29426292236E+03 -0.10908807688E+04  0.11884653559E+04  0.25500000920E-02 0.  1.
</event>
<event>
 5   0  0.3497949E-05  0.2417651E+04  0.7818609E-02  0.8432925E-01
       -2   -1    0    0    0  501  0.00000000000E+00  0.00000000000E+00  0.12691252541E+04  0.12691252541E+04  0.25500000920E-02 0.  1.
        2   -1    0    0  501    0  0.00000000000E+00  0.00000000000E+00 -0.11513910379E+04  0.11513910379E+04  0.25500000920E-02 0. -1.
    10030    2    1    2    0    0  0.00000000000E+00  0.00000000000E+00  0.11773421616E+03  0.24205162920E+04  0.24176512929E+04 0.  0.
        5    1    3    3  502    0 -0.67678009624E+03 -0.61014762652E+03  0.85411685006E+03  0.12489391932E+04  0.46999998093E+01 0.  1.
       -5    1    3    3    0  502  0.67678009624E+03  0.61014762652E+03 -0.73638263390E+03  0.11715770988E+04  0.46999998093E+01 0. -1.
</event>
<event>
 5   0  0.3497949E-05  0.2585804E+04  0.7818609E-02  0.8373039E-01
        2   -1    0    0  501    0  0.00000000000E+00  0.00000000000E+00  0.19836519695E+04  0.19836519695E+04  0.25500000920E-02 0. -1.
       -2   -1    0    0    0  501  0.00000000000E+00  0.00000000000E+00 -0.84268619899E+03  0.84268619899E+03  0.25500000920E-02 0.  1.
    10030    2    1    2    0    0  0.00000000000E+00  0.00000000000E+00  0.11409657705E+04  0.28263381685E+04  0.25858044306E+04 0.  0.
        5    1    3    3  502    0 -0.11107080490E+04  0.60498738111E+03  0.86355100003E+03  0.15314778879E+04  0.46999998093E+01 0. -1.
       -5    1    3    3    0  502  0.11107080490E+04 -0.60498738111E+03  0.27741477051E+03  0.12948602806E+04  0.46999998093E+01 0.  1.
</event>
<event>
 5   0  0.3568647E-05  0.2845083E+04  0.7818609E-02  0.8289407E-01
        2   -1    0    0  501    0  0.00000000000E+00  0.00000000000E+00  0.25125503675E+04  0.25125503675E+04  0.25500000920E-02 0.  1.
       -2   -1    0    0    0  501  0.00000000000E+00  0.00000000000E+00 -0.80540648242E+03  0.80540648242E+03  0.25500000920E-02 0. -1.
    10030    2    1    2    0    0  0.00000000000E+00  0.00000000000E+00  0.17071438851E+04  0.33179568500E+04  0.28450830240E+04 0.  0.
        3    1    3    3  502    0  0.54562555049E+03  0.11548727013E+04  0.15839066052E+04  0.20347477341E+04  0.10100000352E+00 0.  1.
       -3    1    3    3    0  502 -0.54562555049E+03 -0.11548727013E+04  0.12323727995E+03  0.12832091158E+04  0.10100000352E+00 0. -1.
</event>
<event>
 5   0  0.3497949E-05  0.2680289E+04  0.7818609E-02  0.8341429E-01
       -2   -1    0    0    0  501  0.00000000000E+00  0.00000000000E+00  0.10712179018E+04  0.10712179018E+04  0.25500000920E-02 0. -1.
        2   -1    0    0  501    0  0.00000000000E+00  0.00000000000E+00 -0.16765846295E+04  0.16765846295E+04  0.25500000920E-02 0.  1.
    10030    2    1    2    0    0  0.00000000000E+00  0.00000000000E+00 -0.60536672769E+03  0.27478025312E+04  0.26802891403E+04 0.  0.
        5    1    3    3  502    0 -0.63022226713E+03 -0.11816546044E+04 -0.35371335623E+03  0.13851436526E+04  0.46999998093E+01 0.  1.
       -5    1    3    3    0  502  0.63022226713E+03  0.11816546044E+04 -0.25165337146E+03  0.13626588786E+04  0.46999998093E+01 0. -1.
</event>
<event>
 5   0  0.3514294E-05  0.2014652E+04  0.7818609E-02  0.8599801E-01
       -2   -1    0    0    0  501  0.00000000000E+00  0.00000000000E+00  0.10687669111E+04  0.10687669111E+04  0.25500000920E-02 0. -1.
        2   -1    0    0  501    0  0.00000000000E+00  0.00000000000E+00 -0.94941673314E+03  0.94941673314E+03  0.25500000920E-02 0.  1.
    10030    2    1    2    0    0  0.00000000000E+00  0.00000000000E+00  0.11935017798E+03  0.20181836443E+04  0.20146515225E+04 0.  0.
        2    1    3    3  502    0 -0.23899336188E+03 -0.53546427189E+03 -0.76082462663E+03  0.96056958414E+03  0.25500000920E-02 0.  1.
       -2    1    3    3    0  502  0.23899336188E+03  0.53546427189E+03  0.88017480460E+03  0.10576140601E+04  0.25500000920E-02 0. -1.
</event>
<event>
 5   0  0.3497949E-05  0.2707571E+04  0.7818609E-02  0.8332553E-01
       -2   -1    0    0    0  501  0.00000000000E+00  0.00000000000E+00  0.80375104964E+03  0.80375104965E+03  0.25500000920E-02 0.  1.
        2   -1    0    0  501    0  0.00000000000E+00  0.00000000000E+00 -0.22802270796E+04  0.22802270796E+04  0.25500000920E-02 0. -1.
    10030    2    1    2    0    0  0.00000000000E+00  0.00000000000E+00 -0.14764760300E+04  0.30839781292E+04  0.27075707996E+04 0.  0.
        5    1    3    3  502    0  0.14961752596E+03 -0.84784445154E+02  0.79124998056E+03  0.80973602362E+03  0.46999998093E+01 0.  1.
       -5    1    3    3    0  502 -0.14961752596E+03  0.84784445154E+02 -0.22677260105E+04  0.22742421056E+04  0.46999998093E+01 0. -1.
</event>
<event>
 5   0  0.3514294E-05  0.3005622E+04  0.7818609E-02  0.8242127E-01
       -2   -1    0    0    0  501  0.00000000000E+00  0.00000000000E+00  0.23922004766E+04  0.23922004766E+04  0.25500000920E-02 0.  1.
        2   -1    0    0  501    0  0.00000000000E+00  0.00000000000E+00 -0.94408498727E+03  0.94408498727E+03  0.25500000920E-02 0. -1.
    10030    2    1    2    0    0  0.00000000000E+00  0.00000000000E+00  0.14481154893E+04  0.33362854638E+04  0.30056217703E+04 0.  0.
        2    1    3    3  502    0  0.66673910025E+03 -0.10526095949E+04 -0.20856141426E+03  0.12633391669E+04  0.25500000920E-02 0. -1.
       -2    1    3    3    0  502 -0.66673910025E+03  0.10526095949E+04  0.16566769036E+04  0.20729462969E+04  0.25500000920E-02 0.  1.
</event>
<event>
 5   0  0.3676724E-05  0.2857958E+04  0.7818609E-02  0.8285497E-01
       -2   -1    0    0    0  501  0.00000000000E+00  0.00000000000E+00  0.12037098575E+04  0.12037098575E+04  0.25500000920E-02 0. -1.
        2   -1    0    0  501    0  0.00000000000E+00  0.00000000000E+00 -0.16964057465E+04  0.16964057465E+04  0.25500000920E-02 0.  1.
    10030    2    1    2    0    0  0.00000000000E+00  0.00000000000E+00 -0.49269588899E+03  0.29001156041E+04  0.28579575361E+04 0.  0.
        4    1    3    3  502    0  0.33750777677E+03 -0.80981209450E+03  0.89824074799E+03  0.12556055041E+04  0.12699999809E+01 0. -1.
       -4    1    3    3    0  502 -0.33750777677E+03  0.80981209450E+03 -0.13909366370E+04  0.16445100999E+04  0.12699999809E+01 0.  1.
</event>
<event>
 5   0  0.3652331E-05  0.2705324E+04  0.7818609E-02  0.8333280E-01
        2   -1    0    0  501    0  0.00000000000E+00  0.00000000000E+00  0.80800825326E+03  0.80800825326E+03  0.25500000920E-02 0. -1.
       -2   -1    0    0    0  501  0.00000000000E+00  0.00000000000E+00 -0.22644503895E+04  0.22644503895E+04  0.25500000920E-02 0.  1.
    10030    2    1    2    0    0  0.00000000000E+00  0.00000000000E+00 -0.14564421362E+04  0.30724586427E+04  0.27053240869E+04 0.  0.
        1    1    3    3  502    0 -0.23807279582E+03  0.29741339920E+03  0.74582190724E+03  0.83748653928E+03  0.50400001928E-02 0. -1.
       -1    1    3    3    0  502  0.23807279582E+03 -0.29741339920E+03 -0.22022640434E+04  0.22349721034E+04  0.50400001928E-02 0.  1.
</event>
<event>
 5   0  0.1484379E-05  0.2752024E+04  0.7818609E-02  0.8318320E-01
       -1   -1    0    0    0  501  0.00000000000E+00  0.00000000000E+00  0.87707736236E+03  0.87707736238E+03  0.50400001928E-02 0. -1.
        1   -1    0    0  501    0  0.00000000000E+00  0.00000000000E+00 -0.21587703803E+04  0.21587703803E+04  0.50400001928E-02 0.  1.
    10030    2    1    2    0    0  0.00000000000E+00  0.00000000000E+00 -0.12816930180E+04  0.30358477427E+04  0.27520237144E+04 0.  0.
        1    1    3    3  502    0 -0.58450599754E+03  0.10838159865E+04 -0.13182673346E+04  0.18039215946E+04  0.50400001928E-02 0.  1.
       -1    1    3    3    0  502  0.58450599754E+03 -0.10838159865E+04  0.36574316682E+02  0.12319261481E+04  0.50400001928E-02 0. -1.
</event>
<event>
 5   0  0.1495517E-05  0.2705750E+04  0.7818609E-02  0.8333142E-01
       -1   -1    0    0    0  501  0.00000000000E+00  0.00000000000E+00  0.79015209860E+03  0.79015209862E+03  0.50400001928E-02 0.  1.
        1   -1    0    0  501    0  0.00000000000E+00  0.00000000000E+00 -0.23163532623E+04  0.23163532623E+04  0.50400001928E-02 0. -1.
    10030    2    1    2    0    0  0.00000000000E+00  0.00000000000E+00 -0.15262011637E+04  0.31065053609E+04  0.27057504625E+04 0.  0.
        5    1    3    3  502    0 -0.37932342371E+03  0.65284710087E+03 -0.20519320351E+04  0.21864452345E+04  0.46999998093E+01 0. -1.
       -5    1    3    3    0  502  0.37932342371E+03 -0.65284710087E+03  0.52573087145E+03  0.92006012635E+03  0.46999998093E+01 0.  1.
</event>
<event>
 5   0  0.1474012E-05  0.1502958E+04  0.7818609E-02  0.8882488E-01
        1   -1    0    0  501    0  0.00000000000E+00  0.00000000000E+00  0.10171724011E+04  0.10171724012E+04  0.50400001928E-02 0.  1.
       -1   -1    0    0    0  501  0.00000000000E+00  0.00000000000E+00 -0.55518692909E+03  0.55518692912E+03  0.50400001928E-02 0. -1.
    10030    2    1    2    0    0  0.00000000000E+00  0.00000000000E+00  0.46198547205E+03  0.15723593303E+04  0.15029581788E+04 0.  0.
        2    1    3    3  502    0 -0.44561291243E+03 -0.22568466680E+03 -0.35637393296E+03  0.61360151292E+03  0.25500000920E-02 0. -1.
       -2    1    3    3    0  502  0.44561291243E+03  0.22568466680E+03  0.81835940502E+03  0.95875781736E+03  0.25500000920E-02 0.  1.
</event>
<event>
 5   0  0.1495517E-05  0.2723713E+04  0.7818609E-02  0.8327352E-01
       -1   -1    0    0    0  501  0.00000000000E+00  0.00000000000E+00  0.12229304132E+04  0.12229304133E+04  0.50400001928E-02 0.  1.
        1   -1    0    0  501    0  0.00000000000E+00  0.00000000000E+00 -0.15165652509E+04  0.15165652509E+04  0.50400001928E-02 0. -1.
    10030    2    1    2    0    0  0.00000000000E+00  0.00000000000E+00 -0.29363483767E+03  0.27394956642E+04  0.27237134717E+04 0.  0.
        5    1    3    3  502    0 -0.83395950071E+03 -0.87765587284E+03  0.48038501156E+03  0.13025206829E+04  0.46999998093E+01 0. -1.
       -5    1    3    3    0  502  0.83395950071E+03  0.87765587284E+03 -0.77401984923E+03  0.14369749813E+04  0.46999998093E+01 0.  1.
</event>
<event>
 5   0  0.3652331E-05  0.2850866E+04  0.7818609E-02  0.8287648E-01
        2   -1    0    0  501    0  0.00000000000E+00  0.00000000000E+00  0.18700157760E+04  0.18700157760E+04  0.25500000920E-02 0. -1.
       -2   -1    0    0    0  501  0.00000000000E+00  0.00000000000E+00 -0.10865466526E+04  0.10865466526E+04  0.25500000920E-02 0.  1.
    10030    2    1    2    0    0  0.00000000000E+00  0.00000000000E+00  0.78346912344E+03  0.29565624286E+04  0.28508661012E+04 0.  0.
        1    1    3    3  502    0 -0.13025404536E+04 -0.14703395653E+03 -0.18905416382E+03  0.13243761152E+04  0.50400001928E-02 0.  1.
       -1    1    3    3    0  502  0.13025404536E+04  0.14703395653E+03  0.97252328726E+03  0.16321863135E+04  0.50400001928E-02 0. -1.
</event>
<event>
 5   0  0.3676724E-05  0.2594223E+04  0.7818609E-02  0.8370166E-01
       -2   -1    0    0    0  501  0.00000000000E+00  0.00000000000E+00  0.11757629266E+04  0.11757629266E+04  0.25500000920E-02 0. -1.
        2   -1    0    0  501    0  0.00000000000E+00  0.00000000000E+00 -0.14309844332E+04  0.14309844332E+04  0.25500000920E-02 0.  1.
    10030    2    1    2    0    0  0.00000000000E+00  0.00000000000E+00 -0.25522150659E+03  0.26067473598E+04  0.25942231554E+04 0.  0.
        4    1    3    3  502    0 -0.37355863249E+02 -0.91131930615E+03  0.79912072638E+03  0.12126392236E+04  0.12699999809E+01 0. -1.
       -4    1    3    3    0  502  0.37355863249E+02  0.91131930615E+03 -0.10543422330E+04  0.13941081362E+04  0.12699999809E+01 0.  1.
</event>
<event>
 5   0  0.1438701E-05  0.2686208E+04  0.7818609E-02  0.8339494E-01
        1   -1    0    0  501    0  0.00000000000E+00  0.00000000000E+00  0.13942528634E+04  0.13942528634E+04  0.50400001928E-02 0.  1.
       -1   -1    0    0    0  501  0.00000000000E+00  0.00000000000E+00 -0.12938318029E+04  0.12938318029E+04  0.50400001928E-02 0. -1.
    10030    2    1    2    0    0  0.00000000000E+00  0.00000000000E+00  0.10042106056E+03  0.26880846663E+04  0.26862082540E+04 0.  0.
        4    1    3    3  502    0 -0.90660837334E+03  0.70151276106E+03 -0.65018422012E+03  0.13178770920E+04  0.12699999809E+01 0. -1.
       -4    1    3    3    0  502  0.90660837334E+03 -0.70151276106E+03  0.75060528068E+03  0.13702075744E+04  0.12699999809E+01 0.  1.
</event>
<event>
 5   0  0.1474012E-05  0.2559225E+04  0.7818609E-02  0.8382185E-01
        1   -1    0    0  501    0  0.00000000000E+00  0.00000000000E+00  0.20216276642E+04  0.20216276642E+04  0.50400001928E-02 0. -1.
       -1   -1    0    0    0  501  0.00000000000E+00  0.00000000000E+00 -0.80994576486E+03  0.80994576487E+03  0.50400001928E-02 0.  1.
    10030    2    1    2    0    0  0.00000000000E+00  0.00000000000E+00  0.12116818993E+04  0.28315734291E+04  0.25592254803E+04 0.  0.
        2    1    3    3  502    0 -0.35844803475E+03 -0.12221070842E+04  0.74304592316E+03  0.14744992244E+04  0.25500000920E-02 0. -1.
       -2    1    3    3    0  502  0.35844803475E+03  0.12221070842E+04  0.46863597617E+03  0.13570742047E+04  0.25500000920E-02 0.  1.
</event>
<event>
 5   0  0.1474012E-05  0.2775024E+04  0.7818609E-02  0.8311065E-01
        1   -1    0    0  501    0  0.00000000000E+00  0.00000000000E+00  0.83119225934E+03  0.83119225935E+03  0.50400001928E-02 0. -1.
       -1   -1    0    0    0  501  0.00000000000E+00  0.00000000000E+00 -0.23161784450E+04  0.23161784450E+04  0.50400001928E-02 0.  1.
    10030    2    1    2    0    0  0.00000000000E+00  0.00000000000E+00 -0.14849861857E+04  0.31473707044E+04  0.27750240322E+04 0.  0.
        2    1    3    3  502    0 -0.17475201855E+03 -0.50196556079E+03  0.71115032403E+03  0.88783020651E+03  0.25500000920E-02 0. -1.
       -2    1    3    3    0  502  0.17475201855E+03  0.50196556079E+03 -0.21961365097E+04  0.22595404979E+04  0.25500000920E-02 0.  1.
</event>
<event>
 5   0  0.3514294E-05  0.2848423E+04  0.7818609E-02  0.8288391E-01
        2   -1    0    0  501    0  0.00000000000E+00  0.00000000000E+00  0.13172431706E+04  0.13172431706E+04  0.25500000920E-02 0.  1.
       -2   -1    0    0    0  501  0.00000000000E+00  0.00000000000E+00 -0.15398659160E+04  0.15398659160E+04  0.25500000920E-02 0. -1.
    10030    2    1    2    0    0  0.00000000000E+00  0.00000000000E+00 -0.22262274546E+03  0.28571090866E+04  0.28484226242E+04 0.  0.
        2    1    3    3  502    0  0.88963545259E+03  0.63519288798E+03  0.80441114890E+03  0.13572024683E+04  0.25500000920E-02 0.  1.
       -2    1    3    3    0  502 -0.88963545259E+03 -0.63519288798E+03 -0.10270338944E+04  0.14999066183E+04  0.25500000920E-02 0. -1.
</event>
<event>
 5   0  0.1484379E-05  0.2758230E+04  0.7818609E-02  0.8316355E-01
       -1   -1    0    0    0  501  0.00000000000E+00  0.00000000000E+00  0.93889050913E+03  0.93889050914E+03  0.50400001928E-02 0.  1.
        1   -1    0    0  501    0  0.00000000000E+00  0.00000000000E+00 -0.20257514434E+04  0.20257514434E+04  0.50400001928E-02 0. -1.
    10030    2    1    2    0    0  0.00000000000E+00  0.00000000000E+00 -0.10868609342E+04  0.29646419525E+04  0.27582304502E+04 0.  0.
        1    1    3    3  502    0 -0.10244835926E+04  0.73070808484E+03 -0.11499819831E+04  0.17046875075E+04  0.50400001928E-02 0. -1.
       -1    1    3    3    0  502  0.10244835926E+04 -0.73070808484E+03  0.63121048907E+02  0.12599544450E+04  0.50400001928E-02 0.  1.
</event>
<event>
 5   0  0.1474012E-05  0.2686040E+04  0.7818609E-02  0.8339549E-01
       -1   -1    0    0    0  501  0.00000000000E+00  0.00000000000E+00  0.10993568248E+04  0.10993568248E+04  0.50400001928E-02 0.  1.
        1   -1    0    0  501    0  0.00000000000E+00  0.00000000000E+00 -0.16406885109E+04  0.16406885109E+04  0.50400001928E-02 0. -1.
    10030    2    1    2    0    0  0.00000000000E+00  0.00000000000E+00 -0.54133168606E+03  0.27400453357E+04  0.26860395469E+04 0.  0.
        2    1    3    3  502    0  0.11470636931E+04 -0.64823493136E+03 -0.51667533596E+01  0.13175698606E+04  0.25500000920E-02 0. -1.
       -2    1    3    3    0  502 -0.11470636931E+04  0.64823493136E+03 -0.53616493270E+03  0.14224754751E+04  0.25500000920E-02 0.  1.
</event>
<event>
 5   0  0.1449521E-05  0.2696819E+04  0.7818609E-02  0.8336038E-01
        1   -1    0    0  501    0  0.00000000000E+00  0.00000000000E+00  0.19345023734E+04  0.19345023734E+04  0.50400001928E-02 0. -1.
       -1   -1    0    0    0  501  0.00000000000E+00  0.00000000000E+00 -0.93988399956E+03  0.93988399957E+03  0.50400001928E-02 0.  1.
    10030    2    1    2    0    0  0.00000000000E+00  0.00000000000E+00  0.99461837380E+03  0.28743863729E+04  0.26968187391E+04 0.  0.
        3    1    3    3  502    0 -0.11647824495E+04  0.47818712822E+02 -0.22495446980E+03  0.11872696861E+04  0.10100000352E+00 0.  1.
       -3    1    3    3    0  502  0.11647824495E+04 -0.47818712822E+02  0.12195728436E+04  0.16871166868E+04  0.10100000352E+00 0. -1.
</event>
<event>
 5   0  0.1438701E-05  0.2861604E+04  0.7818609E-02  0.8284394E-01
        1   -1    0    0  501    0  0.00000000000E+00  0.00000000000E+00  0.13748926019E+04  0.13748926020E+04  0.50400001928E-02 0.  1.
       -1   -1    0    0    0  501  0.00000000000E+00  0.00000000000E+00 -0.14889853015E+04  0.14889853015E+04  0.50400001928E-02 0. -1.
    10030    2    1    2    0    0  0.00000000000E+00  0.00000000000E+00 -0.11409269957E+03  0.28638779035E+04  0.28616043580E+04 0.  0.
        4    1    3    3  502    0 -0.12149650117E+04  0.51416505584E+03 -0.61128014394E+03  0.14540188140E+04  0.12699999809E+01 0. -1.
       -4    1    3    3    0  502  0.12149650117E+04 -0.51416505584E+03  0.49718744437E+03  0.14098590894E+04  0.12699999809E+01 0.  1.
</event>
<event>
 5   0  0.3676724E-05  0.2684871E+04  0.7818609E-02  0.8339931E-01
        2   -1    0    0  501    0  0.00000000000E+00  0.00000000000E+00  0.11945826149E+04  0.11945826149E+04  0.25500000920E-02 0.  1.
       -2   -1    0    0    0  501  0.00000000000E+00  0.00000000000E+00 -0.15085880822E+04  0.15085880822E+04  0.25500000920E-02 0. -1.
    10030    2    1    2    0    0  0.00000000000E+00  0.00000000000E+00 -0.31400546727E+03  0.27031706972E+04  0.26848710182E+04 0.  0.
        4    1    3    3  502    0  0.22930941936E+03  0.23280379189E+03  0.11539283649E+04  0.11993050902E+04  0.12699999809E+01 0.  1.
       -4    1    3    3    0  502 -0.22930941936E+03 -0.23280379189E+03 -0.14679338321E+04  0.15038656069E+04  0.12699999809E+01 0. -1.
</event>
<event>
 5   0  0.3514294E-05  0.2722681E+04  0.7818609E-02  0.8327683E-01
        2   -1    0    0  501    0  0.00000000000E+00  0.00000000000E+00  0.16392887718E+04  0.16392887718E+04  0.25500000920E-02 0. -1.
       -2   -1    0    0    0  501  0.00000000000E+00  0.00000000000E+00 -0.11305198807E+04  0.11305198807E+04  0.25500000920E-02 0.  1.
    10030    2    1    2    0    0  0.00000000000E+00  0.00000000000E+00  0.50876889111E+03  0.27698086525E+04  0.27226814333E+04 0.  0.
        2    1    3    3  502    0 -0.23069410795E+03 -0.15325849486E+03  0.16103245546E+04  0.16339685153E+04  0.25500000920E-02 0. -1.
       -2    1    3    3    0  502  0.23069410795E+03  0.15325849486E+03 -0.11015556635E+04  0.11358401373E+04  0.25500000920E-02 0.  1.
</event>
<event>
 5   0  0.3497949E-05  0.2698951E+04  0.7818609E-02  0.8335345E-01
        2   -1    0    0  501    0  0.00000000000E+00  0.00000000000E+00  0.28270611362E+04  0.28270611362E+04  0.25500000920E-02 0.  1.
       -2   -1    0    0    0  501  0.00000000000E+00  0.00000000000E+00 -0.64416153366E+03  0.64416153367E+03  0.25500000920E-02 0. -1.
    10030    2    1    2    0    0  0.00000000000E+00  0.00000000000E+00  0.21828996026E+04  0.34712226699E+04  0.26989509349E+04 0.  0.
        5    1    3    3  502    0  0.10208203046E+04  0.69055836760E+03  0.38452200021E+03  0.12910554644E+04  0.46999998093E+01 0. -1.
       -5    1    3    3    0  502 -0.10208203046E+04 -0.69055836760E+03  0.17983776024E+04  0.21801672055E+04  0.46999998093E+01 0.  1.
</event>
<event>
 5   0  0.3568647E-05  0.2654180E+04  0.7818609E-02  0.8350027E-01
       -2   -1    0    0    0  501  0.00000000000E+00  0.00000000000E+00  0.68561235572E+03  0.68561235572E+03  0.25500000920E-02 0. -1.
        2   -1    0    0  501    0  0.00000000000E+00  0.00000000000E+00 -0.25687516056E+04  0.25687516056E+04  0.25500000920E-02 0.  1.
    10030    2    1    2    0    0  0.00000000000E+00  0.00000000000E+00 -0.18831392499E+04  0.32543639613E+04  0.26541799785E+04 0.  0.
        3    1    3    3  502    0 -0.98589275535E+03 -0.46789647005E+03 -0.15655391851E+02  0.10914012705E+04  0.10100000352E+00 0. -1.
       -3    1    3    3    0  502  0.98589275535E+03  0.46789647005E+03 -0.18674838580E+04  0.21629626908E+04  0.10100000352E+00 0.  1.
</event>
<event>
 5   0  0.3652331E-05  0.2656287E+04  0.7818609E-02  0.8349329E-01
        2   -1    0    0  501    0  0.00000000000E+00  0.00000000000E+00  0.13497118673E+04  0.13497118673E+04  0.25500000920E-02 0. -1.
       -2   -1    0    0    0  501  0.00000000000E+00  0.00000000000E+00 -0.13069193142E+04  0.13069193142E+04  0.25500000920E-02 0.  1.
    10030    2    1    2    0    0  0.00000000000E+00  0.00000000000E+00  0.42792553103E+02  0.26566311815E+04  0.26562865116E+04 0.  0.
        1    1    3    3  502    0 -0.17886205122E+03 -0.33292596569E+01 -0.12948146813E+04  0.13071142935E+04  0.50400001928E-02 0.  1.
       -1    1    3    3    0  502  0.17886205122E+03  0.33292596569E+01  0.13376072344E+04  0.13495168880E+04  0.50400001928E-02 0. -1.
</event>
<event>
 5   0  0.1449521E-05  0.2681882E+04  0.7818609E-02  0.8340908E-01
       -1   -1    0    0    0  501  0.00000000000E+00  0.00000000000E+00  0.15413727648E+04  0.15413727648E+04  0.50400001928E-02 0. -1.
        1   -1    0    0  501    0  0.00000000000E+00  0.00000000000E+00 -0.11665725578E+04  0.11665725578E+04  0.50400001928E-02 0.  1.
    10030    2    1    2    0    0  0.00000000000E+00  0.00000000000E+00  0.37480020705E+03  0.27079453226E+04  0.26818823007E+04 0.  0.
        3    1    3    3  502    0 -0.50879810236E+03  0.70937592747E+03  0.12151491067E+04  0.14962209320E+04  0.10100000352E+00 0. -1.
       -3    1    3    3    0  502  0.50879810236E+03 -0.70937592747E+03 -0.84034889968E+03  0.12117243906E+04  0.10100000352E+00 0.  1.
</event>
<event>
 5   0  0.1449521E-05  0.2786904E+04  0.7818609E-02  0.8307346E-01
        1   -1    0    0  501    0  0.00000000000E+00  0.00000000000E+00  0.25807551974E+04  0.25807551974E+04  0.50400001928E-02 0.  1.
       -1   -1    0    0    0  501  0.00000000000E+00  0.00000000000E+00 -0.75238021000E+03  0.75238021002E+03  0.50400001928E-02 0. -1.
    10030    2    1    2    0    0  0.00000000000E+00  0.00000000000E+00  0.18283749874E+04  0.33331354074E+04  0.27869044744E+04 0.  0.
        3    1    3    3  502    0 -0.63602404630E+02  0.88914621913E+03 -0.36675097940E+03  0.96391522239E+03  0.10100000352E+00 0. -1.
       -3    1    3    3    0  502  0.63602404630E+02 -0.88914621913E+03  0.21951259668E+04  0.23692201850E+04  0.10100000352E+00 0.  1.
</event>
<event>
 5   0  0.3497949E-05  0.2745223E+04  0.7818609E-02  0.8320479E-01
       -2   -1    0    0    0  501  0.00000000000E+00  0.00000000000E+00  0.12418865824E+04  0.12418865824E+04  0.25500000920E-02 0. -1.
        2   -1    0    0  501    0  0.00000000000E+00  0.00000000000E+00 -0.15170974070E+04  0.15170974070E+04  0.25500000920E-02 0.  1.
    10030    2    1    2    0    0  0.00000000000E+00  0.00000000000E+00 -0.27521082459E+03  0.27589839894E+04  0.27452234254E+04 0.  0.
        5    1    3    3  502    0  0.29136073073E+03 -0.20017506239E+03 -0.14705565867E+04  0.15124549235E+04  0.46999998093E+01 0.  1.
       -5    1    3    3    0  502 -0.29136073073E+03  0.20017506239E+03  0.11953457621E+04  0.12465290658E+04  0.46999998093E+01 0. -1.
</event>
<event>
 5   0  0.1438701E-05  0.2611837E+04  0.7818609E-02  0.8364191E-01
       -1   -1    0    0    0  501  0.00000000000E+00  0.00000000000E+00  0.14118078409E+04  0.14118078409E+04  0.50400001928E-02 0.  1.
        1   -1    0    0  501    0  0.00000000000E+00  0.00000000000E+00 -0.12079713979E+04  0.12079713979E+04  0.50400001928E-02 0. -1.
    10030    2    1    2    0    0  0.00000000000E+00  0.00000000000E+00  0.20383644304E+03  0.26197792388E+04  0.26118372776E+04 0.  0.
        4    1    3    3  502    0  0.65072419938E+03  0.90435810142E+03  0.78525060018E+03  0.13630574739E+04  0.12699999809E+01 0.  1.
       -4    1    3    3    0  502 -0.65072419938E+03 -0.90435810142E+03 -0.58141415714E+03  0.12567217649E+04  0.12699999809E+01 0. -1.
</event>
<event>
 5   0  0.3652331E-05  0.1896063E+04  0.7818609E-02  0.8656819E-01
        2   -1    0    0  501    0  0.00000000000E+00  0.00000000000E+00  0.14577567231E+04  0.14577567231E+04  0.25500000920E-02 0. -1.
       -2   -1    0    0    0  501  0.00000000000E+00  0.00000000000E+00 -0.61653884503E+03  0.61653884504E+03  0.25500000920E-02 0.  1.
    10030    2    1    2    0    0  0.00000000000E+00  0.00000000000E+00  0.84121787809E+03  0.20742955682E+04  0.18960629171E+04 0.  0.
        1    1    3    3  502    0 -0.42875362668E+03  0.22178442439E+02  0.13453101180E+04  0.14121546903E+04  0.50400001928E-02 0. -1.
       -1    1    3    3    0  502  0.42875362668E+03 -0.22178442439E+02 -0.50409223995E+03  0.66214087784E+03  0.50400001928E-02 0.  1.
</event>
<event>
 5   0  0.3568647E-05  0.2682037E+04  0.7818609E-02  0.8340857E-01
        2   -1    0    0  501    0  0.00000000000E+00  0.00000000000E+00  0.22964386063E+04  0.22964386063E+04  0.25500000920E-02 0.  1.
       -2   -1    0    0    0  501  0.00000000000E+00  0.00000000000E+00 -0.78309571620E+03  0.78309571621E+03  0.25500000920E-02 0. -1.
    10030    2    1    2    0    0  0.00000000000E+00  0.00000000000E+00  0.15133428901E+04  0.30795343225E+04  0.26820374607E+04 0.  0.
        3    1    3    3  502    0 -0.44510995002E+03 -0.64624798440E+03  0.20053020825E+04  0.21533684723E+04  0.10100000352E+00 0.  1.
       -3    1    3    3    0  502  0.44510995002E+03  0.64624798440E+03 -0.49195919243E+03  0.92616585025E+03  0.10100000352E+00 0. -1.
</event>
<event>
 5   0  0.1484379E-05  0.2737400E+04  0.7818609E-02  0.8322971E-01
        1   -1    0    0  501    0  0.00000000000E+00  0.00000000000E+00  0.21475381445E+04  0.21475381445E+04  0.50400001928E-02 0.  1.
       -1   -1    0    0    0  501  0.00000000000E+00  0.00000000000E+00 -0.87231957615E+03  0.87231957617E+03  0.50400001928E-02 0. -1.
    10030    2    1    2    0    0  0.00000000000E+00  0.00000000000E+00  0.12752185683E+04  0.30198577207E+04  0.27373999079E+04 0.  0.
        1    1    3    3  502    0 -0.35754886110E+03  0.10368763898E+04 -0.26564621345E+03  0.11285042076E+04  0.50400001928E-02 0. -1.
       -1    1    3    3    0  502  0.35754886110E+03 -0.10368763898E+04  0.15408647818E+04  0.18913535131E+04  0.50400001928E-02 0.  1.
</event>
<event>
 5   0  0.3568647E-05  0.2362115E+04  0.7818609E-02  0.8453825E-01
        2   -1    0    0  501    0  0.00000000000E+00  0.00000000000E+00  0.16574456451E+04  0.16574456451E+04  0.25500000920E-02 0.  1.
       -2   -1    0    0    0  501  0.00000000000E+00  0.00000000000E+00 -0.84159416217E+03  0.84159416218E+03  0.25500000920E-02 0. -1.
    10030    2    1    2    0    0  0.00000000000E+00  0.00000000000E+00  0.81585148291E+03  0.24990398073E+04  0.23621147974E+04 0.  0.
        3    1    3    3  502    0  0.79187477045E+03  0.68864150178E+03  0.98118754939E+03  0.14366703823E+04  0.10100000352E+00 0.  1.
       -3    1    3    3    0  502 -0.79187477045E+03 -0.68864150178E+03 -0.16533606647E+03  0.10623694250E+04  0.10100000352E+00 0. -1.
</event>
<event>
 5   0  0.3652331E-05  0.2542584E+04  0.7818609E-02  0.8387970E-01
        2   -1    0    0  501    0  0.00000000000E+00  0.00000000000E+00  0.14752576863E+04  0.14752576863E+04  0.25500000920E-02 0. -1.
       -2   -1    0    0    0  501  0.00000000000E+00  0.00000000000E+00 -0.10955260931E+04  0.10955260931E+04  0.25500000920E-02 0.  1.
    10030    2    1    2    0    0  0.00000000000E+00  0.00000000000E+00  0.37973159316E+03  0.25707837794E+04  0.25425839529E+04 0.  0.
        1    1    3    3  502    0 -0.52632111114E+03 -0.78238502878E+03  0.10519909399E+04  0.14127367706E+04  0.50400001928E-02 0. -1.
       -1    1    3    3    0  502  0.52632111114E+03  0.78238502878E+03 -0.67225934677E+03  0.11580470088E+04  0.50400001928E-02 0.  1.
</event>
<event>
 5   0  0.1474012E-05  0.2634343E+04  0.7818609E-02  0.8356628E-01
       -1   -1    0    0    0  501  0.00000000000E+00  0.00000000000E+00  0.10437610754E+04  0.10437610754E+04  0.50400001928E-02 0. -1.
        1   -1    0    0  501    0  0.00000000000E+00  0.00000000000E+00 -0.16622011319E+04  0.16622011319E+04  0.50400001928E-02 0.  1.
    10030    2    1    2    0    0  0.00000000000E+00  0.00000000000E+00 -0.61844005649E+03  0.27059622073E+04  0.26343430612E+04 0.  0.
        2    1    3    3  502    0  0.18763125090E+03 -0.42902108648E+03  0.95537834923E+03  0.10639606991E+04  0.25500000920E-02 0. -1.
       -2    1    3    3    0  502 -0.18763125090E+03  0.42902108648E+03 -0.15738184057E+04  0.16420015083E+04  0.25500000920E-02 0.  1.
</event>
<event>
 5   0  0.3676724E-05  0.2649444E+04  0.7818609E-02  0.8351598E-01
        2   -1    0    0  501    0  0.00000000000E+00  0.00000000000E+00  0.25449474168E+04  0.25449474168E+04  0.25500000920E-02 0.  1.
       -2   -1    0    0    0  501  0.00000000000E+00  0.00000000000E+00 -0.68955760861E+03  0.68955760862E+03  0.25500000920E-02 0. -1.
    10030    2    1    2    0    0  0.00000000000E+00  0.00000000000E+00  0.18553898082E+04  0.32345050254E+04  0.26494436056E+04 0.  0.
        4    1    3    3  502    0  0.32803340697E+03 -0.13762149413E+03 -0.63015561310E+03  0.72363202068E+03  0.12699999809E+01 0. -1.
       -4    1    3    3    0  502 -0.32803340697E+03  0.13762149413E+03  0.24855454213E+04  0.25108730047E+04  0.12699999809E+01 0.  1.
</event>
<event>
 5   0  0.3514294E-05  0.2275185E+04  0.7818609E-02  0.8487770E-01
       -2   -1    0    0    0  501  0.00000000000E+00  0.00000000000E+00  0.95137877228E+03  0.95137877228E+03  0.25500000920E-02 0. -1.
        2   -1    0    0  501    0  0.00000000000E+00  0.00000000000E+00 -0.13602541680E+04  0.13602541680E+04  0.25500000920E-02 0.  1.
    10030    2    1    2    0    0  0.00000000000E+00  0.00000000000E+00 -0.40887539576E+03  0.23116329403E+04  0.22751852148E+04 0.  0.
        2    1    3    3  502    0  0.81977397635E+03  0.40392220743E+03  0.48386176771E+03  0.10340719183E+04  0.25500000920E-02 0. -1.
       -2    1    3    3    0  502 -0.81977397635E+03 -0.40392220743E+03 -0.89273716347E+03  0.12775610220E+04  0.25500000920E-02 0.  1.
</event>
<event>
 5   0  0.1449521E-05  0.2644992E+04  0.7818609E-02  0.8353077E-01
        1   -1    0    0  501    0  0.00000000000E+00  0.00000000000E+00  0.18678985501E+04  0.18678985501E+04  0.50400001928E-02 0.  1.
       -1   -1    0    0    0  501  0.00000000000E+00  0.00000000000E+00 -0.93634379728E+03  0.93634379729E+03  0.50400001928E-02 0. -1.
    10030    2    1    2    0    0  0.00000000000E+00  0.00000000000E+00  0.93155475278E+03  0.28042423474E+04  0.26449916607E+04 0.  0.
        3    1    3    3  502    0 -0.31820810756E+03  0.60902720072E+03 -0.73222276865E+03  0.10041517435E+04  0.10100000352E+00 0. -1.
       -3    1    3    3    0  502  0.31820810756E+03 -0.60902720072E+03  0.16637775214E+04  0.18000906038E+04  0.10100000352E+00 0.  1.
</event>
<event>
 5   0  0.1438701E-05  0.2689048E+04  0.7818609E-02  0.8338567E-01
        1   -1    0    0  501    0  0.00000000000E+00  0.00000000000E+00  0.22444015301E+04  0.22444015301E+04  0.50400001928E-02 0.  1.
       -1   -1    0    0    0  501  0.00000000000E+00  0.00000000000E+00 -0.80544645649E+03  0.80544645651E+03  0.50400001928E-02 0. -1.
    10030    2    1    2    0    0  0.00000000000E+00  0.00000000000E+00  0.14389550736E+04  0.30498479866E+04  0.26890483516E+04 0.  0.
        4    1    3    3  502    0  0.20612164257E+03  0.98945094984E+03  0.17251541390E+04  0.19994143468E+04  0.12699999809E+01 0.  1.
       -4    1    3    3    0  502 -0.20612164257E+03 -0.98945094984E+03 -0.28619906547E+03  0.10504336398E+04  0.12699999809E+01 0. -1.
</event>
<event>
 5   0  0.1495517E-05  0.2531071E+04  0.7818609E-02  0.8391999E-01
        1   -1    0    0  501    0  0.00000000000E+00  0.00000000000E+00  0.14491577914E+04  0.14491577914E+04  0.50400001928E-02 0. -1.
       -1   -1    0    0    0  501  0.00000000000E+00  0.00000000000E+00 -0.11051802631E+04  0.11051802631E+04  0.50400001928E-02 0.  1.
    10030    2    1    2    0    0  0.00000000000E+00  0.00000000000E+00  0.34397752827E+03  0.25543380545E+04  0.25310713851E+04 0.  0.
        5    1    3    3  502    0  0.39162318893E+03  0.37117972204E+02 -0.10419031978E+04  0.11137014095E+04  0.46999998093E+01 0.  1.
       -5    1    3    3    0  502 -0.39162318893E+03 -0.37117972204E+02  0.13858807260E+04  0.14406366450E+04  0.46999998093E+01 0. -1.
</event>
<event>
 5   0  0.1438701E-05  0.1350831E+04  0.7818609E-02  0.8990199E-01
       -1   -1    0    0    0  501  0.00000000000E+00  0.00000000000E+00  0.67631266006E+03  0.67631266008E+03  0.50400001928E-02 0.  1.
        1   -1    0    0  501    0  0.00000000000E+00  0.00000000000E+00 -0.67451981507E+03  0.67451981509E+03  0.50400001928E-02 0. -1.
    10030    2    1    2    0    0  0.00000000000E+00  0.00000000000E+00  0.17928449897E+01  0.13508324752E+04  0.13508312854E+04 0.  0.
        4    1    3    3  502    0 -0.35666390417E+03  0.49251709523E+02  0.57234229160E+03  0.67617466906E+03  0.12699999809E+01 0.  1.
       -4    1    3    3    0  502  0.35666390417E+03 -0.49251709523E+02 -0.57054944661E+03  0.67465780611E+03  0.12699999809E+01 0. -1.
</event>
<event>
 5   0  0.1484379E-05  0.2894981E+04  0.7818609E-02  0.8274372E-01
       -1   -1    0    0    0  501  0.00000000000E+00  0.00000000000E+00  0.74484068946E+03  0.74484068947E+03  0.50400001928E-02 0.  1.
        1   -1    0    0  501    0  0.00000000000E+00  0.00000000000E+00 -0.28129883273E+04  0.28129883273E+04  0.50400001928E-02 0. -1.
    10030    2    1    2    0    0  0.00000000000E+00  0.00000000000E+00 -0.20681476378E+04  0.35578290168E+04  0.28949805976E+04 0.  0.
        1    1    3    3  502    0 -0.32891755748E+03 -0.13866503670E+03 -0.27580504464E+04  0.27810532208E+04  0.50400001928E-02 0. -1.
       -1    1    3    3    0  502  0.32891755748E+03  0.13866503670E+03  0.68990280853E+03  0.77677579601E+03  0.50400001928E-02 0.  1.
</event>
<event>
 5   0  0.3497949E-05  0.1872088E+04  0.7818609E-02  0.8668876E-01
       -2   -1    0    0    0  501  0.00000000000E+00  0.00000000000E+00  0.45232799020E+03  0.45232799021E+03  0.25500000920E-02 0.  1.
        2   -1    0    0  501    0  0.00000000000E+00  0.00000000000E+00 -0.19370425241E+04  0.19370425241E+04  0.25500000920E-02 0. -1.
    10030    2    1    2    0    0  0.00000000000E+00  0.00000000000E+00 -0.14847145339E+04  0.23893705143E+04  0.18720881943E+04 0.  0.
        5    1    3    3  502    0  0.19304272344E+03  0.87774494995E+03 -0.40842448277E+03  0.98718505781E+03  0.46999998093E+01 0.  1.
       -5    1    3    3    0  502 -0.19304272344E+03 -0.87774494995E+03 -0.10762900511E+04  0.14021854565E+04  0.46999998093E+01 0. -1.
</event>
<event>
 5   0  0.1438701E-05  0.2736520E+04  0.7818609E-02  0.8323252E-01
        1   -1    0    0  501    0  0.00000000000E+00  0.00000000000E+00  0.65939104081E+03  0.65939104083E+03  0.50400001928E-02 0. -1.
       -1   -1    0    0    0  501  0.00000000000E+00  0.00000000000E+00 -0.28391892150E+04  0.28391892150E+04  0.50400001928E-02 0.  1.
    10030    2    1    2    0    0  0.00000000000E+00  0.00000000000E+00 -0.21797981742E+04  0.34985802558E+04  0.27365203683E+04 0.  0.
        4    1    3    3  502    0  0.30687641036E+03 -0.11357950486E+04 -0.19685629344E+03  0.11928778382E+04  0.12699999809E+01 0. -1.
       -4    1    3    3    0  502 -0.30687641036E+03  0.11357950486E+04 -0.19829418807E+04  0.23057024177E+04  0.12699999809E+01 0.  1.
</event>
<event>
 5   0  0.3497949E-05  0.2730161E+04  0.7818609E-02  0.8325285E-01
        2   -1    0    0  501    0  0.00000000000E+00  0.00000000000E+00  0.85780648873E+03  0.85780648873E+03  0.25500000920E-02 0. -1.
       -2   -1    0    0    0  501  0.00000000000E+00  0.00000000000E+00 -0.21723367759E+04  0.21723367759E+04  0.25500000920E-02 0.  1.
    10030    2    1    2    0    0  0.00000000000E+00  0.00000000000E+00 -0.13145302872E+04  0.30301432646E+04  0.27301608612E+04 0.  0.
        5    1    3    3  502    0 -0.16463461067E+03 -0.73794538577E+03 -0.19187002834E+04  0.20623047338E+04  0.46999998093E+01 0.  1.
       -5    1    3    3    0  502  0.16463461067E+03  0.73794538577E+03  0.60416999625E+03  0.96783853084E+03  0.46999998093E+01 0. -1.
</event>
<event>
 5   0  0.3568647E-05  0.2119558E+04  0.7818609E-02  0.8552677E-01
       -2   -1    0    0    0  501  0.00000000000E+00  0.00000000000E+00  0.75062685309E+03  0.75062685309E+03  0.25500000920E-02 0. -1.
        2   -1    0    0  501    0  0.00000000000E+00  0.00000000000E+00 -0.14962581701E+04  0.14962581701E+04  0.25500000920E-02 0.  1.
    10030    2    1    2    0    0  0.00000000000E+00  0.00000000000E+00 -0.74563131701E+03  0.22468850232E+04  0.21195580309E+04 0.  0.
        3    1    3    3  502    0 -0.13907544610E+03 -0.91167677826E+03 -0.92632679219E+03  0.13071258026E+04  0.10100000352E+00 0.  1.
       -3    1    3    3    0  502  0.13907544610E+03  0.91167677826E+03  0.18069547518E+03  0.93975922058E+03  0.10100000352E+00 0. -1.
</event>
<event>
 5   0  0.3568647E-05  0.2706608E+04  0.7818609E-02  0.8332864E-01
        2   -1    0    0  501    0  0.00000000000E+00  0.00000000000E+00  0.20933626782E+04  0.20933626782E+04  0.25500000920E-02 0.  1.
       -2   -1    0    0    0  501  0.00000000000E+00  0.00000000000E+00 -0.87487521172E+03  0.87487521173E+03  0.25500000920E-02 0. -1.
    10030    2    1    2    0    0  0.00000000000E+00  0.00000000000E+00  0.12184874665E+04  0.29682378899E+04  0.27066075565E+04 0.  0.
        3    1    3    3  502    0 -0.28993729952E+03  0.13035617932E+04  0.36874133861E+03  0.13853906205E+04  0.10100000352E+00 0.  1.
       -3    1    3    3    0  502  0.28993729952E+03 -0.13035617932E+04  0.84974612785E+03  0.15828472694E+04  0.10100000352E+00 0. -1.
</event>
<event>
 5   0  0.1495517E-05  0.2817128E+04  0.7818609E-02  0.8297970E-01
        1   -1    0    0  501    0  0.00000000000E+00  0.00000000000E+00  0.23032156350E+04  0.23032156350E+04  0.50400001928E-02 0.  1.
       -1   -1    0    0    0  501  0.00000000000E+00  0.00000000000E+00 -0.86142740624E+03  0.86142740625E+03  0.50400001928E-02 0. -1.
    10030    2    1    2    0    0  0.00000000000E+00  0.00000000000E+00  0.14417882288E+04  0.31646430413E+04  0.28171283751E+04 0.  0.
        5    1    3    3  502    0 -0.13991618071E+04  0.11517618979E+03  0.84952551144E+03  0.16409250445E+04  0.46999998093E+01 0.  1.
       -5    1    3    3    0  502  0.13991618071E+04 -0.11517618979E+03  0.59226271733E+03  0.15237179967E+04  0.46999998093E+01 0. -1.
</event>
<event>
 5   0  0.3497949E-05  0.1414914E+04  0.7818609E-02  0.8943093E-01
       -2   -1    0    0    0  501  0.00000000000E+00  0.00000000000E+00  0.35858310695E+03  0.35858310696E+03  0.25500000920E-02 0. -1.
        2   -1    0    0  501    0  0.00000000000E+00  0.00000000000E+00 -0.13957593368E+04  0.13957593368E+04  0.25500000920E-02 0.  1.
    10030    2    1    2    0    0  0.00000000000E+00  0.00000000000E+00 -0.10371762298E+04  0.17543424437E+04  0.14149144420E+04 0.  0.
        5    1    3    3  502    0 -0.64383873029E+03 -0.25651098148E+03 -0.69458058068E+03  0.98121886820E+03  0.46999998093E+01 0. -1.
       -5    1    3    3    0  502  0.64383873029E+03  0.25651098148E+03 -0.34259564913E+03  0.77312357553E+03  0.46999998093E+01 0.  1.
</event>
<event>
 5   0  0.3568647E-05  0.1826444E+04  0.7818609E-02  0.8692362E-01
        2   -1    0    0  501    0  0.00000000000E+00  0.00000000000E+00  0.90225344332E+03  0.90225344332E+03  0.25500000920E-02 0.  1.
       -2   -1    0    0    0  501  0.00000000000E+00  0.00000000000E+00 -0.92432364291E+03  0.92432364291E+03  0.25500000920E-02 0. -1.
    10030    2    1    2    0    0  0.00000000000E+00  0.00000000000E+00 -0.22070199594E+02  0.18265770862E+04  0.18264437463E+04 0.  0.
        3    1    3    3  502    0  0.57628453567E+03 -0.69082654210E+03 -0.16798285630E+03  0.91518491439E+03  0.10100000352E+00 0. -1.
       -3    1    3    3    0  502 -0.57628453567E+03  0.69082654210E+03  0.14591265670E+03  0.91139217185E+03  0.10100000352E+00 0.  1.
</event>
<event>
 5   0  0.1449521E-05  0.2705516E+04  0.7818609E-02  0.8333217E-01
       -1   -1    0    0    0  501  0.00000000000E+00  0.00000000000E+00  0.22925545236E+04  0.22925545236E+04  0.50400001928E-02 0. -1.
        1   -1    0    0  501    0  0.00000000000E+00  0.00000000000E+00 -0.79821617586E+03  0.79821617588E+03  0.50400001928E-02 0.  1.
    10030    2    1    2    0    0  0.00000000000E+00  0.00000000000E+00  0.14943383477E+04  0.30907706994E+04  0.27055159248E+04 0.  0.
        3    1    3    3  502    0  0.55783898823E+03  0.31636030251E+03 -0.61352279255E+03  0.88751248159E+03  0.10100000352E+00 0.  1.
       -3    1    3    3    0  502 -0.55783898823E+03 -0.31636030251E+03  0.21078611402E+04  0.22032582179E+04  0.10100000352E+00 0. -1.
</event>
<event>
 5   0  0.1449521E-05  0.3278262E+04  0.7818609E-02  0.8168449E-01
        1   -1    0    0  501    0  0.00000000000E+00  0.00000000000E+00  0.20141828542E+04  0.20141828542E+04  0.50400001928E-02 0. -1.
       -1   -1    0    0    0  501  0.00000000000E+00  0.00000000000E+00 -0.13339160219E+04  0.13339160219E+04  0.50400001928E-02 0.  1.
    10030    2    1    2    0    0  0.00000000000E+00  0.00000000000E+00  0.68026683226E+03  0.33480988761E+04  0.32782622106E+04 0.  0.
        3    1    3    3  502    0 -0.34468702772E+03 -0.15992607998E+04  0.23644970043E+03  0.16529829775E+04  0.10100000352E+00 0.  1.
       -3    1    3    3    0  502  0.34468702772E+03  0.15992607998E+04  0.44381713184E+03  0.16951158986E+04  0.10100000352E+00 0. -1.
</event>
<event>
 5   0  0.1438701E-05  0.2436408E+04  0.7818609E-02  0.8425997E-01
       -1   -1    0    0    0  501  0.00000000000E+00  0.00000000000E+00  0.88866279865E+03  0.88866279866E+03  0.50400001928E-02 0. -1.
        1   -1    0    0  501    0  0.00000000000E+00  0.00000000000E+00 -0.16699482998E+04  0.16699482998E+04  0.50400001928E-02 0.  1.
    10030    2    1    2    0    0  0.00000000000E+00  0.00000000000E+00 -0.78128550118E+03  0.25586110985E+04  0.24364079541E+04 0.  0.
        4    1    3    3  502    0 -0.23838462765E+03 -0.73047509352E+03 -0.13833596593E+04  0.15824369349E+04  0.12699999809E+01 0.  1.
       -4    1    3    3    0  502  0.23838462765E+03  0.73047509352E+03  0.60207415813E+03  0.97617416363E+03  0.12699999809E+01 0. -1.
</event>
<event>
 5   0  0.3652331E-05  0.2452040E+04  0.7818609E-02  0.8420274E-01
        2   -1    0    0  501    0  0.00000000000E+00  0.00000000000E+00  0.16314463123E+04  0.16314463123E+04  0.25500000920E-02 0. -1.
       -2   -1    0    0    0  501  0.00000000000E+00  0.00000000000E+00 -0.92134508129E+03  0.92134508130E+03  0.25500000920E-02 0.  1.
    10030    2    1    2    0    0  0.00000000000E+00  0.00000000000E+00  0.71010123104E+03  0.25527913936E+04  0.24520399958E+04 0.  0.
        1    1    3    3  502    0 -0.48044443323E+03 -0.96423083505E+02  0.15250606462E+04  0.16018533763E+04  0.50400001928E-02 0. -1.
       -1    1    3    3    0  502  0.48044443323E+03  0.96423083505E+02 -0.81495941517E+03  0.95093801735E+03  0.50400001928E-02 0.  1.
</event>
<event>
 5   0  0.3497949E-05  0.2373726E+04  0.7818609E-02  0.8449406E-01
       -2   -1    0    0    0  501  0.00000000000E+00  0.00000000000E+00  0.16848583530E+04  0.16848583530E+04  0.25500000920E-02 0. -1.
        2   -1    0    0  501    0  0.00000000000E+00  0.00000000000E+00 -0.83606097776E+03  0.83606097777E+03  0.25500000920E-02 0.  1.
    10030    2    1    2    0    0  0.00000000000E+00  0.00000000000E+00  0.84879737526E+03  0.25209193308E+04  0.23737264560E+04 0.  0.
        5    1    3    3  502    0 -0.10139283289E+04  0.28850798477E+02  0.10788404388E+04  0.14808111990E+04  0.46999998093E+01 0. -1.
       -5    1    3    3    0  502  0.10139283289E+04 -0.28850798477E+02 -0.23004306355E+03  0.10401081318E+04  0.46999998093E+01 0.  1.
</event>
<event>
 5   0  0.3514294E-05  0.2613869E+04  0.7818609E-02  0.8363506E-01
       -2   -1    0    0    0  501  0.00000000000E+00  0.00000000000E+00  0.89357239465E+03  0.89357239465E+03  0.25500000920E-02 0. -1.
        2   -1    0    0  501    0  0.00000000000E+00  0.00000000000E+00 -0.19115151389E+04  0.19115151389E+04  0.25500000920E-02 0.  1.
    10030    2    1    2    0    0  0.00000000000E+00  0.00000000000E+00 -0.10179427442E+04  0.28050875335E+04  0.26138685201E+04 0.  0.
        2    1    3    3  502    0 -0.70169822894E+03 -0.50718517165E+03  0.54165831058E+03  0.10212790648E+04  0.25500000920E-02 0. -1.
       -2    1    3    3    0  502  0.70169822894E+03  0.50718517165E+03 -0.15596010548E+04  0.17838084687E+04  0.25500000920E-02 0.  1.
</event>
<event>
 5   0  0.3568647E-05  0.1623138E+04  0.7818609E-02  0.8806458E-01
        2   -1    0    0  501    0  0.00000000000E+00  0.00000000000E+00  0.85342191067E+03  0.85342191067E+03  0.25500000920E-02 0.  1.
       -2   -1    0    0    0  501  0.00000000000E+00  0.00000000000E+00 -0.77176821846E+03  0.77176821846E+03  0.25500000920E-02 0. -1.
    10030    2    1    2    0    0  0.00000000000E+00  0.00000000000E+00  0.81653692212E+02  0.16251901291E+04  0.16231375882E+04 0.  0.
        3    1    3    3  502    0 -0.19183751225E+03  0.96771283782E+02  0.82442596752E+03  0.85196508062E+03  0.10100000352E+00 0.  1.
       -3    1    3    3    0  502  0.19183751225E+03 -0.96771283782E+02 -0.74277227531E+03  0.77322504851E+03  0.10100000352E+00 0. -1.
</event>
<event>
 5   0  0.1474012E-05  0.2258193E+04  0.7818609E-02  0.8494590E-01
       -1   -1    0    0    0  501  0.00000000000E+00  0.00000000000E+00  0.54748295772E+03  0.54748295775E+03  0.50400001928E-02 0. -1.
        1   -1    0    0  501    0  0.00000000000E+00  0.00000000000E+00 -0.23285811053E+04  0.23285811053E+04  0.50400001928E-02 0.  1.
    10030    2    1    2    0    0  0.00000000000E+00  0.00000000000E+00 -0.17810981475E+04  0.28760640630E+04  0.22581926143E+04 0.  0.
        2    1    3    3  502    0 -0.26769426048E+03 -0.41248007846E+03  0.40394485430E+03  0.63637369332E+03  0.25500000920E-02 0. -1.
       -2    1    3    3    0  502  0.26769426048E+03  0.41248007846E+03 -0.21850430018E+04  0.22396903697E+04  0.25500000920E-02 0.  1.
</event>
<event>
 5   0  0.1484379E-05  0.2674078E+04  0.7818609E-02  0.8343465E-01
        1   -1    0    0  501    0  0.00000000000E+00  0.00000000000E+00  0.14033204062E+04  0.14033204062E+04  0.50400001928E-02 0. -1.
       -1   -1    0    0    0  501  0.00000000000E+00  0.00000000000E+00 -0.12738881505E+04  0.12738881505E+04  0.50400001928E-02 0.  1.
    10030    2    1    2    0    0  0.00000000000E+00  0.00000000000E+00  0.12943225566E+03  0.26772085567E+04  0.26740779620E+04 0.  0.
        1    1    3    3  502    0  0.80841215728E+03 -0.33044678867E+03 -0.94886623092E+03  0.12896016518E+04  0.50400001928E-02 0.  1.
       -1    1    3    3    0  502 -0.80841215728E+03  0.33044678867E+03  0.10782984866E+04  0.13876069048E+04  0.50400001928E-02 0. -1.
</event>
<event>
 5   0  0.3568647E-05  0.1475465E+04  0.7818609E-02  0.8900934E-01
        2   -1    0    0  501    0  0.00000000000E+00  0.00000000000E+00  0.90399132311E+03  0.90399132312E+03  0.25500000920E-02 0.  1.
       -2   -1    0    0    0  501  0.00000000000E+00  0.00000000000E+00 -0.60205168090E+03  0.60205168091E+03  0.25500000920E-02 0. -1.
    10030    2    1    2    0    0  0.00000000000E+00  0.00000000000E+00  0.30193964221E+03  0.15060430040E+04  0.14754653444E+04 0.  0.
        3    1    3    3  502    0 -0.29890740272E+03  0.30683918492E+03 -0.46210527554E+03  0.63010889272E+03  0.10100000352E+00 0. -1.
       -3    1    3    3    0  502  0.29890740272E+03 -0.30683918492E+03  0.76404491775E+03  0.87593411131E+03  0.10100000352E+00 0.  1.
</event>
<event>
 5   0  0.3497949E-05  0.2294699E+04  0.7818609E-02  0.8480014E-01
        2   -1    0    0  501    0  0.00000000000E+00  0.00000000000E+00  0.18566512465E+04  0.18566512466E+04  0.25500000920E-02 0. -1.
       -2   -1    0    0    0  501  0.00000000000E+00  0.00000000000E+00 -0.70902421615E+03  0.70902421616E+03  0.25500000920E-02 0.  1.
    10030    2    1    2    0    0  0.00000000000E+00  0.00000000000E+00  0.11476270304E+04  0.25656754627E+04  0.22946988428E+04 0.  0.
        5    1    3    3  502    0 -0.93792622142E+02  0.84484799564E+03 -0.28778448551E+03  0.89744481268E+03  0.46999998093E+01 0.  1.
       -5    1    3    3    0  502  0.93792622142E+02 -0.84484799564E+03  0.14354115159E+04  0.16682306500E+04  0.46999998093E+01 0. -1.
</event>
<event>
 5   0  0.1449521E-05  0.2726297E+04  0.7818609E-02  0.8326522E-01
       -1   -1    0    0    0  501  0.00000000000E+00  0.00000000000E+00  0.10186173011E+04  0.10186173012E+04  0.50400001928E-02 0. -1.
        1   -1    0    0  501    0  0.00000000000E+00  0.00000000000E+00 -0.18242125192E+04  0.18242125192E+04  0.50400001928E-02 0.  1.
    10030    2    1    2    0    0  0.00000000000E+00  0.00000000000E+00 -0.80559521804E+03  0.28428298203E+04  0.27262974401E+04 0.  0.
        3    1    3    3  502    0  0.75979764514E+03 -0.23643825405E+03 -0.15568936017E+04  0.17484602388E+04  0.10100000352E+00 0.  1.
       -3    1    3    3    0  502 -0.75979764514E+03  0.23643825405E+03  0.75129838364E+03  0.10943695815E+04  0.10100000352E+00 0. -1.
</event>
<event>
 5   0  0.1474012E-05  0.2821964E+04  0.7818609E-02  0.8296482E-01
        1   -1    0    0  501    0  0.00000000000E+00  0.00000000000E+00  0.21661629374E+04  0.21661629374E+04  0.50400001928E-02 0. -1.
       -1   -1    0    0    0  501  0.00000000000E+00  0.00000000000E+00 -0.91907701815E+03  0.91907701816E+03  0.50400001928E-02 0.  1.
    10030    2    1    2    0    0  0.00000000000E+00  0.00000000000E+00  0.12470859192E+04  0.30852399556E+04  0.28219642615E+04 0.  0.
        2    1    3    3  502    0 -0.41360336885E+02 -0.19645876563E+03 -0.90338139847E+03  0.92542135007E+03  0.25500000920E-02 0.  1.
       -2    1    3    3    0  502  0.41360336885E+02  0.19645876563E+03  0.21504673177E+04  0.21598186055E+04  0.25500000920E-02 0. -1.
</event>
<event>
 5   0  0.1474012E-05  0.2612839E+04  0.7818609E-02  0.8363853E-01
        1   -1    0    0  501    0  0.00000000000E+00  0.00000000000E+00  0.14756381556E+04  0.14756381556E+04  0.50400001928E-02 0.  1.
       -1   -1    0    0    0  501  0.00000000000E+00  0.00000000000E+00 -0.11566057361E+04  0.11566057361E+04  0.50400001928E-02 0. -1.
    10030    2    1    2    0    0  0.00000000000E+00  0.00000000000E+00  0.31903241948E+03  0.26322438917E+04  0.26128387284E+04 0.  0.
        2    1    3    3  502    0 -0.66396991300E+03  0.11766609163E+03 -0.96773555592E+03  0.11794971219E+04  0.25500000920E-02 0. -1.
       -2    1    3    3    0  502  0.66396991300E+03 -0.11766609163E+03  0.12867679754E+04  0.14527467697E+04  0.25500000920E-02 0.  1.
</event>
<event>
 5   0  0.3676724E-05  0.2841456E+04  0.7818609E-02  0.8290512E-01
        2   -1    0    0  501    0  0.00000000000E+00  0.00000000000E+00  0.13902777041E+04  0.13902777041E+04  0.25500000920E-02 0. -1.
       -2   -1    0    0    0  501  0.00000000000E+00  0.00000000000E+00 -0.14518454900E+04  0.14518454900E+04  0.25500000920E-02 0.  1.
    10030    2    1    2    0    0  0.00000000000E+00  0.00000000000E+00 -0.61567785911E+02  0.28421231941E+04  0.28414562566E+04 0.  0.
        4    1    3    3  502    0 -0.85113377347E+03 -0.20646971136E+03  0.10881423252E+04  0.13968227428E+04  0.12699999809E+01 0. -1.
       -4    1    3    3    0  502  0.85113377347E+03  0.20646971136E+03 -0.11497101111E+04  0.14453004513E+04  0.12699999809E+01 0.  1.
</event>
<event>
 5   0  0.1495517E-05  0.2585577E+04  0.7818609E-02  0.8373117E-01
        1   -1    0    0  501    0  0.00000000000E+00  0.00000000000E+00  0.16621652680E+04  0.16621652680E+04  0.50400001928E-02 0.  1.
       -1   -1    0    0    0  501  0.00000000000E+00  0.00000000000E+00 -0.10054971132E+04  0.10054971132E+04  0.50400001928E-02 0. -1.
    10030    2    1    2    0    0  0.00000000000E+00  0.00000000000E+00  0.65666815481E+03  0.26676623812E+04  0.25855772111E+04 0.  0.
        5    1    3    3  502    0  0.93641089263E+03 -0.86971785998E+03  0.12719422029E+03  0.12843188761E+04  0.46999998093E+01 0. -1.
       -5    1    3    3    0  502 -0.93641089263E+03  0.86971785998E+03  0.52947393453E+03  0.13833435051E+04  0.46999998093E+01 0.  1.
</event>
<event>
 5   0  0.3497949E-05  0.2714043E+04  0.7818609E-02  0.8330463E-01
        2   -1    0    0  501    0  0.00000000000E+00  0.00000000000E+00  0.24984231238E+04  0.24984231238E+04  0.25500000920E-02 0.  1.
       -2   -1    0    0    0  501  0.00000000000E+00  0.00000000000E+00 -0.73706765129E+03  0.73706765130E+03  0.25500000920E-02 0. -1.
    10030    2    1    2    0    0  0.00000000000E+00  0.00000000000E+00  0.17613554725E+04  0.32354907751E+04  0.27140426407E+04 0.  0.
        5    1    3    3  502    0  0.17463007141E+03  0.98379636495E+03  0.19753188492E+04  0.22136525462E+04  0.46999998093E+01 0.  1.
       -5    1    3    3    0  502 -0.17463007141E+03 -0.98379636495E+03 -0.21396337663E+03  0.10218382289E+04  0.46999998093E+01 0. -1.
</event>
<event>
 5   0  0.1474012E-05  0.2031292E+04  0.7818609E-02  0.8592129E-01
       -1   -1    0    0    0  501  0.00000000000E+00  0.00000000000E+00  0.46236087303E+03  0.46236087306E+03  0.50400001928E-02 0.  1.
        1   -1    0    0  501    0  0.00000000000E+00  0.00000000000E+00 -0.22310209227E+04  0.22310209227E+04  0.50400001928E-02 0. -1.
    10030    2    1    2    0    0  0.00000000000E+00  0.00000000000E+00 -0.17686600497E+04  0.26933817957E+04  0.20312919845E+04 0.  0.
        2    1    3    3  502    0 -0.67376284268E+03  0.74981334788E+03 -0.10486635672E+04  0.14546036237E+04  0.25500000920E-02 0.  1.
       -2    1    3    3    0  502  0.67376284268E+03 -0.74981334788E+03 -0.71999648244E+03  0.12387781721E+04  0.25500000920E-02 0. -1.
</event>
<event>
 5   0  0.3652331E-05  0.2800896E+04  0.7818609E-02  0.8302990E-01
        2   -1    0    0  501    0  0.00000000000E+00  0.00000000000E+00  0.11347114349E+04  0.11347114349E+04  0.25500000920E-02 0. -1.
       -2   -1    0    0    0  501  0.00000000000E+00  0.00000000000E+00 -0.17284166453E+04  0.17284166453E+04  0.25500000920E-02 0.  1.
    10030    2    1    2    0    0  0.00000000000E+00  0.00000000000E+00 -0.59370521036E+03  0.28631280802E+04  0.28008956651E+04 0.  0.
        1    1    3    3  502    0  0.71647050668E+03 -0.59952494389E+03 -0.13633427877E+04  0.16527140412E+04  0.50400001928E-02 0.  1.
       -1    1    3    3    0  502 -0.71647050668E+03  0.59952494389E+03  0.76963757730E+03  0.12104140390E+04  0.50400001928E-02 0. -1.
</event>
<event>
 5   0  0.1495517E-05  0.2864454E+04  0.7818609E-02  0.8283533E-01
        1   -1    0    0  501    0  0.00000000000E+00  0.00000000000E+00  0.20684463959E+04  0.20684463959E+04  0.50400001928E-02 0.  1.
       -1   -1    0    0    0  501  0.00000000000E+00  0.00000000000E+00 -0.99169791188E+03  0.99169791189E+03  0.50400001928E-02 0. -1.
    10030    2    1    2    0    0  0.00000000000E+00  0.00000000000E+00  0.10767484840E+04  0.30601443078E+04  0.28644538548E+04 0.  0.
        5    1    3    3  502    0 -0.47687248908E+02  0.47918250218E+03 -0.90261131889E+03  0.10230440983E+04  0.46999998093E+01 0. -1.
       -5    1    3    3    0  502  0.47687248908E+02 -0.47918250218E+03  0.19793598029E+04  0.20371002094E+04  0.46999998093E+01 0.  1.
</event>
<event>
 5   0  0.1474012E-05  0.2782262E+04  0.7818609E-02  0.8308796E-01
       -1   -1    0    0    0  501  0.00000000000E+00  0.00000000000E+00  0.11663400936E+04  0.11663400936E+04  0.50400001928E-02 0.  1.
        1   -1    0    0  501    0  0.00000000000E+00  0.00000000000E+00 -0.16592466381E+04  0.16592466381E+04  0.50400001928E-02 0. -1.
    10030    2    1    2    0    0  0.00000000000E+00  0.00000000000E+00 -0.49290654454E+03  0.28255867317E+04  0.27822623019E+04 0.  0.
        2    1    3    3  502    0 -0.67983878200E+03 -0.30074299411E+03  0.94770473212E+03  0.12044797123E+04  0.25500000920E-02 0.  1.
       -2    1    3    3    0  502  0.67983878200E+03  0.30074299411E+03 -0.14406112767E+04  0.16211070194E+04  0.25500000920E-02 0. -1.
</event>
<event>
 5   0  0.3514294E-05  0.2736315E+04  0.7818609E-02  0.8323317E-01
        2   -1    0    0  501    0  0.00000000000E+00  0.00000000000E+00  0.13340518225E+04  0.13340518225E+04  0.25500000920E-02 0.  1.
       -2   -1    0    0    0  501  0.00000000000E+00  0.00000000000E+00 -0.14031347211E+04  0.14031347211E+04  0.25500000920E-02 0. -1.
    10030    2    1    2    0    0  0.00000000000E+00  0.00000000000E+00 -0.69082898529E+02  0.27371865436E+04  0.27363146251E+04 0.  0.
        2    1    3    3  502    0 -0.11716720471E+04 -0.59002473350E+03  0.35405351847E+03  0.13587856586E+04  0.25500000920E-02 0.  1.
       -2    1    3    3    0  502  0.11716720471E+04  0.59002473350E+03 -0.42313641700E+03  0.13784008849E+04  0.25500000920E-02 0. -1.
</event>
<event>
 5   0  0.3514294E-05  0.2870567E+04  0.7818609E-02  0.8281689E-01
       -2   -1    0    0    0  501  0.00000000000E+00  0.00000000000E+00  0.14087041939E+04  0.14087041939E+04  0.25500000920E-02 0.  1.
        2   -1    0    0  501    0  0.00000000000E+00  0.00000000000E+00 -0.14623640394E+04  0.14623640394E+04  0.25500000920E-02 0. -1.
    10030    2    1    2    0    0  0.00000000000E+00  0.00000000000E+00 -0.53659845481E+02  0.28710682333E+04  0.28705667422E+04 0.  0.
        2    1    3    3  502    0 -0.79515371202E+03  0.77023239545E+03 -0.94050524363E+03  0.14526105748E+04  0.25500000920E-02 0.  1.
       -2    1    3    3    0  502  0.79515371202E+03 -0.77023239545E+03  0.88684539815E+03  0.14184576585E+04  0.25500000920E-02 0. -1.
</event>
<event>
 5   0  0.3676724E-05  0.2193982E+04  0.7818609E-02  0.8520937E-01
        2   -1    0    0  501    0  0.00000000000E+00  0.00000000000E+00  0.14349727267E+04  0.14349727267E+04  0.25500000920E-02 0. -1.
       -2   -1    0    0    0  501  0.00000000000E+00  0.00000000000E+00 -0.83861472484E+03  0.83861472484E+03  0.25500000920E-02 0.  1.
    10030    2    1    2    0    0  0.00000000000E+00  0.00000000000E+00  0.59635800189E+03  0.22735874516E+04  0.21939820039E+04 0.  0.
        4    1    3    3  502    0  0.24411731487E+03  0.52270237091E+03  0.12650802046E+04  0.13904102161E+04  0.12699999809E+01 0. -1.
       -4    1    3    3    0  502 -0.24411731487E+03 -0.52270237091E+03 -0.66872220272E+03  0.88317723549E+03  0.12699999809E+01 0.  1.
</event>
<event>
 5   0  0.3514294E-05  0.2761595E+04  0.7818609E-02  0.8315292E-01
       -2   -1    0    0    0  501  0.00000000000E+00  0.00000000000E+00  0.10781476965E+04  0.10781476965E+04  0.25500000920E-02 0. -1.
        2   -1    0    0  501    0  0.00000000000E+00  0.00000000000E+00 -0.17684043672E+04  0.17684043672E+04  0.25500000920E-02 0.  1.
    10030    2    1    2    0    0  0.00000000000E+00  0.00000000000E+00 -0.69025667078E+03  0.28465520637E+04  0.27615945357E+04 0.  0.
        2    1    3    3  502    0  0.27243486445E+02  0.66068525803E+03  0.90433184063E+03  0.11202960750E+04  0.25500000920E-02 0. -1.
       -2    1    3    3    0  502 -0.27243486445E+02 -0.66068525803E+03 -0.15945885114E+04  0.17262559887E+04  0.25500000920E-02 0.  1.
</event>
<event>
 5   0  0.3514294E-05  0.2180059E+04  0.7818609E-02  0.8526774E-01
        2   -1    0    0  501    0  0.00000000000E+00  0.00000000000E+00  0.97310743022E+03  0.97310743022E+03  0.25500000920E-02 0. -1.
       -2   -1    0    0    0  501  0.00000000000E+00  0.00000000000E+00 -0.12209999735E+04  0.12209999735E+04  0.25500000920E-02 0.  1.
    10030    2    1    2    0    0  0.00000000000E+00  0.00000000000E+00 -0.24789254326E+03  0.21941074037E+04  0.21800588492E+04 0.  0.
        2    1    3    3  502    0 -0.36356943032E+03  0.12333654832E+03  0.90280901204E+03  0.98104981884E+03  0.25500000920E-02 0. -1.
       -2    1    3    3    0  502  0.36356943032E+03 -0.12333654832E+03 -0.11507015553E+04  0.12130575849E+04  0.25500000920E-02 0.  1.
</event>
<event>
 5   0  0.3568647E-05  0.2815754E+04  0.7818609E-02  0.8298394E-01
       -2   -1    0    0    0  501  0.00000000000E+00  0.00000000000E+00  0.13894845536E+04  0.13894845536E+04  0.25500000920E-02 0.  1.
        2   -1    0    0  501    0  0.00000000000E+00  0.00000000000E+00 -0.14265132675E+04  0.14265132675E+04  0.25500000920E-02 0. -1.
    10030    2    1    2    0    0  0.00000000000E+00  0.00000000000E+00 -0.37028713824E+02  0.28159978211E+04  0.28157543577E+04 0.  0.
        3    1    3    3  502    0 -0.11695792707E+04 -0.36043199552E+03 -0.71448490122E+03  0.14171505136E+04  0.10100000352E+00 0. -1.
       -3    1    3    3    0  502  0.11695792707E+04  0.36043199552E+03  0.67745618740E+03  0.13988473076E+04  0.10100000352E+00 0.  1.
</event>
<event>
 5   0  0.1438701E-05  0.2771689E+04  0.7818609E-02  0.8312112E-01
        1   -1    0    0  501    0  0.00000000000E+00  0.00000000000E+00  0.21359322667E+04  0.21359322667E+04  0.50400001928E-02 0.  1.
       -1   -1    0    0    0  501  0.00000000000E+00  0.00000000000E+00 -0.89916963377E+03  0.89916963378E+03  0.50400001928E-02 0. -1.
    10030    2    1    2    0    0  0.00000000000E+00  0.00000000000E+00  0.12367626329E+04  0.30351019005E+04  0.27716893289E+04 0.  0.
        4    1    3    3  502    0  0.12321098156E+04 -0.47218993887E+03  0.15443463500E+03  0.13284990047E+04  0.12699999809E+01 0. -1.
       -4    1    3    3    0  502 -0.12321098156E+04  0.47218993887E+03  0.10823279979E+04  0.17066028958E+04  0.12699999809E+01 0.  1.
</event>
<event>
 5   0  0.1484379E-05  0.2393321E+04  0.7818609E-02  0.8442008E-01
        1   -1    0    0  501    0  0.00000000000E+00  0.00000000000E+00  0.12935497250E+04  0.12935497250E+04  0.50400001928E-02 0.  1.
       -1   -1    0    0    0  501  0.00000000000E+00  0.00000000000E+00 -0.11070286340E+04  0.11070286340E+04  0.50400001928E-02 0. -1.
    10030    2    1    2    0    0  0.00000000000E+00  0.00000000000E+00  0.18652109100E+03  0.24005783590E+04  0.23933211945E+04 0.  0.
        1    1    3    3  502    0  0.66661684980E+03  0.20393829061E+03  0.10688494090E+04  0.12760908706E+04  0.50400001928E-02 0.  1.
       -1    1    3    3    0  502 -0.66661684980E+03 -0.20393829061E+03 -0.88232831798E+03  0.11244874884E+04  0.50400001928E-02 0. -1.
</event>
<event>
 5   0  0.1449521E-05  0.2721867E+04  0.7818609E-02  0.8327944E-01
       -1   -1    0    0    0  501  0.00000000000E+00  0.00000000000E+00  0.12109818390E+04  0.12109818390E+04  0.50400001928E-02 0.  1.
        1   -1    0    0  501    0  0.00000000000E+00  0.00000000000E+00 -0.15294535919E+04  0.15294535919E+04  0.50400001928E-02 0. -1.
    10030    2    1    2    0    0  0.00000000000E+00  0.00000000000E+00 -0.31847175287E+03  0.27404354309E+04  0.27218673909E+04 0.  0.
        3    1    3    3  502    0 -0.12856172206E+04 -0.36845876992E+03 -0.41308081238E+03  0.13997175682E+04  0.10100000352E+00 0. -1.
       -3    1    3    3    0  502  0.12856172206E+04  0.36845876992E+03  0.94609059514E+02  0.13407178627E+04  0.10100000352E+00 0.  1.
</event>
<event>
 5   0  0.1474012E-05  0.1577185E+04  0.7818609E-02  0.8834688E-01
        1   -1    0    0  501    0  0.00000000000E+00  0.00000000000E+00  0.66092213529E+03  0.66092213531E+03  0.50400001928E-02 0.  1.
       -1   -1    0    0    0  501  0.00000000000E+00  0.00000000000E+00 -0.94092474740E+03  0.94092474741E+03  0.50400001928E-02 0. -1.
    10030    2    1    2    0    0  0.00000000000E+00  0.00000000000E+00 -0.28000261212E+03  0.16018468827E+04  0.15771848252E+04 0.  0.
        2    1    3    3  502    0  0.73856031212E+03 -0.25158193809E+03 -0.25630473999E+03  0.82125326542E+03  0.25500000920E-02 0.  1.
       -2    1    3    3    0  502 -0.73856031212E+03  0.25158193809E+03 -0.23697872122E+02  0.78059361730E+03  0.25500000920E-02 0. -1.
</event>
<event>
 5   0  0.1484379E-05  0.2800739E+04  0.7818609E-02  0.8303039E-01
        1   -1    0    0  501    0  0.00000000000E+00  0.00000000000E+00  0.15325161276E+04  0.15325161276E+04  0.50400001928E-02 0.  1.
       -1   -1    0    0    0  501  0.00000000000E+00  0.00000000000E+00 -0.12796175964E+04  0.12796175965E+04  0.50400001928E-02 0. -1.
    10030    2    1    2    0    0  0.00000000000E+00  0.00000000000E+00  0.25289853114E+03  0.28121337241E+04  0.28007389052E+04 0.  0.
        1    1    3    3  502    0  0.31139975158E+03  0.12870896120E+03 -0.12383080379E+04  0.12833326142E+04  0.50400001928E-02 0. -1.
       -1    1    3    3    0  502 -0.31139975158E+03 -0.12870896120E+03  0.14912065690E+04  0.15288011098E+04  0.50400001928E-02 0.  1.
</event>
<event>
 5   0  0.3676724E-05  0.2649875E+04  0.7818609E-02  0.8351455E-01
       -2   -1    0    0    0  501  0.00000000000E+00  0.00000000000E+00  0.11917069900E+04  0.11917069900E+04  0.25500000920E-02 0.  1.
        2   -1    0    0  501    0  0.00000000000E+00  0.00000000000E+00 -0.14730627105E+04  0.14730627105E+04  0.25500000920E-02 0. -1.
    10030    2    1    2    0    0  0.00000000000E+00  0.00000000000E+00 -0.28135572052E+03  0.26647697005E+04  0.26498748113E+04 0.  0.
        4    1    3    3  502    0  0.11646368627E+04  0.93963777920E+02 -0.76888865167E+03  0.13987135464E+04  0.12699999809E+01 0. -1.
       -4    1    3    3    0  502 -0.11646368627E+04 -0.93963777920E+02  0.48753293115E+03  0.12660561541E+04  0.12699999809E+01 0.  1.
</event>
<event>
 5   0  0.3676724E-05  0.2683630E+04  0.7818609E-02  0.8340336E-01
       -2   -1    0    0    0  501  0.00000000000E+00  0.00000000000E+00  0.11740208921E+04  0.11740208921E+04  0.25500000920E-02 0. -1.
        2   -1    0    0  501    0  0.00000000000E+00  0.00000000000E+00 -0.15335909931E+04  0.15335909931E+04  0.25500000920E-02 0.  1.
    10030    2    1    2    0    0  0.00000000000E+00  0.00000000000E+00 -0.35957010101E+03  0.27076118852E+04  0.26836302769E+04 0.  0.
        4    1    3    3  502    0 -0.74260621896E+03 -0.11174820498E+04 -0.16428137890E+03  0.13517470593E+04  0.12699999809E+01 0. -1.
       -4    1    3    3    0  502  0.74260621896E+03  0.11174820498E+04 -0.19528872211E+03  0.13558648258E+04  0.12699999809E+01 0.  1.
</event>
<event>
 5   0  0.3514294E-05  0.2670804E+04  0.7818609E-02  0.8344541E-01
        2   -1    0    0  501    0  0.00000000000E+00  0.00000000000E+00  0.13455020026E+04  0.13455020026E+04  0.25500000920E-02 0.  1.
       -2   -1    0    0    0  501  0.00000000000E+00  0.00000000000E+00 -0.13253773453E+04  0.13253773453E+04  0.25500000920E-02 0. -1.
    10030    2    1    2    0    0  0.00000000000E+00  0.00000000000E+00  0.20124657333E+02  0.26708793479E+04  0.26708035288E+04 0.  0.
        2    1    3    3  502    0 -0.69151856369E+03 -0.13596242593E+03 -0.11242600318E+04  0.13268927327E+04  0.25500000920E-02 0. -1.
       -2    1    3    3    0  502  0.69151856369E+03  0.13596242593E+03  0.11443846891E+04  0.13439866152E+04  0.25500000920E-02 0.  1.
</event>
<event>
 5   0  0.1228050E-05  0.2742602E+04  0.7818609E-02  0.8321313E-01
        3   -1    0    0  501    0  0.00000000000E+00  0.00000000000E+00  0.11628613538E+04  0.11628613582E+04  0.10100000352E+00 0.  1.
       -3   -1    0    0    0  501  0.00000000000E+00  0.00000000000E+00 -0.16171029844E+04  0.16171029876E+04  0.10100000352E+00 0. -1.
    10030    2    1    2    0    0  0.00000000000E+00  0.00000000000E+00 -0.45424163066E+03  0.27799643458E+04  0.27426021047E+04 0.  0.
        2    1    3    3  502    0 -0.27465043679E+03  0.73188780498E+03 -0.13691342488E+04  0.15765853015E+04  0.25500000920E-02 0. -1.
       -2    1    3    3    0  502  0.27465043679E+03 -0.73188780498E+03  0.91489261816E+03  0.12033790443E+04  0.25500000920E-02 0.  1.
</event>
<event>
 5   0  0.1438701E-05  0.2819814E+04  0.7818609E-02  0.8297143E-01
        1   -1    0    0  501    0  0.00000000000E+00  0.00000000000E+00  0.27959571829E+04  0.27959571829E+04  0.50400001928E-02 0.  1.
       -1   -1    0    0    0  501  0.00000000000E+00  0.00000000000E+00 -0.71096879526E+03  0.71096879527E+03  0.50400001928E-02 0. -1.
    10030    2    1    2    0    0  0.00000000000E+00  0.00000000000E+00  0.20849883876E+04  0.35069259782E+04  0.28198143981E+04 0.  0.
        4    1    3    3  502    0 -0.62852385229E+03 -0.11928451267E+04  0.15551452946E+04  0.20582517410E+04  0.12699999809E+01 0.  1.
       -4    1    3    3    0  502  0.62852385229E+03  0.11928451267E+04  0.52984309301E+03  0.14486742371E+04  0.12699999809E+01 0. -1.
</event>
<event>
 5   0  0.1449521E-05  0.2872532E+04  0.7818609E-02  0.8281097E-01
        1   -1    0    0  501    0  0.00000000000E+00  0.00000000000E+00  0.11836704002E+04  0.11836704002E+04  0.50400001928E-02 0. -1.
       -1   -1    0    0    0  501  0.00000000000E+00  0.00000000000E+00 -0.17427658220E+04  0.17427658220E+04  0.50400001928E-02 0.  1.
    10030    2    1    2    0    0  0.00000000000E+00  0.00000000000E+00 -0.55909542182E+03  0.29264362222E+04  0.28725322056E+04 0.  0.
        3    1    3    3  502    0 -0.55269404258E+02  0.12667155049E+04  0.40782634918E+03  0.13318953482E+04  0.10100000352E+00 0. -1.
       -3    1    3    3    0  502  0.55269404258E+02 -0.12667155049E+04 -0.96692177101E+03  0.15945408740E+04  0.10100000352E+00 0.  1.
</event>
<event>
 5   0  0.1438701E-05  0.2641484E+04  0.7818609E-02  0.8354245E-01
       -1   -1    0    0    0  501  0.00000000000E+00  0.00000000000E+00  0.87370953165E+03  0.87370953166E+03  0.50400001928E-02 0. -1.
        1   -1    0    0  501    0  0.00000000000E+00  0.00000000000E+00 -0.19964980594E+04  0.19964980595E+04  0.50400001928E-02 0.  1.
    10030    2    1    2    0    0  0.00000000000E+00  0.00000000000E+00 -0.11227885278E+04  0.28702075911E+04  0.26414839651E+04 0.  0.
        4    1    3    3  502    0  0.12185120069E+04 -0.36159008634E+03 -0.17137255227E+03  0.12825322865E+04  0.12699999809E+01 0. -1.
       -4    1    3    3    0  502 -0.12185120069E+04  0.36159008634E+03 -0.95141597553E+03  0.15876753046E+04  0.12699999809E+01 0.  1.
</event>
<event>
 5   0  0.1438701E-05  0.1349239E+04  0.7818609E-02  0.8991404E-01
        1   -1    0    0  501    0  0.00000000000E+00  0.00000000000E+00  0.53548707325E+03  0.53548707327E+03  0.50400001928E-02 0.  1.
       -1   -1    0    0    0  501  0.00000000000E+00  0.00000000000E+00 -0.84990222903E+03  0.84990222904E+03  0.50400001928E-02 0. -1.
    10030    2    1    2    0    0  0.00000000000E+00  0.00000000000E+00 -0.31441515578E+03  0.13853893023E+04  0.13492392778E+04 0.  0.
        4    1    3    3  502    0  0.47045572133E+03 -0.45707250779E+02  0.33703329746E+03  0.58052630862E+03  0.12699999809E+01 0.  1.
       -4    1    3    3    0  502 -0.47045572133E+03  0.45707250779E+02 -0.65144845324E+03  0.80486299370E+03  0.12699999809E+01 0. -1.
</event>
<event>
 5   0  0.3652331E-05  0.1737377E+04  0.7818609E-02  0.8740329E-01
       -2   -1    0    0    0  501  0.00000000000E+00  0.00000000000E+00  0.60536621177E+03  0.60536621178E+03  0.25500000920E-02 0.  1.
        2   -1    0    0  501    0  0.00000000000E+00  0.00000000000E+00 -0.12465508318E+04  0.12465508318E+04  0.25500000920E-02 0. -1.
    10030    2    1    2    0    0  0.00000000000E+00  0.00000000000E+00 -0.64118462000E+03  0.18519170435E+04  0.17373770516E+04 0.  0.
        1    1    3    3  502    0  0.15675048437E+03 -0.16159278284E+03 -0.12149150766E+04  0.12355976631E+04  0.50400001928E-02 0. -1.
       -1    1    3    3    0  502 -0.15675048437E+03  0.16159278284E+03  0.57373045659E+03  0.61631938040E+03  0.50400001928E-02 0.  1.
</event>
<event>
 5   0  0.3514294E-05  0.2065064E+04  0.7818609E-02  0.8576791E-01
       -2   -1    0    0    0  501  0.00000000000E+00  0.00000000000E+00  0.63458248209E+03  0.63458248210E+03  0.25500000920E-02 0.  1.
        2   -1    0    0  501    0  0.00000000000E+00  0.00000000000E+00 -0.16800372585E+04  0.16800372585E+04  0.25500000920E-02 0. -1.
    10030    2    1    2    0    0  0.00000000000E+00  0.00000000000E+00 -0.10454547764E+04  0.23146197406E+04  0.20650638862E+04 0.  0.
        2    1    3    3  502    0 -0.31762361344E+03 -0.97266615328E+03 -0.67786651257E+03  0.12273822609E+04  0.25500000920E-02 0. -1.
       -2    1    3    3    0  502  0.31762361344E+03  0.97266615328E+03 -0.36758826387E+03  0.10872374797E+04  0.25500000920E-02 0.  1.
</event>
<event>
 5   0  0.3568647E-05  0.2651305E+04  0.7818609E-02  0.8350980E-01
        2   -1    0    0  501    0  0.00000000000E+00  0.00000000000E+00  0.29163635256E+04  0.29163635256E+04  0.25500000920E-02 0.  1.
       -2   -1    0    0    0  501  0.00000000000E+00  0.00000000000E+00 -0.60258409787E+03  0.60258409788E+03  0.25500000920E-02 0. -1.
    10030    2    1    2    0    0  0.00000000000E+00  0.00000000000E+00  0.23137794277E+04  0.35189476235E+04  0.26513047989E+04 0.  0.
        3    1    3    3  502    0  0.50367545708E+03  0.68473171438E+03  0.25070427240E+04  0.26472267974E+04  0.10100000352E+00 0.  1.
       -3    1    3    3    0  502 -0.50367545708E+03 -0.68473171438E+03 -0.19326329626E+03  0.87172082608E+03  0.10100000352E+00 0. -1.
</event>
<event>
 5   0  0.3497949E-05  0.2653870E+04  0.7818609E-02  0.8350130E-01
       -2   -1    0    0    0  501  0.00000000000E+00  0.00000000000E+00  0.96373394938E+03  0.96373394938E+03  0.25500000920E-02 0.  1.
        2   -1    0    0  501    0  0.00000000000E+00  0.00000000000E+00 -0.18270144649E+04  0.18270144649E+04  0.25500000920E-02 0. -1.
    10030    2    1    2    0    0  0.00000000000E+00  0.00000000000E+00 -0.86328051556E+03  0.27907484143E+04  0.26538695265E+04 0.  0.
        5    1    3    3  502    0 -0.45578980377E+03  0.76446275061E+03 -0.14665685098E+04  0.17155153529E+04  0.46999998093E+01 0. -1.
       -5    1    3    3    0  502  0.45578980377E+03 -0.76446275061E+03  0.60328799423E+03  0.10752330614E+04  0.46999998093E+01 0.  1.
</event>
<event>
 5   0  0.1495517E-05  0.2635462E+04  0.7818609E-02  0.8356254E-01
        1   -1    0    0  501    0  0.00000000000E+00  0.00000000000E+00  0.91794378944E+03  0.91794378945E+03  0.50400001928E-02 0. -1.
       -1   -1    0    0    0  501  0.00000000000E+00  0.00000000000E+00 -0.18916356609E+04  0.18916356609E+04  0.50400001928E-02 0.  1.
    10030    2    1    2    0    0  0.00000000000E+00  0.00000000000E+00 -0.97369187145E+03  0.28095794503E+04  0.26354621658E+04 0.  0.
        5    1    3    3  502    0 -0.38270519726E+03  0.12365105098E+04 -0.22360807296E+03  0.13135616351E+04  0.46999998093E+01 0. -1.
       -5    1    3    3    0  502  0.38270519726E+03 -0.12365105098E+04 -0.75008379849E+03  0.14960178153E+04  0.46999998093E+01 0.  1.
</event>
<event>
 5   0  0.1474012E-05  0.2680266E+04  0.7818609E-02  0.8341436E-01
        1   -1    0    0  501    0  0.00000000000E+00  0.00000000000E+00  0.20747841410E+04  0.20747841410E+04  0.50400001928E-02 0. -1.
       -1   -1    0    0    0  501  0.00000000000E+00  0.00000000000E+00 -0.86561141379E+03  0.86561141380E+03  0.50400001928E-02 0.  1.
    10030    2    1    2    0    0  0.00000000000E+00  0.00000000000E+00  0.12091727272E+04  0.29403955548E+04  0.26802662805E+04 0.  0.
        2    1    3    3  502    0  0.71278681464E+03  0.10567429458E+04  0.10584883787E+04  0.16568549557E+04  0.25500000920E-02 0. -1.
       -2    1    3    3    0  502 -0.71278681464E+03 -0.10567429458E+04  0.15068434852E+03  0.12835405991E+04  0.25500000920E-02 0.  1.
</event>
<event>
 5   0  0.1495517E-05  0.2175513E+04  0.7818609E-02  0.8528690E-01
       -1   -1    0    0    0  501  0.00000000000E+00  0.00000000000E+00  0.59186708940E+03  0.59186708942E+03  0.50400001928E-02 0.  1.
        1   -1    0    0  501    0  0.00000000000E+00  0.00000000000E+00 -0.19991207448E+04  0.19991207448E+04  0.50400001928E-02 0. -1.
    10030    2    1    2    0    0  0.00000000000E+00  0.00000000000E+00 -0.14072536554E+04  0.25909878342E+04  0.21755126077E+04 0.  0.
        5    1    3    3  502    0 -0.20226940272E+03 -0.88163373294E+03  0.15906044286E+02  0.90469113104E+03  0.46999998093E+01 0.  1.
       -5    1    3    3    0  502  0.20226940272E+03  0.88163373294E+03 -0.14231596996E+04  0.16862967031E+04  0.46999998093E+01 0. -1.
</event>
<event>
 5   0  0.3514294E-05  0.2668291E+04  0.7818609E-02  0.8345367E-01
        2   -1    0    0  501    0  0.00000000000E+00  0.00000000000E+00  0.13525567475E+04  0.13525567475E+04  0.25500000920E-02 0.  1.
       -2   -1    0    0    0  501  0.00000000000E+00  0.00000000000E+00 -0.13159848521E+04  0.13159848521E+04  0.25500000920E-02 0. -1.
    10030    2    1    2    0    0  0.00000000000E+00  0.00000000000E+00  0.36571895347E+02  0.26685415996E+04  0.26682909821E+04 0.  0.
        2    1    3    3  502    0  0.72924105874E+03  0.11157116042E+04 -0.39506033915E+02  0.13334787708E+04  0.25500000920E-02 0. -1.
       -2    1    3    3    0  502 -0.72924105874E+03 -0.11157116042E+04  0.76077929262E+02  0.13350628288E+04  0.25500000920E-02 0.  1.
</event>
<event>
 5   0  0.3652331E-05  0.2733488E+04  0.7818609E-02  0.8324220E-01
       -2   -1    0    0    0  501  0.00000000000E+00  0.00000000000E+00  0.10322357249E+04  0.10322357249E+04  0.25500000920E-02 0. -1.
        2   -1    0    0  501    0  0.00000000000E+00  0.00000000000E+00 -0.18096535471E+04  0.18096535471E+04  0.25500000920E-02 0.  1.
    10030    2    1    2    0    0  0.00000000000E+00  0.00000000000E+00 -0.77741782222E+03  0.28418892720E+04  0.27334879119E+04 0.  0.
        1    1    3    3  502    0  0.44735896565E+03 -0.12879066740E+04 -0.28923056423E+03  0.13937316687E+04  0.50400001928E-02 0.  1.
       -1    1    3    3    0  502 -0.44735896565E+03  0.12879066740E+04 -0.48818725799E+03  0.14481576033E+04  0.50400001928E-02 0. -1.
</event>
<event>
 5   0  0.3652331E-05  0.2783643E+04  0.7818609E-02  0.8308365E-01
       -2   -1    0    0    0  501  0.00000000000E+00  0.00000000000E+00  0.10933938942E+04  0.10933938942E+04  0.25500000920E-02 0.  1.
        2   -1    0    0  501    0  0.00000000000E+00  0.00000000000E+00 -0.17717005856E+04  0.17717005856E+04  0.25500000920E-02 0. -1.
    10030    2    1    2    0    0  0.00000000000E+00  0.00000000000E+00 -0.67830669141E+03  0.28650944799E+04  0.27836426514E+04 0.  0.
        1    1    3    3  502    0 -0.19351580701E+03 -0.47707185454E+03  0.99178909773E+03  0.11174486728E+04  0.50400001928E-02 0.  1.
       -1    1    3    3    0  502  0.19351580701E+03  0.47707185454E+03 -0.16700957891E+04  0.17476458070E+04  0.50400001928E-02 0. -1.
</event>
<event>
 5   0  0.3568647E-05  0.2662677E+04  0.7818609E-02  0.8347218E-01
       -2   -1    0    0    0  501  0.00000000000E+00  0.00000000000E+00  0.10372195033E+04  0.10372195033E+04  0.25500000920E-02 0.  1.
        2   -1    0    0  501    0  0.00000000000E+00  0.00000000000E+00 -0.17088587361E+04  0.17088587361E+04  0.25500000920E-02 0. -1.
    10030    2    1    2    0    0  0.00000000000E+00  0.00000000000E+00 -0.67163923281E+03  0.27460782394E+04  0.26626765553E+04 0.  0.
        3    1    3    3  502    0  0.12051395083E+01 -0.50776715812E+03  0.93343324455E+03  0.10626036756E+04  0.10100000352E+00 0.  1.
       -3    1    3    3    0  502 -0.12051395083E+01  0.50776715812E+03 -0.16050724774E+04  0.16834745638E+04  0.10100000352E+00 0. -1.
</event>
<event>
 5   0  0.1438701E-05  0.2716469E+04  0.7818609E-02  0.8329681E-01
        1   -1    0    0  501    0  0.00000000000E+00  0.00000000000E+00  0.15697089110E+04  0.15697089110E+04  0.50400001928E-02 0.  1.
       -1   -1    0    0    0  501  0.00000000000E+00  0.00000000000E+00 -0.11752503079E+04  0.11752503079E+04  0.50400001928E-02 0. -1.
    10030    2    1    2    0    0  0.00000000000E+00  0.00000000000E+00  0.39445860314E+03  0.27449592189E+04  0.27164689440E+04 0.  0.
        4    1    3    3  502    0  0.81921975805E+02 -0.13546810496E+04  0.14255721699E+03  0.13646230723E+04  0.12699999809E+01 0.  1.
       -4    1    3    3    0  502 -0.81921975805E+02  0.13546810496E+04  0.25190138615E+03  0.13803361466E+04  0.12699999809E+01 0. -1.
</event>
<event>
 5   0  0.3568647E-05  0.2385782E+04  0.7818609E-02  0.8444846E-01
       -2   -1    0    0    0  501  0.00000000000E+00  0.00000000000E+00  0.93609380394E+03  0.93609380394E+03  0.25500000920E-02 0. -1.
        2   -1    0    0  501    0  0.00000000000E+00  0.00000000000E+00 -0.15201344874E+04  0.15201344874E+04  0.25500000920E-02 0.  1.
    10030    2    1    2    0    0  0.00000000000E+00  0.00000000000E+00 -0.58404068347E+03  0.24562282913E+04  0.23857816118E+04 0.  0.
        3    1    3    3  502    0 -0.34617663525E+03 -0.79333566194E+03  0.55305118238E+03  0.10271734789E+04  0.10100000352E+00 0. -1.
       -3    1    3    3    0  502  0.34617663525E+03  0.79333566194E+03 -0.11370918658E+04  0.14290548124E+04  0.10100000352E+00 0.  1.
</event>
<event>
 5   0  0.1474012E-05  0.2725841E+04  0.7818609E-02  0.8326669E-01
        1   -1    0    0  501    0  0.00000000000E+00  0.00000000000E+00  0.18229823580E+04  0.18229823580E+04  0.50400001928E-02 0.  1.
       -1   -1    0    0    0  501  0.00000000000E+00  0.00000000000E+00 -0.10189637569E+04  0.10189637569E+04  0.50400001928E-02 0. -1.
    10030    2    1    2    0    0  0.00000000000E+00  0.00000000000E+00  0.80401860110E+03  0.28419461148E+04  0.27258414863E+04 0.  0.
        2    1    3    3  502    0  0.79306178928E+03  0.71913553843E+03 -0.47739268625E+03  0.11721803194E+04  0.25500000920E-02 0. -1.
       -2    1    3    3    0  502 -0.79306178928E+03 -0.71913553843E+03  0.12814112874E+04  0.16697657954E+04  0.25500000920E-02 0.  1.
</event>
<event>
 5   0  0.3497949E-05  0.2703745E+04  0.7818609E-02  0.8333791E-01
        2   -1    0    0  501    0  0.00000000000E+00  0.00000000000E+00  0.20676679716E+04  0.20676679716E+04  0.25500000920E-02 0. -1.
       -2   -1    0    0    0  501  0.00000000000E+00  0.00000000000E+00 -0.88387442059E+03  0.88387442059E+03  0.25500000920E-02 0.  1.
    10030    2    1    2    0    0  0.00000000000E+00  0.00000000000E+00  0.11837935510E+04  0.29515423922E+04  0.27037446850E+04 0.  0.
        5    1    3    3  502    0  0.67329569662E+03  0.10037585313E+04  0.12529341937E+04  0.17408976041E+04  0.46999998093E+01 0.  1.
       -5    1    3    3    0  502 -0.67329569662E+03 -0.10037585313E+04 -0.69140642713E+02  0.12106447880E+04  0.46999998093E+01 0. -1.
</event>
<event>
 5   0  0.3568647E-05  0.2747959E+04  0.7818609E-02  0.8319610E-01
        2   -1    0    0  501    0  0.00000000000E+00  0.00000000000E+00  0.19280633180E+04  0.19280633180E+04  0.25500000920E-02 0.  1.
       -2   -1    0    0    0  501  0.00000000000E+00  0.00000000000E+00 -0.97912746547E+03  0.97912746547E+03  0.25500000920E-02 0. -1.
    10030    2    1    2    0    0  0.00000000000E+00  0.00000000000E+00  0.94893585256E+03  0.29071907835E+04  0.27479590607E+04 0.  0.
        3    1    3    3  502    0 -0.11627082231E+04  0.12142687963E+03  0.12382318882E+04  0.17028955101E+04  0.10100000352E+00 0.  1.
       -3    1    3    3    0  502  0.11627082231E+04 -0.12142687963E+03 -0.28929603560E+03  0.12042952734E+04  0.10100000352E+00 0. -1.
</event>
<event>
 5   0  0.1474012E-05  0.2642296E+04  0.7818609E-02  0.8353975E-01
       -1   -1    0    0    0  501  0.00000000000E+00  0.00000000000E+00  0.13072046803E+04  0.13072046803E+04  0.50400001928E-02 0.  1.
        1   -1    0    0  501    0  0.00000000000E+00  0.00000000000E+00 -0.13352399426E+04  0.13352399426E+04  0.50400001928E-02 0. -1.
    10030    2    1    2    0    0  0.00000000000E+00  0.00000000000E+00 -0.28035262331E+02  0.26424446229E+04  0.26422958974E+04 0.  0.
        2    1    3    3  502    0 -0.90971308853E+02  0.77065567132E+03 -0.10833046187E+04  0.13325670113E+04  0.25500000920E-02 0. -1.
       -2    1    3    3    0  502  0.90971308853E+02 -0.77065567132E+03  0.10552693564E+04  0.13098776116E+04  0.25500000920E-02 0.  1.
</event>
<event>
 5   0  0.1474012E-05  0.2717839E+04  0.7818609E-02  0.8329240E-01
       -1   -1    0    0    0  501  0.00000000000E+00  0.00000000000E+00  0.75307557409E+03  0.75307557411E+03  0.50400001928E-02 0.  1.
        1   -1    0    0  501    0  0.00000000000E+00  0.00000000000E+00 -0.24521596808E+04  0.24521596808E+04  0.50400001928E-02 0. -1.
    10030    2    1    2    0    0  0.00000000000E+00  0.00000000000E+00 -0.16990841068E+04  0.32052352550E+04  0.27178385231E+04 0.  0.
        2    1    3    3  502    0  0.12585125514E+04 -0.45689072422E+03 -0.57534133294E+03  0.14572647753E+04  0.25500000920E-02 0. -1.
       -2    1    3    3    0  502 -0.12585125514E+04  0.45689072422E+03 -0.11237427738E+04  0.17479704796E+04  0.25500000920E-02 0.  1.
</event>
<event>
 5   0  0.1495517E-05  0.2699710E+04  0.7818609E-02  0.8335099E-01
       -1   -1    0    0    0  501  0.00000000000E+00  0.00000000000E+00  0.10783913502E+04  0.10783913502E+04  0.50400001928E-02 0.  1.
        1   -1    0    0  501    0  0.00000000000E+00  0.00000000000E+00 -0.16896541226E+04  0.16896541226E+04  0.50400001928E-02 0. -1.
    10030    2    1    2    0    0  0.00000000000E+00  0.00000000000E+00 -0.61126277236E+03  0.27680454728E+04  0.26997099034E+04 0.  0.
        5    1    3    3  502    0 -0.31626134309E+03  0.48042050285E+03 -0.15577139867E+04  0.16605180068E+04  0.46999998093E+01 0. -1.
       -5    1    3    3    0  502  0.31626134309E+03 -0.48042050285E+03  0.94645121434E+03  0.11075274659E+04  0.46999998093E+01 0.  1.
</event>
<event>
 5   0  0.3514294E-05  0.2646429E+04  0.7818609E-02  0.8352599E-01
        2   -1    0    0  501    0  0.00000000000E+00  0.00000000000E+00  0.22174335403E+04  0.22174335403E+04  0.25500000920E-02 0. -1.
       -2   -1    0    0    0  501  0.00000000000E+00  0.00000000000E+00 -0.78960503556E+03  0.78960503556E+03  0.25500000920E-02 0.  1.
    10030    2    1    2    0    0  0.00000000000E+00  0.00000000000E+00  0.14278285047E+04  0.30070385758E+04  0.26464290577E+04 0.  0.
        2    1    3    3  502    0  0.21042354761E+03 -0.11180365733E+04  0.14817225537E+04  0.18680967787E+04  0.25500000920E-02 0. -1.
       -2    1    3    3    0  502 -0.21042354761E+03  0.11180365733E+04 -0.53894049000E+02  0.11389417971E+04  0.25500000920E-02 0.  1.
</event>
<event>
 5   0  0.3514294E-05  0.2578664E+04  0.7818609E-02  0.8375485E-01
        2   -1    0    0  501    0  0.00000000000E+00  0.00000000000E+00  0.22478296379E+04  0.22478296379E+04  0.25500000920E-02 0. -1.
       -2   -1    0    0    0  501  0.00000000000E+00  0.00000000000E+00 -0.73954741911E+03  0.73954741911E+03  0.25500000920E-02 0.  1.
    10030    2    1    2    0    0  0.00000000000E+00  0.00000000000E+00  0.15082822188E+04  0.29873770570E+04  0.25786636906E+04 0.  0.
        2    1    3    3  502    0  0.84421145363E+03  0.85764009737E+03  0.12902355292E+04  0.17643546230E+04  0.25500000920E-02 0.  1.
       -2    1    3    3    0  502 -0.84421145363E+03 -0.85764009737E+03  0.21804668955E+03  0.12230224339E+04  0.25500000920E-02 0. -1.
</event>
<event>
 5   0  0.1449521E-05  0.2666248E+04  0.7818609E-02  0.8346040E-01
        1   -1    0    0  501    0  0.00000000000E+00  0.00000000000E+00  0.17643145007E+04  0.17643145007E+04  0.50400001928E-02 0. -1.
       -1   -1    0    0    0  501  0.00000000000E+00  0.00000000000E+00 -0.10073143083E+04  0.10073143083E+04  0.50400001928E-02 0.  1.
    10030    2    1    2    0    0  0.00000000000E+00  0.00000000000E+00  0.75700019239E+03  0.27716288090E+04  0.26662477311E+04 0.  0.
        3    1    3    3  502    0 -0.62063046644E+03  0.11714374170E+04  0.23233164699E+03  0.13458921957E+04  0.10100000352E+00 0.  1.
       -3    1    3    3    0  502  0.62063046644E+03 -0.11714374170E+04  0.52466854539E+03  0.14257366133E+04  0.10100000352E+00 0. -1.
</event>
<event>
 5   0  0.3676724E-05  0.2709520E+04  0.7818609E-02  0.8331923E-01
        2   -1    0    0  501    0  0.00000000000E+00  0.00000000000E+00  0.18465637941E+04  0.18465637941E+04  0.25500000920E-02 0. -1.
       -2   -1    0    0    0  501  0.00000000000E+00  0.00000000000E+00 -0.99394069203E+03  0.99394069203E+03  0.25500000920E-02 0.  1.
    10030    2    1    2    0    0  0.00000000000E+00  0.00000000000E+00  0.85262310211E+03  0.28405044862E+04  0.27095201755E+04 0.  0.
        4    1    3    3  502    0  0.80594218373E+03  0.71244551209E+02 -0.71284373695E+03  0.10783164637E+04  0.12699999809E+01 0.  1.
       -4    1    3    3    0  502 -0.80594218373E+03 -0.71244551209E+02  0.15654668391E+04  0.17621880225E+04  0.12699999809E+01 0. -1.
</event>
<event>
 5   0  0.1484379E-05  0.1451617E+04  0.7818609E-02  0.8917280E-01
        1   -1    0    0  501    0  0.00000000000E+00  0.00000000000E+00  0.57034730562E+03  0.57034730564E+03  0.50400001928E-02 0.  1.
       -1   -1    0    0    0  501  0.00000000000E+00  0.00000000000E+00 -0.92364463569E+03  0.92364463570E+03  0.50400001928E-02 0. -1.
    10030    2    1    2    0    0  0.00000000000E+00  0.00000000000E+00 -0.35329733007E+03  0.14939919413E+04  0.14516173454E+04 0.  0.
        1    1    3    3  502    0 -0.32621336508E+03  0.62723643910E+03 -0.76683685603E+01  0.70703572328E+03  0.50400001928E-02 0.  1.
       -1    1    3    3    0  502  0.32621336508E+03 -0.62723643910E+03 -0.34562896151E+03  0.78695621806E+03  0.50400001928E-02 0. -1.
</event>
<event>
 5   0  0.3514294E-05  0.2607277E+04  0.7818609E-02  0.8365734E-01
        2   -1    0    0  501    0  0.00000000000E+00  0.00000000000E+00  0.11074081296E+04  0.11074081296E+04  0.25500000920E-02 0.  1.
       -2   -1    0    0    0  501  0.00000000000E+00  0.00000000000E+00 -0.15346407010E+04  0.15346407010E+04  0.25500000920E-02 0. -1.
    10030    2    1    2    0    0  0.00000000000E+00  0.00000000000E+00 -0.42723257140E+03  0.26420488307E+04  0.26072771915E+04 0.  0.
        2    1    3    3  502    0 -0.56714777310E+03  0.80788590458E+03 -0.10765228529E+04  0.14605607431E+04  0.25500000920E-02 0. -1.
       -2    1    3    3    0  502  0.56714777310E+03 -0.80788590458E+03  0.64929028154E+03  0.11814880876E+04  0.25500000920E-02 0.  1.
</event>
<event>
 5   0  0.1449521E-05  0.2775371E+04  0.7818609E-02  0.8310956E-01
       -1   -1    0    0    0  501  0.00000000000E+00  0.00000000000E+00  0.17569777879E+04  0.17569777879E+04  0.50400001928E-02 0.  1.
        1   -1    0    0  501    0  0.00000000000E+00  0.00000000000E+00 -0.10960131667E+04  0.10960131667E+04  0.50400001928E-02 0. -1.
    10030    2    1    2    0    0  0.00000000000E+00  0.00000000000E+00  0.66096462120E+03  0.28529909547E+04  0.27753708143E+04 0.  0.
        3    1    3    3  502    0 -0.65326760016E+03  0.12116072986E+04  0.51124090208E+03  0.14683725936E+04  0.10100000352E+00 0. -1.
       -3    1    3    3    0  502  0.65326760016E+03 -0.12116072986E+04  0.14972371912E+03  0.13846183611E+04  0.10100000352E+00 0.  1.
</event>
<event>
 5   0  0.3652331E-05  0.2520012E+04  0.7818609E-02  0.8395891E-01
       -2   -1    0    0    0  501  0.00000000000E+00  0.00000000000E+00  0.68066041883E+03  0.68066041884E+03  0.25500000920E-02 0. -1.
        2   -1    0    0  501    0  0.00000000000E+00  0.00000000000E+00 -0.23324620208E+04  0.23324620208E+04  0.25500000920E-02 0.  1.
    10030    2    1    2    0    0  0.00000000000E+00  0.00000000000E+00 -0.16518016020E+04  0.30131224397E+04  0.25200115682E+04 0.  0.
        1    1    3    3  502    0  0.51359216615E+03  0.11305316694E+04 -0.10816076854E+04  0.16467404027E+04  0.50400001928E-02 0.  1.
       -1    1    3    3    0  502 -0.51359216615E+03 -0.11305316694E+04 -0.57019391656E+03  0.13663820370E+04  0.50400001928E-02 0. -1.
</event>
<event>
 5   0  0.3497949E-05  0.2736030E+04  0.7818609E-02  0.8323408E-01
        2   -1    0    0  501    0  0.00000000000E+00  0.00000000000E+00  0.18586236705E+04  0.18586236705E+04  0.25500000920E-02 0. -1.
       -2   -1    0    0    0  501  0.00000000000E+00  0.00000000000E+00 -0.10069088682E+04  0.10069088682E+04  0.25500000920E-02 0.  1.
    10030    2    1    2    0    0  0.00000000000E+00  0.00000000000E+00  0.85171480230E+03  0.28655325387E+04  0.27360297195E+04 0.  0.
        5    1    3    3  502    0  0.11997100065E+03 -0.45295300477E+03 -0.92023288104E+03  0.10326713470E+04  0.46999998093E+01 0.  1.
       -5    1    3    3    0  502 -0.11997100065E+03  0.45295300477E+03  0.17719476833E+04  0.18328611917E+04  0.46999998093E+01 0. -1.
</event>
<event>
 5   0  0.1484379E-05  0.1446671E+04  0.7818609E-02  0.8920711E-01
       -1   -1    0    0    0  501  0.00000000000E+00  0.00000000000E+00  0.57016003507E+03  0.57016003509E+03  0.50400001928E-02 0.  1.
        1   -1    0    0  501    0  0.00000000000E+00  0.00000000000E+00 -0.91766246848E+03  0.91766246849E+03  0.50400001928E-02 0. -1.
    10030    2    1    2    0    0  0.00000000000E+00  0.00000000000E+00 -0.34750243341E+03  0.14878225036E+04  0.14466713037E+04 0.  0.
        1    1    3    3  502    0 -0.67919741032E+03 -0.24429127703E+03 -0.22228594211E+03  0.75524723786E+03  0.50400001928E-02 0. -1.
       -1    1    3    3    0  502  0.67919741032E+03  0.24429127703E+03 -0.12521649130E+03  0.73257526572E+03  0.50400001928E-02 0.  1.
</event>
<event>
 5   0  0.1438701E-05  0.2668822E+04  0.7818609E-02  0.8345193E-01
        1   -1    0    0  501    0  0.00000000000E+00  0.00000000000E+00  0.10584733623E+04  0.10584733623E+04  0.50400001928E-02 0. -1.
       -1   -1    0    0    0  501  0.00000000000E+00  0.00000000000E+00 -0.16822837018E+04  0.16822837018E+04  0.50400001928E-02 0.  1.
    10030    2    1    2    0    0  0.00000000000E+00  0.00000000000E+00 -0.62381033954E+03  0.27407570641E+04  0.26688218271E+04 0.  0.
        4    1    3    3  502    0 -0.28485267284E+03 -0.28975705336E+03  0.99339758398E+03  0.10732849426E+04  0.12699999809E+01 0. -1.
       -4    1    3    3    0  502  0.28485267284E+03  0.28975705336E+03 -0.16172079235E+04  0.16674721215E+04  0.12699999809E+01 0.  1.
</event>
<event>
 5   0  0.1438701E-05  0.2719267E+04  0.7818609E-02  0.8328781E-01
       -1   -1    0    0    0  501  0.00000000000E+00  0.00000000000E+00  0.97806186672E+03  0.97806186673E+03  0.50400001928E-02 0. -1.
        1   -1    0    0  501    0  0.00000000000E+00  0.00000000000E+00 -0.18900676411E+04  0.18900676412E+04  0.50400001928E-02 0.  1.
    10030    2    1    2    0    0  0.00000000000E+00  0.00000000000E+00 -0.91200577443E+03  0.28681295079E+04  0.27192668757E+04 0.  0.
        4    1    3    3  502    0 -0.69029628175E+02  0.13346956118E+04 -0.71952844741E+03  0.15178604235E+04  0.12699999809E+01 0.  1.
       -4    1    3    3    0  502  0.69029628175E+02 -0.13346956118E+04 -0.19247732702E+03  0.13502690843E+04  0.12699999809E+01 0. -1.
</event>
<event>
 5   0  0.3514294E-05  0.2701350E+04  0.7818609E-02  0.8334567E-01
       -2   -1    0    0    0  501  0.00000000000E+00  0.00000000000E+00  0.11827282374E+04  0.11827282374E+04  0.25500000920E-02 0. -1.
        2   -1    0    0  501    0  0.00000000000E+00  0.00000000000E+00 -0.15424703255E+04  0.15424703255E+04  0.25500000920E-02 0.  1.
    10030    2    1    2    0    0  0.00000000000E+00  0.00000000000E+00 -0.35974208813E+03  0.27251985630E+04  0.27013501879E+04 0.  0.
        2    1    3    3  502    0 -0.90865378158E+03 -0.88657886653E+03  0.28533931132E+03  0.13011888041E+04  0.25500000920E-02 0. -1.
       -2    1    3    3    0  502  0.90865378158E+03  0.88657886653E+03 -0.64508139945E+03  0.14240097588E+04  0.25500000920E-02 0.  1.
</event>
<event>
 5   0  0.3514294E-05  0.2484792E+04  0.7818609E-02  0.8408423E-01
       -2   -1    0    0    0  501  0.00000000000E+00  0.00000000000E+00  0.10773649624E+04  0.10773649624E+04  0.25500000920E-02 0. -1.
        2   -1    0    0  501    0  0.00000000000E+00  0.00000000000E+00 -0.14327070596E+04  0.14327070596E+04  0.25500000920E-02 0.  1.
    10030    2    1    2    0    0  0.00000000000E+00  0.00000000000E+00 -0.35534209724E+03  0.25100720220E+04  0.24847924560E+04 0.  0.
        2    1    3    3  502    0  0.12221236859E+04  0.19117104928E+03 -0.60666443878E+02  0.12384720792E+04  0.25500000920E-02 0.  1.
       -2    1    3    3    0  502 -0.12221236859E+04 -0.19117104928E+03 -0.29467565336E+03  0.12715999427E+04  0.25500000920E-02 0. -1.
</event>
<event>
 5   0  0.3676724E-05  0.2713150E+04  0.7818609E-02  0.8330751E-01
        2   -1    0    0  501    0  0.00000000000E+00  0.00000000000E+00  0.13768132516E+04  0.13768132516E+04  0.25500000920E-02 0. -1.
       -2   -1    0    0    0  501  0.00000000000E+00  0.00000000000E+00 -0.13366345116E+04  0.13366345116E+04  0.25500000920E-02 0.  1.
    10030    2    1    2    0    0  0.00000000000E+00  0.00000000000E+00  0.40178740035E+02  0.27134477632E+04  0.27131502783E+04 0.  0.
        4    1    3    3  502    0  0.37993273456E+03  0.28871282595E+03  0.12901067568E+04  0.13755293656E+04  0.12699999809E+01 0. -1.
       -4    1    3    3    0  502 -0.37993273456E+03 -0.28871282595E+03 -0.12499280168E+04  0.13379183976E+04  0.12699999809E+01 0.  1.
</event>
<event>
 5   0  0.3497949E-05  0.2766060E+04  0.7818609E-02  0.8313883E-01
       -2   -1    0    0    0  501  0.00000000000E+00  0.00000000000E+00  0.70058489858E+03  0.70058489859E+03  0.25500000920E-02 0.  1.
        2   -1    0    0  501    0  0.00000000000E+00  0.00000000000E+00 -0.27302504384E+04  0.27302504384E+04  0.25500000920E-02 0. -1.
    10030    2    1    2    0    0  0.00000000000E+00  0.00000000000E+00 -0.20296655398E+04  0.34308353370E+04  0.27660601776E+04 0.  0.
        5    1    3    3  502    0  0.13198804534E+04 -0.19022587770E+03 -0.14696813498E+04  0.19845038816E+04  0.46999998093E+01 0. -1.
       -5    1    3    3    0  502 -0.13198804534E+04  0.19022587770E+03 -0.55998418997E+03  0.14463314554E+04  0.46999998093E+01 0.  1.
</event>
<event>
 5   0  0.3514294E-05  0.2610092E+04  0.7818609E-02  0.8364781E-01
       -2   -1    0    0    0  501  0.00000000000E+00  0.00000000000E+00  0.12547758165E+04  0.12547758165E+04  0.25500000920E-02 0.  1.
        2   -1    0    0  501    0  0.00000000000E+00  0.00000000000E+00 -0.13573304714E+04  0.13573304714E+04  0.25500000920E-02 0. -1.
    10030    2    1    2    0    0  0.00000000000E+00  0.00000000000E+00 -0.10255465483E+03  0.26121062879E+04  0.26100922976E+04 0.  0.
        2    1    3    3  502    0  0.11861221504E+04  0.50624252833E+03 -0.25137709440E+03  0.13139093183E+04  0.25500000920E-02 0.  1.
       -2    1    3    3    0  502 -0.11861221504E+04 -0.50624252833E+03  0.14882243958E+03  0.12981969696E+04  0.25500000920E-02 0. -1.
</event>
<event>
 5   0  0.3652331E-05  0.1766167E+04  0.7818609E-02  0.8724501E-01
        2   -1    0    0  501    0  0.00000000000E+00  0.00000000000E+00  0.20287922730E+04  0.20287922730E+04  0.25500000920E-02 0.  1.
       -2   -1    0    0    0  501  0.00000000000E+00  0.00000000000E+00 -0.38438450355E+03  0.38438450355E+03  0.25500000920E-02 0. -1.
    10030    2    1    2    0    0  0.00000000000E+00  0.00000000000E+00  0.16444077694E+04  0.24131767765E+04  0.17661668219E+04 0.  0.
        1    1    3    3  502    0  0.10219848450E+03 -0.48786267588E+03 -0.17379934967E+03  0.52788325861E+03  0.50400001928E-02 0. -1.
       -1    1    3    3    0  502 -0.10219848450E+03  0.48786267588E+03  0.18182071191E+04  0.18852935179E+04  0.50400001928E-02 0.  1.
</event>
<event>
 5   0  0.3676724E-05  0.2718701E+04  0.7818609E-02  0.8328963E-01
       -2   -1    0    0    0  501  0.00000000000E+00  0.00000000000E+00  0.80605169673E+03  0.80605169674E+03  0.25500000920E-02 0.  1.
        2   -1    0    0  501    0  0.00000000000E+00  0.00000000000E+00 -0.22924499949E+04  0.22924499949E+04  0.25500000920E-02 0. -1.
    10030    2    1    2    0    0  0.00000000000E+00  0.00000000000E+00 -0.14863982982E+04  0.30985016916E+04  0.27187005779E+04 0.  0.
        4    1    3    3  502    0  0.23548507259E+03  0.13339663560E+04 -0.87270500836E+03  0.16113767725E+04  0.12699999809E+01 0. -1.
       -4    1    3    3    0  502 -0.23548507259E+03 -0.13339663560E+04 -0.61369328980E+03  0.14871249192E+04  0.12699999809E+01 0.  1.
</event>
<event>
 5   0  0.3676724E-05  0.2676767E+04  0.7818609E-02  0.8342583E-01
        2   -1    0    0  501    0  0.00000000000E+00  0.00000000000E+00  0.15200182874E+04  0.15200182874E+04  0.25500000920E-02 0.  1.
       -2   -1    0    0    0  501  0.00000000000E+00  0.00000000000E+00 -0.11784527993E+04  0.11784527993E+04  0.25500000920E-02 0. -1.
    10030    2    1    2    0    0  0.00000000000E+00  0.00000000000E+00  0.34156548810E+03  0.26984710867E+04  0.26767665612E+04 0.  0.
        4    1    3    3  502    0  0.99124007430E+03  0.79955440377E+03  0.58573183498E+03  0.14017587256E+04  0.12699999809E+01 0.  1.
       -4    1    3    3    0  502 -0.99124007430E+03 -0.79955440377E+03 -0.24416634688E+03  0.12967123611E+04  0.12699999809E+01 0. -1.
</event>
<event>
 5   0  0.3497949E-05  0.2672012E+04  0.7818609E-02  0.8344144E-01
        2   -1    0    0  501    0  0.00000000000E+00  0.00000000000E+00  0.11747084495E+04  0.11747084495E+04  0.25500000920E-02 0. -1.
       -2   -1    0    0    0  501  0.00000000000E+00  0.00000000000E+00 -0.15194507802E+04  0.15194507802E+04  0.25500000920E-02 0.  1.
    10030    2    1    2    0    0  0.00000000000E+00  0.00000000000E+00 -0.34474233075E+03  0.26941592297E+04  0.26720117291E+04 0.  0.
        5    1    3    3  502    0 -0.81018359386E+03  0.10551347388E+04 -0.48131309102E+02  0.13311819882E+04  0.46999998093E+01 0.  1.
       -5    1    3    3    0  502  0.81018359386E+03 -0.10551347388E+04 -0.29661102165E+03  0.13629772415E+04  0.46999998093E+01 0. -1.
</event>
<event>
 5   0  0.1438701E-05  0.2377119E+04  0.7818609E-02  0.8448120E-01
        1   -1    0    0  501    0  0.00000000000E+00  0.00000000000E+00  0.75234820759E+03  0.75234820760E+03  0.50400001928E-02 0.  1.
       -1   -1    0    0    0  501  0.00000000000E+00  0.00000000000E+00 -0.18776856789E+04  0.18776856789E+04  0.50400001928E-02 0. -1.
    10030    2    1    2    0    0  0.00000000000E+00  0.00000000000E+00 -0.11253374713E+04  0.26300338865E+04  0.23771188064E+04 0.  0.
        4    1    3    3  502    0 -0.57465214990E+03 -0.44902363949E+03 -0.16010459607E+04  0.17593172265E+04  0.12699999809E+01 0. -1.
       -4    1    3    3    0  502  0.57465214990E+03  0.44902363949E+03  0.47570848941E+03  0.87071666001E+03  0.12699999809E+01 0.  1.
</event>
<event>
 5   0  0.3497949E-05  0.2733347E+04  0.7818609E-02  0.8324265E-01
        2   -1    0    0  501    0  0.00000000000E+00  0.00000000000E+00  0.11333337127E+04  0.11333337127E+04  0.25500000920E-02 0.  1.
       -2   -1    0    0    0  501  0.00000000000E+00  0.00000000000E+00 -0.16480557387E+04  0.16480557387E+04  0.25500000920E-02 0. -1.
    10030    2    1    2    0    0  0.00000000000E+00  0.00000000000E+00 -0.51472202601E+03  0.27813894514E+04  0.27333474928E+04 0.  0.
        5    1    3    3  502    0 -0.98646368696E+02  0.44332358853E+03  0.10542896738E+04  0.11479615484E+04  0.46999998093E+01 0.  1.
       -5    1    3    3    0  502  0.98646368696E+02 -0.44332358853E+03 -0.15690116998E+04  0.16334279030E+04  0.46999998093E+01 0. -1.
</event>
<event>
 5   0  0.3568647E-05  0.2689230E+04  0.7818609E-02  0.8338508E-01
        2   -1    0    0  501    0  0.00000000000E+00  0.00000000000E+00  0.13850817474E+04  0.13850817474E+04  0.25500000920E-02 0. -1.
       -2   -1    0    0    0  501  0.00000000000E+00  0.00000000000E+00 -0.13053307213E+04  0.13053307213E+04  0.25500000920E-02 0.  1.
    10030    2    1    2    0    0  0.00000000000E+00  0.00000000000E+00  0.79751026086E+02  0.26904124688E+04  0.26892301921E+04 0.  0.
        3    1    3    3  502    0 -0.43536870945E+03 -0.10519218090E+04  0.75566496588E+03  0.13664241495E+04  0.10100000352E+00 0. -1.
       -3    1    3    3    0  502  0.43536870945E+03  0.10519218090E+04 -0.67591393980E+03  0.13239883193E+04  0.10100000352E+00 0.  1.
</event>
<event>
 5   0  0.3497949E-05  0.2804530E+04  0.7818609E-02  0.8301863E-01
        2   -1    0    0  501    0  0.00000000000E+00  0.00000000000E+00  0.21648716004E+04  0.21648716004E+04  0.25500000920E-02 0.  1.
       -2   -1    0    0    0  501  0.00000000000E+00  0.00000000000E+00 -0.90829743637E+03  0.90829743637E+03  0.25500000920E-02 0. -1.
    10030    2    1    2    0    0  0.00000000000E+00  0.00000000000E+00  0.12565741641E+04  0.30731690368E+04  0.28045301387E+04 0.  0.
        5    1    3    3  502    0  0.17733391785E+03  0.69999276022E+02  0.21505950432E+04  0.21590341236E+04  0.46999998093E+01 0.  1.
       -5    1    3    3    0  502 -0.17733391785E+03 -0.69999276022E+02 -0.89402087917E+03  0.91413491316E+03  0.46999998093E+01 0. -1.
</event>
<event>
 5   0  0.1484379E-05  0.2638191E+04  0.7818609E-02  0.8355343E-01
       -1   -1    0    0    0  501  0.00000000000E+00  0.00000000000E+00  0.99693771692E+03  0.99693771693E+03  0.50400001928E-02 0.  1.
        1   -1    0    0  501    0  0.00000000000E+00  0.00000000000E+00 -0.17453582131E+04  0.17453582131E+04  0.50400001928E-02 0. -1.
    10030    2    1    2    0    0  0.00000000000E+00  0.00000000000E+00 -0.74842049618E+03  0.27422959300E+04  0.26381913746E+04 0.  0.
        1    1    3    3  502    0 -0.11379648656E+04 -0.50905556389E+03 -0.82239960130E+03  0.14934666741E+04  0.50400001928E-02 0.  1.
       -1    1    3    3    0  502  0.11379648656E+04  0.50905556389E+03  0.73979105125E+02  0.12488292559E+04  0.50400001928E-02 0. -1.
</event>
<event>
 5   0  0.1495517E-05  0.1749800E+04  0.7818609E-02  0.8733460E-01
       -1   -1    0    0    0  501  0.00000000000E+00  0.00000000000E+00  0.72390883977E+03  0.72390883979E+03  0.50400001928E-02 0. -1.
        1   -1    0    0  501    0  0.00000000000E+00  0.00000000000E+00 -0.10573843631E+04  0.10573843631E+04  0.50400001928E-02 0.  1.
    10030    2    1    2    0    0  0.00000000000E+00  0.00000000000E+00 -0.33347552337E+03  0.17812932029E+04  0.17497998600E+04 0.  0.
        5    1    3    3  502    0  0.71489195456E+03  0.40286639742E+03 -0.47560580804E+03  0.94846972303E+03  0.46999998093E+01 0.  1.
       -5    1    3    3    0  502 -0.71489195456E+03 -0.40286639742E+03  0.14213028468E+03  0.83282347990E+03  0.46999998093E+01 0. -1.
</event>
<event>
 5   0  0.1495517E-05  0.2655402E+04  0.7818609E-02  0.8349622E-01
        1   -1    0    0  501    0  0.00000000000E+00  0.00000000000E+00  0.15191796289E+04  0.15191796289E+04  0.50400001928E-02 0. -1.
       -1   -1    0    0    0  501  0.00000000000E+00  0.00000000000E+00 -0.11603562226E+04  0.11603562226E+04  0.50400001928E-02 0.  1.
    10030    2    1    2    0    0  0.00000000000E+00  0.00000000000E+00  0.35882340635E+03  0.26795358515E+04  0.26554016914E+04 0.  0.
        5    1    3    3  502    0  0.56686239701E+03 -0.70220667214E+03 -0.80326676061E+03  0.12081749734E+04  0.46999998093E+01 0.  1.
       -5    1    3    3    0  502 -0.56686239701E+03  0.70220667214E+03  0.11620901670E+04  0.14713608781E+04  0.46999998093E+01 0. -1.
</event>
<event>
 5   0  0.3652331E-05  0.2156405E+04  0.7818609E-02  0.8536795E-01
        2   -1    0    0  501    0  0.00000000000E+00  0.00000000000E+00  0.12201600055E+04  0.12201600055E+04  0.25500000920E-02 0.  1.
       -2   -1    0    0    0  501  0.00000000000E+00  0.00000000000E+00 -0.95276120548E+03  0.95276120549E+03  0.25500000920E-02 0. -1.
    10030    2    1    2    0    0  0.00000000000E+00  0.00000000000E+00  0.26739879999E+03  0.21729212110E+04  0.21564054514E+04 0.  0.
        1    1    3    3  502    0 -0.83471588899E+03 -0.53280267917E+03  0.56345359775E+03  0.11393459822E+04  0.50400001928E-02 0.  1.
       -1    1    3    3    0  502  0.83471588899E+03  0.53280267917E+03 -0.29605479776E+03  0.10335752288E+04  0.50400001928E-02 0. -1.
</event>
<event>
 5   0  0.3652331E-05  0.2728469E+04  0.7818609E-02  0.8325826E-01
       -2   -1    0    0    0  501  0.00000000000E+00  0.00000000000E+00  0.15184598663E+04  0.15184598663E+04  0.25500000920E-02 0. -1.
        2   -1    0    0  501    0  0.00000000000E+00  0.00000000000E+00 -0.12256734837E+04  0.12256734837E+04  0.25500000920E-02 0.  1.
    10030    2    1    2    0    0  0.00000000000E+00  0.00000000000E+00  0.29278638263E+03  0.27441333500E+04  0.27284691636E+04 0.  0.
        1    1    3    3  502    0  0.71230827407E+02  0.99003915060E+02  0.15129655685E+04  0.15178736500E+04  0.50400001928E-02 0. -1.
       -1    1    3    3    0  502 -0.71230827407E+02 -0.99003915060E+02 -0.12201791859E+04  0.12262596999E+04  0.50400001928E-02 0.  1.
</event>
<event>
 5   0  0.1438701E-05  0.3081538E+04  0.7818609E-02  0.8220823E-01
       -1   -1    0    0    0  501  0.00000000000E+00  0.00000000000E+00  0.10047432672E+04  0.10047432672E+04  0.50400001928E-02 0. -1.
        1   -1    0    0  501    0  0.00000000000E+00  0.00000000000E+00 -0.23627625065E+04  0.23627625065E+04  0.50400001928E-02 0.  1.
    10030    2    1    2    0    0  0.00000000000E+00  0.00000000000E+00 -0.13580192393E+04  0.33675057737E+04  0.30815383953E+04 0.  0.
        4    1    3    3  502    0  0.94656901470E+03 -0.15765906358E+03  0.63831051723E+03  0.11525151666E+04  0.12699999809E+01 0. -1.
       -4    1    3    3    0  502 -0.94656901470E+03  0.15765906358E+03 -0.19963297566E+04  0.22149906071E+04  0.12699999809E+01 0.  1.
</event>
<event>
 5   0  0.3514294E-05  0.2690227E+04  0.7818609E-02  0.8338183E-01
        2   -1    0    0  501    0  0.00000000000E+00  0.00000000000E+00  0.18012954366E+04  0.18012954366E+04  0.25500000920E-02 0.  1.
       -2   -1    0    0    0  501  0.00000000000E+00  0.00000000000E+00 -0.10044608233E+04  0.10044608233E+04  0.25500000920E-02 0. -1.
    10030    2    1    2    0    0  0.00000000000E+00  0.00000000000E+00  0.79683461328E+03  0.28057562599E+04  0.26902272746E+04 0.  0.
        2    1    3    3  502    0 -0.82950109529E+03  0.54995607239E+03  0.13421559291E+04  0.16708998434E+04  0.25500000920E-02 0.  1.
       -2    1    3    3    0  502  0.82950109529E+03 -0.54995607239E+03 -0.54532131581E+03  0.11348564165E+04  0.25500000920E-02 0. -1.
</event>
<event>
 5   0  0.1228050E-05  0.2707232E+04  0.7818609E-02  0.8332662E-01
        3   -1    0    0  501    0  0.00000000000E+00  0.00000000000E+00  0.88480021447E+03  0.88480022024E+03  0.10100000352E+00 0.  1.
       -3   -1    0    0    0  501  0.00000000000E+00  0.00000000000E+00 -0.20708357065E+04  0.20708357089E+04  0.10100000352E+00 0. -1.
    10030    2    1    2    0    0  0.00000000000E+00  0.00000000000E+00 -0.11860354920E+04  0.29556359292E+04  0.27072317148E+04 0.  0.
        1    1    3    3  502    0 -0.66632459899E+03 -0.15261482012E+02  0.69324226594E+03  0.96166845813E+03  0.50400001928E-02 0.  1.
       -1    1    3    3    0  502  0.66632459899E+03  0.15261482012E+02 -0.18792777579E+04  0.19939674710E+04  0.50400001928E-02 0. -1.
</event>
<event>
 5   0  0.3497949E-05  0.1418483E+04  0.7818609E-02  0.8940547E-01
       -2   -1    0    0    0  501  0.00000000000E+00  0.00000000000E+00  0.40907578791E+03  0.40907578792E+03  0.25500000920E-02 0. -1.
        2   -1    0    0  501    0  0.00000000000E+00  0.00000000000E+00 -0.12296584772E+04  0.12296584772E+04  0.25500000920E-02 0.  1.
    10030    2    1    2    0    0  0.00000000000E+00  0.00000000000E+00 -0.82058268931E+03  0.16387342651E+04  0.14184830072E+04 0.  0.
        5    1    3    3  502    0 -0.47972347028E+03 -0.43988203008E+03 -0.84818873001E+02  0.65638947245E+03  0.46999998093E+01 0. -1.
       -5    1    3    3    0  502  0.47972347028E+03  0.43988203008E+03 -0.73576381630E+03  0.98234479268E+03  0.46999998093E+01 0.  1.
</event>
<event>
 5   0  0.3497949E-05  0.2708303E+04  0.7818609E-02  0.8332316E-01
       -2   -1    0    0    0  501  0.00000000000E+00  0.00000000000E+00  0.18544051769E+04  0.18544051769E+04  0.25500000920E-02 0. -1.
        2   -1    0    0  501    0  0.00000000000E+00  0.00000000000E+00 -0.98884852275E+03  0.98884852276E+03  0.25500000920E-02 0.  1.
    10030    2    1    2    0    0  0.00000000000E+00  0.00000000000E+00  0.86555665419E+03  0.28432536997E+04  0.27083026565E+04 0.  0.
        5    1    3    3  502    0 -0.56338907676E+03  0.23453640063E+03  0.17018510154E+04  0.18079639221E+04  0.46999998093E+01 0. -1.
       -5    1    3    3    0  502  0.56338907676E+03 -0.23453640063E+03 -0.83629436120E+03  0.10352897776E+04  0.46999998093E+01 0.  1.
</event>
<event>
 5   0  0.1484379E-05  0.1754998E+04  0.7818609E-02  0.8730604E-01
        1   -1    0    0  501    0  0.00000000000E+00  0.00000000000E+00  0.85007521879E+03  0.85007521881E+03  0.50400001928E-02 0.  1.
       -1   -1    0    0    0  501  0.00000000000E+00  0.00000000000E+00 -0.90580786953E+03  0.90580786954E+03  0.50400001928E-02 0. -1.
    10030    2    1    2    0    0  0.00000000000E+00  0.00000000000E+00 -0.55732650737E+02  0.17558830883E+04  0.17549983737E+04 0.  0.
        1    1    3    3  502    0  0.47479282758E+03  0.82059218514E+02  0.70588109748E+03  0.85465201589E+03  0.50400001928E-02 0.  1.
       -1    1    3    3    0  502 -0.47479282758E+03 -0.82059218514E+02 -0.76161374822E+03  0.90123107246E+03  0.50400001928E-02 0. -1.
</event>
<event>
 5   0  0.1438701E-05  0.2330272E+04  0.7818609E-02  0.8466080E-01
       -1   -1    0    0    0  501  0.00000000000E+00  0.00000000000E+00  0.16629743977E+04  0.16629743977E+04  0.50400001928E-02 0.  1.
        1   -1    0    0  501    0  0.00000000000E+00  0.00000000000E+00 -0.81633375389E+03  0.81633375391E+03  0.50400001928E-02 0. -1.
    10030    2    1    2    0    0  0.00000000000E+00  0.00000000000E+00  0.84664064385E+03  0.24793081517E+04  0.23302722011E+04 0.  0.
        4    1    3    3  502    0 -0.10727701791E+04  0.13229177910E+02 -0.60200365666E+02  0.10745401645E+04  0.12699999809E+01 0. -1.
       -4    1    3    3    0  502  0.10727701791E+04 -0.13229177910E+02  0.90684100951E+03  0.14047679871E+04  0.12699999809E+01 0.  1.
</event>
<event>
 5   0  0.3568647E-05  0.2740220E+04  0.7818609E-02  0.8322072E-01
        2   -1    0    0  501    0  0.00000000000E+00  0.00000000000E+00  0.31811837502E+04  0.31811837502E+04  0.25500000920E-02 0.  1.
       -2   -1    0    0    0  501  0.00000000000E+00  0.00000000000E+00 -0.59009541176E+03  0.59009541176E+03  0.25500000920E-02 0. -1.
    10030    2    1    2    0    0  0.00000000000E+00  0.00000000000E+00  0.25910883385E+04  0.37712791620E+04  0.27402203816E+04 0.  0.
        3    1    3    3  502    0 -0.83511986069E+01 -0.13690877176E+04  0.12236217424E+04  0.18362246866E+04  0.10100000352E+00 0. -1.
       -3    1    3    3    0  502  0.83511986069E+01  0.13690877176E+04  0.13674665961E+04  0.19350544754E+04  0.10100000352E+00 0.  1.
</event>
<event>
 5   0  0.3652331E-05  0.2725790E+04  0.7818609E-02  0.8326685E-01
        2   -1    0    0  501    0  0.00000000000E+00  0.00000000000E+00  0.16567991487E+04  0.16567991487E+04  0.25500000920E-02 0.  1.
       -2   -1    0    0    0  501  0.00000000000E+00  0.00000000000E+00 -0.11211275747E+04  0.11211275747E+04  0.25500000920E-02 0. -1.
    10030    2    1    2    0    0  0.00000000000E+00  0.00000000000E+00  0.53567157398E+03  0.27779267234E+04  0.27257903158E+04 0.  0.
        1    1    3    3  502    0  0.83413367317E+03 -0.65716790088E+03 -0.60280810744E+03  0.12210758572E+04  0.50400001928E-02 0. -1.
       -1    1    3    3    0  502 -0.83413367317E+03  0.65716790088E+03  0.11384796814E+04  0.15568508662E+04  0.50400001928E-02 0.  1.
</event>
<event>
 5   0  0.3497949E-05  0.2672118E+04  0.7818609E-02  0.8344109E-01
       -2   -1    0    0    0  501  0.00000000000E+00  0.00000000000E+00  0.70096496729E+03  0.70096496729E+03  0.25500000920E-02 0.  1.
        2   -1    0    0  501    0  0.00000000000E+00  0.00000000000E+00 -0.25465659179E+04  0.25465659179E+04  0.25500000920E-02 0. -1.
    10030    2    1    2    0    0  0.00000000000E+00  0.00000000000E+00 -0.18456009506E+04  0.32475308852E+04  0.26721178831E+04 0.  0.
        5    1    3    3  502    0 -0.94773426779E+03 -0.91993460150E+03 -0.67806265086E+03  0.14846787403E+04  0.46999998093E+01 0. -1.
       -5    1    3    3    0  502  0.94773426779E+03  0.91993460150E+03 -0.11675382997E+04  0.17628521449E+04  0.46999998093E+01 0.  1.
</event>
<event>
 5   0  0.1228050E-05  0.1461234E+04  0.7818609E-02  0.8910649E-01
        4   -1    0    0  501    0  0.00000000000E+00  0.00000000000E+00  0.85310657455E+03  0.85310751986E+03  0.12699999809E+01 0.  1.
       -4   -1    0    0    0  501  0.00000000000E+00  0.00000000000E+00 -0.62571265285E+03  0.62571394169E+03  0.12699999809E+01 0. -1.
    10030    2    1    2    0    0  0.00000000000E+00  0.00000000000E+00  0.22739392171E+03  0.14788214616E+04  0.14612340400E+04 0.  0.
        4    1    3    3  502    0  0.76176951040E+02 -0.31216416620E+03  0.77775780474E+03  0.84152136649E+03  0.12699999809E+01 0.  1.
       -4    1    3    3    0  502 -0.76176951040E+02  0.31216416620E+03 -0.55036388303E+03  0.63730009507E+03  0.12699999809E+01 0. -1.
</event>
<event>
 5   0  0.3568647E-05  0.2757464E+04  0.7818609E-02  0.8316597E-01
        2   -1    0    0  501    0  0.00000000000E+00  0.00000000000E+00  0.19939210988E+04  0.19939210988E+04  0.25500000920E-02 0. -1.
       -2   -1    0    0    0  501  0.00000000000E+00  0.00000000000E+00 -0.95334852732E+03  0.95334852732E+03  0.25500000920E-02 0.  1.
    10030    2    1    2    0    0  0.00000000000E+00  0.00000000000E+00  0.10405725715E+04  0.29472696262E+04  0.27574638661E+04 0.  0.
        3    1    3    3  502    0 -0.68277761599E+03 -0.16200137699E+03 -0.74819524810E+03  0.10257806094E+04  0.10100000352E+00 0.  1.
       -3    1    3    3    0  502  0.68277761599E+03  0.16200137699E+03  0.17887678196E+04  0.19214890168E+04  0.10100000352E+00 0. -1.
</event>
<event>
 5   0  0.3676724E-05  0.2707847E+04  0.7818609E-02  0.8332463E-01
        2   -1    0    0  501    0  0.00000000000E+00  0.00000000000E+00  0.19021174949E+04  0.19021174949E+04  0.25500000920E-02 0.  1.
       -2   -1    0    0    0  501  0.00000000000E+00  0.00000000000E+00 -0.96372012836E+03  0.96372012836E+03  0.25500000920E-02 0. -1.
    10030    2    1    2    0    0  0.00000000000E+00  0.00000000000E+00  0.93839736656E+03  0.28658376233E+04  0.27078470536E+04 0.  0.
        4    1    3    3  502    0  0.16949840274E+02 -0.87828791673E+03 -0.62116957015E+03  0.10758857790E+04  0.12699999809E+01 0. -1.
       -4    1    3    3    0  502 -0.16949840274E+02  0.87828791673E+03  0.15595669367E+04  0.17899518442E+04  0.12699999809E+01 0.  1.
</event>
<event>
 5   0  0.1495517E-05  0.2634381E+04  0.7818609E-02  0.8356616E-01
        1   -1    0    0  501    0  0.00000000000E+00  0.00000000000E+00  0.14239056352E+04  0.14239056352E+04  0.50400001928E-02 0. -1.
       -1   -1    0    0    0  501  0.00000000000E+00  0.00000000000E+00 -0.12184729761E+04  0.12184729761E+04  0.50400001928E-02 0.  1.
    10030    2    1    2    0    0  0.00000000000E+00  0.00000000000E+00  0.20543265912E+03  0.26423786113E+04  0.26343807902E+04 0.  0.
        5    1    3    3  502    0 -0.61207189841E+03 -0.11480008244E+04  0.30932845313E+03  0.13372524382E+04  0.46999998093E+01 0. -1.
       -5    1    3    3    0  502  0.61207189841E+03  0.11480008244E+04 -0.10389579401E+03  0.13051261731E+04  0.46999998093E+01 0.  1.
</event>
<event>
 5   0  0.3568647E-05  0.2656595E+04  0.7818609E-02  0.8349227E-01
       -2   -1    0    0    0  501  0.00000000000E+00  0.00000000000E+00  0.84020344024E+03  0.84020344024E+03  0.25500000920E-02 0. -1.
        2   -1    0    0  501    0  0.00000000000E+00  0.00000000000E+00 -0.20999364352E+04  0.20999364352E+04  0.25500000920E-02 0.  1.
    10030    2    1    2    0    0  0.00000000000E+00  0.00000000000E+00 -0.12597329950E+04  0.29401398755E+04  0.26565946753E+04 0.  0.
        3    1    3    3  502    0 -0.52593201394E+03 -0.70898221472E+02 -0.19775117984E+04  0.20474823477E+04  0.10100000352E+00 0.  1.
       -3    1    3    3    0  502  0.52593201394E+03  0.70898221472E+02  0.71777880340E+03  0.89265752779E+03  0.10100000352E+00 0. -1.
</event>
<event>
 5   0  0.3676724E-05  0.2899589E+04  0.7818609E-02  0.8273000E-01
        2   -1    0    0  501    0  0.00000000000E+00  0.00000000000E+00  0.10415444807E+04  0.10415444807E+04  0.25500000920E-02 0.  1.
       -2   -1    0    0    0  501  0.00000000000E+00  0.00000000000E+00 -0.20180651199E+04  0.20180651199E+04  0.25500000920E-02 0. -1.
    10030    2    1    2    0    0  0.00000000000E+00  0.00000000000E+00 -0.97652063920E+03  0.30596096007E+04  0.28995893416E+04 0.  0.
        4    1    3    3  502    0 -0.20964459776E+03  0.24006555842E+03 -0.19806400058E+04  0.20061203292E+04  0.12699999809E+01 0. -1.
       -4    1    3    3    0  502  0.20964459776E+03 -0.24006555842E+03  0.10041193666E+04  0.10534892714E+04  0.12699999809E+01 0.  1.
</event>
<event>
 5   0  0.3652331E-05  0.2687780E+04  0.7818609E-02  0.8338981E-01
        2   -1    0    0  501    0  0.00000000000E+00  0.00000000000E+00  0.13216280159E+04  0.13216280159E+04  0.25500000920E-02 0.  1.
       -2   -1    0    0    0  501  0.00000000000E+00  0.00000000000E+00 -0.13665274733E+04  0.13665274733E+04  0.25500000920E-02 0. -1.
    10030    2    1    2    0    0  0.00000000000E+00  0.00000000000E+00 -0.44899457411E+02  0.26881554891E+04  0.26877804919E+04 0.  0.
        1    1    3    3  502    0 -0.17151183916E+03  0.45211300724E+03  0.12316065902E+04  0.13231316168E+04  0.50400001928E-02 0.  1.
       -1    1    3    3    0  502  0.17151183916E+03 -0.45211300724E+03 -0.12765060477E+04  0.13650238723E+04  0.50400001928E-02 0. -1.
</event>
<event>
 5   0  0.1438701E-05  0.2475719E+04  0.7818609E-02  0.8411687E-01
        1   -1    0    0  501    0  0.00000000000E+00  0.00000000000E+00  0.15386384205E+04  0.15386384205E+04  0.50400001928E-02 0.  1.
       -1   -1    0    0    0  501  0.00000000000E+00  0.00000000000E+00 -0.99587826749E+03  0.99587826750E+03  0.50400001928E-02 0. -1.
    10030    2    1    2    0    0  0.00000000000E+00  0.00000000000E+00  0.54276015303E+03  0.25345166880E+04  0.24757193416E+04 0.  0.
        4    1    3    3  502    0  0.88922251142E+03  0.45073654211E+03 -0.47981418024E+03  0.11063920488E+04  0.12699999809E+01 0. -1.
       -4    1    3    3    0  502 -0.88922251142E+03 -0.45073654211E+03  0.10225743333E+04  0.14281246392E+04  0.12699999809E+01 0.  1.
</event>
<event>
 5   0  0.3568647E-05  0.2512988E+04  0.7818609E-02  0.8398373E-01
        2   -1    0    0  501    0  0.00000000000E+00  0.00000000000E+00  0.18584565110E+04  0.18584565110E+04  0.25500000920E-02 0. -1.
       -2   -1    0    0    0  501  0.00000000000E+00  0.00000000000E+00 -0.84950994897E+03  0.84950994897E+03  0.25500000920E-02 0.  1.
    10030    2    1    2    0    0  0.00000000000E+00  0.00000000000E+00  0.10089465620E+04  0.27079664600E+04  0.25129880985E+04 0.  0.
        3    1    3    3  502    0  0.25408175435E+03 -0.93887708163E+03 -0.35268675811E+03  0.10346186118E+04  0.10100000352E+00 0.  1.
       -3    1    3    3    0  502 -0.25408175435E+03  0.93887708163E+03  0.13616333202E+04  0.16733478482E+04  0.10100000352E+00 0. -1.
</event>
<event>
 5   0  0.3497949E-05  0.2673199E+04  0.7818609E-02  0.8343754E-01
       -2   -1    0    0    0  501  0.00000000000E+00  0.00000000000E+00  0.93684453970E+03  0.93684453971E+03  0.25500000920E-02 0.  1.
        2   -1    0    0  501    0  0.00000000000E+00  0.00000000000E+00 -0.19069307292E+04  0.19069307292E+04  0.25500000920E-02 0. -1.
    10030    2    1    2    0    0  0.00000000000E+00  0.00000000000E+00 -0.97008618954E+03  0.28437752690E+04  0.26731985645E+04 0.  0.
        5    1    3    3  502    0 -0.85390848195E+02  0.22271510771E+03 -0.18840975670E+04  0.18991417399E+04  0.46999998093E+01 0. -1.
       -5    1    3    3    0  502  0.85390848195E+02 -0.22271510771E+03  0.91401137745E+03  0.94463352908E+03  0.46999998093E+01 0.  1.
</event>
<event>
 5   0  0.1449521E-05  0.1975096E+04  0.7818609E-02  0.8618353E-01
        1   -1    0    0  501    0  0.00000000000E+00  0.00000000000E+00  0.69834953833E+03  0.69834953834E+03  0.50400001928E-02 0.  1.
       -1   -1    0    0    0  501  0.00000000000E+00  0.00000000000E+00 -0.13965085338E+04  0.13965085338E+04  0.50400001928E-02 0. -1.
    10030    2    1    2    0    0  0.00000000000E+00  0.00000000000E+00 -0.69815899551E+03  0.20948580722E+04  0.19750960381E+04 0.  0.
        3    1    3    3  502    0  0.96362937711E+03  0.17302165306E+03 -0.21187971205E+03  0.10017040938E+04  0.10100000352E+00 0.  1.
       -3    1    3    3    0  502 -0.96362937711E+03 -0.17302165306E+03 -0.48627928346E+03  0.10931539784E+04  0.10100000352E+00 0. -1.
</event>
<event>
 5   0  0.1438701E-05  0.2673953E+04  0.7818609E-02  0.8343506E-01
       -1   -1    0    0    0  501  0.00000000000E+00  0.00000000000E+00  0.13519671133E+04  0.13519671133E+04  0.50400001928E-02 0. -1.
        1   -1    0    0  501    0  0.00000000000E+00  0.00000000000E+00 -0.13221524815E+04  0.13221524815E+04  0.50400001928E-02 0.  1.
    10030    2    1    2    0    0  0.00000000000E+00  0.00000000000E+00  0.29814631742E+02  0.26741195948E+04  0.26739533831E+04 0.  0.
        4    1    3    3  502    0 -0.46864941595E+03 -0.53565905890E+03 -0.11169501879E+04  0.13244403489E+04  0.12699999809E+01 0.  1.
       -4    1    3    3    0  502  0.46864941595E+03  0.53565905890E+03  0.11467648197E+04  0.13496792460E+04  0.12699999809E+01 0. -1.
</event>
<event>
 5   0  0.3676724E-05  0.2716990E+04  0.7818609E-02  0.8329513E-01
        2   -1    0    0  501    0  0.00000000000E+00  0.00000000000E+00  0.23333094939E+04  0.23333094939E+04  0.25500000920E-02 0.  1.
       -2   -1    0    0    0  501  0.00000000000E+00  0.00000000000E+00 -0.79094023146E+03  0.79094023146E+03  0.25500000920E-02 0. -1.
    10030    2    1    2    0    0  0.00000000000E+00  0.00000000000E+00  0.15423692624E+04  0.31242497253E+04  0.27169897690E+04 0.  0.
        4    1    3    3  502    0  0.10503559646E+04  0.45996168347E+03 -0.66498872993E+02  0.11485800432E+04  0.12699999809E+01 0. -1.
       -4    1    3    3    0  502 -0.10503559646E+04 -0.45996168347E+03  0.16088681354E+04  0.19756696821E+04  0.12699999809E+01 0.  1.
</event>
<event>
 5   0  0.1449521E-05  0.2711186E+04  0.7818609E-02  0.8331384E-01
       -1   -1    0    0    0  501  0.00000000000E+00  0.00000000000E+00  0.15490058110E+04  0.15490058110E+04  0.50400001928E-02 0. -1.
        1   -1    0    0  501    0  0.00000000000E+00  0.00000000000E+00 -0.11863305605E+04  0.11863305605E+04  0.50400001928E-02 0.  1.
    10030    2    1    2    0    0  0.00000000000E+00  0.00000000000E+00  0.36267525051E+03  0.27353363714E+04  0.27111864059E+04 0.  0.
        3    1    3    3  502    0  0.11709274973E+03 -0.13500483029E+04  0.21759924913E+03  0.13724760747E+04  0.10100000352E+00 0.  1.
       -3    1    3    3    0  502 -0.11709274973E+03  0.13500483029E+04  0.14507600138E+03  0.13628602968E+04  0.10100000352E+00 0. -1.
</event>
<event>
 5   0  0.3497949E-05  0.2322191E+04  0.7818609E-02  0.8469223E-01
       -2   -1    0    0    0  501  0.00000000000E+00  0.00000000000E+00  0.52277532419E+03  0.52277532420E+03  0.25500000920E-02 0. -1.
        2   -1    0    0  501    0  0.00000000000E+00  0.00000000000E+00 -0.25788189642E+04  0.25788189642E+04  0.25500000920E-02 0.  1.
    10030    2    1    2    0    0  0.00000000000E+00  0.00000000000E+00 -0.20560436400E+04  0.31015942884E+04  0.23221911377E+04 0.  0.
        5    1    3    3  502    0  0.13939086015E+03 -0.92250275957E+03 -0.10490767224E+03  0.93886573214E+03  0.46999998093E+01 0. -1.
       -5    1    3    3    0  502 -0.13939086015E+03  0.92250275957E+03 -0.19511359678E+04  0.21627285563E+04  0.46999998093E+01 0.  1.
</event>
<event>
 5   0  0.3514294E-05  0.2640085E+04  0.7818609E-02  0.8354711E-01
        2   -1    0    0  501    0  0.00000000000E+00  0.00000000000E+00  0.18637534416E+04  0.18637534416E+04  0.25500000920E-02 0.  1.
       -2   -1    0    0    0  501  0.00000000000E+00  0.00000000000E+00 -0.93494769869E+03  0.93494769870E+03  0.25500000920E-02 0. -1.
    10030    2    1    2    0    0  0.00000000000E+00  0.00000000000E+00  0.92880574292E+03  0.27987011403E+04  0.26400848404E+04 0.  0.
        2    1    3    3  502    0  0.48786293728E+03  0.65470579007E+03 -0.63515208478E+03  0.10344409543E+04  0.25500000920E-02 0. -1.
       -2    1    3    3    0  502 -0.48786293728E+03 -0.65470579007E+03  0.15639578277E+04  0.17642601860E+04  0.25500000920E-02 0.  1.
</event>
<event>
 5   0  0.3497949E-05  0.2665216E+04  0.7818609E-02  0.8346380E-01
        2   -1    0    0  501    0  0.00000000000E+00  0.00000000000E+00  0.87362412104E+03  0.87362412104E+03  0.25500000920E-02 0. -1.
       -2   -1    0    0    0  501  0.00000000000E+00  0.00000000000E+00 -0.20327321727E+04  0.20327321727E+04  0.25500000920E-02 0.  1.
    10030    2    1    2    0    0  0.00000000000E+00  0.00000000000E+00 -0.11591080516E+04  0.29063562937E+04  0.26652158319E+04 0.  0.
        5    1    3    3  502    0 -0.13080443705E+04 -0.24969242137E+03 -0.63402754649E+03  0.14749031833E+04  0.46999998093E+01 0. -1.
       -5    1    3    3    0  502  0.13080443705E+04  0.24969242137E+03 -0.52508050513E+03  0.14314531104E+04  0.46999998093E+01 0.  1.
</event>
<event>
 5   0  0.1495517E-05  0.2672814E+04  0.7818609E-02  0.8343880E-01
       -1   -1    0    0    0  501  0.00000000000E+00  0.00000000000E+00  0.13801262291E+04  0.13801262291E+04  0.50400001928E-02 0. -1.
        1   -1    0    0  501    0  0.00000000000E+00  0.00000000000E+00 -0.12940730307E+04  0.12940730307E+04  0.50400001928E-02 0.  1.
    10030    2    1    2    0    0  0.00000000000E+00  0.00000000000E+00  0.86053198411E+02  0.26741992598E+04  0.26728143460E+04 0.  0.
        5    1    3    3  502    0 -0.11929470112E+04 -0.44473009263E+03 -0.36345304986E+03  0.13240195000E+04  0.46999998093E+01 0.  1.
       -5    1    3    3    0  502  0.11929470112E+04  0.44473009263E+03  0.44950624827E+03  0.13501797599E+04  0.46999998093E+01 0. -1.
</event>
<event>
 5   0  0.1438701E-05  0.2623699E+04  0.7818609E-02  0.8360196E-01
        1   -1    0    0  501    0  0.00000000000E+00  0.00000000000E+00  0.16638361364E+04  0.16638361364E+04  0.50400001928E-02 0. -1.
       -1   -1    0    0    0  501  0.00000000000E+00  0.00000000000E+00 -0.10343259648E+04  0.10343259649E+04  0.50400001928E-02 0.  1.
    10030    2    1    2    0    0  0.00000000000E+00  0.00000000000E+00  0.62951017159E+03  0.26981621013E+04  0.26236988525E+04 0.  0.
        4    1    3    3  502    0  0.16770827278E+03 -0.11203155582E+04 -0.36562158668E+03  0.11903418720E+04  0.12699999809E+01 0.  1.
       -4    1    3    3    0  502 -0.16770827278E+03  0.11203155582E+04  0.99513175827E+03  0.15078202293E+04  0.12699999809E+01 0. -1.
</event>
<event>
 5   0  0.3568647E-05  0.2710636E+04  0.7818609E-02  0.8331562E-01
        2   -1    0    0  501    0  0.00000000000E+00  0.00000000000E+00  0.25243960867E+04  0.25243960867E+04  0.25500000920E-02 0. -1.
       -2   -1    0    0    0  501  0.00000000000E+00  0.00000000000E+00 -0.72765409366E+03  0.72765409367E+03  0.25500000920E-02 0.  1.
    10030    2    1    2    0    0  0.00000000000E+00  0.00000000000E+00  0.17967419931E+04  0.32520501804E+04  0.27106361958E+04 0.  0.
        3    1    3    3  502    0  0.98075507181E+03  0.74138334897E+03  0.15827021632E+04  0.20041147494E+04  0.10100000352E+00 0. -1.
       -3    1    3    3    0  502 -0.98075507181E+03 -0.74138334897E+03  0.21403982982E+03  0.12479354310E+04  0.10100000352E+00 0.  1.
</event>
<event>
 5   0  0.1474012E-05  0.2283907E+04  0.7818609E-02  0.8484293E-01
        1   -1    0    0  501    0  0.00000000000E+00  0.00000000000E+00  0.13450228723E+04  0.13450228723E+04  0.50400001928E-02 0.  1.
       -1   -1    0    0    0  501  0.00000000000E+00  0.00000000000E+00 -0.96954354409E+03  0.96954354410E+03  0.50400001928E-02 0. -1.
    10030    2    1    2    0    0  0.00000000000E+00  0.00000000000E+00  0.37547932823E+03  0.23145664164E+04  0.22839073909E+04 0.  0.
        2    1    3    3  502    0 -0.79573173521E+03 -0.62335841488E+03  0.72618500488E+03  0.12446322224E+04  0.25500000920E-02 0.  1.
       -2    1    3    3    0  502  0.79573173521E+03  0.62335841488E+03 -0.35070567665E+03  0.10699341940E+04  0.25500000920E-02 0. -1.
</event>
<event>
 5   0  0.3676724E-05  0.2274376E+04  0.7818609E-02  0.8488093E-01
        2   -1    0    0  501    0  0.00000000000E+00  0.00000000000E+00  0.15490882152E+04  0.15490882152E+04  0.25500000920E-02 0.  1.
       -2   -1    0    0    0  501  0.00000000000E+00  0.00000000000E+00 -0.83481176685E+03  0.83481176685E+03  0.25500000920E-02 0. -1.
    10030    2    1    2    0    0  0.00000000000E+00  0.00000000000E+00  0.71427644833E+03  0.23838999820E+04  0.22743764595E+04 0.  0.
        4    1    3    3  502    0  0.37346052815E+03  0.91551432368E+03 -0.23165668613E+03  0.10155322132E+04  0.12699999809E+01 0. -1.
       -4    1    3    3    0  502 -0.37346052815E+03 -0.91551432368E+03  0.94593313447E+03  0.13683677688E+04  0.12699999809E+01 0.  1.
</event>
<event>
 5   0  0.1438701E-05  0.2541694E+04  0.7818609E-02  0.8388280E-01
       -1   -1    0    0    0  501  0.00000000000E+00  0.00000000000E+00  0.61633893553E+03  0.61633893555E+03  0.50400001928E-02 0.  1.
        1   -1    0    0  501    0  0.00000000000E+00  0.00000000000E+00 -0.26203970310E+04  0.26203970310E+04  0.50400001928E-02 0. -1.
    10030    2    1    2    0    0  0.00000000000E+00  0.00000000000E+00 -0.20040580955E+04  0.32367359666E+04  0.25416944874E+04 0.  0.
        4    1    3    3  502    0  0.62745232044E+02 -0.50585771129E+03 -0.24845101530E+04  0.25362612842E+04  0.12699999809E+01 0. -1.
       -4    1    3    3    0  502 -0.62745232044E+02  0.50585771129E+03  0.48045205752E+03  0.70047468241E+03  0.12699999809E+01 0.  1.
</event>
<event>
 5   0  0.1484379E-05  0.2686428E+04  0.7818609E-02  0.8339422E-01
        1   -1    0    0  501    0  0.00000000000E+00  0.00000000000E+00  0.12568705112E+04  0.12568705112E+04  0.50400001928E-02 0. -1.
       -1   -1    0    0    0  501  0.00000000000E+00  0.00000000000E+00 -0.14354892924E+04  0.14354892924E+04  0.50400001928E-02 0.  1.
    10030    2    1    2    0    0  0.00000000000E+00  0.00000000000E+00 -0.17861878119E+03  0.26923598036E+04  0.26864282315E+04 0.  0.
        1    1    3    3  502    0 -0.17455545665E+03  0.12547505333E+04 -0.53678784814E+03  0.13758668911E+04  0.50400001928E-02 0.  1.
       -1    1    3    3    0  502  0.17455545665E+03 -0.12547505333E+04  0.35816906694E+03  0.13164929125E+04  0.50400001928E-02 0. -1.
</event>
<event>
 5   0  0.1495517E-05  0.2777078E+04  0.7818609E-02  0.8310420E-01
       -1   -1    0    0    0  501  0.00000000000E+00  0.00000000000E+00  0.10283987949E+04  0.10283987949E+04  0.50400001928E-02 0. -1.
        1   -1    0    0  501    0  0.00000000000E+00  0.00000000000E+00 -0.18747990448E+04  0.18747990448E+04  0.50400001928E-02 0.  1.
    10030    2    1    2    0    0  0.00000000000E+00  0.00000000000E+00 -0.84640024995E+03  0.29031978397E+04  0.27770783773E+04 0.  0.
        5    1    3    3  502    0  0.12319212130E+04  0.58602085748E+03 -0.15266458544E+03  0.13727268068E+04  0.46999998093E+01 0. -1.
       -5    1    3    3    0  502 -0.12319212130E+04 -0.58602085748E+03 -0.69373566451E+03  0.15304710329E+04  0.46999998093E+01 0.  1.
</event>
<event>
 5   0  0.1449521E-05  0.2464633E+04  0.7818609E-02  0.8415695E-01
        1   -1    0    0  501    0  0.00000000000E+00  0.00000000000E+00  0.10053432304E+04  0.10053432304E+04  0.50400001928E-02 0. -1.
       -1   -1    0    0    0  501  0.00000000000E+00  0.00000000000E+00 -0.15105328154E+04  0.15105328154E+04  0.50400001928E-02 0.  1.
    10030    2    1    2    0    0  0.00000000000E+00  0.00000000000E+00 -0.50518958504E+03  0.25158760458E+04  0.24646329871E+04 0.  0.
        3    1    3    3  502    0  0.48882987628E+03 -0.25449731108E+03  0.87253790569E+03  0.10320106280E+04  0.10100000352E+00 0. -1.
       -3    1    3    3    0  502 -0.48882987628E+03  0.25449731108E+03 -0.13777274907E+04  0.14838654178E+04  0.10100000352E+00 0.  1.
</event>
<event>
 5   0  0.3514294E-05  0.2779895E+04  0.7818609E-02  0.8309537E-01
       -2   -1    0    0    0  501  0.00000000000E+00  0.00000000000E+00  0.12082539127E+04  0.12082539127E+04  0.25500000920E-02 0. -1.
        2   -1    0    0  501    0  0.00000000000E+00  0.00000000000E+00 -0.15989635644E+04  0.15989635644E+04  0.25500000920E-02 0.  1.
    10030    2    1    2    0    0  0.00000000000E+00  0.00000000000E+00 -0.39070965172E+03  0.28072174771E+04  0.27798949497E+04 0.  0.
        2    1    3    3  502    0  0.70724387187E+03 -0.44989510012E+03 -0.13150150235E+04  0.15594434928E+04  0.25500000920E-02 0.  1.
       -2    1    3    3    0  502 -0.70724387187E+03  0.44989510012E+03  0.92430537176E+03  0.12477739842E+04  0.25500000920E-02 0. -1.
</event>
<event>
 5   0  0.1438701E-05  0.2652767E+04  0.7818609E-02  0.8350495E-01
        1   -1    0    0  501    0  0.00000000000E+00  0.00000000000E+00  0.11136467146E+04  0.11136467146E+04  0.50400001928E-02 0.  1.
       -1   -1    0    0    0  501  0.00000000000E+00  0.00000000000E+00 -0.15797585724E+04  0.15797585724E+04  0.50400001928E-02 0. -1.
    10030    2    1    2    0    0  0.00000000000E+00  0.00000000000E+00 -0.46611185786E+03  0.26934052870E+04  0.26527668152E+04 0.  0.
        4    1    3    3  502    0 -0.33732944165E+03  0.12685951626E+04 -0.42614417066E+03  0.13801178594E+04  0.12699999809E+01 0. -1.
       -4    1    3    3    0  502  0.33732944165E+03 -0.12685951626E+04 -0.39967687205E+02  0.13132874276E+04  0.12699999809E+01 0.  1.
</event>
<event>
 5   0  0.3568647E-05  0.2600018E+04  0.7818609E-02  0.8368195E-01
        2   -1    0    0  501    0  0.00000000000E+00  0.00000000000E+00  0.18225204812E+04  0.18225204812E+04  0.25500000920E-02 0. -1.
       -2   -1    0    0    0  501  0.00000000000E+00  0.00000000000E+00 -0.92730000951E+03  0.92730000952E+03  0.25500000920E-02 0.  1.
    10030    2    1    2    0    0  0.00000000000E+00  0.00000000000E+00  0.89522047164E+03  0.27498204907E+04  0.26000178919E+04 0.  0.
        3    1    3    3  502    0  0.33033696801E+03 -0.11449904030E+04  0.99705951794E+03  0.15537867382E+04  0.10100000352E+00 0. -1.
       -3    1    3    3    0  502 -0.33033696801E+03  0.11449904030E+04 -0.10183904630E+03  0.11960337524E+04  0.10100000352E+00 0.  1.
</event>
<event>
 5   0  0.3676724E-05  0.2655034E+04  0.7818609E-02  0.8349744E-01
        2   -1    0    0  501    0  0.00000000000E+00  0.00000000000E+00  0.14607441434E+04  0.14607441434E+04  0.25500000920E-02 0.  1.
       -2   -1    0    0    0  501  0.00000000000E+00  0.00000000000E+00 -0.12064406031E+04  0.12064406031E+04  0.25500000920E-02 0. -1.
    10030    2    1    2    0    0  0.00000000000E+00  0.00000000000E+00  0.25430354026E+03  0.26671847465E+04  0.26550337439E+04 0.  0.
        4    1    3    3  502    0  0.63334983755E+03 -0.95016246229E+03 -0.55296862486E+03  0.12687460875E+04  0.12699999809E+01 0. -1.
       -4    1    3    3    0  502 -0.63334983755E+03  0.95016246229E+03  0.80727216513E+03  0.13984386590E+04  0.12699999809E+01 0.  1.
</event>
<event>
 5   0  0.1484379E-05  0.2842943E+04  0.7818609E-02  0.8290059E-01
       -1   -1    0    0    0  501  0.00000000000E+00  0.00000000000E+00  0.77789941568E+03  0.77789941570E+03  0.50400001928E-02 0. -1.
        1   -1    0    0  501    0  0.00000000000E+00  0.00000000000E+00 -0.25974839217E+04  0.25974839217E+04  0.50400001928E-02 0.  1.
    10030    2    1    2    0    0  0.00000000000E+00  0.00000000000E+00 -0.18195845060E+04  0.33753833374E+04  0.28429429998E+04 0.  0.
        1    1    3    3  502    0  0.95788998403E+03  0.64299851362E+03  0.76141118100E+02  0.11561997145E+04  0.50400001928E-02 0. -1.
       -1    1    3    3    0  502 -0.95788998403E+03 -0.64299851362E+03 -0.18957256241E+04  0.22191836229E+04  0.50400001928E-02 0.  1.
</event>
<event>
 5   0  0.3497949E-05  0.1326969E+04  0.7818609E-02  0.9008447E-01
        2   -1    0    0  501    0  0.00000000000E+00  0.00000000000E+00  0.11377786558E+04  0.11377786558E+04  0.25500000920E-02 0. -1.
       -2   -1    0    0    0  501  0.00000000000E+00  0.00000000000E+00 -0.38690472946E+03  0.38690472947E+03  0.25500000920E-02 0.  1.
    10030    2    1    2    0    0  0.00000000000E+00  0.00000000000E+00  0.75087392634E+03  0.15246833853E+04  0.13269693938E+04 0.  0.
        5    1    3    3  502    0  0.50223662921E+03  0.42308508533E+03  0.48412033608E+03  0.81586592707E+03  0.46999998093E+01 0. -1.
       -5    1    3    3    0  502 -0.50223662921E+03 -0.42308508533E+03  0.26675359026E+03  0.70881745821E+03  0.46999998093E+01 0.  1.
</event>
<event>
 5   0  0.3652331E-05  0.2568022E+04  0.7818609E-02  0.8379145E-01
       -2   -1    0    0    0  501  0.00000000000E+00  0.00000000000E+00  0.85067323733E+03  0.85067323734E+03  0.25500000920E-02 0. -1.
        2   -1    0    0  501    0  0.00000000000E+00  0.00000000000E+00 -0.19380928043E+04  0.19380928043E+04  0.25500000920E-02 0.  1.
    10030    2    1    2    0    0  0.00000000000E+00  0.00000000000E+00 -0.10874195670E+04  0.27887660416E+04  0.25680215576E+04 0.  0.
        1    1    3    3  502    0 -0.12626067336E+04  0.21810896198E+03 -0.45326565240E+03  0.13591162697E+04  0.50400001928E-02 0. -1.
       -1    1    3    3    0  502  0.12626067336E+04 -0.21810896198E+03 -0.63415391457E+03  0.14296497719E+04  0.50400001928E-02 0.  1.
</event>
<event>
 5   0  0.3568647E-05  0.2753752E+04  0.7818609E-02  0.8317772E-01
       -2   -1    0    0    0  501  0.00000000000E+00  0.00000000000E+00  0.95525275147E+03  0.95525275147E+03  0.25500000920E-02 0.  1.
        2   -1    0    0  501    0  0.00000000000E+00  0.00000000000E+00 -0.19845931375E+04  0.19845931375E+04  0.25500000920E-02 0. -1.
    10030    2    1    2    0    0  0.00000000000E+00  0.00000000000E+00 -0.10293403860E+04  0.29398458889E+04  0.27537523891E+04 0.  0.
        3    1    3    3  502    0  0.12235375249E+04  0.62274172818E+03 -0.62631615722E+03  0.15090140071E+04  0.10100000352E+00 0.  1.
       -3    1    3    3    0  502 -0.12235375249E+04 -0.62274172818E+03 -0.40302422877E+03  0.14308318818E+04  0.10100000352E+00 0. -1.
</event>
<event>
 5   0  0.1484379E-05  0.2508002E+04  0.7818609E-02  0.8400140E-01
        1   -1    0    0  501    0  0.00000000000E+00  0.00000000000E+00  0.16009219079E+04  0.16009219079E+04  0.50400001928E-02 0. -1.
       -1   -1    0    0    0  501  0.00000000000E+00  0.00000000000E+00 -0.98225789719E+03  0.98225789720E+03  0.50400001928E-02 0.  1.
    10030    2    1    2    0    0  0.00000000000E+00  0.00000000000E+00  0.61866401069E+03  0.25831798051E+04  0.25080017439E+04 0.  0.
        1    1    3    3  502    0 -0.53316913593E+03 -0.10344842424E+04  0.79033290102E+03  0.14067882107E+04  0.50400001928E-02 0. -1.
       -1    1    3    3    0  502  0.53316913593E+03  0.10344842424E+04 -0.17166889034E+03  0.11763915944E+04  0.50400001928E-02 0.  1.
</event>
<event>
 5   0  0.1474012E-05  0.2988820E+04  0.7818609E-02  0.8246931E-01
       -1   -1    0    0    0  501  0.00000000000E+00  0.00000000000E+00  0.13332205323E+04  0.13332205323E+04  0.50400001928E-02 0. -1.
        1   -1    0    0  501    0  0.00000000000E+00  0.00000000000E+00 -0.16750873231E+04  0.16750873231E+04  0.50400001928E-02 0.  1.
    10030    2    1    2    0    0  0.00000000000E+00  0.00000000000E+00 -0.34186679081E+03  0.30083078554E+04  0.29888197086E+04 0.  0.
        2    1    3    3  502    0  0.85987758046E+03  0.16715528884E+03  0.10477173127E+04  0.13656653731E+04  0.25500000920E-02 0. -1.
       -2    1    3    3    0  502 -0.85987758046E+03 -0.16715528884E+03 -0.13895841035E+04  0.16426424823E+04  0.25500000920E-02 0.  1.
</event>
<event>
 5   0  0.3652331E-05  0.2679425E+04  0.7818609E-02  0.8341712E-01
       -2   -1    0    0    0  501  0.00000000000E+00  0.00000000000E+00  0.93224904297E+03  0.93224904298E+03  0.25500000920E-02 0. -1.
        2   -1    0    0  501    0  0.00000000000E+00  0.00000000000E+00 -0.19252679082E+04  0.19252679082E+04  0.25500000920E-02 0.  1.
    10030    2    1    2    0    0  0.00000000000E+00  0.00000000000E+00 -0.99301886527E+03  0.28575169512E+04  0.26794246882E+04 0.  0.
        1    1    3    3  502    0 -0.79114890515E+03 -0.90777445435E+03 -0.11227879080E+04  0.16463971989E+04  0.50400001928E-02 0.  1.
       -1    1    3    3    0  502  0.79114890515E+03  0.90777445435E+03  0.12976904271E+03  0.12111197524E+04  0.50400001928E-02 0. -1.
</event>
<event>
 5   0  0.3568647E-05  0.2754907E+04  0.7818609E-02  0.8317406E-01
        2   -1    0    0  501    0  0.00000000000E+00  0.00000000000E+00  0.22760146356E+04  0.22760146356E+04  0.25500000920E-02 0. -1.
       -2   -1    0    0    0  501  0.00000000000E+00  0.00000000000E+00 -0.83364057522E+03  0.83364057523E+03  0.25500000920E-02 0.  1.
    10030    2    1    2    0    0  0.00000000000E+00  0.00000000000E+00  0.14423740604E+04  0.31096552108E+04  0.27549070039E+04 0.  0.
        3    1    3    3  502    0  0.11466464496E+04 -0.42290842978E+03  0.39709633603E+01  0.12221560453E+04  0.10100000352E+00 0.  1.
       -3    1    3    3    0  502 -0.11466464496E+04  0.42290842978E+03  0.14384030970E+04  0.18874991656E+04  0.10100000352E+00 0. -1.
</event>
<event>
 5   0  0.1495517E-05  0.2687169E+04  0.7818609E-02  0.8339180E-01
       -1   -1    0    0    0  501  0.00000000000E+00  0.00000000000E+00  0.94424723060E+03  0.94424723062E+03  0.50400001928E-02 0.  1.
        1   -1    0    0  501    0  0.00000000000E+00  0.00000000000E+00 -0.19118079450E+04  0.19118079450E+04  0.50400001928E-02 0. -1.
    10030    2    1    2    0    0  0.00000000000E+00  0.00000000000E+00 -0.96756071441E+03  0.28560551756E+04  0.26871690364E+04 0.  0.
        5    1    3    3  502    0  0.95805892014E+02 -0.11282422488E+04 -0.12524840276E+04  0.16884453412E+04  0.46999998093E+01 0.  1.
       -5    1    3    3    0  502 -0.95805892014E+02  0.11282422488E+04  0.28492331319E+03  0.11676098344E+04  0.46999998093E+01 0. -1.
</event>
<event>
 5   0  0.3568647E-05  0.2793572E+04  0.7818609E-02  0.8305267E-01
        2   -1    0    0  501    0  0.00000000000E+00  0.00000000000E+00  0.14088486948E+04  0.14088486948E+04  0.25500000920E-02 0.  1.
       -2   -1    0    0    0  501  0.00000000000E+00  0.00000000000E+00 -0.13848262816E+04  0.13848262816E+04  0.25500000920E-02 0. -1.
    10030    2    1    2    0    0  0.00000000000E+00  0.00000000000E+00  0.24022413250E+02  0.27936749764E+04  0.27935716918E+04 0.  0.
        3    1    3    3  502    0 -0.10367716495E+03 -0.12351078633E+04  0.65606164803E+03  0.14023755862E+04  0.10100000352E+00 0.  1.
       -3    1    3    3    0  502  0.10367716495E+03  0.12351078633E+04 -0.63203923478E+03  0.13912993902E+04  0.10100000352E+00 0. -1.
</event>
<event>
 5   0  0.1438701E-05  0.2708669E+04  0.7818609E-02  0.8332198E-01
        1   -1    0    0  501    0  0.00000000000E+00  0.00000000000E+00  0.17331210985E+04  0.17331210985E+04  0.50400001928E-02 0. -1.
       -1   -1    0    0    0  501  0.00000000000E+00  0.00000000000E+00 -0.10583345311E+04  0.10583345311E+04  0.50400001928E-02 0.  1.
    10030    2    1    2    0    0  0.00000000000E+00  0.00000000000E+00  0.67478656744E+03  0.27914556296E+04  0.27086689758E+04 0.  0.
        4    1    3    3  502    0  0.29794891922E+03  0.11169812010E+04 -0.38972007563E+03  0.12199606191E+04  0.12699999809E+01 0.  1.
       -4    1    3    3    0  502 -0.29794891922E+03 -0.11169812010E+04  0.10645066431E+04  0.15714950105E+04  0.12699999809E+01 0. -1.
</event>
<event>
 5   0  0.1438701E-05  0.2706592E+04  0.7818609E-02  0.8332869E-01
        1   -1    0    0  501    0  0.00000000000E+00  0.00000000000E+00  0.22120889904E+04  0.22120889904E+04  0.50400001928E-02 0. -1.
       -1   -1    0    0    0  501  0.00000000000E+00  0.00000000000E+00 -0.82791003873E+03  0.82791003874E+03  0.50400001928E-02 0.  1.
    10030    2    1    2    0    0  0.00000000000E+00  0.00000000000E+00  0.13841789517E+04  0.30399990291E+04  0.27065924567E+04 0.  0.
        4    1    3    3  502    0 -0.10566381633E+04  0.19104693052E+03 -0.23303846436E+03  0.10987682542E+04  0.12699999809E+01 0.  1.
       -4    1    3    3    0  502  0.10566381633E+04 -0.19104693052E+03  0.16172174160E+04  0.19412307749E+04  0.12699999809E+01 0. -1.
</event>
<event>
 5   0  0.3568647E-05  0.2604582E+04  0.7818609E-02  0.8366646E-01
       -2   -1    0    0    0  501  0.00000000000E+00  0.00000000000E+00  0.15851151469E+04  0.15851151469E+04  0.25500000920E-02 0. -1.
        2   -1    0    0  501    0  0.00000000000E+00  0.00000000000E+00 -0.10699298702E+04  0.10699298702E+04  0.25500000920E-02 0.  1.
    10030    2    1    2    0    0  0.00000000000E+00  0.00000000000E+00  0.51518527679E+03  0.26550450171E+04  0.26045821495E+04 0.  0.
        3    1    3    3  502    0 -0.90464180076E+03  0.42447649844E+03 -0.59369502812E+03  0.11623385402E+04  0.10100000352E+00 0.  1.
       -3    1    3    3    0  502  0.90464180076E+03 -0.42447649844E+03  0.11088803049E+04  0.14927064769E+04  0.10100000352E+00 0. -1.
</event>
<event>
 5   0  0.1449521E-05  0.2829415E+04  0.7818609E-02  0.8294194E-01
        1   -1    0    0  501    0  0.00000000000E+00  0.00000000000E+00  0.18614179571E+04  0.18614179571E+04  0.50400001928E-02 0. -1.
       -1   -1    0    0    0  501  0.00000000000E+00  0.00000000000E+00 -0.10752001567E+04  0.10752001568E+04  0.50400001928E-02 0.  1.
    10030    2    1    2    0    0  0.00000000000E+00  0.00000000000E+00  0.78621780035E+03  0.29366181139E+04  0.28294146951E+04 0.  0.
        3    1    3    3  502    0  0.44266472956E+03  0.81087468150E+03 -0.71889936386E+03  0.11705922080E+04  0.10100000352E+00 0.  1.
       -3    1    3    3    0  502 -0.44266472956E+03 -0.81087468150E+03  0.15051171642E+04  0.17660259058E+04  0.10100000352E+00 0. -1.
</event>
<event>
 5   0  0.1484379E-05  0.2634282E+04  0.7818609E-02  0.8356649E-01
       -1   -1    0    0    0  501  0.00000000000E+00  0.00000000000E+00  0.87119716585E+03  0.87119716587E+03  0.50400001928E-02 0.  1.
        1   -1    0    0  501    0  0.00000000000E+00  0.00000000000E+00 -0.19913527415E+04  0.19913527415E+04  0.50400001928E-02 0. -1.
    10030    2    1    2    0    0  0.00000000000E+00  0.00000000000E+00 -0.11201555756E+04  0.28625499073E+04  0.26342823422E+04 0.  0.
        1    1    3    3  502    0  0.10844482207E+04  0.74375764535E+03 -0.47834383525E+03  0.13992913217E+04  0.50400001928E-02 0.  1.
       -1    1    3    3    0  502 -0.10844482207E+04 -0.74375764535E+03 -0.64181174037E+03  0.14632585856E+04  0.50400001928E-02 0. -1.
</event>
<event>
 5   0  0.1438701E-05  0.2692332E+04  0.7818609E-02  0.8337497E-01
        1   -1    0    0  501    0  0.00000000000E+00  0.00000000000E+00  0.22812902320E+04  0.22812902320E+04  0.50400001928E-02 0. -1.
       -1   -1    0    0    0  501  0.00000000000E+00  0.00000000000E+00 -0.79435863905E+03  0.79435863906E+03  0.50400001928E-02 0.  1.
    10030    2    1    2    0    0  0.00000000000E+00  0.00000000000E+00  0.14869315930E+04  0.30756488711E+04  0.26923317804E+04 0.  0.
        4    1    3    3  502    0  0.12850113490E+04 -0.35622859584E+03  0.53279768875E+03  0.14359763124E+04  0.12699999809E+01 0.  1.
       -4    1    3    3    0  502 -0.12850113490E+04  0.35622859584E+03  0.95413390421E+03  0.16396725587E+04  0.12699999809E+01 0. -1.
</event>
<event>
 5   0  0.3514294E-05  0.2763341E+04  0.7818609E-02  0.8314741E-01
       -2   -1    0    0    0  501  0.00000000000E+00  0.00000000000E+00  0.12120294285E+04  0.12120294285E+04  0.25500000920E-02 0. -1.
        2   -1    0    0  501    0  0.00000000000E+00  0.00000000000E+00 -0.15750557325E+04  0.15750557325E+04  0.25500000920E-02 0.  1.
    10030    2    1    2    0    0  0.00000000000E+00  0.00000000000E+00 -0.36302630397E+03  0.27870851611E+04  0.27633413828E+04 0.  0.
        2    1    3    3  502    0  0.16885805492E+03  0.13483046217E+04  0.70787211021E+02  0.13606796923E+04  0.25500000920E-02 0.  1.
       -2    1    3    3    0  502 -0.16885805492E+03 -0.13483046217E+04 -0.43381351499E+03  0.14264054688E+04  0.25500000920E-02 0. -1.
</event>
<event>
 5   0  0.3514294E-05  0.2686084E+04  0.7818609E-02  0.8339534E-01
       -2   -1    0    0    0  501  0.00000000000E+00  0.00000000000E+00  0.82463153455E+03  0.82463153455E+03  0.25500000920E-02 0.  1.
        2   -1    0    0  501    0  0.00000000000E+00  0.00000000000E+00 -0.21873549689E+04  0.21873549689E+04  0.25500000920E-02 0. -1.
    10030    2    1    2    0    0  0.00000000000E+00  0.00000000000E+00 -0.13627234344E+04  0.30119865035E+04  0.26860840528E+04 0.  0.
        2    1    3    3  502    0  0.78449323407E+03 -0.79155361215E+03  0.15909369316E+03  0.11257431139E+04  0.25500000920E-02 0.  1.
       -2    1    3    3    0  502 -0.78449323407E+03  0.79155361215E+03 -0.15218171275E+04  0.18862433896E+04  0.25500000920E-02 0. -1.
</event>
<event>
 5   0  0.3514294E-05  0.2732310E+04  0.7818609E-02  0.8324597E-01
        2   -1    0    0  501    0  0.00000000000E+00  0.00000000000E+00  0.17187397513E+04  0.17187397513E+04  0.25500000920E-02 0. -1.
       -2   -1    0    0    0  501  0.00000000000E+00  0.00000000000E+00 -0.10858999525E+04  0.10858999525E+04  0.25500000920E-02 0.  1.
    10030    2    1    2    0    0  0.00000000000E+00  0.00000000000E+00  0.63283979884E+03  0.28046397038E+04  0.27323099490E+04 0.  0.
        2    1    3    3  502    0 -0.56355310399E+03 -0.54480880849E+02  0.15926425712E+04  0.16902871433E+04  0.25500000920E-02 0. -1.
       -2    1    3    3    0  502  0.56355310399E+03  0.54480880849E+02 -0.95980277232E+03  0.11143525605E+04  0.25500000920E-02 0.  1.
</event>
<event>
 5   0  0.1474012E-05  0.2667778E+04  0.7818609E-02  0.8345536E-01
        1   -1    0    0  501    0  0.00000000000E+00  0.00000000000E+00  0.13497395531E+04  0.13497395532E+04  0.50400001928E-02 0. -1.
       -1   -1    0    0    0  501  0.00000000000E+00  0.00000000000E+00 -0.13182247885E+04  0.13182247885E+04  0.50400001928E-02 0.  1.
    10030    2    1    2    0    0  0.00000000000E+00  0.00000000000E+00  0.31514764652E+02  0.26679643417E+04  0.26677782044E+04 0.  0.
        2    1    3    3  502    0  0.11446373686E+04  0.40897667630E+03 -0.53364741039E+03  0.13274924429E+04  0.25500000920E-02 0.  1.
       -2    1    3    3    0  502 -0.11446373686E+04 -0.40897667630E+03  0.56516217504E+03  0.13404718988E+04  0.25500000920E-02 0. -1.
</event>
<event>
 5   0  0.1438701E-05  0.2709935E+04  0.7818609E-02  0.8331789E-01
       -1   -1    0    0    0  501  0.00000000000E+00  0.00000000000E+00  0.20309932677E+04  0.20309932677E+04  0.50400001928E-02 0. -1.
        1   -1    0    0  501    0  0.00000000000E+00  0.00000000000E+00 -0.90396032256E+03  0.90396032257E+03  0.50400001928E-02 0.  1.
    10030    2    1    2    0    0  0.00000000000E+00  0.00000000000E+00  0.11270329451E+04  0.29349535903E+04  0.27099352977E+04 0.  0.
        4    1    3    3  502    0  0.33928139037E+03 -0.11149977710E+04  0.13119896039E+04  0.17548932232E+04  0.12699999809E+01 0. -1.
       -4    1    3    3    0  502 -0.33928139037E+03  0.11149977710E+04 -0.18495665879E+03  0.11800603670E+04  0.12699999809E+01 0.  1.
</event>
<event>
 5   0  0.1449521E-05  0.2676770E+04  0.7818609E-02  0.8342582E-01
        1   -1    0    0  501    0  0.00000000000E+00  0.00000000000E+00  0.13333994393E+04  0.13333994393E+04  0.50400001928E-02 0.  1.
       -1   -1    0    0    0  501  0.00000000000E+00  0.00000000000E+00 -0.13433891425E+04  0.13433891426E+04  0.50400001928E-02 0. -1.
    10030    2    1    2    0    0  0.00000000000E+00  0.00000000000E+00 -0.99897032615E+01  0.26767885818E+04  0.26767699411E+04 0.  0.
        3    1    3    3  502    0  0.68024184333E+03  0.75226733505E+03 -0.87829310099E+03  0.13416534166E+04  0.10100000352E+00 0. -1.
       -3    1    3    3    0  502 -0.68024184333E+03 -0.75226733505E+03  0.86830339773E+03  0.13351351653E+04  0.10100000352E+00 0.  1.
</event>
<event>
 5   0  0.3497949E-05  0.2644076E+04  0.7818609E-02  0.8353382E-01
        2   -1    0    0  501    0  0.00000000000E+00  0.00000000000E+00  0.11565817836E+04  0.11565817836E+04  0.25500000920E-02 0. -1.
       -2   -1    0    0    0  501  0.00000000000E+00  0.00000000000E+00 -0.15111639594E+04  0.15111639594E+04  0.25500000920E-02 0.  1.
    10030    2    1    2    0    0  0.00000000000E+00  0.00000000000E+00 -0.35458217580E+03  0.26677457429E+04  0.26440761769E+04 0.  0.
        5    1    3    3  502    0 -0.37392987823E+03 -0.11647440232E+03  0.10966971183E+04  0.11645413258E+04  0.46999998093E+01 0. -1.
       -5    1    3    3    0  502  0.37392987823E+03  0.11647440232E+03 -0.14512792941E+04  0.15032044171E+04  0.46999998093E+01 0.  1.
</event>
<event>
 5   0  0.1438701E-05  0.2866353E+04  0.7818609E-02  0.8282959E-01
       -1   -1    0    0    0  501  0.00000000000E+00  0.00000000000E+00  0.20350077725E+04  0.20350077725E+04  0.50400001928E-02 0. -1.
        1   -1    0    0  501    0  0.00000000000E+00  0.00000000000E+00 -0.10093303400E+04  0.10093303401E+04  0.50400001928E-02 0.  1.
    10030    2    1    2    0    0  0.00000000000E+00  0.00000000000E+00  0.10256774324E+04  0.30443381125E+04  0.28663531443E+04 0.  0.
        4    1    3    3  502    0 -0.10972842914E+04 -0.24868201559E+03  0.14557238495E+04  0.18398394223E+04  0.12699999809E+01 0. -1.
       -4    1    3    3    0  502  0.10972842914E+04  0.24868201559E+03 -0.43004641711E+03  0.12044986902E+04  0.12699999809E+01 0.  1.
</event>
<event>
 5   0  0.3497949E-05  0.2679030E+04  0.7818609E-02  0.8341841E-01
        2   -1    0    0  501    0  0.00000000000E+00  0.00000000000E+00  0.17860816431E+04  0.17860816431E+04  0.25500000920E-02 0.  1.
       -2   -1    0    0    0  501  0.00000000000E+00  0.00000000000E+00 -0.10046015023E+04  0.10046015023E+04  0.25500000920E-02 0. -1.
    10030    2    1    2    0    0  0.00000000000E+00  0.00000000000E+00  0.78148014088E+03  0.27906831454E+04  0.26790299004E+04 0.  0.
        5    1    3    3  502    0  0.33061251099E+03 -0.98507148120E+03 -0.48983590298E+03  0.11487522611E+04  0.46999998093E+01 0. -1.
       -5    1    3    3    0  502 -0.33061251099E+03  0.98507148120E+03  0.12713160439E+04  0.16419308843E+04  0.46999998093E+01 0.  1.
</event>
<event>
 5   0  0.1438701E-05  0.2824267E+04  0.7818609E-02  0.8295774E-01
       -1   -1    0    0    0  501  0.00000000000E+00  0.00000000000E+00  0.19814446089E+04  0.19814446089E+04  0.50400001928E-02 0.  1.
        1   -1    0    0  501    0  0.00000000000E+00  0.00000000000E+00 -0.10063972351E+04  0.10063972351E+04  0.50400001928E-02 0. -1.
    10030    2    1    2    0    0  0.00000000000E+00  0.00000000000E+00  0.97504737386E+03  0.29878418440E+04  0.28242665426E+04 0.  0.
        4    1    3    3  502    0  0.12293430517E+04 -0.24446480993E+03  0.11756350791E+04  0.17184780575E+04  0.12699999809E+01 0.  1.
       -4    1    3    3    0  502 -0.12293430517E+04  0.24446480993E+03 -0.20058770525E+03  0.12693637865E+04  0.12699999809E+01 0. -1.
</event>
<event>
 5   0  0.1495517E-05  0.2721530E+04  0.7818609E-02  0.8328053E-01
       -1   -1    0    0    0  501  0.00000000000E+00  0.00000000000E+00  0.19662235453E+04  0.19662235453E+04  0.50400001928E-02 0.  1.
        1   -1    0    0  501    0  0.00000000000E+00  0.00000000000E+00 -0.94174497170E+03  0.94174497172E+03  0.50400001928E-02 0. -1.
    10030    2    1    2    0    0  0.00000000000E+00  0.00000000000E+00  0.10244785736E+04  0.29079685170E+04  0.27215298176E+04 0.  0.
        5    1    3    3  502    0 -0.22002153163E+03  0.90575847600E+03 -0.54706439027E+03  0.10807911123E+04  0.46999998093E+01 0. -1.
       -5    1    3    3    0  502  0.22002153163E+03 -0.90575847600E+03  0.15715429639E+04  0.18271774048E+04  0.46999998093E+01 0.  1.
</event>
<event>
 5   0  0.1449521E-05  0.2957755E+04  0.7818609E-02  0.8255898E-01
       -1   -1    0    0    0  501  0.00000000000E+00  0.00000000000E+00  0.21740858195E+04  0.21740858195E+04  0.50400001928E-02 0. -1.
        1   -1    0    0  501    0  0.00000000000E+00  0.00000000000E+00 -0.10059764930E+04  0.10059764930E+04  0.50400001928E-02 0.  1.
    10030    2    1    2    0    0  0.00000000000E+00  0.00000000000E+00  0.11681093265E+04  0.31800623125E+04  0.29577553842E+04 0.  0.
        3    1    3    3  502    0  0.11570494827E+04 -0.23354162078E+03  0.15419582902E+04  0.19418909787E+04  0.10100000352E+00 0. -1.
       -3    1    3    3    0  502 -0.11570494827E+04  0.23354162078E+03 -0.37384896372E+03  0.12381713338E+04  0.10100000352E+00 0.  1.
</event>
<event>
 5   0  0.1484379E-05  0.2518583E+04  0.7818609E-02  0.8396395E-01
       -1   -1    0    0    0  501  0.00000000000E+00  0.00000000000E+00  0.13543653620E+04  0.13543653620E+04  0.50400001928E-02 0.  1.
        1   -1    0    0  501    0  0.00000000000E+00  0.00000000000E+00 -0.11708916291E+04  0.11708916291E+04  0.50400001928E-02 0. -1.
    10030    2    1    2    0    0  0.00000000000E+00  0.00000000000E+00  0.18347373291E+03  0.25252569911E+04  0.25185829866E+04 0.  0.
        1    1    3    3  502    0 -0.11545117165E+04 -0.35408839065E+03 -0.26633575479E+03  0.12366125610E+04  0.50400001928E-02 0. -1.
       -1    1    3    3    0  502  0.11545117165E+04  0.35408839065E+03  0.44980948770E+03  0.12886444300E+04  0.50400001928E-02 0.  1.
</event>
<event>
 5   0  0.3676724E-05  0.2687790E+04  0.7818609E-02  0.8338978E-01
       -2   -1    0    0    0  501  0.00000000000E+00  0.00000000000E+00  0.11162908005E+04  0.11162908005E+04  0.25500000920E-02 0.  1.
        2   -1    0    0  501    0  0.00000000000E+00  0.00000000000E+00 -0.16179060159E+04  0.16179060159E+04  0.25500000920E-02 0. -1.
    10030    2    1    2    0    0  0.00000000000E+00  0.00000000000E+00 -0.50161521538E+03  0.27341968164E+04  0.26877898739E+04 0.  0.
        4    1    3    3  502    0  0.64870650090E+03  0.11394584553E+04 -0.55062726558E+03  0.14221032642E+04  0.12699999809E+01 0.  1.
       -4    1    3    3    0  502 -0.64870650090E+03 -0.11394584553E+04  0.49012050200E+02  0.13120935521E+04  0.12699999809E+01 0. -1.
</event>
<event>
 5   0  0.3514294E-05  0.2726275E+04  0.7818609E-02  0.8326530E-01
        2   -1    0    0  501    0  0.00000000000E+00  0.00000000000E+00  0.20815619840E+04  0.20815619840E+04  0.25500000920E-02 0.  1.
       -2   -1    0    0    0  501  0.00000000000E+00  0.00000000000E+00 -0.89266829856E+03  0.89266829856E+03  0.25500000920E-02 0. -1.
    10030    2    1    2    0    0  0.00000000000E+00  0.00000000000E+00  0.11888936854E+04  0.29742302825E+04  0.27262754040E+04 0.  0.
        2    1    3    3  502    0  0.58417211636E+03  0.92041481482E+03 -0.29835024523E+03  0.11302359761E+04  0.25500000920E-02 0. -1.
       -2    1    3    3    0  502 -0.58417211636E+03 -0.92041481482E+03  0.14872439307E+04  0.18439943064E+04  0.25500000920E-02 0.  1.
</event>
<event>
 5   0  0.1449521E-05  0.2724438E+04  0.7818609E-02  0.8327119E-01
       -1   -1    0    0    0  501  0.00000000000E+00  0.00000000000E+00  0.13516401900E+04  0.13516401900E+04  0.50400001928E-02 0. -1.
        1   -1    0    0  501    0  0.00000000000E+00  0.00000000000E+00 -0.13728808563E+04  0.13728808563E+04  0.50400001928E-02 0.  1.
    10030    2    1    2    0    0  0.00000000000E+00  0.00000000000E+00 -0.21240666297E+02  0.27245210464E+04  0.27244382478E+04 0.  0.
        3    1    3    3  502    0 -0.84576271895E+03 -0.94435845804E+03 -0.50914672432E+03  0.13661470899E+04  0.10100000352E+00 0.  1.
       -3    1    3    3    0  502  0.84576271895E+03  0.94435845804E+03  0.48790605803E+03  0.13583739565E+04  0.10100000352E+00 0. -1.
</event>
<event>
 5   0  0.3568647E-05  0.2734478E+04  0.7818609E-02  0.8323904E-01
        2   -1    0    0  501    0  0.00000000000E+00  0.00000000000E+00  0.14855716002E+04  0.14855716002E+04  0.25500000920E-02 0. -1.
       -2   -1    0    0    0  501  0.00000000000E+00  0.00000000000E+00 -0.12583325444E+04  0.12583325444E+04  0.25500000920E-02 0.  1.
    10030    2    1    2    0    0  0.00000000000E+00  0.00000000000E+00  0.22723905582E+03  0.27439041446E+04  0.27344784450E+04 0.  0.
        3    1    3    3  502    0  0.16542683143E+03  0.11215200359E+04 -0.65332508646E+03  0.13084368178E+04  0.10100000352E+00 0.  1.
       -3    1    3    3    0  502 -0.16542683143E+03 -0.11215200359E+04  0.88056414228E+03  0.14354673268E+04  0.10100000352E+00 0. -1.
</event>
<event>
 5   0  0.2874725E-05  0.1326818E+04  0.7818609E-02  0.9008564E-01
        1   -1    0    0  501    0  0.00000000000E+00  0.00000000000E+00  0.95288889433E+03  0.95288889434E+03  0.50400001928E-02 0.  1.
       -1   -1    0    0    0  501  0.00000000000E+00  0.00000000000E+00 -0.46187108558E+03  0.46187108561E+03  0.50400001928E-02 0. -1.
    10030    2    1    2    0    0  0.00000000000E+00  0.00000000000E+00  0.49101780875E+03  0.14147599800E+04  0.13268184926E+04 0.  0.
        1    1    3    3  502    0 -0.93777724671E+02  0.30538761141E+03 -0.37445379037E+03  0.49221082475E+03  0.50400001928E-02 0. -1.
       -1    1    3    3    0  502  0.93777724671E+02 -0.30538761141E+03  0.86547159913E+03  0.92254915520E+03  0.50400001928E-02 0.  1.
</event>
<event>
 5   0  0.1438701E-05  0.2631391E+04  0.7818609E-02  0.8357616E-01
       -1   -1    0    0    0  501  0.00000000000E+00  0.00000000000E+00  0.17335507230E+04  0.17335507230E+04  0.50400001928E-02 0.  1.
        1   -1    0    0  501    0  0.00000000000E+00  0.00000000000E+00 -0.99856038490E+03  0.99856038492E+03  0.50400001928E-02 0. -1.
    10030    2    1    2    0    0  0.00000000000E+00  0.00000000000E+00  0.73499033814E+03  0.27321111080E+04  0.26313913257E+04 0.  0.
        4    1    3    3  502    0  0.46535896632E+03 -0.11404204025E+04  0.84773110312E+03  0.14952482396E+04  0.12699999809E+01 0. -1.
       -4    1    3    3    0  502 -0.46535896632E+03  0.11404204025E+04 -0.11274076498E+03  0.12368628683E+04  0.12699999809E+01 0.  1.
</event>
<event>
 5   0  0.1495517E-05  0.2693932E+04  0.7818609E-02  0.8336977E-01
        1   -1    0    0  501    0  0.00000000000E+00  0.00000000000E+00  0.14038289120E+04  0.14038289120E+04  0.50400001928E-02 0. -1.
       -1   -1    0    0    0  501  0.00000000000E+00  0.00000000000E+00 -0.12924062666E+04  0.12924062666E+04  0.50400001928E-02 0.  1.
    10030    2    1    2    0    0  0.00000000000E+00  0.00000000000E+00  0.11142264543E+03  0.26962351787E+04  0.26939319095E+04 0.  0.
        5    1    3    3  502    0 -0.36340015052E+02 -0.10404692282E+04 -0.79965285342E+03  0.13127694342E+04  0.46999998093E+01 0.  1.
       -5    1    3    3    0  502  0.36340015052E+02  0.10404692282E+04  0.91107549884E+03  0.13834657444E+04  0.46999998093E+01 0. -1.
</event>
<event>
 5   0  0.3568647E-05  0.2760034E+04  0.7818609E-02  0.8315785E-01
        2   -1    0    0  501    0  0.00000000000E+00  0.00000000000E+00  0.11637512384E+04  0.11637512384E+04  0.25500000920E-02 0. -1.
       -2   -1    0    0    0  501  0.00000000000E+00  0.00000000000E+00 -0.16364725112E+04  0.16364725112E+04  0.25500000920E-02 0.  1.
    10030    2    1    2    0    0  0.00000000000E+00  0.00000000000E+00 -0.47272127273E+03  0.28002237496E+04  0.27600339937E+04 0.  0.
        3    1    3    3  502    0  0.49961939346E+03 -0.18929411332E+03 -0.15272858136E+04  0.16180401003E+04  0.10100000352E+00 0.  1.
       -3    1    3    3    0  502 -0.49961939346E+03  0.18929411332E+03  0.10545645409E+04  0.11821836493E+04  0.10100000352E+00 0. -1.
</event>
<event>
 5   0  0.1484379E-05  0.1612051E+04  0.7818609E-02  0.8813178E-01
       -1   -1    0    0    0  501  0.00000000000E+00  0.00000000000E+00  0.29104337221E+03  0.29104337225E+03  0.50400001928E-02 0.  1.
        1   -1    0    0  501    0  0.00000000000E+00  0.00000000000E+00 -0.22322360421E+04  0.22322360421E+04  0.50400001928E-02 0. -1.
    10030    2    1    2    0    0  0.00000000000E+00  0.00000000000E+00 -0.19411926699E+04  0.25232794143E+04  0.16120514946E+04 0.  0.
        1    1    3    3  502    0 -0.40188962172E+03  0.30147116425E+03  0.15986034008E+02  0.50264866879E+03  0.50400001928E-02 0.  1.
       -1    1    3    3    0  502  0.40188962172E+03 -0.30147116425E+03 -0.19571787039E+04  0.20206307455E+04  0.50400001928E-02 0. -1.
</event>
<event>
 5   0  0.3652331E-05  0.2599728E+04  0.7818609E-02  0.8368294E-01
       -2   -1    0    0    0  501  0.00000000000E+00  0.00000000000E+00  0.76201983569E+03  0.76201983569E+03  0.25500000920E-02 0. -1.
        2   -1    0    0  501    0  0.00000000000E+00  0.00000000000E+00 -0.22173255706E+04  0.22173255706E+04  0.25500000920E-02 0.  1.
    10030    2    1    2    0    0  0.00000000000E+00  0.00000000000E+00 -0.14553057349E+04  0.29793454063E+04  0.25997277296E+04 0.  0.
        1    1    3    3  502    0 -0.42703310304E+03 -0.57419478252E+03  0.51597339932E+03  0.88220489015E+03  0.50400001928E-02 0. -1.
       -1    1    3    3    0  502  0.42703310304E+03  0.57419478252E+03 -0.19712791342E+04  0.20971405162E+04  0.50400001928E-02 0.  1.
</event>
<event>
 5   0  0.1438701E-05  0.2632650E+04  0.7818609E-02  0.8357195E-01
       -1   -1    0    0    0  501  0.00000000000E+00  0.00000000000E+00  0.12537289975E+04  0.12537289975E+04  0.50400001928E-02 0. -1.
        1   -1    0    0  501    0  0.00000000000E+00  0.00000000000E+00 -0.13820459811E+04  0.13820459811E+04  0.50400001928E-02 0.  1.
    10030    2    1    2    0    0  0.00000000000E+00  0.00000000000E+00 -0.12831698352E+03  0.26357749786E+04  0.26326497089E+04 0.  0.
        4    1    3    3  502    0 -0.33647468138E+03  0.12462972840E+04  0.19351326646E+03  0.13053432991E+04  0.12699999809E+01 0. -1.
       -4    1    3    3    0  502  0.33647468138E+03 -0.12462972840E+04 -0.32183024998E+03  0.13304316795E+04  0.12699999809E+01 0.  1.
</event>
<event>
 5   0  0.1495517E-05  0.2699872E+04  0.7818609E-02  0.8335046E-01
       -1   -1    0    0    0  501  0.00000000000E+00  0.00000000000E+00  0.84092508482E+03  0.84092508484E+03  0.50400001928E-02 0.  1.
        1   -1    0    0  501    0  0.00000000000E+00  0.00000000000E+00 -0.21670506305E+04  0.21670506305E+04  0.50400001928E-02 0. -1.
    10030    2    1    2    0    0  0.00000000000E+00  0.00000000000E+00 -0.13261255457E+04  0.30079757154E+04  0.26998720231E+04 0.  0.
        5    1    3    3  502    0 -0.10869876354E+03 -0.10568536943E+04  0.26477069297E+03  0.10949341360E+04  0.46999998093E+01 0.  1.
       -5    1    3    3    0  502  0.10869876354E+03  0.10568536943E+04 -0.15908962387E+04  0.19130415794E+04  0.46999998093E+01 0. -1.
</event>
<event>
 5   0  0.1474012E-05  0.2680663E+04  0.7818609E-02  0.8341307E-01
       -1   -1    0    0    0  501  0.00000000000E+00  0.00000000000E+00  0.20106788132E+04  0.20106788132E+04  0.50400001928E-02 0.  1.
        1   -1    0    0  501    0  0.00000000000E+00  0.00000000000E+00 -0.89347367081E+03  0.89347367082E+03  0.50400001928E-02 0. -1.
    10030    2    1    2    0    0  0.00000000000E+00  0.00000000000E+00  0.11172051424E+04  0.29041524840E+04  0.26806630374E+04 0.  0.
        2    1    3    3  502    0  0.68748027725E+03 -0.24656379703E+03 -0.65895685551E+03  0.98369048742E+03  0.25500000920E-02 0. -1.
       -2    1    3    3    0  502 -0.68748027725E+03  0.24656379703E+03  0.17761619979E+04  0.19204619966E+04  0.25500000920E-02 0.  1.
</event>
<event>
 5   0  0.1438701E-05  0.2719387E+04  0.7818609E-02  0.8328742E-01
       -1   -1    0    0    0  501  0.00000000000E+00  0.00000000000E+00  0.10605071725E+04  0.10605071725E+04  0.50400001928E-02 0.  1.
        1   -1    0    0  501    0  0.00000000000E+00  0.00000000000E+00 -0.17432848845E+04  0.17432848845E+04  0.50400001928E-02 0. -1.
    10030    2    1    2    0    0  0.00000000000E+00  0.00000000000E+00 -0.68277771195E+03  0.28037920570E+04  0.27193867866E+04 0.  0.
        4    1    3    3  502    0  0.86909632022E+02 -0.95944336075E+03  0.64791361410E+03  0.11609817013E+04  0.12699999809E+01 0.  1.
       -4    1    3    3    0  502 -0.86909632022E+02  0.95944336075E+03 -0.13306913260E+04  0.16428103557E+04  0.12699999809E+01 0. -1.
</event>
<event>
 5   0  0.1495517E-05  0.2744372E+04  0.7818609E-02  0.8320750E-01
        1   -1    0    0  501    0  0.00000000000E+00  0.00000000000E+00  0.12512026783E+04  0.12512026783E+04  0.50400001928E-02 0.  1.
       -1   -1    0    0    0  501  0.00000000000E+00  0.00000000000E+00 -0.15048674155E+04  0.15048674155E+04  0.50400001928E-02 0. -1.
    10030    2    1    2    0    0  0.00000000000E+00  0.00000000000E+00 -0.25366473717E+03  0.27560700938E+04  0.27443717975E+04 0.  0.
        5    1    3    3  502    0  0.72202664128E+03 -0.56187098727E+03 -0.11538600054E+04  0.14725611970E+04  0.46999998093E+01 0. -1.
       -5    1    3    3    0  502 -0.72202664128E+03  0.56187098727E+03  0.90019526820E+03  0.12835088967E+04  0.46999998093E+01 0.  1.
</event>
<event>
 5   0  0.3514294E-05  0.2753183E+04  0.7818609E-02  0.8317952E-01
        2   -1    0    0  501    0  0.00000000000E+00  0.00000000000E+00  0.15057418035E+04  0.15057418035E+04  0.25500000920E-02 0.  1.
       -2   -1    0    0    0  501  0.00000000000E+00  0.00000000000E+00 -0.12585188037E+04  0.12585188037E+04  0.25500000920E-02 0. -1.
    10030    2    1    2    0    0  0.00000000000E+00  0.00000000000E+00  0.24722299978E+03  0.27642606071E+04  0.27531831564E+04 0.  0.
        2    1    3    3  502    0 -0.31589259407E+03  0.63108039265E+03  0.13102949878E+04  0.14882619219E+04  0.25500000920E-02 0.  1.
       -2    1    3    3    0  502  0.31589259407E+03 -0.63108039265E+03 -0.10630719881E+04  0.12759986853E+04  0.25500000920E-02 0. -1.
</event>
<event>
 5   0  0.1484379E-05  0.2946563E+04  0.7818609E-02  0.8259157E-01
        1   -1    0    0  501    0  0.00000000000E+00  0.00000000000E+00  0.20924569985E+04  0.20924569985E+04  0.50400001928E-02 0. -1.
       -1   -1    0    0    0  501  0.00000000000E+00  0.00000000000E+00 -0.10373251365E+04  0.10373251365E+04  0.50400001928E-02 0.  1.
    10030    2    1    2    0    0  0.00000000000E+00  0.00000000000E+00  0.10551318620E+04  0.31297821350E+04  0.29465629073E+04 0.  0.
        1    1    3    3  502    0 -0.48859034961E+03  0.99379768933E+03  0.15596885046E+04  0.19128467289E+04  0.50400001928E-02 0. -1.
       -1    1    3    3    0  502  0.48859034961E+03 -0.99379768933E+03 -0.50455664258E+03  0.12169354061E+04  0.50400001928E-02 0.  1.
</event>
<event>
 5   0  0.1484379E-05  0.2927316E+04  0.7818609E-02  0.8264796E-01
       -1   -1    0    0    0  501  0.00000000000E+00  0.00000000000E+00  0.75191725968E+03  0.75191725970E+03  0.50400001928E-02 0. -1.
        1   -1    0    0  501    0  0.00000000000E+00  0.00000000000E+00 -0.28491103837E+04  0.28491103837E+04  0.50400001928E-02 0.  1.
    10030    2    1    2    0    0  0.00000000000E+00  0.00000000000E+00 -0.20971931240E+04  0.36010276434E+04  0.29273163630E+04 0.  0.
        1    1    3    3  502    0  0.34077363893E+03  0.87501318322E+03 -0.24297176496E+04  0.26048613400E+04  0.50400001928E-02 0.  1.
       -1    1    3    3    0  502 -0.34077363893E+03 -0.87501318322E+03  0.33252452562E+03  0.99616630337E+03  0.50400001928E-02 0. -1.
</event>
<event>
 5   0  0.1484379E-05  0.2688356E+04  0.7818609E-02  0.8338793E-01
       -1   -1    0    0    0  501  0.00000000000E+00  0.00000000000E+00  0.10733854002E+04  0.10733854002E+04  0.50400001928E-02 0. -1.
        1   -1    0    0  501    0  0.00000000000E+00  0.00000000000E+00 -0.16832859505E+04  0.16832859505E+04  0.50400001928E-02 0.  1.
    10030    2    1    2    0    0  0.00000000000E+00  0.00000000000E+00 -0.60990055030E+03  0.27566713507E+04  0.26883560505E+04 0.  0.
        1    1    3    3  502    0  0.76685906078E+03  0.98717323667E+03 -0.81170566113E+03  0.14904529173E+04  0.50400001928E-02 0.  1.
       -1    1    3    3    0  502 -0.76685906078E+03 -0.98717323667E+03  0.20180511083E+03  0.12662184334E+04  0.50400001928E-02 0. -1.
</event>
<event>
 5   0  0.3676724E-05  0.2624845E+04  0.7818609E-02  0.8359811E-01
        2   -1    0    0  501    0  0.00000000000E+00  0.00000000000E+00  0.18068431012E+04  0.18068431012E+04  0.25500000920E-02 0.  1.
       -2   -1    0    0    0  501  0.00000000000E+00  0.00000000000E+00 -0.95329411255E+03  0.95329411255E+03  0.25500000920E-02 0. -1.
    10030    2    1    2    0    0  0.00000000000E+00  0.00000000000E+00  0.85354898868E+03  0.27601372138E+04  0.26248450550E+04 0.  0.
        4    1    3    3  502    0  0.79037650992E+03 -0.98178273914E+03  0.81149969259E+03  0.14990416066E+04  0.12699999809E+01 0.  1.
       -4    1    3    3    0  502 -0.79037650992E+03  0.98178273914E+03  0.42049296089E+02  0.12610956072E+04  0.12699999809E+01 0. -1.
</event>
<event>
 5   0  0.1449521E-05  0.2657528E+04  0.7818609E-02  0.8348919E-01
        1   -1    0    0  501    0  0.00000000000E+00  0.00000000000E+00  0.96826470359E+03  0.96826470360E+03  0.50400001928E-02 0. -1.
       -1   -1    0    0    0  501  0.00000000000E+00  0.00000000000E+00 -0.18234827144E+04  0.18234827144E+04  0.50400001928E-02 0.  1.
    10030    2    1    2    0    0  0.00000000000E+00  0.00000000000E+00 -0.85521801082E+03  0.27917474180E+04  0.26575281372E+04 0.  0.
        3    1    3    3  502    0 -0.39067763868E+03  0.10982850813E+04  0.24237524925E+03  0.11906321467E+04  0.10100000352E+00 0. -1.
       -3    1    3    3    0  502  0.39067763868E+03 -0.10982850813E+04 -0.10975932601E+04  0.16011152713E+04  0.10100000352E+00 0.  1.
</event>
<event>
 5   0  0.3676724E-05  0.2716794E+04  0.7818609E-02  0.8329576E-01
        2   -1    0    0  501    0  0.00000000000E+00  0.00000000000E+00  0.11537312769E+04  0.11537312769E+04  0.25500000920E-02 0. -1.
       -2   -1    0    0    0  501  0.00000000000E+00  0.00000000000E+00 -0.15993695048E+04  0.15993695048E+04  0.25500000920E-02 0.  1.
    10030    2    1    2    0    0  0.00000000000E+00  0.00000000000E+00 -0.44563822791E+03  0.27531007818E+04  0.27167941557E+04 0.  0.
        4    1    3    3  502    0 -0.38832603713E+03  0.11795780193E+04  0.33502783579E+03  0.12862529605E+04  0.12699999809E+01 0.  1.
       -4    1    3    3    0  502  0.38832603713E+03 -0.11795780193E+04 -0.78066606370E+03  0.14668478212E+04  0.12699999809E+01 0. -1.
</event>
<event>
 5   0  0.3568647E-05  0.2659078E+04  0.7818609E-02  0.8348406E-01
        2   -1    0    0  501    0  0.00000000000E+00  0.00000000000E+00  0.15930041476E+04  0.15930041476E+04  0.25500000920E-02 0. -1.
       -2   -1    0    0    0  501  0.00000000000E+00  0.00000000000E+00 -0.11096480899E+04  0.11096480899E+04  0.25500000920E-02 0.  1.
    10030    2    1    2    0    0  0.00000000000E+00  0.00000000000E+00  0.48335605773E+03  0.27026522375E+04  0.26590780429E+04 0.  0.
        3    1    3    3  502    0 -0.20800915532E+03 -0.12143129815E+04  0.74971920227E+03  0.14421867834E+04  0.10100000352E+00 0. -1.
       -3    1    3    3    0  502  0.20800915532E+03  0.12143129815E+04 -0.26636314454E+03  0.12604654540E+04  0.10100000352E+00 0.  1.
</event>
<event>
 5   0  0.3652331E-05  0.2679293E+04  0.7818609E-02  0.8341755E-01
       -2   -1    0    0    0  501  0.00000000000E+00  0.00000000000E+00  0.12758965189E+04  0.12758965189E+04  0.25500000920E-02 0.  1.
        2   -1    0    0  501    0  0.00000000000E+00  0.00000000000E+00 -0.14065817912E+04  0.14065817912E+04  0.25500000920E-02 0. -1.
    10030    2    1    2    0    0  0.00000000000E+00  0.00000000000E+00 -0.13068527229E+03  0.26824783101E+04  0.26792930492E+04 0.  0.
        1    1    3    3  502    0 -0.29657561815E+03  0.62531095261E+03  0.10830527950E+04  0.12852915006E+04  0.50400001928E-02 0.  1.
       -1    1    3    3    0  502  0.29657561815E+03 -0.62531095261E+03 -0.12137380672E+04  0.13971868095E+04  0.50400001928E-02 0. -1.
</event>
<event>
 5   0  0.3676724E-05  0.2723325E+04  0.7818609E-02  0.8327476E-01
       -2   -1    0    0    0  501  0.00000000000E+00  0.00000000000E+00  0.15077734969E+04  0.15077734969E+04  0.25500000920E-02 0. -1.
        2   -1    0    0  501    0  0.00000000000E+00  0.00000000000E+00 -0.12297104754E+04  0.12297104754E+04  0.25500000920E-02 0.  1.
    10030    2    1    2    0    0  0.00000000000E+00  0.00000000000E+00  0.27806302152E+03  0.27374839722E+04  0.27233250732E+04 0.  0.
        4    1    3    3  502    0 -0.13623532611E+03  0.88001915886E+03 -0.89643554945E+03  0.12635632518E+04  0.12699999809E+01 0.  1.
       -4    1    3    3    0  502  0.13623532611E+03 -0.88001915886E+03  0.11744985710E+04  0.14739207204E+04  0.12699999809E+01 0. -1.
</event>
<event>
 5   0  0.1449521E-05  0.2770067E+04  0.7818609E-02  0.8312622E-01
       -1   -1    0    0    0  501  0.00000000000E+00  0.00000000000E+00  0.10349452832E+04  0.10349452832E+04  0.50400001928E-02 0. -1.
        1   -1    0    0  501    0  0.00000000000E+00  0.00000000000E+00 -0.18535457467E+04  0.18535457467E+04  0.50400001928E-02 0.  1.
    10030    2    1    2    0    0  0.00000000000E+00  0.00000000000E+00 -0.81860046353E+03  0.28884910299E+04  0.27700674560E+04 0.  0.
        3    1    3    3  502    0 -0.62060310683E+03 -0.10887790376E+04 -0.10241967211E+04  0.16185076283E+04  0.10100000352E+00 0.  1.
       -3    1    3    3    0  502  0.62060310683E+03  0.10887790376E+04  0.20559625760E+03  0.12699834016E+04  0.10100000352E+00 0. -1.
</event>
<event>
 5   0  0.3568647E-05  0.1417116E+04  0.7818609E-02  0.8941521E-01
       -2   -1    0    0    0  501  0.00000000000E+00  0.00000000000E+00  0.54329259492E+03  0.54329259493E+03  0.25500000920E-02 0.  1.
        2   -1    0    0  501    0  0.00000000000E+00  0.00000000000E+00 -0.92409588158E+03  0.92409588158E+03  0.25500000920E-02 0. -1.
    10030    2    1    2    0    0  0.00000000000E+00  0.00000000000E+00 -0.38080328665E+03  0.14673884765E+04  0.14171160143E+04 0.  0.
        3    1    3    3  502    0  0.60828816850E+02 -0.11100356410E+03  0.53149056619E+03  0.54635534989E+03  0.10100000352E+00 0.  1.
       -3    1    3    3    0  502 -0.60828816850E+02  0.11100356410E+03 -0.91229385284E+03  0.92103312662E+03  0.10100000352E+00 0. -1.
</event>
<event>
 5   0  0.1449521E-05  0.2696124E+04  0.7818609E-02  0.8336264E-01
        1   -1    0    0  501    0  0.00000000000E+00  0.00000000000E+00  0.15438837866E+04  0.15438837867E+04  0.50400001928E-02 0. -1.
       -1   -1    0    0    0  501  0.00000000000E+00  0.00000000000E+00 -0.11770773649E+04  0.11770773649E+04  0.50400001928E-02 0.  1.
    10030    2    1    2    0    0  0.00000000000E+00  0.00000000000E+00  0.36680642178E+03  0.27209611515E+04  0.26961236316E+04 0.  0.
        3    1    3    3  502    0 -0.12756736877E+04  0.42033073093E+03  0.67236920352E+02  0.13448204693E+04  0.10100000352E+00 0.  1.
       -3    1    3    3    0  502  0.12756736877E+04 -0.42033073093E+03  0.29956950143E+03  0.13761406822E+04  0.10100000352E+00 0. -1.
</event>
<event>
 5   0  0.3676724E-05  0.2731566E+04  0.7818609E-02  0.8324835E-01
        2   -1    0    0  501    0  0.00000000000E+00  0.00000000000E+00  0.11916379780E+04  0.11916379780E+04  0.25500000920E-02 0.  1.
       -2   -1    0    0    0  501  0.00000000000E+00  0.00000000000E+00 -0.15653771543E+04  0.15653771543E+04  0.25500000920E-02 0. -1.
    10030    2    1    2    0    0  0.00000000000E+00  0.00000000000E+00 -0.37373917632E+03  0.27570151324E+04  0.27315657539E+04 0.  0.
        4    1    3    3  502    0  0.27568202212E+03  0.69821227268E+03 -0.13384908703E+04  0.15346205974E+04  0.12699999809E+01 0. -1.
       -4    1    3    3    0  502 -0.27568202212E+03 -0.69821227268E+03  0.96475169403E+03  0.12223945350E+04  0.12699999809E+01 0.  1.
</event>
<event>
 5   0  0.3514294E-05  0.2612608E+04  0.7818609E-02  0.8363931E-01
       -2   -1    0    0    0  501  0.00000000000E+00  0.00000000000E+00  0.10368849417E+04  0.10368849417E+04  0.25500000920E-02 0. -1.
        2   -1    0    0  501    0  0.00000000000E+00  0.00000000000E+00 -0.16457276135E+04  0.16457276135E+04  0.25500000920E-02 0.  1.
    10030    2    1    2    0    0  0.00000000000E+00  0.00000000000E+00 -0.60884267182E+03  0.26826125553E+04  0.26126080308E+04 0.  0.
        2    1    3    3  502    0  0.17099772068E+03 -0.87736061348E+03  0.67369352755E+03  0.11193144489E+04  0.25500000920E-02 0. -1.
       -2    1    3    3    0  502 -0.17099772068E+03  0.87736061348E+03 -0.12825361994E+04  0.15632981063E+04  0.25500000920E-02 0.  1.
</event>
<event>
 5   0  0.3652331E-05  0.2718431E+04  0.7818609E-02  0.8329049E-01
       -2   -1    0    0    0  501  0.00000000000E+00  0.00000000000E+00  0.13902580295E+04  0.13902580295E+04  0.25500000920E-02 0. -1.
        2   -1    0    0  501    0  0.00000000000E+00  0.00000000000E+00 -0.13288663869E+04  0.13288663869E+04  0.25500000920E-02 0.  1.
    10030    2    1    2    0    0  0.00000000000E+00  0.00000000000E+00  0.61391642674E+02  0.27191244164E+04  0.27184312863E+04 0.  0.
        1    1    3    3  502    0 -0.12453556931E+04 -0.51468911345E+03 -0.14725816524E+03  0.13555444121E+04  0.50400001928E-02 0. -1.
       -1    1    3    3    0  502  0.12453556931E+04  0.51468911345E+03  0.20864980791E+03  0.13635800043E+04  0.50400001928E-02 0.  1.
</event>
<event>
 5   0  0.3568647E-05  0.2619366E+04  0.7818609E-02  0.8361653E-01
        2   -1    0    0  501    0  0.00000000000E+00  0.00000000000E+00  0.15380859415E+04  0.15380859415E+04  0.25500000920E-02 0. -1.
       -2   -1    0    0    0  501  0.00000000000E+00  0.00000000000E+00 -0.11151971359E+04  0.11151971359E+04  0.25500000920E-02 0.  1.
    10030    2    1    2    0    0  0.00000000000E+00  0.00000000000E+00  0.42288880559E+03  0.26532830775E+04  0.26193656002E+04 0.  0.
        3    1    3    3  502    0 -0.47644073575E+03 -0.11740452628E+04 -0.12434615222E+03  0.12731221582E+04  0.10100000352E+00 0.  1.
       -3    1    3    3    0  502  0.47644073575E+03  0.11740452628E+04  0.54723495781E+03  0.13801609193E+04  0.10100000352E+00 0. -1.
</event>
<event>
 5   0  0.3514294E-05  0.2753777E+04  0.7818609E-02  0.8317764E-01
        2   -1    0    0  501    0  0.00000000000E+00  0.00000000000E+00  0.25999118520E+04  0.25999118520E+04  0.25500000920E-02 0. -1.
       -2   -1    0    0    0  501  0.00000000000E+00  0.00000000000E+00 -0.72918709958E+03  0.72918709959E+03  0.25500000920E-02 0.  1.
    10030    2    1    2    0    0  0.00000000000E+00  0.00000000000E+00  0.18707247524E+04  0.33290989516E+04  0.27537771751E+04 0.  0.
        2    1    3    3  502    0 -0.28921965222E+03  0.91407112911E+03  0.21300846846E+04  0.23359012821E+04  0.25500000920E-02 0.  1.
       -2    1    3    3    0  502  0.28921965222E+03 -0.91407112911E+03 -0.25935993214E+03  0.99319766950E+03  0.25500000920E-02 0. -1.
</event>
<event>
 5   0  0.1474012E-05  0.2709490E+04  0.7818609E-02  0.8331932E-01
        1   -1    0    0  501    0  0.00000000000E+00  0.00000000000E+00  0.16000156560E+04  0.16000156560E+04  0.50400001928E-02 0.  1.
       -1   -1    0    0    0  501  0.00000000000E+00  0.00000000000E+00 -0.11470727390E+04  0.11470727390E+04  0.50400001928E-02 0. -1.
    10030    2    1    2    0    0  0.00000000000E+00  0.00000000000E+00  0.45294291696E+03  0.27470883950E+04  0.27094902406E+04 0.  0.
        2    1    3    3  502    0 -0.13452664469E+04  0.58746655575E+02  0.75606917983E+02  0.13486694883E+04  0.25500000920E-02 0.  1.
       -2    1    3    3    0  502  0.13452664469E+04 -0.58746655575E+02  0.37733599898E+03  0.13984189067E+04  0.25500000920E-02 0. -1.
</event>
<event>
 5   0  0.1474012E-05  0.2841992E+04  0.7818609E-02  0.8290349E-01
       -1   -1    0    0    0  501  0.00000000000E+00  0.00000000000E+00  0.21746939516E+04  0.21746939516E+04  0.50400001928E-02 0.  1.
        1   -1    0    0  501    0  0.00000000000E+00  0.00000000000E+00 -0.92851194063E+03  0.92851194064E+03  0.50400001928E-02 0. -1.
    10030    2    1    2    0    0  0.00000000000E+00  0.00000000000E+00  0.12461820110E+04  0.31032058923E+04  0.28419917673E+04 0.  0.
        2    1    3    3  502    0 -0.96937600526E+03  0.98185796996E+03  0.25201043320E+03  0.14025848178E+04  0.25500000920E-02 0.  1.
       -2    1    3    3    0  502  0.96937600526E+03 -0.98185796996E+03  0.99417157779E+03  0.17006210744E+04  0.25500000920E-02 0. -1.
</event>
<event>
 5   0  0.1438701E-05  0.2738453E+04  0.7818609E-02  0.8322635E-01
        1   -1    0    0  501    0  0.00000000000E+00  0.00000000000E+00  0.21877093215E+04  0.21877093215E+04  0.50400001928E-02 0. -1.
       -1   -1    0    0    0  501  0.00000000000E+00  0.00000000000E+00 -0.85696076283E+03  0.85696076285E+03  0.50400001928E-02 0.  1.
    10030    2    1    2    0    0  0.00000000000E+00  0.00000000000E+00  0.13307485586E+04  0.30446700843E+04  0.27384528837E+04 0.  0.
        4    1    3    3  502    0 -0.12944648552E+04  0.37804737737E+02  0.11597422862E+04  0.17384108384E+04  0.12699999809E+01 0. -1.
       -4    1    3    3    0  502  0.12944648552E+04 -0.37804737737E+02  0.17100627240E+03  0.13062592460E+04  0.12699999809E+01 0.  1.
</event>
<event>
 5   0  0.1495517E-05  0.1906413E+04  0.7818609E-02  0.8651671E-01
       -1   -1    0    0    0  501  0.00000000000E+00  0.00000000000E+00  0.15956068778E+04  0.15956068778E+04  0.50400001928E-02 0. -1.
        1   -1    0    0  501    0  0.00000000000E+00  0.00000000000E+00 -0.56944014463E+03  0.56944014465E+03  0.50400001928E-02 0.  1.
    10030    2    1    2    0    0  0.00000000000E+00  0.00000000000E+00  0.10261667331E+04  0.21650470224E+04  0.19064129786E+04 0.  0.
        5    1    3    3  502    0  0.26737819258E+03 -0.62712506609E+03  0.12696474940E+04  0.14411119996E+04  0.46999998093E+01 0. -1.
       -5    1    3    3    0  502 -0.26737819258E+03  0.62712506609E+03 -0.24348076086E+03  0.72393502283E+03  0.46999998093E+01 0.  1.
</event>
<event>
 5   0  0.1495517E-05  0.2686234E+04  0.7818609E-02  0.8339485E-01
       -1   -1    0    0    0  501  0.00000000000E+00  0.00000000000E+00  0.11051064781E+04  0.11051064781E+04  0.50400001928E-02 0.  1.
        1   -1    0    0  501    0  0.00000000000E+00  0.00000000000E+00 -0.16323892455E+04  0.16323892455E+04  0.50400001928E-02 0. -1.
    10030    2    1    2    0    0  0.00000000000E+00  0.00000000000E+00 -0.52728276738E+03  0.27374957236E+04  0.26862344871E+04 0.  0.
        5    1    3    3  502    0 -0.19680386279E+03 -0.39051432387E+03  0.10305171654E+04  0.11194734993E+04  0.46999998093E+01 0.  1.
       -5    1    3    3    0  502  0.19680386279E+03  0.39051432387E+03 -0.15577999328E+04  0.16180222242E+04  0.46999998093E+01 0. -1.
</event>
<event>
 5   0  0.3568647E-05  0.2787412E+04  0.7818609E-02  0.8307187E-01
        2   -1    0    0  501    0  0.00000000000E+00  0.00000000000E+00  0.17186068143E+04  0.17186068143E+04  0.25500000920E-02 0. -1.
       -2   -1    0    0    0  501  0.00000000000E+00  0.00000000000E+00 -0.11302274378E+04  0.11302274378E+04  0.25500000920E-02 0.  1.
    10030    2    1    2    0    0  0.00000000000E+00  0.00000000000E+00  0.58837937652E+03  0.28488342521E+04  0.27874121161E+04 0.  0.
        3    1    3    3  502    0  0.96768102717E+02 -0.11371949263E+04 -0.52333666296E+03  0.12555706428E+04  0.10100000352E+00 0.  1.
       -3    1    3    3    0  502 -0.96768102717E+02  0.11371949263E+04  0.11117160395E+04  0.15932636093E+04  0.10100000352E+00 0. -1.
</event>
<event>
 5   0  0.3568647E-05  0.2165881E+04  0.7818609E-02  0.8532765E-01
       -2   -1    0    0    0  501  0.00000000000E+00  0.00000000000E+00  0.10947923039E+04  0.10947923039E+04  0.25500000920E-02 0. -1.
        2   -1    0    0  501    0  0.00000000000E+00  0.00000000000E+00 -0.10712167422E+04  0.10712167422E+04  0.25500000920E-02 0.  1.
    10030    2    1    2    0    0  0.00000000000E+00  0.00000000000E+00  0.23575561683E+02  0.21660090461E+04  0.21658807402E+04 0.  0.
        3    1    3    3  502    0 -0.10111136705E+04 -0.31895310471E+03  0.23243153142E+03  0.10854060829E+04  0.10100000352E+00 0. -1.
       -3    1    3    3    0  502  0.10111136705E+04  0.31895310471E+03 -0.20885596974E+03  0.10806029632E+04  0.10100000352E+00 0.  1.
</event>
<event>
 5   0  0.1495517E-05  0.2721310E+04  0.7818609E-02  0.8328123E-01
        1   -1    0    0  501    0  0.00000000000E+00  0.00000000000E+00  0.96532823079E+03  0.96532823081E+03  0.50400001928E-02 0.  1.
       -1   -1    0    0    0  501  0.00000000000E+00  0.00000000000E+00 -0.19178786877E+04  0.19178786877E+04  0.50400001928E-02 0. -1.
    10030    2    1    2    0    0  0.00000000000E+00  0.00000000000E+00 -0.95255045694E+03  0.28832069185E+04  0.27213103024E+04 0.  0.
        5    1    3    3  502    0  0.85260318482E+02 -0.13577964320E+04 -0.49948458307E+03  0.14492713381E+04  0.46999998093E+01 0.  1.
       -5    1    3    3    0  502 -0.85260318482E+02  0.13577964320E+04 -0.45306587386E+03  0.14339355804E+04  0.46999998093E+01 0. -1.
</event>
<event>
 5   0  0.3652331E-05  0.2720688E+04  0.7818609E-02  0.8328323E-01
        2   -1    0    0  501    0  0.00000000000E+00  0.00000000000E+00  0.17897037835E+04  0.17897037835E+04  0.25500000920E-02 0.  1.
       -2   -1    0    0    0  501  0.00000000000E+00  0.00000000000E+00 -0.10339902543E+04  0.10339902543E+04  0.25500000920E-02 0. -1.
    10030    2    1    2    0    0  0.00000000000E+00  0.00000000000E+00  0.75571352916E+03  0.28236940378E+04  0.27206883469E+04 0.  0.
        1    1    3    3  502    0  0.27749765933E+03  0.35323535396E+03  0.17105096641E+04  0.17685088287E+04  0.50400001928E-02 0.  1.
       -1    1    3    3    0  502 -0.27749765933E+03 -0.35323535396E+03 -0.95479613492E+03  0.10551852091E+04  0.50400001928E-02 0. -1.
</event>
<event>
 5   0  0.1474012E-05  0.2721665E+04  0.7818609E-02  0.8328009E-01
        1   -1    0    0  501    0  0.00000000000E+00  0.00000000000E+00  0.21391915123E+04  0.21391915123E+04  0.50400001928E-02 0.  1.
       -1   -1    0    0    0  501  0.00000000000E+00  0.00000000000E+00 -0.86568475192E+03  0.86568475193E+03  0.50400001928E-02 0. -1.
    10030    2    1    2    0    0  0.00000000000E+00  0.00000000000E+00  0.12735067603E+04  0.30048762642E+04  0.27216652797E+04 0.  0.
        2    1    3    3  502    0 -0.90183202621E+03 -0.57382437945E+03  0.15665839375E+04  0.18965127617E+04  0.25500000920E-02 0.  1.
       -2    1    3    3    0  502  0.90183202621E+03  0.57382437945E+03 -0.29307717716E+03  0.11083635025E+04  0.25500000920E-02 0. -1.
</event>
<event>
 5   0  0.3568647E-05  0.2579203E+04  0.7818609E-02  0.8375300E-01
       -2   -1    0    0    0  501  0.00000000000E+00  0.00000000000E+00  0.22632832363E+04  0.22632832363E+04  0.25500000920E-02 0. -1.
        2   -1    0    0  501    0  0.00000000000E+00  0.00000000000E+00 -0.73480528438E+03  0.73480528439E+03  0.25500000920E-02 0.  1.
    10030    2    1    2    0    0  0.00000000000E+00  0.00000000000E+00  0.15284779519E+04  0.29980885207E+04  0.25792033515E+04 0.  0.
        3    1    3    3  502    0  0.19497452234E+03 -0.12733559941E+04  0.83419550977E+03  0.15347093245E+04  0.10100000352E+00 0.  1.
       -3    1    3    3    0  502 -0.19497452234E+03  0.12733559941E+04  0.69428244217E+03  0.14633791962E+04  0.10100000352E+00 0. -1.
</event>
<event>
 5   0  0.3676724E-05  0.2672876E+04  0.7818609E-02  0.8343860E-01
        2   -1    0    0  501    0  0.00000000000E+00  0.00000000000E+00  0.14371592723E+04  0.14371592723E+04  0.25500000920E-02 0.  1.
       -2   -1    0    0    0  501  0.00000000000E+00  0.00000000000E+00 -0.12427758382E+04  0.12427758382E+04  0.25500000920E-02 0. -1.
    10030    2    1    2    0    0  0.00000000000E+00  0.00000000000E+00  0.19438343412E+03  0.26799351105E+04  0.26728762181E+04 0.  0.
        4    1    3    3  502    0 -0.45347576144E+03 -0.20694109390E+03  0.13404666074E+04  0.14301458740E+04  0.12699999809E+01 0.  1.
       -4    1    3    3    0  502  0.45347576144E+03  0.20694109390E+03 -0.11460831733E+04  0.12497892365E+04  0.12699999809E+01 0. -1.
</event>
<event>
 5   0  0.3497949E-05  0.2742720E+04  0.7818609E-02  0.8321275E-01
       -2   -1    0    0    0  501  0.00000000000E+00  0.00000000000E+00  0.98040091198E+03  0.98040091198E+03  0.25500000920E-02 0. -1.
        2   -1    0    0  501    0  0.00000000000E+00  0.00000000000E+00 -0.19182238186E+04  0.19182238186E+04  0.25500000920E-02 0.  1.
    10030    2    1    2    0    0  0.00000000000E+00  0.00000000000E+00 -0.93782290664E+03  0.28986247306E+04  0.27427200959E+04 0.  0.
        5    1    3    3  502    0  0.28363960905E+03  0.13167963669E+04 -0.74083491974E+03  0.15372906582E+04  0.46999998093E+01 0.  1.
       -5    1    3    3    0  502 -0.28363960905E+03 -0.13167963669E+04 -0.19698798690E+03  0.13613340724E+04  0.46999998093E+01 0. -1.
</event>
<event>
 5   0  0.1484379E-05  0.2716351E+04  0.7818609E-02  0.8329719E-01
        1   -1    0    0  501    0  0.00000000000E+00  0.00000000000E+00  0.23139338201E+04  0.23139338201E+04  0.50400001928E-02 0. -1.
       -1   -1    0    0    0  501  0.00000000000E+00  0.00000000000E+00 -0.79718790767E+03  0.79718790768E+03  0.50400001928E-02 0.  1.
    10030    2    1    2    0    0  0.00000000000E+00  0.00000000000E+00  0.15167459124E+04  0.31111217278E+04  0.27163505374E+04 0.  0.
        1    1    3    3  502    0 -0.91417383478E+03 -0.97906281000E+03  0.50134293167E+03  0.14302526075E+04  0.50400001928E-02 0. -1.
       -1    1    3    3    0  502  0.91417383478E+03  0.97906281000E+03  0.10154029807E+04  0.16808691203E+04  0.50400001928E-02 0.  1.
</event>
<event>
 5   0  0.1449521E-05  0.2628715E+04  0.7818609E-02  0.8358512E-01
        1   -1    0    0  501    0  0.00000000000E+00  0.00000000000E+00  0.13477631809E+04  0.13477631810E+04  0.50400001928E-02 0.  1.
       -1   -1    0    0    0  501  0.00000000000E+00  0.00000000000E+00 -0.12817799445E+04  0.12817799445E+04  0.50400001928E-02 0. -1.
    10030    2    1    2    0    0  0.00000000000E+00  0.00000000000E+00  0.65983236477E+02  0.26295431254E+04  0.26287151350E+04 0.  0.
        3    1    3    3  502    0  0.75761691382E+03 -0.62556454906E+03  0.90631953786E+03  0.13366860170E+04  0.10100000352E+00 0.  1.
       -3    1    3    3    0  502 -0.75761691382E+03  0.62556454906E+03 -0.84033630139E+03  0.12928571084E+04  0.10100000352E+00 0. -1.
</event>
<event>
 5   0  0.1438701E-05  0.2661250E+04  0.7818609E-02  0.8347689E-01
        1   -1    0    0  501    0  0.00000000000E+00  0.00000000000E+00  0.12626104102E+04  0.12626104102E+04  0.50400001928E-02 0. -1.
       -1   -1    0    0    0  501  0.00000000000E+00  0.00000000000E+00 -0.14023031481E+04  0.14023031481E+04  0.50400001928E-02 0.  1.
    10030    2    1    2    0    0  0.00000000000E+00  0.00000000000E+00 -0.13969273793E+03  0.26649135584E+04  0.26612497464E+04 0.  0.
        4    1    3    3  502    0 -0.43323204611E+03 -0.18545793379E+03 -0.13159374088E+04  0.13977759219E+04  0.12699999809E+01 0.  1.
       -4    1    3    3    0  502  0.43323204611E+03  0.18545793379E+03  0.11762446709E+04  0.12671376365E+04  0.12699999809E+01 0. -1.
</event>
<event>
 5   0  0.1495517E-05  0.2661769E+04  0.7818609E-02  0.8347517E-01
       -1   -1    0    0    0  501  0.00000000000E+00  0.00000000000E+00  0.10872531543E+04  0.10872531543E+04  0.50400001928E-02 0. -1.
        1   -1    0    0  501    0  0.00000000000E+00  0.00000000000E+00 -0.16291092097E+04  0.16291092097E+04  0.50400001928E-02 0.  1.
    10030    2    1    2    0    0  0.00000000000E+00  0.00000000000E+00 -0.54185605537E+03  0.27163623639E+04  0.26617694317E+04 0.  0.
        5    1    3    3  502    0 -0.12918731333E+04  0.29565532842E+03 -0.39542929244E+03  0.13830165151E+04  0.46999998093E+01 0.  1.
       -5    1    3    3    0  502  0.12918731333E+04 -0.29565532842E+03 -0.14642676294E+03  0.13333458488E+04  0.46999998093E+01 0. -1.
</event>
<event>
 5   0  0.3568647E-05  0.2914083E+04  0.7818609E-02  0.8268700E-01
       -2   -1    0    0    0  501  0.00000000000E+00  0.00000000000E+00  0.10980266737E+04  0.10980266737E+04  0.25500000920E-02 0.  1.
        2   -1    0    0  501    0  0.00000000000E+00  0.00000000000E+00 -0.19334412293E+04  0.19334412293E+04  0.25500000920E-02 0. -1.
    10030    2    1    2    0    0  0.00000000000E+00  0.00000000000E+00 -0.83541455554E+03  0.30314679030E+04  0.29140830749E+04 0.  0.
        3    1    3    3  502    0 -0.58996196250E+02 -0.96270403743E+03 -0.15538029636E+04  0.18288201866E+04  0.10100000352E+00 0. -1.
       -3    1    3    3    0  502  0.58996196250E+02  0.96270403743E+03  0.71838840808E+03  0.12026477165E+04  0.10100000352E+00 0.  1.
</event>
<event>
 5   0  0.1474012E-05  0.2570643E+04  0.7818609E-02  0.8378242E-01
        1   -1    0    0  501    0  0.00000000000E+00  0.00000000000E+00  0.65452653986E+03  0.65452653988E+03  0.50400001928E-02 0.  1.
       -1   -1    0    0    0  501  0.00000000000E+00  0.00000000000E+00 -0.25240410801E+04  0.25240410801E+04  0.50400001928E-02 0. -1.
    10030    2    1    2    0    0  0.00000000000E+00  0.00000000000E+00 -0.18695145402E+04  0.31785676200E+04  0.25706434017E+04 0.  0.
        2    1    3    3  502    0 -0.53948096551E+03 -0.35800731320E+03  0.43815723362E+03  0.78178686983E+03  0.25500000920E-02 0.  1.
       -2    1    3    3    0  502  0.53948096551E+03  0.35800731320E+03 -0.23076717739E+04  0.23967807502E+04  0.25500000920E-02 0. -1.
</event>
<event>
 5   0  0.1438701E-05  0.2710192E+04  0.7818609E-02  0.8331706E-01
       -1   -1    0    0    0  501  0.00000000000E+00  0.00000000000E+00  0.75898571400E+03  0.75898571402E+03  0.50400001928E-02 0. -1.
        1   -1    0    0  501    0  0.00000000000E+00  0.00000000000E+00 -0.24193940398E+04  0.24193940398E+04  0.50400001928E-02 0.  1.
    10030    2    1    2    0    0  0.00000000000E+00  0.00000000000E+00 -0.16604083257E+04  0.31783797538E+04  0.27101922535E+04 0.  0.
        4    1    3    3  502    0 -0.24683997369E+02  0.13479600314E+04 -0.99048255857E+03  0.16729204576E+04  0.12699999809E+01 0.  1.
       -4    1    3    3    0  502  0.24683997369E+02 -0.13479600314E+04 -0.66992576718E+03  0.15054592961E+04  0.12699999809E+01 0. -1.
</event>
<event>
 5   0  0.1449521E-05  0.2590979E+04  0.7818609E-02  0.8371272E-01
        1   -1    0    0  501    0  0.00000000000E+00  0.00000000000E+00  0.14591846312E+04  0.14591846312E+04  0.50400001928E-02 0.  1.
       -1   -1    0    0    0  501  0.00000000000E+00  0.00000000000E+00 -0.11501583978E+04  0.11501583978E+04  0.50400001928E-02 0. -1.
    10030    2    1    2    0    0  0.00000000000E+00  0.00000000000E+00  0.30902623335E+03  0.26093430290E+04  0.25909793188E+04 0.  0.
        3    1    3    3  502    0  0.64359896079E+03  0.11043322461E+04  0.36701602547E+03  0.13298383756E+04  0.10100000352E+00 0. -1.
       -3    1    3    3    0  502 -0.64359896079E+03 -0.11043322461E+04 -0.57989792122E+02  0.12795046534E+04  0.10100000352E+00 0.  1.
</event>
<event>
 5   0  0.1438701E-05  0.2561753E+04  0.7818609E-02  0.8381310E-01
       -1   -1    0    0    0  501  0.00000000000E+00  0.00000000000E+00  0.10115920561E+04  0.10115920561E+04  0.50400001928E-02 0.  1.
        1   -1    0    0  501    0  0.00000000000E+00  0.00000000000E+00 -0.16218440443E+04  0.16218440443E+04  0.50400001928E-02 0. -1.
    10030    2    1    2    0    0  0.00000000000E+00  0.00000000000E+00 -0.61025198817E+03  0.26334361004E+04  0.25617529557E+04 0.  0.
        4    1    3    3  502    0 -0.88391874186E+03 -0.10727657170E+03  0.64141181240E+03  0.10973747450E+04  0.12699999809E+01 0.  1.
       -4    1    3    3    0  502  0.88391874186E+03  0.10727657170E+03 -0.12516638006E+04  0.15360613554E+04  0.12699999809E+01 0. -1.
</event>
<event>
 5   0  0.3514294E-05  0.2729173E+04  0.7818609E-02  0.8325601E-01
       -2   -1    0    0    0  501  0.00000000000E+00  0.00000000000E+00  0.17292149539E+04  0.17292149539E+04  0.25500000920E-02 0. -1.
        2   -1    0    0  501    0  0.00000000000E+00  0.00000000000E+00 -0.10768446895E+04  0.10768446895E+04  0.25500000920E-02 0.  1.
    10030    2    1    2    0    0  0.00000000000E+00  0.00000000000E+00  0.65237026433E+03  0.28060596434E+04  0.27291727246E+04 0.  0.
        2    1    3    3  502    0  0.95201776940E+03  0.35691811032E+03 -0.60960275523E+03  0.11854720114E+04  0.25500000920E-02 0.  1.
       -2    1    3    3    0  502 -0.95201776940E+03 -0.35691811032E+03  0.12619730196E+04  0.16205876320E+04  0.25500000920E-02 0. -1.
</event>
<event>
 5   0  0.3497949E-05  0.2775591E+04  0.7818609E-02  0.8310887E-01
        2   -1    0    0  501    0  0.00000000000E+00  0.00000000000E+00  0.23704104660E+04  0.23704104660E+04  0.25500000920E-02 0.  1.
       -2   -1    0    0    0  501  0.00000000000E+00  0.00000000000E+00 -0.81250726297E+03  0.81250726297E+03  0.25500000920E-02 0. -1.
    10030    2    1    2    0    0  0.00000000000E+00  0.00000000000E+00  0.15579032031E+04  0.31829177290E+04  0.27755905461E+04 0.  0.
        5    1    3    3  502    0 -0.22939659079E+03  0.17041492567E+03  0.23362956618E+04  0.23537127166E+04  0.46999998093E+01 0.  1.
       -5    1    3    3    0  502  0.22939659079E+03 -0.17041492567E+03 -0.77839245876E+03  0.82920501241E+03  0.46999998093E+01 0. -1.
</event>
<event>
 5   0  0.3568647E-05  0.2625848E+04  0.7818609E-02  0.8359474E-01
        2   -1    0    0  501    0  0.00000000000E+00  0.00000000000E+00  0.13282108580E+04  0.13282108580E+04  0.25500000920E-02 0.  1.
       -2   -1    0    0    0  501  0.00000000000E+00  0.00000000000E+00 -0.12978134997E+04  0.12978134997E+04  0.25500000920E-02 0. -1.
    10030    2    1    2    0    0  0.00000000000E+00  0.00000000000E+00  0.30397358271E+02  0.26260243577E+04  0.26258484205E+04 0.  0.
        3    1    3    3  502    0  0.96658369855E+03  0.83911690085E+03  0.30739757072E+03  0.13163945063E+04  0.10100000352E+00 0.  1.
       -3    1    3    3    0  502 -0.96658369855E+03 -0.83911690085E+03 -0.27700021245E+03  0.13096298513E+04  0.10100000352E+00 0. -1.
</event>
<event>
 5   0  0.3497949E-05  0.2677392E+04  0.7818609E-02  0.8342378E-01
       -2   -1    0    0    0  501  0.00000000000E+00  0.00000000000E+00  0.75834014561E+03  0.75834014562E+03  0.25500000920E-02 0.  1.
        2   -1    0    0  501    0  0.00000000000E+00  0.00000000000E+00 -0.23631964376E+04  0.23631964376E+04  0.25500000920E-02 0. -1.
    10030    2    1    2    0    0  0.00000000000E+00  0.00000000000E+00 -0.16048562920E+04  0.31215365832E+04  0.26773918134E+04 0.  0.
        5    1    3    3  502    0  0.12683759012E+04  0.33931392106E+03 -0.11068414177E+04  0.17172744037E+04  0.46999998093E+01 0. -1.
       -5    1    3    3    0  502 -0.12683759012E+04 -0.33931392106E+03 -0.49801487429E+03  0.14042621795E+04  0.46999998093E+01 0.  1.
</event>
<event>
 5   0  0.1438701E-05  0.2653252E+04  0.7818609E-02  0.8350334E-01
        1   -1    0    0  501    0  0.00000000000E+00  0.00000000000E+00  0.11791409836E+04  0.11791409836E+04  0.50400001928E-02 0.  1.
       -1   -1    0    0    0  501  0.00000000000E+00  0.00000000000E+00 -0.14925582621E+04  0.14925582621E+04  0.50400001928E-02 0. -1.
    10030    2    1    2    0    0  0.00000000000E+00  0.00000000000E+00 -0.31341727851E+03  0.26716992457E+04  0.26532520553E+04 0.  0.
        4    1    3    3  502    0 -0.33030589068E+03  0.29068614707E+03  0.11035257529E+04  0.11880114131E+04  0.12699999809E+01 0.  1.
       -4    1    3    3    0  502  0.33030589068E+03 -0.29068614707E+03 -0.14169430314E+04  0.14836878326E+04  0.12699999809E+01 0. -1.
</event>
<event>
 5   0  0.1449521E-05  0.2688423E+04  0.7818609E-02  0.8338771E-01
       -1   -1    0    0    0  501  0.00000000000E+00  0.00000000000E+00  0.82534720733E+03  0.82534720734E+03  0.50400001928E-02 0. -1.
        1   -1    0    0  501    0  0.00000000000E+00  0.00000000000E+00 -0.21892653148E+04  0.21892653148E+04  0.50400001928E-02 0.  1.
    10030    2    1    2    0    0  0.00000000000E+00  0.00000000000E+00 -0.13639181075E+04  0.30146125222E+04  0.26884225960E+04 0.  0.
        3    1    3    3  502    0 -0.45134429501E+03 -0.26065943071E+03 -0.20713465057E+04  0.21359146445E+04  0.10100000352E+00 0.  1.
       -3    1    3    3    0  502  0.45134429501E+03  0.26065943071E+03  0.70742839823E+03  0.87869787770E+03  0.10100000352E+00 0. -1.
</event>
<event>
 5   0  0.1449521E-05  0.2612175E+04  0.7818609E-02  0.8364078E-01
       -1   -1    0    0    0  501  0.00000000000E+00  0.00000000000E+00  0.13464310610E+04  0.13464310610E+04  0.50400001928E-02 0.  1.
        1   -1    0    0  501    0  0.00000000000E+00  0.00000000000E+00 -0.12669523094E+04  0.12669523094E+04  0.50400001928E-02 0. -1.
    10030    2    1    2    0    0  0.00000000000E+00  0.00000000000E+00  0.79478751624E+02  0.26133833705E+04  0.26121745288E+04 0.  0.
        3    1    3    3  502    0 -0.84407616145E+03 -0.85123768471E+03 -0.47895379743E+03  0.12909170820E+04  0.10100000352E+00 0.  1.
       -3    1    3    3    0  502  0.84407616145E+03  0.85123768471E+03  0.55843254906E+03  0.13224662885E+04  0.10100000352E+00 0. -1.
</event>
<event>
 5   0  0.1495517E-05  0.2528889E+04  0.7818609E-02  0.8392766E-01
       -1   -1    0    0    0  501  0.00000000000E+00  0.00000000000E+00  0.81841165978E+03  0.81841165980E+03  0.50400001928E-02 0. -1.
        1   -1    0    0  501    0  0.00000000000E+00  0.00000000000E+00 -0.19535638767E+04  0.19535638767E+04  0.50400001928E-02 0.  1.
    10030    2    1    2    0    0  0.00000000000E+00  0.00000000000E+00 -0.11351522169E+04  0.27719755365E+04  0.25288886530E+04 0.  0.
        5    1    3    3  502    0 -0.81464842647E+03  0.16466309293E+03 -0.16120801196E+04  0.18137227999E+04  0.46999998093E+01 0.  1.
       -5    1    3    3    0  502  0.81464842647E+03 -0.16466309293E+03  0.47692790265E+03  0.95825273662E+03  0.46999998093E+01 0. -1.
</event>
<event>
 5   0  0.3514294E-05  0.2753908E+04  0.7818609E-02  0.8317723E-01
       -2   -1    0    0    0  501  0.00000000000E+00  0.00000000000E+00  0.10022895853E+04  0.10022895853E+04  0.25500000920E-02 0. -1.
        2   -1    0    0  501    0  0.00000000000E+00  0.00000000000E+00 -0.18916712610E+04  0.18916712610E+04  0.25500000920E-02 0.  1.
    10030    2    1    2    0    0  0.00000000000E+00  0.00000000000E+00 -0.88938167564E+03  0.28939608463E+04  0.27539080622E+04 0.  0.
        2    1    3    3  502    0  0.50529407663E+03 -0.25483395404E+03 -0.17638144290E+04  0.18523778740E+04  0.25500000920E-02 0.  1.
       -2    1    3    3    0  502 -0.50529407663E+03  0.25483395404E+03  0.87443275340E+03  0.10415829723E+04  0.25500000920E-02 0. -1.
</event>
<event>
 5   0  0.3568647E-05  0.2595699E+04  0.7818609E-02  0.8369664E-01
        2   -1    0    0  501    0  0.00000000000E+00  0.00000000000E+00  0.16334721822E+04  0.16334721822E+04  0.25500000920E-02 0. -1.
       -2   -1    0    0    0  501  0.00000000000E+00  0.00000000000E+00 -0.10311858689E+04  0.10311858689E+04  0.25500000920E-02 0.  1.
    10030    2    1    2    0    0  0.00000000000E+00  0.00000000000E+00  0.60228631329E+03  0.26646580511E+04  0.25956990823E+04 0.  0.
        3    1    3    3  502    0 -0.58990694304E+03  0.75967541401E+02  0.14853277647E+04  0.15999874523E+04  0.10100000352E+00 0. -1.
       -3    1    3    3    0  502  0.58990694304E+03 -0.75967541401E+02 -0.88304145141E+03  0.10646705988E+04  0.10100000352E+00 0.  1.
</event>
<event>
 5   0  0.3568647E-05  0.2585472E+04  0.7818609E-02  0.8373153E-01
       -2   -1    0    0    0  501  0.00000000000E+00  0.00000000000E+00  0.70740840098E+03  0.70740840099E+03  0.25500000920E-02 0. -1.
        2   -1    0    0  501    0  0.00000000000E+00  0.00000000000E+00 -0.23623792146E+04  0.23623792146E+04  0.25500000920E-02 0.  1.
    10030    2    1    2    0    0  0.00000000000E+00  0.00000000000E+00 -0.16549708136E+04  0.30697876155E+04  0.25854724154E+04 0.  0.
        3    1    3    3  502    0 -0.51908632621E+03 -0.11838186579E+04 -0.80727777803E+03  0.15239995571E+04  0.10100000352E+00 0. -1.
       -3    1    3    3    0  502  0.51908632621E+03  0.11838186579E+04 -0.84769303554E+03  0.15457880584E+04  0.10100000352E+00 0.  1.
</event>
<event>
 5   0  0.1474012E-05  0.2797232E+04  0.7818609E-02  0.8304128E-01
        1   -1    0    0  501    0  0.00000000000E+00  0.00000000000E+00  0.13584150826E+04  0.13584150826E+04  0.50400001928E-02 0. -1.
       -1   -1    0    0    0  501  0.00000000000E+00  0.00000000000E+00 -0.14400061574E+04  0.14400061574E+04  0.50400001928E-02 0.  1.
    10030    2    1    2    0    0  0.00000000000E+00  0.00000000000E+00 -0.81591074805E+02  0.27984212401E+04  0.27972315480E+04 0.  0.
        2    1    3    3  502    0 -0.11139408281E+03 -0.12587624414E+04  0.55882116944E+03  0.13817281299E+04  0.25500000920E-02 0. -1.
       -2    1    3    3    0  502  0.11139408281E+03  0.12587624414E+04 -0.64041224424E+03  0.14166931101E+04  0.25500000920E-02 0.  1.
</event>
<event>
 5   0  0.3676724E-05  0.2761095E+04  0.7818609E-02  0.8315450E-01
       -2   -1    0    0    0  501  0.00000000000E+00  0.00000000000E+00  0.95314697233E+03  0.95314697233E+03  0.25500000920E-02 0. -1.
        2   -1    0    0  501    0  0.00000000000E+00  0.00000000000E+00 -0.19995979841E+04  0.19995979841E+04  0.25500000920E-02 0.  1.
    10030    2    1    2    0    0  0.00000000000E+00  0.00000000000E+00 -0.10464510117E+04  0.29527449564E+04  0.27610945398E+04 0.  0.
        4    1    3    3  502    0  0.40178879897E+03 -0.11206852454E+04  0.22424575269E+03  0.12114691200E+04  0.12699999809E+01 0. -1.
       -4    1    3    3    0  502 -0.40178879897E+03  0.11206852454E+04 -0.12706967644E+04  0.17412758364E+04  0.12699999809E+01 0.  1.
</event>
<event>
 5   0  0.3568647E-05  0.2325152E+04  0.7818609E-02  0.8468069E-01
        2   -1    0    0  501    0  0.00000000000E+00  0.00000000000E+00  0.90593309695E+03  0.90593309695E+03  0.25500000920E-02 0.  1.
       -2   -1    0    0    0  501  0.00000000000E+00  0.00000000000E+00 -0.14919239453E+04  0.14919239453E+04  0.25500000920E-02 0. -1.
    10030    2    1    2    0    0  0.00000000000E+00  0.00000000000E+00 -0.58599084836E+03  0.23978570423E+04  0.23251522791E+04 0.  0.
        3    1    3    3  502    0 -0.77276129845E+03 -0.39305447058E+03 -0.10917671677E+04  0.13941332074E+04  0.10100000352E+00 0. -1.
       -3    1    3    3    0  502  0.77276129845E+03  0.39305447058E+03  0.50577631938E+03  0.10037238349E+04  0.10100000352E+00 0.  1.
</event>
<event>
 5   0  0.3568647E-05  0.1510699E+04  0.7818609E-02  0.8877369E-01
        2   -1    0    0  501    0  0.00000000000E+00  0.00000000000E+00  0.51937833734E+03  0.51937833734E+03  0.25500000920E-02 0. -1.
       -2   -1    0    0    0  501  0.00000000000E+00  0.00000000000E+00 -0.10985310183E+04  0.10985310183E+04  0.25500000920E-02 0.  1.
    10030    2    1    2    0    0  0.00000000000E+00  0.00000000000E+00 -0.57915268093E+03  0.16179093556E+04  0.15106994589E+04 0.  0.
        3    1    3    3  502    0  0.25238568752E+03  0.67005891131E+03 -0.54722288960E+03  0.90118276781E+03  0.10100000352E+00 0.  1.
       -3    1    3    3    0  502 -0.25238568752E+03 -0.67005891131E+03 -0.31929791330E+02  0.71672658781E+03  0.10100000352E+00 0. -1.
</event>
<event>
 5   0  0.3568647E-05  0.2688732E+04  0.7818609E-02  0.8338670E-01
        2   -1    0    0  501    0  0.00000000000E+00  0.00000000000E+00  0.12823060001E+04  0.12823060001E+04  0.25500000920E-02 0. -1.
       -2   -1    0    0    0  501  0.00000000000E+00  0.00000000000E+00 -0.14094294929E+04  0.14094294929E+04  0.25500000920E-02 0.  1.
    10030    2    1    2    0    0  0.00000000000E+00  0.00000000000E+00 -0.12712349273E+03  0.26917354930E+04  0.26887319654E+04 0.  0.
        3    1    3    3  502    0 -0.36735875878E+03  0.70012593072E+02 -0.13563080977E+04  0.14069207110E+04  0.10100000352E+00 0.  1.
       -3    1    3    3    0  502  0.36735875878E+03 -0.70012593072E+02  0.12291846050E+04  0.12848147820E+04  0.10100000352E+00 0. -1.
</event>
<event>
 5   0  0.3497949E-05  0.2687009E+04  0.7818609E-02  0.8339233E-01
        2   -1    0    0  501    0  0.00000000000E+00  0.00000000000E+00  0.11898736599E+04  0.11898736599E+04  0.25500000920E-02 0. -1.
       -2   -1    0    0    0  501  0.00000000000E+00  0.00000000000E+00 -0.15169708842E+04  0.15169708842E+04  0.25500000920E-02 0.  1.
    10030    2    1    2    0    0  0.00000000000E+00  0.00000000000E+00 -0.32709722434E+03  0.27068445441E+04  0.26870085210E+04 0.  0.
        5    1    3    3  502    0 -0.99436799219E+03  0.23646702547E+03  0.71483855194E+03  0.12472772761E+04  0.46999998093E+01 0. -1.
       -5    1    3    3    0  502  0.99436799219E+03 -0.23646702547E+03 -0.10419357763E+04  0.14595672680E+04  0.46999998093E+01 0.  1.
</event>
<event>
 5   0  0.1449521E-05  0.2265262E+04  0.7818609E-02  0.8491745E-01
        1   -1    0    0  501    0  0.00000000000E+00  0.00000000000E+00  0.10316793793E+04  0.10316793794E+04  0.50400001928E-02 0.  1.
       -1   -1    0    0    0  501  0.00000000000E+00  0.00000000000E+00 -0.12434605339E+04  0.12434605339E+04  0.50400001928E-02 0. -1.
    10030    2    1    2    0    0  0.00000000000E+00  0.00000000000E+00 -0.21178115456E+03  0.22751399133E+04  0.22652616554E+04 0.  0.
        3    1    3    3  502    0  0.98580313121E+03 -0.12389179659E+03 -0.65204085674E+03  0.11884082968E+04  0.10100000352E+00 0. -1.
       -3    1    3    3    0  502 -0.98580313121E+03  0.12389179659E+03  0.44025970219E+03  0.10867316165E+04  0.10100000352E+00 0.  1.
</event>
<event>
 5   0  0.1474012E-05  0.2671246E+04  0.7818609E-02  0.8344395E-01
       -1   -1    0    0    0  501  0.00000000000E+00  0.00000000000E+00  0.89966065417E+03  0.89966065419E+03  0.50400001928E-02 0. -1.
        1   -1    0    0  501    0  0.00000000000E+00  0.00000000000E+00 -0.19828459163E+04  0.19828459163E+04  0.50400001928E-02 0.  1.
    10030    2    1    2    0    0  0.00000000000E+00  0.00000000000E+00 -0.10831852621E+04  0.28825065705E+04  0.26712457425E+04 0.  0.
        2    1    3    3  502    0 -0.14542561102E+03 -0.53418914252E+03 -0.18531969440E+04  0.19341265630E+04  0.25500000920E-02 0.  1.
       -2    1    3    3    0  502  0.14542561102E+03  0.53418914252E+03  0.77001168191E+03  0.94838000749E+03  0.25500000920E-02 0. -1.
</event>
<event>
 5   0  0.1438701E-05  0.2759269E+04  0.7818609E-02  0.8316026E-01
       -1   -1    0    0    0  501  0.00000000000E+00  0.00000000000E+00  0.12058527296E+04  0.12058527296E+04  0.50400001928E-02 0. -1.
        1   -1    0    0  501    0  0.00000000000E+00  0.00000000000E+00 -0.15784605713E+04  0.15784605713E+04  0.50400001928E-02 0.  1.
    10030    2    1    2    0    0  0.00000000000E+00  0.00000000000E+00 -0.37260784177E+03  0.27843133009E+04  0.27592687354E+04 0.  0.
        4    1    3    3  502    0 -0.27364930359E+03 -0.35702051534E+03 -0.15023818108E+04  0.15682794101E+04  0.12699999809E+01 0.  1.
       -4    1    3    3    0  502  0.27364930359E+03  0.35702051534E+03  0.11297739690E+04  0.12160338909E+04  0.12699999809E+01 0. -1.
</event>
<event>
 5   0  0.3568647E-05  0.2725887E+04  0.7818609E-02  0.8326654E-01
       -2   -1    0    0    0  501  0.00000000000E+00  0.00000000000E+00  0.13548844389E+04  0.13548844389E+04  0.25500000920E-02 0.  1.
        2   -1    0    0  501    0  0.00000000000E+00  0.00000000000E+00 -0.13710504552E+04  0.13710504552E+04  0.25500000920E-02 0. -1.
    10030    2    1    2    0    0  0.00000000000E+00  0.00000000000E+00 -0.16166016242E+02  0.27259348941E+04  0.27258869578E+04 0.  0.
        3    1    3    3  502    0 -0.82450630079E+03 -0.43755567107E+03  0.98508565959E+03  0.13570775115E+04  0.10100000352E+00 0.  1.
       -3    1    3    3    0  502  0.82450630079E+03  0.43755567107E+03 -0.10012516758E+04  0.13688573826E+04  0.10100000352E+00 0. -1.
</event>
<event>
 5   0  0.3568647E-05  0.2708397E+04  0.7818609E-02  0.8332286E-01
        2   -1    0    0  501    0  0.00000000000E+00  0.00000000000E+00  0.13066552400E+04  0.13066552400E+04  0.25500000920E-02 0.  1.
       -2   -1    0    0    0  501  0.00000000000E+00  0.00000000000E+00 -0.14034718431E+04  0.14034718431E+04  0.25500000920E-02 0. -1.
    10030    2    1    2    0    0  0.00000000000E+00  0.00000000000E+00 -0.96816603069E+02  0.27101270831E+04  0.27083971924E+04 0.  0.
        3    1    3    3  502    0  0.76163192724E+02  0.79992353004E+03 -0.11391390817E+04  0.13940288173E+04  0.10100000352E+00 0. -1.
       -3    1    3    3    0  502 -0.76163192724E+02 -0.79992353004E+03  0.10423224786E+04  0.13160982659E+04  0.10100000352E+00 0.  1.
</event>
<event>
 5   0  0.3652331E-05  0.1690867E+04  0.7818609E-02  0.8766590E-01
       -2   -1    0    0    0  501  0.00000000000E+00  0.00000000000E+00  0.51827699457E+03  0.51827699458E+03  0.25500000920E-02 0. -1.
        2   -1    0    0  501    0  0.00000000000E+00  0.00000000000E+00 -0.13791046051E+04  0.13791046051E+04  0.25500000920E-02 0.  1.
    10030    2    1    2    0    0  0.00000000000E+00  0.00000000000E+00 -0.86082761051E+03  0.18973815997E+04  0.16908674578E+04 0.  0.
        1    1    3    3  502    0  0.45583079715E+03 -0.59387163957E+03  0.10362418666E+02  0.74871397721E+03  0.50400001928E-02 0. -1.
       -1    1    3    3    0  502 -0.45583079715E+03  0.59387163957E+03 -0.87119002917E+03  0.11486676225E+04  0.50400001928E-02 0.  1.
</event>
<event>
 5   0  0.1484379E-05  0.2073209E+04  0.7818609E-02  0.8573138E-01
       -1   -1    0    0    0  501  0.00000000000E+00  0.00000000000E+00  0.61708629459E+03  0.61708629461E+03  0.50400001928E-02 0. -1.
        1   -1    0    0  501    0  0.00000000000E+00  0.00000000000E+00 -0.17413269288E+04  0.17413269288E+04  0.50400001928E-02 0.  1.
    10030    2    1    2    0    0  0.00000000000E+00  0.00000000000E+00 -0.11242406342E+04  0.23584132234E+04  0.20732090895E+04 0.  0.
        1    1    3    3  502    0  0.10473411777E+03  0.43739603223E+03  0.50031105250E+03  0.67275231231E+03  0.50400001928E-02 0. -1.
       -1    1    3    3    0  502 -0.10473411777E+03 -0.43739603223E+03 -0.16245516867E+04  0.16856609111E+04  0.50400001928E-02 0.  1.
</event>
<event>
 5   0  0.3514294E-05  0.2594731E+04  0.7818609E-02  0.8369993E-01
       -2   -1    0    0    0  501  0.00000000000E+00  0.00000000000E+00  0.75204839599E+03  0.75204839600E+03  0.25500000920E-02 0. -1.
        2   -1    0    0  501    0  0.00000000000E+00  0.00000000000E+00 -0.22380977315E+04  0.22380977315E+04  0.25500000920E-02 0.  1.
    10030    2    1    2    0    0  0.00000000000E+00  0.00000000000E+00 -0.14860493356E+04  0.29901461275E+04  0.25947314382E+04 0.  0.
        2    1    3    3  502    0 -0.38428080864E+03  0.11807110914E+04 -0.30967741411E+03  0.12797072017E+04  0.25500000920E-02 0. -1.
       -2    1    3    3    0  502  0.38428080864E+03 -0.11807110914E+04 -0.11763719214E+04  0.17104389258E+04  0.25500000920E-02 0.  1.
</event>
<event>
 5   0  0.3568647E-05  0.2628716E+04  0.7818609E-02  0.8358512E-01
        2   -1    0    0  501    0  0.00000000000E+00  0.00000000000E+00  0.17713085521E+04  0.17713085521E+04  0.25500000920E-02 0.  1.
       -2   -1    0    0    0  501  0.00000000000E+00  0.00000000000E+00 -0.97528859808E+03  0.97528859808E+03  0.25500000920E-02 0. -1.
    10030    2    1    2    0    0  0.00000000000E+00  0.00000000000E+00  0.79601995399E+03  0.27465971502E+04  0.26287160627E+04 0.  0.
        3    1    3    3  502    0 -0.10624178836E+04 -0.62315016202E+03 -0.81354815456E+02  0.12343688671E+04  0.10100000352E+00 0. -1.
       -3    1    3    3    0  502  0.10624178836E+04  0.62315016202E+03  0.87737476945E+03  0.15122282831E+04  0.10100000352E+00 0.  1.
</event>
<event>
 5   0  0.1484379E-05  0.2627586E+04  0.7818609E-02  0.8358891E-01
       -1   -1    0    0    0  501  0.00000000000E+00  0.00000000000E+00  0.73758220877E+03  0.73758220878E+03  0.50400001928E-02 0. -1.
        1   -1    0    0  501    0  0.00000000000E+00  0.00000000000E+00 -0.23401480367E+04  0.23401480367E+04  0.50400001928E-02 0.  1.
    10030    2    1    2    0    0  0.00000000000E+00  0.00000000000E+00 -0.16025658279E+04  0.30777302455E+04  0.26275856277E+04 0.  0.
        1    1    3    3  502    0 -0.48850432077E+03  0.63737089233E+03  0.41664436342E+03  0.90469367821E+03  0.50400001928E-02 0. -1.
       -1    1    3    3    0  502  0.48850432077E+03 -0.63737089233E+03 -0.20192101913E+04  0.21730365673E+04  0.50400001928E-02 0.  1.
</event>
<event>
 5   0  0.3676724E-05  0.2614355E+04  0.7818609E-02  0.8363342E-01
        2   -1    0    0  501    0  0.00000000000E+00  0.00000000000E+00  0.19845454085E+04  0.19845454085E+04  0.25500000920E-02 0.  1.
       -2   -1    0    0    0  501  0.00000000000E+00  0.00000000000E+00 -0.86100951243E+03  0.86100951243E+03  0.25500000920E-02 0. -1.
    10030    2    1    2    0    0  0.00000000000E+00  0.00000000000E+00  0.11235358961E+04  0.28455549210E+04  0.26143545854E+04 0.  0.
        4    1    3    3  502    0 -0.12312888992E+04 -0.41859509949E+03  0.70541106023E+03  0.14794933550E+04  0.12699999809E+01 0. -1.
       -4    1    3    3    0  502  0.12312888992E+04  0.41859509949E+03  0.41812483587E+03  0.13660615660E+04  0.12699999809E+01 0.  1.
</event>
<event>
 5   0  0.1495517E-05  0.2647061E+04  0.7818609E-02  0.8352389E-01
       -1   -1    0    0    0  501  0.00000000000E+00  0.00000000000E+00  0.78149712818E+03  0.78149712820E+03  0.50400001928E-02 0.  1.
        1   -1    0    0  501    0  0.00000000000E+00  0.00000000000E+00 -0.22415084101E+04  0.22415084101E+04  0.50400001928E-02 0. -1.
    10030    2    1    2    0    0  0.00000000000E+00  0.00000000000E+00 -0.14600112819E+04  0.30230055383E+04  0.26470605473E+04 0.  0.
        5    1    3    3  502    0  0.11428143319E+04  0.40087068704E+03 -0.12034430721E+03  0.12170565916E+04  0.46999998093E+01 0.  1.
       -5    1    3    3    0  502 -0.11428143319E+04 -0.40087068704E+03 -0.13396669747E+04  0.18059489467E+04  0.46999998093E+01 0. -1.
</event>
<event>
 5   0  0.3497949E-05  0.2650038E+04  0.7818609E-02  0.8351400E-01
        2   -1    0    0  501    0  0.00000000000E+00  0.00000000000E+00  0.10914929128E+04  0.10914929129E+04  0.25500000920E-02 0.  1.
       -2   -1    0    0    0  501  0.00000000000E+00  0.00000000000E+00 -0.16085086381E+04  0.16085086381E+04  0.25500000920E-02 0. -1.
    10030    2    1    2    0    0  0.00000000000E+00  0.00000000000E+00 -0.51701572521E+03  0.27000015509E+04  0.26500383233E+04 0.  0.
        5    1    3    3  502    0  0.11246830771E+04 -0.69338190521E+03 -0.36020559013E+03  0.13694745881E+04  0.46999998093E+01 0. -1.
       -5    1    3    3    0  502 -0.11246830771E+04  0.69338190521E+03 -0.15681013508E+03  0.13305269628E+04  0.46999998093E+01 0.  1.
</event>
<event>
 5   0  0.3676724E-05  0.2339882E+04  0.7818609E-02  0.8462360E-01
        2   -1    0    0  501    0  0.00000000000E+00  0.00000000000E+00  0.23580285457E+04  0.23580285457E+04  0.25500000920E-02 0.  1.
       -2   -1    0    0    0  501  0.00000000000E+00  0.00000000000E+00 -0.58046890883E+03  0.58046890884E+03  0.25500000920E-02 0. -1.
    10030    2    1    2    0    0  0.00000000000E+00  0.00000000000E+00  0.17775596368E+04  0.29384974545E+04  0.23398822679E+04 0.  0.
        4    1    3    3  502    0  0.95449383666E+03  0.63509486866E+03  0.11815708194E+04  0.16463642339E+04  0.12699999809E+01 0. -1.
       -4    1    3    3    0  502 -0.95449383666E+03 -0.63509486866E+03  0.59598881738E+03  0.12921332206E+04  0.12699999809E+01 0.  1.
</event>
<event>
 5   0  0.3568647E-05  0.2646681E+04  0.7818609E-02  0.8352515E-01
       -2   -1    0    0    0  501  0.00000000000E+00  0.00000000000E+00  0.75329442605E+03  0.75329442606E+03  0.25500000920E-02 0.  1.
        2   -1    0    0  501    0  0.00000000000E+00  0.00000000000E+00 -0.23247624315E+04  0.23247624315E+04  0.25500000920E-02 0. -1.
    10030    2    1    2    0    0  0.00000000000E+00  0.00000000000E+00 -0.15714680055E+04  0.30780568576E+04  0.26466813798E+04 0.  0.
        3    1    3    3  502    0 -0.19086838641E+03 -0.10003354916E+04 -0.17685296628E+04  0.20407839217E+04  0.10100000352E+00 0. -1.
       -3    1    3    3    0  502  0.19086838641E+03  0.10003354916E+04  0.19706165728E+03  0.10372729359E+04  0.10100000352E+00 0.  1.
</event>
<event>
 5   0  0.3568647E-05  0.2762210E+04  0.7818609E-02  0.8315098E-01
       -2   -1    0    0    0  501  0.00000000000E+00  0.00000000000E+00  0.11462678737E+04  0.11462678737E+04  0.25500000920E-02 0.  1.
        2   -1    0    0  501    0  0.00000000000E+00  0.00000000000E+00 -0.16640535076E+04  0.16640535076E+04  0.25500000920E-02 0. -1.
    10030    2    1    2    0    0  0.00000000000E+00  0.00000000000E+00 -0.51778563386E+03  0.28103213813E+04  0.27622100397E+04 0.  0.
        3    1    3    3  502    0  0.12255528668E+04  0.16421156792E+02  0.38874895793E+03  0.12858363994E+04  0.10100000352E+00 0.  1.
       -3    1    3    3    0  502 -0.12255528668E+04 -0.16421156792E+02 -0.90653459178E+03  0.15244849819E+04  0.10100000352E+00 0. -1.
</event>
<event>
 5   0  0.3514294E-05  0.2693757E+04  0.7818609E-02  0.8337033E-01
       -2   -1    0    0    0  501  0.00000000000E+00  0.00000000000E+00  0.80999859937E+03  0.80999859938E+03  0.25500000920E-02 0.  1.
        2   -1    0    0  501    0  0.00000000000E+00  0.00000000000E+00 -0.22396115733E+04  0.22396115733E+04  0.25500000920E-02 0. -1.
    10030    2    1    2    0    0  0.00000000000E+00  0.00000000000E+00 -0.14296129739E+04  0.30496101727E+04  0.26937574037E+04 0.  0.
        2    1    3    3  502    0 -0.30236829242E+03 -0.12018225326E+03 -0.21944487083E+04  0.22184398779E+04  0.25500000920E-02 0. -1.
       -2    1    3    3    0  502  0.30236829242E+03  0.12018225326E+03  0.76483573443E+03  0.83117029478E+03  0.25500000920E-02 0.  1.
</event>
<event>
 5   0  0.3568647E-05  0.2641777E+04  0.7818609E-02  0.8354147E-01
       -2   -1    0    0    0  501  0.00000000000E+00  0.00000000000E+00  0.11797847175E+04  0.11797847175E+04  0.25500000920E-02 0. -1.
        2   -1    0    0  501    0  0.00000000000E+00  0.00000000000E+00 -0.14788687007E+04  0.14788687007E+04  0.25500000920E-02 0.  1.
    10030    2    1    2    0    0  0.00000000000E+00  0.00000000000E+00 -0.29908398324E+03  0.26586534182E+04  0.26417771989E+04 0.  0.
        3    1    3    3  502    0  0.63815110225E+02 -0.93996050757E+03 -0.10812795201E+04  0.14341420902E+04  0.10100000352E+00 0.  1.
       -3    1    3    3    0  502 -0.63815110225E+02  0.93996050757E+03  0.78219553691E+03  0.12245113279E+04  0.10100000352E+00 0. -1.
</event>
<event>
 5   0  0.1495517E-05  0.2809805E+04  0.7818609E-02  0.8300231E-01
        1   -1    0    0  501    0  0.00000000000E+00  0.00000000000E+00  0.23893514351E+04  0.23893514351E+04  0.50400001928E-02 0. -1.
       -1   -1    0    0    0  501  0.00000000000E+00  0.00000000000E+00 -0.82606161120E+03  0.82606161122E+03  0.50400001928E-02 0.  1.
    10030    2    1    2    0    0  0.00000000000E+00  0.00000000000E+00  0.15632898239E+04  0.32154130464E+04  0.28098053287E+04 0.  0.
        5    1    3    3  502    0  0.13853704148E+04 -0.21794215019E+03  0.87724775464E+03  0.16541873171E+04  0.46999998093E+01 0. -1.
       -5    1    3    3    0  502 -0.13853704148E+04  0.21794215019E+03  0.68604206930E+03  0.15612257293E+04  0.46999998093E+01 0.  1.
</event>
<event>
 5   0  0.3652331E-05  0.2689483E+04  0.7818609E-02  0.8338425E-01
        2   -1    0    0  501    0  0.00000000000E+00  0.00000000000E+00  0.24880950764E+04  0.24880950764E+04  0.25500000920E-02 0. -1.
       -2   -1    0    0    0  501  0.00000000000E+00  0.00000000000E+00 -0.72679293168E+03  0.72679293168E+03  0.25500000920E-02 0.  1.
    10030    2    1    2    0    0  0.00000000000E+00  0.00000000000E+00  0.17613021447E+04  0.32148880081E+04  0.26894831584E+04 0.  0.
        1    1    3    3  502    0 -0.45106305334E+03  0.92624634360E+03  0.19137449907E+04  0.21734327817E+04  0.50400001928E-02 0.  1.
       -1    1    3    3    0  502  0.45106305334E+03 -0.92624634360E+03 -0.15244284603E+03  0.10414552263E+04  0.50400001928E-02 0. -1.
</event>
<event>
 5   0  0.1449521E-05  0.2652231E+04  0.7818609E-02  0.8350673E-01
       -1   -1    0    0    0  501  0.00000000000E+00  0.00000000000E+00  0.10558428149E+04  0.10558428149E+04  0.50400001928E-02 0. -1.
        1   -1    0    0  501    0  0.00000000000E+00  0.00000000000E+00 -0.16655716264E+04  0.16655716264E+04  0.50400001928E-02 0.  1.
    10030    2    1    2    0    0  0.00000000000E+00  0.00000000000E+00 -0.60972881152E+03  0.27214144413E+04  0.26522306344E+04 0.  0.
        3    1    3    3  502    0  0.25005114413E+03  0.10797949225E+04  0.44220673878E+03  0.11933270546E+04  0.10100000352E+00 0. -1.
       -3    1    3    3    0  502 -0.25005114413E+03 -0.10797949225E+04 -0.10519355503E+04  0.15280873867E+04  0.10100000352E+00 0.  1.
</event>
<event>
 5   0  0.3676724E-05  0.2669885E+04  0.7818609E-02  0.8344843E-01
       -2   -1    0    0    0  501  0.00000000000E+00  0.00000000000E+00  0.17020013128E+04  0.17020013128E+04  0.25500000920E-02 0.  1.
        2   -1    0    0  501    0  0.00000000000E+00  0.00000000000E+00 -0.10470450011E+04  0.10470450011E+04  0.25500000920E-02 0. -1.
    10030    2    1    2    0    0  0.00000000000E+00  0.00000000000E+00  0.65495631175E+03  0.27490463139E+04  0.26698853657E+04 0.  0.
        4    1    3    3  502    0  0.19336062812E+03 -0.49465930330E+03 -0.93357743186E+03  0.10740784855E+04  0.12699999809E+01 0. -1.
       -4    1    3    3    0  502 -0.19336062812E+03  0.49465930330E+03  0.15885337436E+04  0.16749678284E+04  0.12699999809E+01 0.  1.
</event>
<event>
 5   0  0.3676724E-05  0.1444133E+04  0.7818609E-02  0.8922478E-01
        2   -1    0    0  501    0  0.00000000000E+00  0.00000000000E+00  0.98578236539E+03  0.98578236539E+03  0.25500000920E-02 0. -1.
       -2   -1    0    0    0  501  0.00000000000E+00  0.00000000000E+00 -0.52889947096E+03  0.52889947097E+03  0.25500000920E-02 0.  1.
    10030    2    1    2    0    0  0.00000000000E+00  0.00000000000E+00  0.45688289443E+03  0.15146818364E+04  0.14441326415E+04 0.  0.
        4    1    3    3  502    0  0.15269373551E+03  0.52499902903E+03 -0.26623314695E+03  0.60812914647E+03  0.12699999809E+01 0.  1.
       -4    1    3    3    0  502 -0.15269373551E+03 -0.52499902903E+03  0.72311604138E+03  0.90655268989E+03  0.12699999809E+01 0. -1.
</event>
<event>
 5   0  0.1228050E-05  0.2652809E+04  0.7818609E-02  0.8350481E-01
        3   -1    0    0  501    0  0.00000000000E+00  0.00000000000E+00  0.10092887542E+04  0.10092887593E+04  0.10100000352E+00 0. -1.
       -3   -1    0    0    0  501  0.00000000000E+00  0.00000000000E+00 -0.17431573242E+04  0.17431573271E+04  0.10100000352E+00 0.  1.
    10030    2    1    2    0    0  0.00000000000E+00  0.00000000000E+00 -0.73386856994E+03  0.27524460864E+04  0.26528091489E+04 0.  0.
        1    1    3    3  502    0 -0.80443100789E+03 -0.62348256239E+03 -0.12494752764E+04  0.16115297758E+04  0.50400001928E-02 0.  1.
       -1    1    3    3    0  502  0.80443100789E+03  0.62348256239E+03  0.51560670641E+03  0.11409163106E+04  0.50400001928E-02 0. -1.
</event>
<event>
 5   0  0.3676724E-05  0.1404102E+04  0.7818609E-02  0.8950855E-01
        2   -1    0    0  501    0  0.00000000000E+00  0.00000000000E+00  0.15764314455E+04  0.15764314455E+04  0.25500000920E-02 0.  1.
       -2   -1    0    0    0  501  0.00000000000E+00  0.00000000000E+00 -0.31265283226E+03  0.31265283227E+03  0.25500000920E-02 0. -1.
    10030    2    1    2    0    0  0.00000000000E+00  0.00000000000E+00  0.12637786132E+04  0.18890842778E+04  0.14041022132E+04 0.  0.
        4    1    3    3  502    0  0.66862021842E+03 -0.18213178822E+03  0.48057380240E+03  0.84331356992E+03  0.12699999809E+01 0. -1.
       -4    1    3    3    0  502 -0.66862021842E+03  0.18213178822E+03  0.78320481084E+03  0.10457707078E+04  0.12699999809E+01 0.  1.
</event>
<event>
 5   0  0.3652331E-05  0.1758280E+04  0.7818609E-02  0.8728806E-01
        2   -1    0    0  501    0  0.00000000000E+00  0.00000000000E+00  0.15060167580E+04  0.15060167581E+04  0.25500000920E-02 0.  1.
       -2   -1    0    0    0  501  0.00000000000E+00  0.00000000000E+00 -0.51319975230E+03  0.51319975230E+03  0.25500000920E-02 0. -1.
    10030    2    1    2    0    0  0.00000000000E+00  0.00000000000E+00  0.99281700575E+03  0.20192165104E+04  0.17582803271E+04 0.  0.
        1    1    3    3  502    0 -0.68047175716E+03 -0.36730114031E+03  0.97673188782E+03  0.12457757104E+04  0.50400001928E-02 0. -1.
       -1    1    3    3    0  502  0.68047175716E+03  0.36730114031E+03  0.16085117932E+02  0.77344079994E+03  0.50400001928E-02 0.  1.
</event>
<event>
 5   0  0.1438701E-05  0.1717698E+04  0.7818609E-02  0.8751334E-01
       -1   -1    0    0    0  501  0.00000000000E+00  0.00000000000E+00  0.36674206573E+03  0.36674206576E+03  0.50400001928E-02 0. -1.
        1   -1    0    0  501    0  0.00000000000E+00  0.00000000000E+00 -0.20112828269E+04  0.20112828269E+04  0.50400001928E-02 0.  1.
    10030    2    1    2    0    0  0.00000000000E+00  0.00000000000E+00 -0.16445407612E+04  0.23780248927E+04  0.17176984820E+04 0.  0.
        4    1    3    3  502    0 -0.42330206151E+03 -0.74722514195E+03 -0.80911048997E+03  0.11799116263E+04  0.12699999809E+01 0.  1.
       -4    1    3    3    0  502  0.42330206151E+03  0.74722514195E+03 -0.83543027120E+03  0.11981132663E+04  0.12699999809E+01 0. -1.
</event>
<event>
 5   0  0.1228050E-05  0.2823455E+04  0.7818609E-02  0.8296023E-01
       -3   -1    0    0    0  501  0.00000000000E+00  0.00000000000E+00  0.14778178562E+04  0.14778178597E+04  0.10100000352E+00 0.  1.
        3   -1    0    0  501    0  0.00000000000E+00  0.00000000000E+00 -0.13485928664E+04  0.13485928702E+04  0.10100000352E+00 0. -1.
    10030    2    1    2    0    0  0.00000000000E+00  0.00000000000E+00  0.12922498980E+03  0.28264107298E+04  0.28234550671E+04 0.  0.
        5    1    3    3  502    0 -0.22426983548E+03  0.13677666124E+04 -0.20375408921E+03  0.14009355031E+04  0.46999998093E+01 0.  1.
       -5    1    3    3    0  502  0.22426983548E+03 -0.13677666124E+04  0.33297907901E+03  0.14254752267E+04  0.46999998093E+01 0. -1.
</event>
<event>
 5   0  0.1495517E-05  0.1935570E+04  0.7818609E-02  0.8637351E-01
        1   -1    0    0  501    0  0.00000000000E+00  0.00000000000E+00  0.14119244597E+04  0.14119244597E+04  0.50400001928E-02 0. -1.
       -1   -1    0    0    0  501  0.00000000000E+00  0.00000000000E+00 -0.66335534561E+03  0.66335534563E+03  0.50400001928E-02 0.  1.
    10030    2    1    2    0    0  0.00000000000E+00  0.00000000000E+00  0.74856911411E+03  0.20752798054E+04  0.19355698262E+04 0.  0.
        5    1    3    3  502    0  0.19748542988E+03 -0.44036742114E+03 -0.52510893057E+03  0.71322187262E+03  0.46999998093E+01 0.  1.
       -5    1    3    3    0  502 -0.19748542988E+03  0.44036742114E+03  0.12736780447E+04  0.13620579327E+04  0.46999998093E+01 0. -1.
</event>
<event>
 5   0  0.3676724E-05  0.2679804E+04  0.7818609E-02  0.8341588E-01
        2   -1    0    0  501    0  0.00000000000E+00  0.00000000000E+00  0.22328730566E+04  0.22328730567E+04  0.25500000920E-02 0.  1.
       -2   -1    0    0    0  501  0.00000000000E+00  0.00000000000E+00 -0.80404793735E+03  0.80404793735E+03  0.25500000920E-02 0. -1.
    10030    2    1    2    0    0  0.00000000000E+00  0.00000000000E+00  0.14288251193E+04  0.30369209940E+04  0.26798037059E+04 0.  0.
        4    1    3    3  502    0 -0.69042677106E+02  0.10935873890E+04 -0.15947544647E+03  0.11073094868E+04  0.12699999809E+01 0. -1.
       -4    1    3    3    0  502  0.69042677106E+02 -0.10935873890E+04  0.15883005658E+04  0.19296115072E+04  0.12699999809E+01 0.  1.
</event>
<event>
 5   0  0.3652331E-05  0.2631003E+04  0.7818609E-02  0.8357746E-01
        2   -1    0    0  501    0  0.00000000000E+00  0.00000000000E+00  0.25579546165E+04  0.25579546165E+04  0.25500000920E-02 0.  1.
       -2   -1    0    0    0  501  0.00000000000E+00  0.00000000000E+00 -0.67653456943E+03  0.67653456943E+03  0.25500000920E-02 0. -1.
    10030    2    1    2    0    0  0.00000000000E+00  0.00000000000E+00  0.18814200471E+04  0.32344891860E+04  0.26310034018E+04 0.  0.
        1    1    3    3  502    0 -0.44692351290E+03  0.21029492864E+02 -0.58012239153E+03  0.73261507979E+03  0.50400001928E-02 0. -1.
       -1    1    3    3    0  502  0.44692351290E+03 -0.21029492864E+02  0.24615424386E+04  0.25018741062E+04  0.50400001928E-02 0.  1.
</event>
<event>
 5   0  0.3514294E-05  0.2720801E+04  0.7818609E-02  0.8328287E-01
       -2   -1    0    0    0  501  0.00000000000E+00  0.00000000000E+00  0.64984886702E+03  0.64984886702E+03  0.25500000920E-02 0. -1.
        2   -1    0    0  501    0  0.00000000000E+00  0.00000000000E+00 -0.28478772264E+04  0.28478772264E+04  0.25500000920E-02 0.  1.
    10030    2    1    2    0    0  0.00000000000E+00  0.00000000000E+00 -0.21980283593E+04  0.34977260934E+04  0.27208011974E+04 0.  0.
        2    1    3    3  502    0 -0.89608107313E+03  0.95810729026E+03 -0.63593250259E+03  0.14578549369E+04  0.25500000920E-02 0. -1.
       -2    1    3    3    0  502  0.89608107313E+03 -0.95810729026E+03 -0.15620958567E+04  0.20398711565E+04  0.25500000920E-02 0.  1.
</event>
<event>
 5   0  0.3497949E-05  0.2630728E+04  0.7818609E-02  0.8357838E-01
        2   -1    0    0  501    0  0.00000000000E+00  0.00000000000E+00  0.12968729800E+04  0.12968729800E+04  0.25500000920E-02 0. -1.
       -2   -1    0    0    0  501  0.00000000000E+00  0.00000000000E+00 -0.13341187818E+04  0.13341187818E+04  0.25500000920E-02 0.  1.
    10030    2    1    2    0    0  0.00000000000E+00  0.00000000000E+00 -0.37245801753E+02  0.26309917618E+04  0.26307281123E+04 0.  0.
        5    1    3    3  502    0  0.53866851111E+03 -0.10473658486E+04 -0.60436199179E+03  0.13237879335E+04  0.46999998093E+01 0.  1.
       -5    1    3    3    0  502 -0.53866851111E+03  0.10473658486E+04  0.56711619004E+03  0.13072038283E+04  0.46999998093E+01 0. -1.
</event>
<event>
 5   0  0.3514294E-05  0.2742504E+04  0.7818609E-02  0.8321344E-01
        2   -1    0    0  501    0  0.00000000000E+00  0.00000000000E+00  0.21576223497E+04  0.21576223497E+04  0.25500000920E-02 0.  1.
       -2   -1    0    0    0  501  0.00000000000E+00  0.00000000000E+00 -0.87148363142E+03  0.87148363142E+03  0.25500000920E-02 0. -1.
    10030    2    1    2    0    0  0.00000000000E+00  0.00000000000E+00  0.12861387183E+04  0.30291059811E+04  0.27425043741E+04 0.  0.
        2    1    3    3  502    0 -0.42311302025E+03  0.27620111993E+03 -0.76491104870E+03  0.91673365760E+03  0.25500000920E-02 0. -1.
       -2    1    3    3    0  502  0.42311302025E+03 -0.27620111993E+03  0.20510497670E+04  0.21123723235E+04  0.25500000920E-02 0.  1.
</event>
<event>
 5   0  0.1449521E-05  0.2716388E+04  0.7818609E-02  0.8329707E-01
       -1   -1    0    0    0  501  0.00000000000E+00  0.00000000000E+00  0.10971783132E+04  0.10971783133E+04  0.50400001928E-02 0.  1.
        1   -1    0    0  501    0  0.00000000000E+00  0.00000000000E+00 -0.16813049024E+04  0.16813049024E+04  0.50400001928E-02 0. -1.
    10030    2    1    2    0    0  0.00000000000E+00  0.00000000000E+00 -0.58412658915E+03  0.27784832157E+04  0.27163882468E+04 0.  0.
        3    1    3    3  502    0  0.11528315816E+04 -0.68653093466E+02  0.43908970521E+03  0.12355297173E+04  0.10100000352E+00 0.  1.
       -3    1    3    3    0  502 -0.11528315816E+04  0.68653093466E+02 -0.10232162944E+04  0.15429534984E+04  0.10100000352E+00 0. -1.
</event>
<event>
 5   0  0.3652331E-05  0.2821823E+04  0.7818609E-02  0.8296525E-01
        2   -1    0    0  501    0  0.00000000000E+00  0.00000000000E+00  0.17684749434E+04  0.17684749434E+04  0.25500000920E-02 0.  1.
       -2   -1    0    0    0  501  0.00000000000E+00  0.00000000000E+00 -0.11256430413E+04  0.11256430413E+04  0.25500000920E-02 0. -1.
    10030    2    1    2    0    0  0.00000000000E+00  0.00000000000E+00  0.64283190210E+03  0.28941179846E+04  0.28218231792E+04 0.  0.
        1    1    3    3  502    0 -0.12186293088E+04  0.70662499464E+03  0.24004066599E+03  0.14289841835E+04  0.50400001928E-02 0. -1.
       -1    1    3    3    0  502  0.12186293088E+04 -0.70662499464E+03  0.40279123612E+03  0.14651338011E+04  0.50400001928E-02 0.  1.
</event>
<event>
 5   0  0.1474012E-05  0.2180241E+04  0.7818609E-02  0.8526697E-01
        1   -1    0    0  501    0  0.00000000000E+00  0.00000000000E+00  0.19110905393E+04  0.19110905393E+04  0.50400001928E-02 0.  1.
       -1   -1    0    0    0  501  0.00000000000E+00  0.00000000000E+00 -0.62182439686E+03  0.62182439689E+03  0.50400001928E-02 0. -1.
    10030    2    1    2    0    0  0.00000000000E+00  0.00000000000E+00  0.12892661425E+04  0.25329149362E+04  0.21802410160E+04 0.  0.
        2    1    3    3  502    0 -0.17929594792E+03 -0.40989718659E+03 -0.51025134226E+03  0.67861562965E+03  0.25500000920E-02 0. -1.
       -2    1    3    3    0  502  0.17929594792E+03  0.40989718659E+03  0.17995174847E+04  0.18542993066E+04  0.25500000920E-02 0.  1.
</event>
<event>
 5   0  0.1438701E-05  0.2467602E+04  0.7818609E-02  0.8414619E-01
       -1   -1    0    0    0  501  0.00000000000E+00  0.00000000000E+00  0.85358844700E+03  0.85358844701E+03  0.50400001928E-02 0. -1.
        1   -1    0    0  501    0  0.00000000000E+00  0.00000000000E+00 -0.17833707905E+04  0.17833707905E+04  0.50400001928E-02 0.  1.
    10030    2    1    2    0    0  0.00000000000E+00  0.00000000000E+00 -0.92978234351E+03  0.26369592375E+04  0.24676018346E+04 0.  0.
        4    1    3    3  502    0  0.12006627366E+04 -0.68469898682E+02 -0.17032065011E+03  0.12146151122E+04  0.12699999809E+01 0. -1.
       -4    1    3    3    0  502 -0.12006627366E+04  0.68469898682E+02 -0.75946169340E+03  0.14223441253E+04  0.12699999809E+01 0.  1.
</event>
<event>
 5   0  0.3568647E-05  0.1598407E+04  0.7818609E-02  0.8821527E-01
        2   -1    0    0  501    0  0.00000000000E+00  0.00000000000E+00  0.22653850785E+04  0.22653850785E+04  0.25500000920E-02 0. -1.
       -2   -1    0    0    0  501  0.00000000000E+00  0.00000000000E+00 -0.28195045890E+03  0.28195045892E+03  0.25500000920E-02 0.  1.
    10030    2    1    2    0    0  0.00000000000E+00  0.00000000000E+00  0.19834346196E+04  0.25473355375E+04  0.15984071603E+04 0.  0.
        3    1    3    3  502    0 -0.13189324174E+03 -0.78425631396E+03  0.11179352589E+04  0.13719449867E+04  0.10100000352E+00 0.  1.
       -3    1    3    3    0  502  0.13189324174E+03  0.78425631396E+03  0.86549936072E+03  0.11753905508E+04  0.10100000352E+00 0. -1.
</event>
<event>
 5   0  0.3497949E-05  0.2247811E+04  0.7818609E-02  0.8498788E-01
       -2   -1    0    0    0  501  0.00000000000E+00  0.00000000000E+00  0.11965995947E+04  0.11965995947E+04  0.25500000920E-02 0. -1.
        2   -1    0    0  501    0  0.00000000000E+00  0.00000000000E+00 -0.10556274678E+04  0.10556274678E+04  0.25500000920E-02 0.  1.
    10030    2    1    2    0    0  0.00000000000E+00  0.00000000000E+00  0.14097212686E+03  0.22522270625E+04  0.22478108463E+04 0.  0.
        5    1    3    3  502    0 -0.25585641477E+03  0.53470888877E+03 -0.88625390762E+03  0.10662289527E+04  0.46999998093E+01 0.  1.
       -5    1    3    3    0  502  0.25585641477E+03 -0.53470888877E+03  0.10272260345E+04  0.11859981099E+04  0.46999998093E+01 0. -1.
</event>
<event>
 5   0  0.1228050E-05  0.2780317E+04  0.7818609E-02  0.8309405E-01
        3   -1    0    0  501    0  0.00000000000E+00  0.00000000000E+00  0.27095601560E+04  0.27095601579E+04  0.10100000352E+00 0.  1.
       -3   -1    0    0    0  501  0.00000000000E+00  0.00000000000E+00 -0.71323063319E+03  0.71323064034E+03  0.10100000352E+00 0. -1.
    10030    2    1    2    0    0  0.00000000000E+00  0.00000000000E+00  0.19963295228E+04  0.34227907982E+04  0.27803174791E+04 0.  0.
        3    1    3    3  502    0 -0.13674842018E+04 -0.22430595672E+03  0.11342260552E+04  0.17907526236E+04  0.10100000352E+00 0.  1.
       -3    1    3    3    0  502  0.13674842018E+04  0.22430595672E+03  0.86210346767E+03  0.16320381747E+04  0.10100000352E+00 0. -1.
</event>
<event>
 5   0  0.3497949E-05  0.2696615E+04  0.7818609E-02  0.8336104E-01
        2   -1    0    0  501    0  0.00000000000E+00  0.00000000000E+00  0.21754448692E+04  0.21754448692E+04  0.25500000920E-02 0. -1.
       -2   -1    0    0    0  501  0.00000000000E+00  0.00000000000E+00 -0.83566069648E+03  0.83566069649E+03  0.25500000920E-02 0.  1.
    10030    2    1    2    0    0  0.00000000000E+00  0.00000000000E+00  0.13397841727E+04  0.30111055657E+04  0.26966154895E+04 0.  0.
        5    1    3    3  502    0  0.40532475488E+03  0.94239833973E+03 -0.30707982603E+03  0.10708514823E+04  0.46999998093E+01 0.  1.
       -5    1    3    3    0  502 -0.40532475488E+03 -0.94239833973E+03  0.16468639988E+04  0.19402540834E+04  0.46999998093E+01 0. -1.
</event>
<event>
 5   0  0.3652331E-05  0.2730439E+04  0.7818609E-02  0.8325196E-01
       -2   -1    0    0    0  501  0.00000000000E+00  0.00000000000E+00  0.11276809803E+04  0.11276809803E+04  0.25500000920E-02 0. -1.
        2   -1    0    0  501    0  0.00000000000E+00  0.00000000000E+00 -0.16527942077E+04  0.16527942077E+04  0.25500000920E-02 0.  1.
    10030    2    1    2    0    0  0.00000000000E+00  0.00000000000E+00 -0.52511322740E+03  0.27804751880E+04  0.27304392265E+04 0.  0.
        1    1    3    3  502    0  0.63964706737E+03  0.34635880111E+03  0.91391176817E+03  0.11680528712E+04  0.50400001928E-02 0. -1.
       -1    1    3    3    0  502 -0.63964706737E+03 -0.34635880111E+03 -0.14390249956E+04  0.16124223168E+04  0.50400001928E-02 0.  1.
</event>
<event>
 5   0  0.1438701E-05  0.2724381E+04  0.7818609E-02  0.8327137E-01
        1   -1    0    0  501    0  0.00000000000E+00  0.00000000000E+00  0.21331973824E+04  0.21331973824E+04  0.50400001928E-02 0. -1.
       -1   -1    0    0    0  501  0.00000000000E+00  0.00000000000E+00 -0.86985073186E+03  0.86985073188E+03  0.50400001928E-02 0.  1.
    10030    2    1    2    0    0  0.00000000000E+00  0.00000000000E+00  0.12633466506E+04  0.30030481143E+04  0.27243812540E+04 0.  0.
        4    1    3    3  502    0  0.85017986905E+03  0.97692807096E+03  0.10972081556E+04  0.16973690274E+04  0.12699999809E+01 0. -1.
       -4    1    3    3    0  502 -0.85017986905E+03 -0.97692807096E+03  0.16613849496E+03  0.13056790869E+04  0.12699999809E+01 0.  1.
</event>
<event>
 5   0  0.1495517E-05  0.2668247E+04  0.7818609E-02  0.8345382E-01
       -1   -1    0    0    0  501  0.00000000000E+00  0.00000000000E+00  0.30010505230E+04  0.30010505230E+04  0.50400001928E-02 0.  1.
        1   -1    0    0  501    0  0.00000000000E+00  0.00000000000E+00 -0.59308749768E+03  0.59308749770E+03  0.50400001928E-02 0. -1.
    10030    2    1    2    0    0  0.00000000000E+00  0.00000000000E+00  0.24079630253E+04  0.35941380207E+04  0.26682470239E+04 0.  0.
        5    1    3    3  502    0  0.96487171051E+03  0.90917204151E+03  0.10028660157E+04  0.16623277517E+04  0.46999998093E+01 0. -1.
       -5    1    3    3    0  502 -0.96487171051E+03 -0.90917204151E+03  0.14050970097E+04  0.19318102690E+04  0.46999998093E+01 0.  1.
</event>
<event>
 5   0  0.3497949E-05  0.2725860E+04  0.7818609E-02  0.8326663E-01
       -2   -1    0    0    0  501  0.00000000000E+00  0.00000000000E+00  0.12854022923E+04  0.12854022923E+04  0.25500000920E-02 0. -1.
        2   -1    0    0  501    0  0.00000000000E+00  0.00000000000E+00 -0.14451333825E+04  0.14451333825E+04  0.25500000920E-02 0.  1.
    10030    2    1    2    0    0  0.00000000000E+00  0.00000000000E+00 -0.15973109025E+03  0.27305356748E+04  0.27258596901E+04 0.  0.
        5    1    3    3  502    0  0.75961143017E+03  0.24912615633E+03  0.10258768755E+04  0.13005840305E+04  0.46999998093E+01 0. -1.
       -5    1    3    3    0  502 -0.75961143017E+03 -0.24912615633E+03 -0.11856079658E+04  0.14299516443E+04  0.46999998093E+01 0.  1.
</event>
<event>
 5   0  0.3514294E-05  0.2753105E+04  0.7818609E-02  0.8317977E-01
        2   -1    0    0  501    0  0.00000000000E+00  0.00000000000E+00  0.19685681132E+04  0.19685681132E+04  0.25500000920E-02 0.  1.
       -2   -1    0    0    0  501  0.00000000000E+00  0.00000000000E+00 -0.96257641860E+03  0.96257641860E+03  0.25500000920E-02 0. -1.
    10030    2    1    2    0    0  0.00000000000E+00  0.00000000000E+00  0.10059916946E+04  0.29311445318E+04  0.27531053334E+04 0.  0.
        2    1    3    3  502    0  0.74376345327E+03  0.73271555617E+02 -0.72776483197E+03  0.10431655889E+04  0.25500000920E-02 0. -1.
       -2    1    3    3    0  502 -0.74376345327E+03 -0.73271555617E+02  0.17337565266E+04  0.18879789429E+04  0.25500000920E-02 0.  1.
</event>
<event>
 5   0  0.3568647E-05  0.2436602E+04  0.7818609E-02  0.8425926E-01
        2   -1    0    0  501    0  0.00000000000E+00  0.00000000000E+00  0.15174207729E+04  0.15174207729E+04  0.25500000920E-02 0. -1.
       -2   -1    0    0    0  501  0.00000000000E+00  0.00000000000E+00 -0.97814473445E+03  0.97814473445E+03  0.25500000920E-02 0.  1.
    10030    2    1    2    0    0  0.00000000000E+00  0.00000000000E+00  0.53927603846E+03  0.24955655074E+04  0.24366018460E+04 0.  0.
        3    1    3    3  502    0 -0.50388482716E+03  0.10345356239E+04 -0.14016100456E+03  0.11592277574E+04  0.10100000352E+00 0. -1.
       -3    1    3    3    0  502  0.50388482716E+03 -0.10345356239E+04  0.67943704301E+03  0.13363377499E+04  0.10100000352E+00 0.  1.
</event>
<event>
 5   0  0.1484379E-05  0.1539524E+04  0.7818609E-02  0.8858587E-01
        1   -1    0    0  501    0  0.00000000000E+00  0.00000000000E+00  0.74222768522E+03  0.74222768524E+03  0.50400001928E-02 0.  1.
       -1   -1    0    0    0  501  0.00000000000E+00  0.00000000000E+00 -0.79831766335E+03  0.79831766337E+03  0.50400001928E-02 0. -1.
    10030    2    1    2    0    0  0.00000000000E+00  0.00000000000E+00 -0.56089978130E+02  0.15405453486E+04  0.15395239152E+04 0.  0.
        1    1    3    3  502    0 -0.49225017995E+03 -0.55841771714E+03  0.16802603658E+03  0.76313389091E+03  0.50400001928E-02 0.  1.
       -1    1    3    3    0  502  0.49225017995E+03  0.55841771714E+03 -0.22411601471E+03  0.77741145769E+03  0.50400001928E-02 0. -1.
</event>
<event>
 5   0  0.3568647E-05  0.2750412E+04  0.7818609E-02  0.8318831E-01
       -2   -1    0    0    0  501  0.00000000000E+00  0.00000000000E+00  0.18778248777E+04  0.18778248777E+04  0.25500000920E-02 0.  1.
        2   -1    0    0  501    0  0.00000000000E+00  0.00000000000E+00 -0.10071182584E+04  0.10071182584E+04  0.25500000920E-02 0. -1.
    10030    2    1    2    0    0  0.00000000000E+00  0.00000000000E+00  0.87070661926E+03  0.28849431360E+04  0.27504121294E+04 0.  0.
        3    1    3    3  502    0  0.64245237234E+02  0.55111453659E+02 -0.10043832817E+04  0.10079437036E+04  0.10100000352E+00 0. -1.
       -3    1    3    3    0  502 -0.64245237234E+02 -0.55111453659E+02  0.18750899009E+04  0.18769994325E+04  0.10100000352E+00 0.  1.
</event>
<event>
 5   0  0.3497949E-05  0.2754984E+04  0.7818609E-02  0.8317382E-01
        2   -1    0    0  501    0  0.00000000000E+00  0.00000000000E+00  0.14814982174E+04  0.14814982174E+04  0.25500000920E-02 0. -1.
       -2   -1    0    0    0  501  0.00000000000E+00  0.00000000000E+00 -0.12807875870E+04  0.12807875870E+04  0.25500000920E-02 0.  1.
    10030    2    1    2    0    0  0.00000000000E+00  0.00000000000E+00  0.20071063046E+03  0.27622858044E+04  0.27549842301E+04 0.  0.
        5    1    3    3  502    0  0.75116466811E+03 -0.18535694079E+03 -0.10423392041E+04  0.12981135006E+04  0.46999998093E+01 0.  1.
       -5    1    3    3    0  502 -0.75116466811E+03  0.18535694079E+03  0.12430498345E+04  0.14641723038E+04  0.46999998093E+01 0. -1.
</event>
<event>
 5   0  0.1484379E-05  0.2665543E+04  0.7818609E-02  0.8346272E-01
       -1   -1    0    0    0  501  0.00000000000E+00  0.00000000000E+00  0.93284111208E+03  0.93284111210E+03  0.50400001928E-02 0.  1.
        1   -1    0    0  501    0  0.00000000000E+00  0.00000000000E+00 -0.19041613250E+04  0.19041613250E+04  0.50400001928E-02 0. -1.
    10030    2    1    2    0    0  0.00000000000E+00  0.00000000000E+00 -0.97132021295E+03  0.28370024371E+04  0.26655430727E+04 0.  0.
        1    1    3    3  502    0 -0.12007874431E+04 -0.51686582664E+03 -0.20967523337E+03  0.13240107514E+04  0.50400001928E-02 0. -1.
       -1    1    3    3    0  502  0.12007874431E+04  0.51686582664E+03 -0.76164497958E+03  0.15129916858E+04  0.50400001928E-02 0.  1.
</event>
<event>
 5   0  0.1474012E-05  0.2635010E+04  0.7818609E-02  0.8356405E-01
       -1   -1    0    0    0  501  0.00000000000E+00  0.00000000000E+00  0.15793610916E+04  0.15793610916E+04  0.50400001928E-02 0. -1.
        1   -1    0    0  501    0  0.00000000000E+00  0.00000000000E+00 -0.10990645983E+04  0.10990645983E+04  0.50400001928E-02 0.  1.
    10030    2    1    2    0    0  0.00000000000E+00  0.00000000000E+00  0.48029649327E+03  0.26784256899E+04  0.26350103330E+04 0.  0.
        2    1    3    3  502    0  0.95541413814E+03  0.44652901305E+03  0.10428528246E+04  0.14831541891E+04  0.25500000920E-02 0. -1.
       -2    1    3    3    0  502 -0.95541413814E+03 -0.44652901305E+03 -0.56255633130E+03  0.11952715008E+04  0.25500000920E-02 0.  1.
</event>
<event>
 5   0  0.3676724E-05  0.2346150E+04  0.7818609E-02  0.8459944E-01
       -2   -1    0    0    0  501  0.00000000000E+00  0.00000000000E+00  0.10135732865E+04  0.10135732865E+04  0.25500000920E-02 0.  1.
        2   -1    0    0  501    0  0.00000000000E+00  0.00000000000E+00 -0.13576767840E+04  0.13576767840E+04  0.25500000920E-02 0. -1.
    10030    2    1    2    0    0  0.00000000000E+00  0.00000000000E+00 -0.34410349747E+03  0.23712500705E+04  0.23461499696E+04 0.  0.
        4    1    3    3  502    0 -0.10359599382E+04  0.54968118186E+03 -0.19956265347E+03  0.11896172749E+04  0.12699999809E+01 0. -1.
       -4    1    3    3    0  502  0.10359599382E+04 -0.54968118186E+03 -0.14454084399E+03  0.11816327956E+04  0.12699999809E+01 0.  1.
</event>
<event>
 5   0  0.3676724E-05  0.2692160E+04  0.7818609E-02  0.8337553E-01
        2   -1    0    0  501    0  0.00000000000E+00  0.00000000000E+00  0.17298203892E+04  0.17298203892E+04  0.25500000920E-02 0. -1.
       -2   -1    0    0    0  501  0.00000000000E+00  0.00000000000E+00 -0.10474681012E+04  0.10474681012E+04  0.25500000920E-02 0.  1.
    10030    2    1    2    0    0  0.00000000000E+00  0.00000000000E+00  0.68235228805E+03  0.27772884904E+04  0.26921602318E+04 0.  0.
        4    1    3    3  502    0 -0.12019359420E+04 -0.50875830582E+03  0.14531500906E+01  0.13051776687E+04  0.12699999809E+01 0.  1.
       -4    1    3    3    0  502  0.12019359420E+04  0.50875830582E+03  0.68089913796E+03  0.14721108217E+04  0.12699999809E+01 0. -1.
</event>
<event>
 5   0  0.3514294E-05  0.2694014E+04  0.7818609E-02  0.8336950E-01
        2   -1    0    0  501    0  0.00000000000E+00  0.00000000000E+00  0.20460409070E+04  0.20460409070E+04  0.25500000920E-02 0. -1.
       -2   -1    0    0    0  501  0.00000000000E+00  0.00000000000E+00 -0.88679934674E+03  0.88679934674E+03  0.25500000920E-02 0.  1.
    10030    2    1    2    0    0  0.00000000000E+00  0.00000000000E+00  0.11592415602E+04  0.29328402537E+04  0.26940139121E+04 0.  0.
        2    1    3    3  502    0 -0.10459238714E+04 -0.79440470179E+03  0.25413029216E+03  0.13377659662E+04  0.25500000920E-02 0.  1.
       -2    1    3    3    0  502  0.10459238714E+04  0.79440470179E+03  0.90511126806E+03  0.15950742875E+04  0.25500000920E-02 0. -1.
</event>
<event>
 5   0  0.3652331E-05  0.2689201E+04  0.7818609E-02  0.8338517E-01
       -2   -1    0    0    0  501  0.00000000000E+00  0.00000000000E+00  0.18214648569E+04  0.18214648569E+04  0.25500000920E-02 0. -1.
        2   -1    0    0  501    0  0.00000000000E+00  0.00000000000E+00 -0.99258048529E+03  0.99258048530E+03  0.25500000920E-02 0.  1.
    10030    2    1    2    0    0  0.00000000000E+00  0.00000000000E+00  0.82888437156E+03  0.28140453422E+04  0.26892009754E+04 0.  0.
        1    1    3    3  502    0 -0.11695355338E+03  0.69375322187E+03  0.16134905156E+04  0.17602054740E+04  0.50400001928E-02 0. -1.
       -1    1    3    3    0  502  0.11695355338E+03 -0.69375322187E+03 -0.78460614406E+03  0.10538398682E+04  0.50400001928E-02 0.  1.
</event>
<event>
 5   0  0.3676724E-05  0.2672376E+04  0.7818609E-02  0.8344024E-01
        2   -1    0    0  501    0  0.00000000000E+00  0.00000000000E+00  0.14888100883E+04  0.14888100883E+04  0.25500000920E-02 0.  1.
       -2   -1    0    0    0  501  0.00000000000E+00  0.00000000000E+00 -0.11992112272E+04  0.11992112272E+04  0.25500000920E-02 0. -1.
    10030    2    1    2    0    0  0.00000000000E+00  0.00000000000E+00  0.28959886115E+03  0.26880213155E+04  0.26723755523E+04 0.  0.
        4    1    3    3  502    0 -0.10514602044E+04  0.60514709227E+03 -0.41850124910E+03  0.12833224354E+04  0.12699999809E+01 0. -1.
       -4    1    3    3    0  502  0.10514602044E+04 -0.60514709227E+03  0.70810011025E+03  0.14046988801E+04  0.12699999809E+01 0.  1.
</event>
<event>
 5   0  0.3568647E-05  0.2439745E+04  0.7818609E-02  0.8424772E-01
        2   -1    0    0  501    0  0.00000000000E+00  0.00000000000E+00  0.16185018058E+04  0.16185018058E+04  0.25500000920E-02 0.  1.
       -2   -1    0    0    0  501  0.00000000000E+00  0.00000000000E+00 -0.91942365059E+03  0.91942365059E+03  0.25500000920E-02 0. -1.
    10030    2    1    2    0    0  0.00000000000E+00  0.00000000000E+00  0.69907815522E+03  0.25379254564E+04  0.24397449365E+04 0.  0.
        3    1    3    3  502    0 -0.28149363628E+03  0.77926284169E+03  0.12808896341E+04  0.15255056567E+04  0.10100000352E+00 0.  1.
       -3    1    3    3    0  502  0.28149363628E+03 -0.77926284169E+03 -0.58181147885E+03  0.10124197997E+04  0.10100000352E+00 0. -1.
</event>
<event>
 5   0  0.1449521E-05  0.2541462E+04  0.7818609E-02  0.8388362E-01
       -1   -1    0    0    0  501  0.00000000000E+00  0.00000000000E+00  0.10606647571E+04  0.10606647572E+04  0.50400001928E-02 0.  1.
        1   -1    0    0  501    0  0.00000000000E+00  0.00000000000E+00 -0.15224010405E+04  0.15224010405E+04  0.50400001928E-02 0. -1.
    10030    2    1    2    0    0  0.00000000000E+00  0.00000000000E+00 -0.46173628333E+03  0.25830657976E+04  0.25414618863E+04 0.  0.
        3    1    3    3  502    0  0.12408584818E+04 -0.21313635763E+03 -0.56004511432E+02  0.12602751265E+04  0.10100000352E+00 0. -1.
       -3    1    3    3    0  502 -0.12408584818E+04  0.21313635763E+03 -0.40573177190E+03  0.13227906712E+04  0.10100000352E+00 0.  1.
</event>
<event>
 5   0  0.1449521E-05  0.1671447E+04  0.7818609E-02  0.8777819E-01
       -1   -1    0    0    0  501  0.00000000000E+00  0.00000000000E+00  0.10466942763E+04  0.10466942763E+04  0.50400001928E-02 0. -1.
        1   -1    0    0  501    0  0.00000000000E+00  0.00000000000E+00 -0.66727558389E+03  0.66727558391E+03  0.50400001928E-02 0.  1.
    10030    2    1    2    0    0  0.00000000000E+00  0.00000000000E+00  0.37941869244E+03  0.17139698603E+04  0.16714467200E+04 0.  0.
        3    1    3    3  502    0  0.30984136603E+03 -0.71894234805E+03 -0.11022774429E+03  0.79058834910E+03  0.10100000352E+00 0.  1.
       -3    1    3    3    0  502 -0.30984136603E+03  0.71894234805E+03  0.48964643673E+03  0.92338151115E+03  0.10100000352E+00 0. -1.
</event>
<event>
 5   0  0.1438701E-05  0.2726172E+04  0.7818609E-02  0.8326563E-01
       -1   -1    0    0    0  501  0.00000000000E+00  0.00000000000E+00  0.15554818238E+04  0.15554818238E+04  0.50400001928E-02 0. -1.
        1   -1    0    0  501    0  0.00000000000E+00  0.00000000000E+00 -0.11944876216E+04  0.11944876216E+04  0.50400001928E-02 0.  1.
    10030    2    1    2    0    0  0.00000000000E+00  0.00000000000E+00  0.36099420223E+03  0.27499694454E+04  0.27261722500E+04 0.  0.
        4    1    3    3  502    0  0.49702139819E+03  0.39267887692E+03 -0.10370081571E+04  0.12151602781E+04  0.12699999809E+01 0.  1.
       -4    1    3    3    0  502 -0.49702139819E+03 -0.39267887692E+03  0.13980023593E+04  0.15348091673E+04  0.12699999809E+01 0. -1.
</event>
<event>
 5   0  0.1484379E-05  0.1340534E+04  0.7818609E-02  0.8998025E-01
       -1   -1    0    0    0  501  0.00000000000E+00  0.00000000000E+00  0.19829817123E+03  0.19829817129E+03  0.50400001928E-02 0. -1.
        1   -1    0    0  501    0  0.00000000000E+00  0.00000000000E+00 -0.22655685747E+04  0.22655685747E+04  0.50400001928E-02 0.  1.
    10030    2    1    2    0    0  0.00000000000E+00  0.00000000000E+00 -0.20672704035E+04  0.24638667460E+04  0.13405343789E+04 0.  0.
        1    1    3    3  502    0  0.60510488019E+03  0.19357385965E+03 -0.14262710537E+04  0.15613685900E+04  0.50400001928E-02 0.  1.
       -1    1    3    3    0  502 -0.60510488019E+03 -0.19357385965E+03 -0.64099934976E+03  0.90249815600E+03  0.50400001928E-02 0. -1.
</event>
<event>
 5   0  0.3652331E-05  0.2021003E+04  0.7818609E-02  0.8596863E-01
        2   -1    0    0  501    0  0.00000000000E+00  0.00000000000E+00  0.18563077619E+04  0.18563077619E+04  0.25500000920E-02 0.  1.
       -2   -1    0    0    0  501  0.00000000000E+00  0.00000000000E+00 -0.55007778992E+03  0.55007778993E+03  0.25500000920E-02 0. -1.
    10030    2    1    2    0    0  0.00000000000E+00  0.00000000000E+00  0.13062299720E+04  0.24063855519E+04  0.20210033856E+04 0.  0.
        1    1    3    3  502    0  0.92934280515E+03  0.27512190045E+03  0.31268724093E+03  0.10184023862E+04  0.50400001928E-02 0. -1.
       -1    1    3    3    0  502 -0.92934280515E+03 -0.27512190045E+03  0.99354273109E+03  0.13879831656E+04  0.50400001928E-02 0.  1.
</event>
<event>
 5   0  0.3676724E-05  0.2686991E+04  0.7818609E-02  0.8339238E-01
        2   -1    0    0  501    0  0.00000000000E+00  0.00000000000E+00  0.15267513106E+04  0.15267513106E+04  0.25500000920E-02 0. -1.
       -2   -1    0    0    0  501  0.00000000000E+00  0.00000000000E+00 -0.11822361078E+04  0.11822361078E+04  0.25500000920E-02 0.  1.
    10030    2    1    2    0    0  0.00000000000E+00  0.00000000000E+00  0.34451520283E+03  0.27089874185E+04  0.26869912744E+04 0.  0.
        4    1    3    3  502    0 -0.13064076977E+04  0.10221645949E+03 -0.12652910814E+03  0.13164955395E+04  0.12699999809E+01 0. -1.
       -4    1    3    3    0  502  0.13064076977E+04 -0.10221645949E+03  0.47104431097E+03  0.13924918790E+04  0.12699999809E+01 0.  1.
</event>
<event>
 5   0  0.3514294E-05  0.3146845E+04  0.7818609E-02  0.8202998E-01
        2   -1    0    0  501    0  0.00000000000E+00  0.00000000000E+00  0.81938537428E+03  0.81938537428E+03  0.25500000920E-02 0. -1.
       -2   -1    0    0    0  501  0.00000000000E+00  0.00000000000E+00 -0.30213607205E+04  0.30213607205E+04  0.25500000920E-02 0.  1.
    10030    2    1    2    0    0  0.00000000000E+00  0.00000000000E+00 -0.22019753462E+04  0.38407460948E+04  0.31468452678E+04 0.  0.
        2    1    3    3  502    0  0.19947203053E+03 -0.13720638991E+04 -0.20088596394E+04  0.24408739183E+04  0.25500000920E-02 0.  1.
       -2    1    3    3    0  502 -0.19947203053E+03  0.13720638991E+04 -0.19311570685E+03  0.13998721765E+04  0.25500000920E-02 0. -1.
</event>
<event>
 5   0  0.1495517E-05  0.2644632E+04  0.7818609E-02  0.8353197E-01
        1   -1    0    0  501    0  0.00000000000E+00  0.00000000000E+00  0.73265420323E+03  0.73265420325E+03  0.50400001928E-02 0. -1.
       -1   -1    0    0    0  501  0.00000000000E+00  0.00000000000E+00 -0.23865559367E+04  0.23865559367E+04  0.50400001928E-02 0.  1.
    10030    2    1    2    0    0  0.00000000000E+00  0.00000000000E+00 -0.16539017334E+04  0.31192101399E+04  0.26446324798E+04 0.  0.
        5    1    3    3  502    0  0.52365041328E+03 -0.96104097912E+03  0.48299620629E+02  0.10955201788E+04  0.46999998093E+01 0. -1.
       -5    1    3    3    0  502 -0.52365041328E+03  0.96104097912E+03 -0.17022013541E+04  0.20236899611E+04  0.46999998093E+01 0.  1.
</event>
<event>
 5   0  0.1449521E-05  0.2855037E+04  0.7818609E-02  0.8286382E-01
        1   -1    0    0  501    0  0.00000000000E+00  0.00000000000E+00  0.10802891665E+04  0.10802891666E+04  0.50400001928E-02 0.  1.
       -1   -1    0    0    0  501  0.00000000000E+00  0.00000000000E+00 -0.18863547475E+04  0.18863547475E+04  0.50400001928E-02 0. -1.
    10030    2    1    2    0    0  0.00000000000E+00  0.00000000000E+00 -0.80606558092E+03  0.29666439140E+04  0.28550366709E+04 0.  0.
        3    1    3    3  502    0  0.13656017947E+04  0.34575467534E+03 -0.64313717086E+03  0.15485606181E+04  0.10100000352E+00 0. -1.
       -3    1    3    3    0  502 -0.13656017947E+04 -0.34575467534E+03 -0.16292841006E+03  0.14180832959E+04  0.10100000352E+00 0.  1.
</event>
<event>
 5   0  0.3652331E-05  0.2680043E+04  0.7818609E-02  0.8341509E-01
        2   -1    0    0  501    0  0.00000000000E+00  0.00000000000E+00  0.67241265585E+03  0.67241265586E+03  0.25500000920E-02 0.  1.
       -2   -1    0    0    0  501  0.00000000000E+00  0.00000000000E+00 -0.26704700944E+04  0.26704700944E+04  0.25500000920E-02 0. -1.
    10030    2    1    2    0    0  0.00000000000E+00  0.00000000000E+00 -0.19980574385E+04  0.33428827502E+04  0.26800432001E+04 0.  0.
        1    1    3    3  502    0  0.28385525277E+03  0.92471611608E+03 -0.21557389664E+04  0.23628127710E+04  0.50400001928E-02 0. -1.
       -1    1    3    3    0  502 -0.28385525277E+03 -0.92471611608E+03  0.15768152784E+03  0.98006997919E+03  0.50400001928E-02 0.  1.
</event>
<event>
 5   0  0.1438701E-05  0.2753174E+04  0.7818609E-02  0.8317955E-01
       -1   -1    0    0    0  501  0.00000000000E+00  0.00000000000E+00  0.11519541131E+04  0.11519541131E+04  0.50400001928E-02 0.  1.
        1   -1    0    0  501    0  0.00000000000E+00  0.00000000000E+00 -0.16450239892E+04  0.16450239892E+04  0.50400001928E-02 0. -1.
    10030    2    1    2    0    0  0.00000000000E+00  0.00000000000E+00 -0.49306987609E+03  0.27969781023E+04  0.27531742775E+04 0.  0.
        4    1    3    3  502    0 -0.58011741379E+03 -0.46136622823E+03  0.93191904977E+03  0.11907433555E+04  0.12699999809E+01 0. -1.
       -4    1    3    3    0  502  0.58011741379E+03  0.46136622823E+03 -0.14249889259E+04  0.16062347469E+04  0.12699999809E+01 0.  1.
</event>
<event>
 5   0  0.1449521E-05  0.2686428E+04  0.7818609E-02  0.8339422E-01
       -1   -1    0    0    0  501  0.00000000000E+00  0.00000000000E+00  0.23807411434E+04  0.23807411434E+04  0.50400001928E-02 0.  1.
        1   -1    0    0  501    0  0.00000000000E+00  0.00000000000E+00 -0.75784119812E+03  0.75784119814E+03  0.50400001928E-02 0. -1.
    10030    2    1    2    0    0  0.00000000000E+00  0.00000000000E+00  0.16228999452E+04  0.31385823415E+04  0.26864279038E+04 0.  0.
        3    1    3    3  502    0 -0.34153895385E+03  0.88666074276E+03 -0.29777321632E+03  0.99573341227E+03  0.10100000352E+00 0. -1.
       -3    1    3    3    0  502  0.34153895385E+03 -0.88666074276E+03  0.19206731616E+04  0.21428489292E+04  0.10100000352E+00 0.  1.
</event>
<event>
 5   0  0.1484379E-05  0.2969846E+04  0.7818609E-02  0.8252394E-01
        1   -1    0    0  501    0  0.00000000000E+00  0.00000000000E+00  0.89947232400E+03  0.89947232402E+03  0.50400001928E-02 0. -1.
       -1   -1    0    0    0  501  0.00000000000E+00  0.00000000000E+00 -0.24514329562E+04  0.24514329562E+04  0.50400001928E-02 0.  1.
    10030    2    1    2    0    0  0.00000000000E+00  0.00000000000E+00 -0.15519606322E+04  0.33509052802E+04  0.29698458534E+04 0.  0.
        1    1    3    3  502    0  0.18392113181E+03  0.26278348647E+03  0.85991824777E+03  0.91779166283E+03  0.50400001928E-02 0. -1.
       -1    1    3    3    0  502 -0.18392113181E+03 -0.26278348647E+03 -0.24118788799E+04  0.24331136174E+04  0.50400001928E-02 0.  1.
</event>
<event>
 5   0  0.1495517E-05  0.2560594E+04  0.7818609E-02  0.8381711E-01
        1   -1    0    0  501    0  0.00000000000E+00  0.00000000000E+00  0.56946167774E+03  0.56946167776E+03  0.50400001928E-02 0. -1.
       -1   -1    0    0    0  501  0.00000000000E+00  0.00000000000E+00 -0.28784376563E+04  0.28784376563E+04  0.50400001928E-02 0.  1.
    10030    2    1    2    0    0  0.00000000000E+00  0.00000000000E+00 -0.23089759786E+04  0.34478993341E+04  0.25605936320E+04 0.  0.
        5    1    3    3  502    0  0.11622319444E+04  0.46077293525E+03 -0.15258040200E+04  0.19726111598E+04  0.46999998093E+01 0. -1.
       -5    1    3    3    0  502 -0.11622319444E+04 -0.46077293525E+03 -0.78317195862E+03  0.14752881743E+04  0.46999998093E+01 0.  1.
</event>
<event>
 5   0  0.1449521E-05  0.2364322E+04  0.7818609E-02  0.8452983E-01
       -1   -1    0    0    0  501  0.00000000000E+00  0.00000000000E+00  0.79813432475E+03  0.79813432477E+03  0.50400001928E-02 0.  1.
        1   -1    0    0  501    0  0.00000000000E+00  0.00000000000E+00 -0.17509638307E+04  0.17509638307E+04  0.50400001928E-02 0. -1.
    10030    2    1    2    0    0  0.00000000000E+00  0.00000000000E+00 -0.95282950590E+03  0.25490981554E+04  0.23643217502E+04 0.  0.
        3    1    3    3  502    0  0.10952677543E+04  0.15356535710E+03 -0.26280750368E+02  0.11062931169E+04  0.10100000352E+00 0.  1.
       -3    1    3    3    0  502 -0.10952677543E+04 -0.15356535710E+03 -0.92654875553E+03  0.14428050385E+04  0.10100000352E+00 0. -1.
</event>
<event>
 5   0  0.3676724E-05  0.2657456E+04  0.7818609E-02  0.8348943E-01
       -2   -1    0    0    0  501  0.00000000000E+00  0.00000000000E+00  0.17512589461E+04  0.17512589461E+04  0.25500000920E-02 0. -1.
        2   -1    0    0  501    0  0.00000000000E+00  0.00000000000E+00 -0.10081419754E+04  0.10081419754E+04  0.25500000920E-02 0.  1.
    10030    2    1    2    0    0  0.00000000000E+00  0.00000000000E+00  0.74311697068E+03  0.27594009215E+04  0.26574556654E+04 0.  0.
        4    1    3    3  502    0  0.10350907698E+04  0.92802769295E+02 -0.48814678175E+03  0.11481786225E+04  0.12699999809E+01 0.  1.
       -4    1    3    3    0  502 -0.10350907698E+04 -0.92802769295E+02  0.12312637524E+04  0.16112222990E+04  0.12699999809E+01 0. -1.
</event>
<event>
 5   0  0.3652331E-05  0.2663062E+04  0.7818609E-02  0.8347091E-01
        2   -1    0    0  501    0  0.00000000000E+00  0.00000000000E+00  0.17065257966E+04  0.17065257966E+04  0.25500000920E-02 0. -1.
       -2   -1    0    0    0  501  0.00000000000E+00  0.00000000000E+00 -0.10389378138E+04  0.10389378138E+04  0.25500000920E-02 0.  1.
    10030    2    1    2    0    0  0.00000000000E+00  0.00000000000E+00  0.66758798279E+03  0.27454636104E+04  0.26630615316E+04 0.  0.
        1    1    3    3  502    0  0.12547134900E+04 -0.15516070155E+03 -0.96978929993E+02  0.12679848967E+04  0.50400001928E-02 0.  1.
       -1    1    3    3    0  502 -0.12547134900E+04  0.15516070155E+03  0.76456691279E+03  0.14774787137E+04  0.50400001928E-02 0. -1.
</event>
<event>
 5   0  0.1438701E-05  0.2107501E+04  0.7818609E-02  0.8557946E-01
       -1   -1    0    0    0  501  0.00000000000E+00  0.00000000000E+00  0.14007687593E+04  0.14007687594E+04  0.50400001928E-02 0.  1.
        1   -1    0    0  501    0  0.00000000000E+00  0.00000000000E+00 -0.79270046831E+03  0.79270046833E+03  0.50400001928E-02 0. -1.
    10030    2    1    2    0    0  0.00000000000E+00  0.00000000000E+00  0.60806829104E+03  0.21934692277E+04  0.21075009386E+04 0.  0.
        4    1    3    3  502    0  0.10471851867E+04 -0.64359162544E+02  0.20179512953E+03  0.10683921585E+04  0.12699999809E+01 0. -1.
       -4    1    3    3    0  502 -0.10471851867E+04  0.64359162544E+02  0.40627316151E+03  0.11250770692E+04  0.12699999809E+01 0.  1.
</event>
<event>
 5   0  0.3497949E-05  0.2782398E+04  0.7818609E-02  0.8308754E-01
       -2   -1    0    0    0  501  0.00000000000E+00  0.00000000000E+00  0.15372640153E+04  0.15372640153E+04  0.25500000920E-02 0. -1.
        2   -1    0    0  501    0  0.00000000000E+00  0.00000000000E+00 -0.12590123976E+04  0.12590123976E+04  0.25500000920E-02 0.  1.
    10030    2    1    2    0    0  0.00000000000E+00  0.00000000000E+00  0.27825161778E+03  0.27962764129E+04  0.27823978534E+04 0.  0.
        5    1    3    3  502    0 -0.12478595597E+04 -0.66713985153E+01  0.75718473883E+03  0.14596399580E+04  0.46999998093E+01 0.  1.
       -5    1    3    3    0  502  0.12478595597E+04  0.66713985153E+01 -0.47893312105E+03  0.13366364549E+04  0.46999998093E+01 0. -1.
</event>
<event>
 5   0  0.1438701E-05  0.2673196E+04  0.7818609E-02  0.8343755E-01
        1   -1    0    0  501    0  0.00000000000E+00  0.00000000000E+00  0.12497240335E+04  0.12497240335E+04  0.50400001928E-02 0. -1.
       -1   -1    0    0    0  501  0.00000000000E+00  0.00000000000E+00 -0.14295112679E+04  0.14295112679E+04  0.50400001928E-02 0.  1.
    10030    2    1    2    0    0  0.00000000000E+00  0.00000000000E+00 -0.17978723436E+03  0.26792353014E+04  0.26731962799E+04 0.  0.
        4    1    3    3  502    0 -0.36681770917E+03  0.10731221506E+04 -0.79884341367E+03  0.13871909725E+04  0.12699999809E+01 0. -1.
       -4    1    3    3    0  502  0.36681770917E+03 -0.10731221506E+04  0.61905617931E+03  0.12920443289E+04  0.12699999809E+01 0.  1.
</event>
<event>
 5   0  0.1484379E-05  0.2681738E+04  0.7818609E-02  0.8340955E-01
       -1   -1    0    0    0  501  0.00000000000E+00  0.00000000000E+00  0.13044837955E+04  0.13044837955E+04  0.50400001928E-02 0.  1.
        1   -1    0    0  501    0  0.00000000000E+00  0.00000000000E+00 -0.13782686482E+04  0.13782686482E+04  0.50400001928E-02 0. -1.
    10030    2    1    2    0    0  0.00000000000E+00  0.00000000000E+00 -0.73784852690E+02  0.26827524438E+04  0.26817375841E+04 0.  0.
        1    1    3    3  502    0 -0.10232894021E+03 -0.49994868217E+03  0.12035402124E+04  0.13072600888E+04  0.50400001928E-02 0.  1.
       -1    1    3    3    0  502  0.10232894021E+03  0.49994868217E+03 -0.12773250651E+04  0.13754923550E+04  0.50400001928E-02 0. -1.
</event>
<event>
 5   0  0.1484379E-05  0.2843562E+04  0.7818609E-02  0.8289870E-01
        1   -1    0    0  501    0  0.00000000000E+00  0.00000000000E+00  0.11029449019E+04  0.11029449020E+04  0.50400001928E-02 0.  1.
       -1   -1    0    0    0  501  0.00000000000E+00  0.00000000000E+00 -0.18327852071E+04  0.18327852071E+04  0.50400001928E-02 0. -1.
    10030    2    1    2    0    0  0.00000000000E+00  0.00000000000E+00 -0.72984030513E+03  0.29357301090E+04  0.28435619216E+04 0.  0.
        1    1    3    3  502    0  0.42481750665E+03  0.25798048343E+03 -0.17401768254E+04  0.18097622019E+04  0.50400001928E-02 0. -1.
       -1    1    3    3    0  502 -0.42481750665E+03 -0.25798048343E+03  0.10103365202E+04  0.11259679072E+04  0.50400001928E-02 0.  1.
</event>
<event>
 5   0  0.1449521E-05  0.2722174E+04  0.7818609E-02  0.8327846E-01
        1   -1    0    0  501    0  0.00000000000E+00  0.00000000000E+00  0.20081313428E+04  0.20081313428E+04  0.50400001928E-02 0.  1.
       -1   -1    0    0    0  501  0.00000000000E+00  0.00000000000E+00 -0.92252821255E+03  0.92252821257E+03  0.50400001928E-02 0. -1.
    10030    2    1    2    0    0  0.00000000000E+00  0.00000000000E+00  0.10856031303E+04  0.29306595554E+04  0.27221739976E+04 0.  0.
        3    1    3    3  502    0  0.15888561293E+03 -0.22076142476E+03 -0.89297180600E+03  0.93347678127E+03  0.10100000352E+00 0. -1.
       -3    1    3    3    0  502 -0.15888561293E+03  0.22076142476E+03  0.19785749363E+04  0.19971827741E+04  0.10100000352E+00 0.  1.
</event>
<event>
 5   0  0.3497949E-05  0.1755258E+04  0.7818609E-02  0.8730461E-01
       -2   -1    0    0    0  501  0.00000000000E+00  0.00000000000E+00  0.75188696010E+03  0.75188696010E+03  0.25500000920E-02 0.  1.
        2   -1    0    0  501    0  0.00000000000E+00  0.00000000000E+00 -0.10243995325E+04  0.10243995325E+04  0.25500000920E-02 0. -1.
    10030    2    1    2    0    0  0.00000000000E+00  0.00000000000E+00 -0.27251257242E+03  0.17762864926E+04  0.17552579872E+04 0.  0.
        5    1    3    3  502    0 -0.81797735599E+03 -0.21890542101E+03 -0.36967963120E+03  0.92395435926E+03  0.46999998093E+01 0. -1.
       -5    1    3    3    0  502  0.81797735599E+03  0.21890542101E+03  0.97167058781E+02  0.85233213337E+03  0.46999998093E+01 0.  1.
</event>
<event>
 5   0  0.3652331E-05  0.2692215E+04  0.7818609E-02  0.8337535E-01
       -2   -1    0    0    0  501  0.00000000000E+00  0.00000000000E+00  0.16662972736E+04  0.16662972736E+04  0.25500000920E-02 0.  1.
        2   -1    0    0  501    0  0.00000000000E+00  0.00000000000E+00 -0.10874440504E+04  0.10874440504E+04  0.25500000920E-02 0. -1.
    10030    2    1    2    0    0  0.00000000000E+00  0.00000000000E+00  0.57885322328E+03  0.27537413240E+04  0.26922147435E+04 0.  0.
        1    1    3    3  502    0  0.11087143109E+04 -0.69698007617E+03  0.60795378486E+03  0.14438270167E+04  0.50400001928E-02 0.  1.
       -1    1    3    3    0  502 -0.11087143109E+04  0.69698007617E+03 -0.29100561576E+02  0.13099143073E+04  0.50400001928E-02 0. -1.
</event>
<event>
 5   0  0.1438701E-05  0.2688700E+04  0.7818609E-02  0.8338681E-01
        1   -1    0    0  501    0  0.00000000000E+00  0.00000000000E+00  0.15788392928E+04  0.15788392928E+04  0.50400001928E-02 0.  1.
       -1   -1    0    0    0  501  0.00000000000E+00  0.00000000000E+00 -0.11446874601E+04  0.11446874601E+04  0.50400001928E-02 0. -1.
    10030    2    1    2    0    0  0.00000000000E+00  0.00000000000E+00  0.43415183265E+03  0.27235267529E+04  0.26887004593E+04 0.  0.
        4    1    3    3  502    0  0.10511586534E+04  0.21889116325E+03 -0.60236979034E+03  0.12311372114E+04  0.12699999809E+01 0. -1.
       -4    1    3    3    0  502 -0.10511586534E+04 -0.21889116325E+03  0.10365216230E+04  0.14923895416E+04  0.12699999809E+01 0.  1.
</event>
<event>
 5   0  0.1449521E-05  0.2725859E+04  0.7818609E-02  0.8326663E-01
        1   -1    0    0  501    0  0.00000000000E+00  0.00000000000E+00  0.17235283759E+04  0.17235283759E+04  0.50400001928E-02 0. -1.
       -1   -1    0    0    0  501  0.00000000000E+00  0.00000000000E+00 -0.10777758636E+04  0.10777758636E+04  0.50400001928E-02 0.  1.
    10030    2    1    2    0    0  0.00000000000E+00  0.00000000000E+00  0.64575251228E+03  0.28013042395E+04  0.27258593389E+04 0.  0.
        3    1    3    3  502    0  0.21457214774E+03 -0.26996533031E+03 -0.10321993196E+04  0.10882821012E+04  0.10100000352E+00 0.  1.
       -3    1    3    3    0  502 -0.21457214774E+03  0.26996533031E+03  0.16779518319E+04  0.17130221383E+04  0.10100000352E+00 0. -1.
</event>
<event>
 5   0  0.3497949E-05  0.2657205E+04  0.7818609E-02  0.8349026E-01
        2   -1    0    0  501    0  0.00000000000E+00  0.00000000000E+00  0.18074864376E+04  0.18074864376E+04  0.25500000920E-02 0.  1.
       -2   -1    0    0    0  501  0.00000000000E+00  0.00000000000E+00 -0.97659615337E+03  0.97659615337E+03  0.25500000920E-02 0. -1.
    10030    2    1    2    0    0  0.00000000000E+00  0.00000000000E+00  0.83089028427E+03  0.27840825910E+04  0.26572047736E+04 0.  0.
        5    1    3    3  502    0  0.59805573762E+03  0.74808368867E+03 -0.54931591298E+03  0.11041149998E+04  0.46999998093E+01 0. -1.
       -5    1    3    3    0  502 -0.59805573762E+03 -0.74808368867E+03  0.13802061973E+04  0.16799675912E+04  0.46999998093E+01 0.  1.
</event>
<event>
 5   0  0.1449521E-05  0.2608498E+04  0.7818609E-02  0.8365320E-01
       -1   -1    0    0    0  501  0.00000000000E+00  0.00000000000E+00  0.60591626454E+03  0.60591626456E+03  0.50400001928E-02 0.  1.
        1   -1    0    0  501    0  0.00000000000E+00  0.00000000000E+00 -0.28074276625E+04  0.28074276625E+04  0.50400001928E-02 0. -1.
    10030    2    1    2    0    0  0.00000000000E+00  0.00000000000E+00 -0.22015113979E+04  0.34133439270E+04  0.26084984817E+04 0.  0.
        3    1    3    3  502    0  0.27916557555E+03  0.59135559046E+03 -0.25774044686E+04  0.26590691338E+04  0.10100000352E+00 0. -1.
       -3    1    3    3    0  502 -0.27916557555E+03 -0.59135559046E+03  0.37589307071E+03  0.75427479327E+03  0.10100000352E+00 0.  1.
</event>
<event>
 5   0  0.1449521E-05  0.2690737E+04  0.7818609E-02  0.8338017E-01
       -1   -1    0    0    0  501  0.00000000000E+00  0.00000000000E+00  0.69393541568E+03  0.69393541570E+03  0.50400001928E-02 0. -1.
        1   -1    0    0  501    0  0.00000000000E+00  0.00000000000E+00 -0.26083357754E+04  0.26083357754E+04  0.50400001928E-02 0.  1.
    10030    2    1    2    0    0  0.00000000000E+00  0.00000000000E+00 -0.19144003597E+04  0.33022711911E+04  0.26907371262E+04 0.  0.
        3    1    3    3  502    0  0.85790949847E+03  0.61493585470E+03  0.66571110288E+02  0.10576325146E+04  0.10100000352E+00 0. -1.
       -3    1    3    3    0  502 -0.85790949847E+03 -0.61493585470E+03 -0.19809714700E+04  0.22446386765E+04  0.10100000352E+00 0.  1.
</event>
<event>
 5   0  0.3676724E-05  0.2518355E+04  0.7818609E-02  0.8396476E-01
       -2   -1    0    0    0  501  0.00000000000E+00  0.00000000000E+00  0.17428951320E+04  0.17428951320E+04  0.25500000920E-02 0.  1.
        2   -1    0    0  501    0  0.00000000000E+00  0.00000000000E+00 -0.90970900135E+03  0.90970900136E+03  0.25500000920E-02 0. -1.
    10030    2    1    2    0    0  0.00000000000E+00  0.00000000000E+00  0.83318613069E+03  0.26526041334E+04  0.25183545342E+04 0.  0.
        4    1    3    3  502    0 -0.85007068871E+02 -0.18966466833E+02  0.17397178169E+04  0.17418971336E+04  0.12699999809E+01 0.  1.
       -4    1    3    3    0  502  0.85007068871E+02  0.18966466833E+02 -0.90653168618E+03  0.91070699985E+03  0.12699999809E+01 0. -1.
</event>
<event>
 5   0  0.3514294E-05  0.2767185E+04  0.7818609E-02  0.8313529E-01
       -2   -1    0    0    0  501  0.00000000000E+00  0.00000000000E+00  0.10413138777E+04  0.10413138777E+04  0.25500000920E-02 0.  1.
        2   -1    0    0  501    0  0.00000000000E+00  0.00000000000E+00 -0.18383779744E+04  0.18383779744E+04  0.25500000920E-02 0. -1.
    10030    2    1    2    0    0  0.00000000000E+00  0.00000000000E+00 -0.79706409666E+03  0.28796918521E+04  0.27671852105E+04 0.  0.
        2    1    3    3  502    0  0.10312769347E+04 -0.85171618016E+03 -0.30051240442E+02  0.13378548668E+04  0.25500000920E-02 0.  1.
       -2    1    3    3    0  502 -0.10312769347E+04  0.85171618016E+03 -0.76701285622E+03  0.15418369853E+04  0.25500000920E-02 0. -1.
</event>
<event>
 5   0  0.1474012E-05  0.1902297E+04  0.7818609E-02  0.8653714E-01
        1   -1    0    0  501    0  0.00000000000E+00  0.00000000000E+00  0.14773235484E+04  0.14773235484E+04  0.50400001928E-02 0.  1.
       -1   -1    0    0    0  501  0.00000000000E+00  0.00000000000E+00 -0.61238025812E+03  0.61238025814E+03  0.50400001928E-02 0. -1.
    10030    2    1    2    0    0  0.00000000000E+00  0.00000000000E+00  0.86494329031E+03  0.20897038066E+04  0.19022973227E+04 0.  0.
        2    1    3    3  502    0  0.94375155928E+03 -0.11058322930E+03  0.47892366810E+03  0.10640787265E+04  0.25500000920E-02 0.  1.
       -2    1    3    3    0  502 -0.94375155928E+03  0.11058322930E+03  0.38601962222E+03  0.10256250801E+04  0.25500000920E-02 0. -1.
</event>
<event>
 5   0  0.3514294E-05  0.2616848E+04  0.7818609E-02  0.8362501E-01
        2   -1    0    0  501    0  0.00000000000E+00  0.00000000000E+00  0.18143730557E+04  0.18143730557E+04  0.25500000920E-02 0.  1.
       -2   -1    0    0    0  501  0.00000000000E+00  0.00000000000E+00 -0.94356214012E+03  0.94356214012E+03  0.25500000920E-02 0. -1.
    10030    2    1    2    0    0  0.00000000000E+00  0.00000000000E+00  0.87081091559E+03  0.27579351958E+04  0.26168482749E+04 0.  0.
        2    1    3    3  502    0  0.12646607137E+04  0.26954948951E+03  0.22475407417E+03  0.13124549676E+04  0.25500000920E-02 0.  1.
       -2    1    3    3    0  502 -0.12646607137E+04 -0.26954948951E+03  0.64605684143E+03  0.14454802283E+04  0.25500000920E-02 0. -1.
</event>
<event>
 5   0  0.1474012E-05  0.2715684E+04  0.7818609E-02  0.8329934E-01
       -1   -1    0    0    0  501  0.00000000000E+00  0.00000000000E+00  0.11938974571E+04  0.11938974571E+04  0.50400001928E-02 0.  1.
        1   -1    0    0  501    0  0.00000000000E+00  0.00000000000E+00 -0.15442988869E+04  0.15442988869E+04  0.50400001928E-02 0. -1.
    10030    2    1    2    0    0  0.00000000000E+00  0.00000000000E+00 -0.35040142980E+03  0.27381963440E+04  0.27156837180E+04 0.  0.
        2    1    3    3  502    0 -0.77512123933E+03  0.45165667937E+03  0.85252704217E+03  0.12375819364E+04  0.25500000920E-02 0.  1.
       -2    1    3    3    0  502  0.77512123933E+03 -0.45165667937E+03 -0.12029284720E+04  0.15006144076E+04  0.25500000920E-02 0. -1.
</event>
<event>
 5   0  0.1228050E-05  0.2540640E+04  0.7818609E-02  0.8388649E-01
       -3   -1    0    0    0  501  0.00000000000E+00  0.00000000000E+00  0.19163780886E+04  0.19163780913E+04  0.10100000352E+00 0. -1.
        3   -1    0    0  501    0  0.00000000000E+00  0.00000000000E+00 -0.84206400067E+03  0.84206400673E+03  0.10100000352E+00 0.  1.
    10030    2    1    2    0    0  0.00000000000E+00  0.00000000000E+00  0.10743140879E+04  0.27584420980E+04  0.25406400864E+04 0.  0.
        1    1    3    3  502    0  0.87329710354E+02  0.91124933910E+03 -0.41909141938E+03  0.10067966300E+04  0.50400001928E-02 0.  1.
       -1    1    3    3    0  502 -0.87329710354E+02 -0.91124933910E+03  0.14934055073E+04  0.17516454680E+04  0.50400001928E-02 0. -1.
</event>
<event>
 5   0  0.1484379E-05  0.2665530E+04  0.7818609E-02  0.8346277E-01
       -1   -1    0    0    0  501  0.00000000000E+00  0.00000000000E+00  0.16380854370E+04  0.16380854370E+04  0.50400001928E-02 0.  1.
        1   -1    0    0  501    0  0.00000000000E+00  0.00000000000E+00 -0.10843529494E+04  0.10843529495E+04  0.50400001928E-02 0. -1.
    10030    2    1    2    0    0  0.00000000000E+00  0.00000000000E+00  0.55373248758E+03  0.27224383865E+04  0.26655301725E+04 0.  0.
        1    1    3    3  502    0  0.52816387353E+03  0.84605972771E+03 -0.62602572516E+03  0.11775747742E+04  0.50400001928E-02 0. -1.
       -1    1    3    3    0  502 -0.52816387353E+03 -0.84605972771E+03  0.11797582127E+04  0.15448636123E+04  0.50400001928E-02 0.  1.
</event>
<event>
 5   0  0.3514294E-05  0.2295588E+04  0.7818609E-02  0.8479663E-01
       -2   -1    0    0    0  501  0.00000000000E+00  0.00000000000E+00  0.15338352657E+04  0.15338352657E+04  0.25500000920E-02 0.  1.
        2   -1    0    0  501    0  0.00000000000E+00  0.00000000000E+00 -0.85891321731E+03  0.85891321732E+03  0.25500000920E-02 0. -1.
    10030    2    1    2    0    0  0.00000000000E+00  0.00000000000E+00  0.67492204843E+03  0.23927484831E+04  0.22955882757E+04 0.  0.
        2    1    3    3  502    0 -0.56871143198E+03  0.46455375853E+03 -0.58202568183E+03  0.93701482472E+03  0.25500000920E-02 0. -1.
       -2    1    3    3    0  502  0.56871143198E+03 -0.46455375853E+03  0.12569477303E+04  0.14557336583E+04  0.25500000920E-02 0.  1.
</event>
<event>
 5   0  0.3676724E-05  0.2350316E+04  0.7818609E-02  0.8458342E-01
       -2   -1    0    0    0  501  0.00000000000E+00  0.00000000000E+00  0.93970076393E+03  0.93970076393E+03  0.25500000920E-02 0. -1.
        2   -1    0    0  501    0  0.00000000000E+00  0.00000000000E+00 -0.14696122762E+04  0.14696122762E+04  0.25500000920E-02 0.  1.
    10030    2    1    2    0    0  0.00000000000E+00  0.00000000000E+00 -0.52991151229E+03  0.24093130402E+04  0.23503155351E+04 0.  0.
        4    1    3    3  502    0 -0.62678797255E+03  0.98984145637E+03 -0.35859922321E+03  0.12252527442E+04  0.12699999809E+01 0.  1.
       -4    1    3    3    0  502  0.62678797255E+03 -0.98984145637E+03 -0.17131228909E+03  0.11840602960E+04  0.12699999809E+01 0. -1.
</event>
<event>
 5   0  0.3652331E-05  0.2629419E+04  0.7818609E-02  0.8358277E-01
       -2   -1    0    0    0  501  0.00000000000E+00  0.00000000000E+00  0.12052620857E+04  0.12052620857E+04  0.25500000920E-02 0. -1.
        2   -1    0    0  501    0  0.00000000000E+00  0.00000000000E+00 -0.14340951167E+04  0.14340951167E+04  0.25500000920E-02 0.  1.
    10030    2    1    2    0    0  0.00000000000E+00  0.00000000000E+00 -0.22883303099E+03  0.26393572024E+04  0.26294185451E+04 0.  0.
        1    1    3    3  502    0  0.66025387458E+03 -0.11277811307E+04  0.29775372744E+02  0.13071771229E+04  0.50400001928E-02 0.  1.
       -1    1    3    3    0  502 -0.66025387458E+03  0.11277811307E+04 -0.25860840373E+03  0.13321800795E+04  0.50400001928E-02 0. -1.
</event>
<event>
 5   0  0.3652331E-05  0.2704887E+04  0.7818609E-02  0.8333421E-01
        2   -1    0    0  501    0  0.00000000000E+00  0.00000000000E+00  0.14563200201E+04  0.14563200201E+04  0.25500000920E-02 0. -1.
       -2   -1    0    0    0  501  0.00000000000E+00  0.00000000000E+00 -0.12559766793E+04  0.12559766793E+04  0.25500000920E-02 0.  1.
    10030    2    1    2    0    0  0.00000000000E+00  0.00000000000E+00  0.20034334079E+03  0.27122966994E+04  0.27048874156E+04 0.  0.
        1    1    3    3  502    0 -0.75125467530E+03 -0.65124167933E+03 -0.81918472492E+03  0.12882402438E+04  0.50400001928E-02 0.  1.
       -1    1    3    3    0  502  0.75125467530E+03  0.65124167933E+03  0.10195280657E+04  0.14240564556E+04  0.50400001928E-02 0. -1.
</event>
<event>
 5   0  0.1474012E-05  0.2625000E+04  0.7818609E-02  0.8359758E-01
       -1   -1    0    0    0  501  0.00000000000E+00  0.00000000000E+00  0.13659479152E+04  0.13659479152E+04  0.50400001928E-02 0. -1.
        1   -1    0    0  501    0  0.00000000000E+00  0.00000000000E+00 -0.12611436208E+04  0.12611436208E+04  0.50400001928E-02 0.  1.
    10030    2    1    2    0    0  0.00000000000E+00  0.00000000000E+00  0.10480429443E+03  0.26270915360E+04  0.26250001902E+04 0.  0.
        2    1    3    3  502    0 -0.30844802429E+03  0.74512627338E+03 -0.98394357108E+03  0.12722021451E+04  0.25500000920E-02 0.  1.
       -2    1    3    3    0  502  0.30844802429E+03 -0.74512627338E+03  0.10887478655E+04  0.13548893909E+04  0.25500000920E-02 0. -1.
</event>
<event>
 5   0  0.1228050E-05  0.2379390E+04  0.7818609E-02  0.8447260E-01
        4   -1    0    0  501    0  0.00000000000E+00  0.00000000000E+00  0.12233846036E+04  0.12233852628E+04  0.12699999809E+01 0.  1.
       -4   -1    0    0    0  501  0.00000000000E+00  0.00000000000E+00 -0.11569322532E+04  0.11569329503E+04  0.12699999809E+01 0. -1.
    10030    2    1    2    0    0  0.00000000000E+00  0.00000000000E+00  0.66452350385E+02  0.23803182131E+04  0.23793904431E+04 0.  0.
        4    1    3    3  502    0 -0.73110514930E+03 -0.93084373234E+03  0.15322424458E+03  0.11935091434E+04  0.12699999809E+01 0. -1.
       -4    1    3    3    0  502  0.73110514930E+03  0.93084373234E+03 -0.86771894198E+02  0.11868090697E+04  0.12699999809E+01 0.  1.
</event>
<event>
 5   0  0.3652331E-05  0.2777286E+04  0.7818609E-02  0.8310355E-01
       -2   -1    0    0    0  501  0.00000000000E+00  0.00000000000E+00  0.11653748441E+04  0.11653748441E+04  0.25500000920E-02 0. -1.
        2   -1    0    0  501    0  0.00000000000E+00  0.00000000000E+00 -0.16546855054E+04  0.16546855054E+04  0.25500000920E-02 0.  1.
    10030    2    1    2    0    0  0.00000000000E+00  0.00000000000E+00 -0.48931066128E+03  0.28200603495E+04  0.27772856266E+04 0.  0.
        1    1    3    3  502    0  0.16133453811E+02  0.11605202518E+04 -0.10188025669E+04  0.15443530080E+04  0.50400001928E-02 0.  1.
       -1    1    3    3    0  502 -0.16133453811E+02 -0.11605202518E+04  0.52949190561E+03  0.12757073415E+04  0.50400001928E-02 0. -1.
</event>
<event>
 5   0  0.3497949E-05  0.2096477E+04  0.7818609E-02  0.8562797E-01
       -2   -1    0    0    0  501  0.00000000000E+00  0.00000000000E+00  0.74763803360E+03  0.74763803360E+03  0.25500000920E-02 0. -1.
        2   -1    0    0  501    0  0.00000000000E+00  0.00000000000E+00 -0.14696998099E+04  0.14696998099E+04  0.25500000920E-02 0.  1.
    10030    2    1    2    0    0  0.00000000000E+00  0.00000000000E+00 -0.72206177626E+03  0.22173378435E+04  0.20964765449E+04 0.  0.
        5    1    3    3  502    0  0.48032207289E+03  0.63110642641E+03  0.36388501995E+03  0.87260472891E+03  0.46999998093E+01 0. -1.
       -5    1    3    3    0  502 -0.48032207289E+03 -0.63110642641E+03 -0.10859467962E+04  0.13447331146E+04  0.46999998093E+01 0.  1.
</event>
<event>
 5   0  0.3676724E-05  0.2643789E+04  0.7818609E-02  0.8353478E-01
       -2   -1    0    0    0  501  0.00000000000E+00  0.00000000000E+00  0.71452075805E+03  0.71452075805E+03  0.25500000920E-02 0. -1.
        2   -1    0    0  501    0  0.00000000000E+00  0.00000000000E+00 -0.24455615558E+04  0.24455615558E+04  0.25500000920E-02 0.  1.
    10030    2    1    2    0    0  0.00000000000E+00  0.00000000000E+00 -0.17310407977E+04  0.31600823138E+04  0.26437885670E+04 0.  0.
        4    1    3    3  502    0 -0.17209039670E+01 -0.12122689638E+04 -0.14955208058E+04  0.19251449544E+04  0.12699999809E+01 0.  1.
       -4    1    3    3    0  502  0.17209039670E+01  0.12122689638E+04 -0.23551999192E+03  0.12349373594E+04  0.12699999809E+01 0. -1.
</event>
<event>
 5   0  0.1484379E-05  0.2719825E+04  0.7818609E-02  0.8328601E-01
       -1   -1    0    0    0  501  0.00000000000E+00  0.00000000000E+00  0.24769055822E+04  0.24769055822E+04  0.50400001928E-02 0. -1.
        1   -1    0    0  501    0  0.00000000000E+00  0.00000000000E+00 -0.74664198891E+03  0.74664198893E+03  0.50400001928E-02 0.  1.
    10030    2    1    2    0    0  0.00000000000E+00  0.00000000000E+00  0.17302635933E+04  0.32235475711E+04  0.27198247813E+04 0.  0.
        1    1    3    3  502    0  0.84488209388E+03 -0.16203946853E+03 -0.38315272605E+03  0.94174760601E+03  0.50400001928E-02 0.  1.
       -1    1    3    3    0  502 -0.84488209388E+03  0.16203946853E+03  0.21134163193E+04  0.22817999651E+04  0.50400001928E-02 0. -1.
</event>
<event>
 5   0  0.3568647E-05  0.2565235E+04  0.7818609E-02  0.8380107E-01
       -2   -1    0    0    0  501  0.00000000000E+00  0.00000000000E+00  0.11692689121E+04  0.11692689121E+04  0.25500000920E-02 0.  1.
        2   -1    0    0  501    0  0.00000000000E+00  0.00000000000E+00 -0.14069545305E+04  0.14069545305E+04  0.25500000920E-02 0. -1.
    10030    2    1    2    0    0  0.00000000000E+00  0.00000000000E+00 -0.23768561837E+03  0.25762234426E+04  0.25652354225E+04 0.  0.
        3    1    3    3  502    0  0.11106322459E+04 -0.23214867506E+03  0.48180868614E+03  0.12326948581E+04  0.10100000352E+00 0.  1.
       -3    1    3    3    0  502 -0.11106322459E+04  0.23214867506E+03 -0.71949430450E+03  0.13435285845E+04  0.10100000352E+00 0. -1.
</event>
<event>
 5   0  0.3652331E-05  0.2735040E+04  0.7818609E-02  0.8323724E-01
       -2   -1    0    0    0  501  0.00000000000E+00  0.00000000000E+00  0.10967893788E+04  0.10967893788E+04  0.25500000920E-02 0. -1.
        2   -1    0    0  501    0  0.00000000000E+00  0.00000000000E+00 -0.17050781232E+04  0.17050781232E+04  0.25500000920E-02 0.  1.
    10030    2    1    2    0    0  0.00000000000E+00  0.00000000000E+00 -0.60828874440E+03  0.28018675020E+04  0.27350404572E+04 0.  0.
        1    1    3    3  502    0  0.59121484807E+03  0.42015506099E+03 -0.14918011582E+04  0.16587754422E+04  0.50400001928E-02 0.  1.
       -1    1    3    3    0  502 -0.59121484807E+03 -0.42015506099E+03  0.88351241384E+03  0.11430920599E+04  0.50400001928E-02 0. -1.
</event>
<event>
 5   0  0.1438701E-05  0.1610794E+04  0.7818609E-02  0.8813944E-01
        1   -1    0    0  501    0  0.00000000000E+00  0.00000000000E+00  0.93422642206E+03  0.93422642208E+03  0.50400001928E-02 0. -1.
       -1   -1    0    0    0  501  0.00000000000E+00  0.00000000000E+00 -0.69433295145E+03  0.69433295147E+03  0.50400001928E-02 0.  1.
    10030    2    1    2    0    0  0.00000000000E+00  0.00000000000E+00  0.23989347061E+03  0.16285593736E+04  0.16107938279E+04 0.  0.
        4    1    3    3  502    0 -0.28882271576E+03  0.35291294654E+03 -0.55122463716E+03  0.71541339272E+03  0.12699999809E+01 0.  1.
       -4    1    3    3    0  502  0.28882271576E+03 -0.35291294654E+03  0.79111810777E+03  0.91314598083E+03  0.12699999809E+01 0. -1.
</event>
<event>
 5   0  0.3568647E-05  0.1453039E+04  0.7818609E-02  0.8916297E-01
        2   -1    0    0  501    0  0.00000000000E+00  0.00000000000E+00  0.29066974920E+04  0.29066974920E+04  0.25500000920E-02 0. -1.
       -2   -1    0    0    0  501  0.00000000000E+00  0.00000000000E+00 -0.18159110295E+03  0.18159110297E+03  0.25500000920E-02 0.  1.
    10030    2    1    2    0    0  0.00000000000E+00  0.00000000000E+00  0.27251063890E+04  0.30882885949E+04  0.14530387518E+04 0.  0.
        3    1    3    3  502    0 -0.61702725244E+03  0.20578225804E+03  0.67462773900E+03  0.93711875683E+03  0.10100000352E+00 0.  1.
       -3    1    3    3    0  502  0.61702725244E+03 -0.20578225804E+03  0.20504786500E+04  0.21511698381E+04  0.10100000352E+00 0. -1.
</event>
<event>
 5   0  0.3652331E-05  0.2577278E+04  0.7818609E-02  0.8375961E-01
        2   -1    0    0  501    0  0.00000000000E+00  0.00000000000E+00  0.27788316358E+04  0.27788316358E+04  0.25500000920E-02 0.  1.
       -2   -1    0    0    0  501  0.00000000000E+00  0.00000000000E+00 -0.59758563193E+03  0.59758563194E+03  0.25500000920E-02 0. -1.
    10030    2    1    2    0    0  0.00000000000E+00  0.00000000000E+00  0.21812460039E+04  0.33764172678E+04  0.25772775242E+04 0.  0.
        1    1    3    3  502    0  0.22236536516E+03 -0.68411694902E+03  0.24913137605E+04  0.25930882378E+04  0.50400001928E-02 0.  1.
       -1    1    3    3    0  502 -0.22236536516E+03  0.68411694902E+03 -0.31006775659E+03  0.78332903001E+03  0.50400001928E-02 0. -1.
</event>
<event>
 5   0  0.1474012E-05  0.2499308E+04  0.7818609E-02  0.8403232E-01
        1   -1    0    0  501    0  0.00000000000E+00  0.00000000000E+00  0.98050568472E+03  0.98050568473E+03  0.50400001928E-02 0. -1.
       -1   -1    0    0    0  501  0.00000000000E+00  0.00000000000E+00 -0.15926839203E+04  0.15926839203E+04  0.50400001928E-02 0.  1.
    10030    2    1    2    0    0  0.00000000000E+00  0.00000000000E+00 -0.61217823556E+03  0.25731896050E+04  0.24993084146E+04 0.  0.
        2    1    3    3  502    0 -0.91398217560E+03  0.82128712490E+03 -0.54032192534E+03  0.13423202829E+04  0.25500000920E-02 0. -1.
       -2    1    3    3    0  502  0.91398217560E+03 -0.82128712490E+03 -0.71856310227E+02  0.12308693221E+04  0.25500000920E-02 0.  1.
</event>
<event>
 5   0  0.3497949E-05  0.2640802E+04  0.7818609E-02  0.8354472E-01
       -2   -1    0    0    0  501  0.00000000000E+00  0.00000000000E+00  0.11339431109E+04  0.11339431109E+04  0.25500000920E-02 0. -1.
        2   -1    0    0  501    0  0.00000000000E+00  0.00000000000E+00 -0.15375185278E+04  0.15375185278E+04  0.25500000920E-02 0.  1.
    10030    2    1    2    0    0  0.00000000000E+00  0.00000000000E+00 -0.40357541690E+03  0.26714616388E+04  0.26408018044E+04 0.  0.
        5    1    3    3  502    0  0.64305295427E+03  0.86117348735E+03 -0.97769958879E+03  0.14529471612E+04  0.46999998093E+01 0.  1.
       -5    1    3    3    0  502 -0.64305295427E+03 -0.86117348735E+03  0.57412417189E+03  0.12185144776E+04  0.46999998093E+01 0. -1.
</event>
<event>
 5   0  0.1484379E-05  0.2646684E+04  0.7818609E-02  0.8352514E-01
        1   -1    0    0  501    0  0.00000000000E+00  0.00000000000E+00  0.28829714418E+04  0.28829714418E+04  0.50400001928E-02 0. -1.
       -1   -1    0    0    0  501  0.00000000000E+00  0.00000000000E+00 -0.60744086917E+03  0.60744086919E+03  0.50400001928E-02 0.  1.
    10030    2    1    2    0    0  0.00000000000E+00  0.00000000000E+00  0.22755305726E+04  0.34904123110E+04  0.26466844757E+04 0.  0.
        1    1    3    3  502    0  0.26827741150E+03 -0.51471212077E+03 -0.43061166587E+03  0.72272245268E+03  0.50400001928E-02 0.  1.
       -1    1    3    3    0  502 -0.26827741150E+03  0.51471212077E+03  0.27061422385E+04  0.27676898583E+04  0.50400001928E-02 0. -1.
</event>
<event>
 5   0  0.3652331E-05  0.2677895E+04  0.7818609E-02  0.8342213E-01
       -2   -1    0    0    0  501  0.00000000000E+00  0.00000000000E+00  0.16025456435E+04  0.16025456435E+04  0.25500000920E-02 0.  1.
        2   -1    0    0  501    0  0.00000000000E+00  0.00000000000E+00 -0.11187081270E+04  0.11187081270E+04  0.25500000920E-02 0. -1.
    10030    2    1    2    0    0  0.00000000000E+00  0.00000000000E+00  0.48383751652E+03  0.27212537705E+04  0.26778953193E+04 0.  0.
        1    1    3    3  502    0 -0.59018690866E+03  0.44428975232E+03 -0.89288382957E+03  0.11588595706E+04  0.50400001928E-02 0. -1.
       -1    1    3    3    0  502  0.59018690866E+03 -0.44428975232E+03  0.13767213461E+04  0.15623941999E+04  0.50400001928E-02 0.  1.
</event>
<event>
 5   0  0.3514294E-05  0.2517722E+04  0.7818609E-02  0.8396699E-01
       -2   -1    0    0    0  501  0.00000000000E+00  0.00000000000E+00  0.79303251344E+03  0.79303251345E+03  0.25500000920E-02 0. -1.
        2   -1    0    0  501    0  0.00000000000E+00  0.00000000000E+00 -0.19983174287E+04  0.19983174287E+04  0.25500000920E-02 0.  1.
    10030    2    1    2    0    0  0.00000000000E+00  0.00000000000E+00 -0.12052849152E+04  0.27913499421E+04  0.25177217425E+04 0.  0.
        2    1    3    3  502    0 -0.78641885817E+03  0.92154327045E+03 -0.98192487985E+03  0.15594464048E+04  0.25500000920E-02 0.  1.
       -2    1    3    3    0  502  0.78641885817E+03 -0.92154327045E+03 -0.22336003537E+03  0.12319035373E+04  0.25500000920E-02 0. -1.
</event>
<event>
 5   0  0.1495517E-05  0.2375229E+04  0.7818609E-02  0.8448836E-01
        1   -1    0    0  501    0  0.00000000000E+00  0.00000000000E+00  0.28122559915E+04  0.28122559915E+04  0.50400001928E-02 0. -1.
       -1   -1    0    0    0  501  0.00000000000E+00  0.00000000000E+00 -0.50152902533E+03  0.50152902535E+03  0.50400001928E-02 0.  1.
    10030    2    1    2    0    0  0.00000000000E+00  0.00000000000E+00  0.23107269662E+04  0.33137850169E+04  0.23752288365E+04 0.  0.
        5    1    3    3  502    0  0.85034173338E+03 -0.76083076228E+03  0.16148327674E+04  0.19772838616E+04  0.46999998093E+01 0. -1.
       -5    1    3    3    0  502 -0.85034173338E+03  0.76083076228E+03  0.69589419876E+03  0.13365011553E+04  0.46999998093E+01 0.  1.
</event>
<event>
 5   0  0.1449521E-05  0.2319179E+04  0.7818609E-02  0.8470397E-01
       -1   -1    0    0    0  501  0.00000000000E+00  0.00000000000E+00  0.76926759807E+03  0.76926759808E+03  0.50400001928E-02 0. -1.
        1   -1    0    0  501    0  0.00000000000E+00  0.00000000000E+00 -0.17479581467E+04  0.17479581467E+04  0.50400001928E-02 0.  1.
    10030    2    1    2    0    0  0.00000000000E+00  0.00000000000E+00 -0.97869054861E+03  0.25172257448E+04  0.23191787900E+04 0.  0.
        3    1    3    3  502    0  0.65830105714E+03  0.94251545369E+03 -0.65378138093E+03  0.13225451851E+04  0.10100000352E+00 0. -1.
       -3    1    3    3    0  502 -0.65830105714E+03 -0.94251545369E+03 -0.32490916768E+03  0.11946805597E+04  0.10100000352E+00 0.  1.
</event>
<event>
 5   0  0.3568647E-05  0.2377247E+04  0.7818609E-02  0.8448071E-01
       -2   -1    0    0    0  501  0.00000000000E+00  0.00000000000E+00  0.98271563651E+03  0.98271563652E+03  0.25500000920E-02 0.  1.
        2   -1    0    0  501    0  0.00000000000E+00  0.00000000000E+00 -0.14376756784E+04  0.14376756784E+04  0.25500000920E-02 0. -1.
    10030    2    1    2    0    0  0.00000000000E+00  0.00000000000E+00 -0.45496004187E+03  0.24203913149E+04  0.23772474582E+04 0.  0.
        3    1    3    3  502    0 -0.17176955950E+03 -0.10877636578E+04  0.22795439113E+03  0.11245878229E+04  0.10100000352E+00 0.  1.
       -3    1    3    3    0  502  0.17176955950E+03  0.10877636578E+04 -0.68291443300E+03  0.12958034920E+04  0.10100000352E+00 0. -1.
</event>
<event>
 5   0  0.3497949E-05  0.2622142E+04  0.7818609E-02  0.8360719E-01
        2   -1    0    0  501    0  0.00000000000E+00  0.00000000000E+00  0.14289679962E+04  0.14289679962E+04  0.25500000920E-02 0. -1.
       -2   -1    0    0    0  501  0.00000000000E+00  0.00000000000E+00 -0.12029012878E+04  0.12029012878E+04  0.25500000920E-02 0.  1.
    10030    2    1    2    0    0  0.00000000000E+00  0.00000000000E+00  0.22606670843E+03  0.26318692840E+04  0.26221422103E+04 0.  0.
        5    1    3    3  502    0 -0.23999907433E+03 -0.59260477578E+03  0.12618776927E+04  0.14146156288E+04  0.46999998093E+01 0. -1.
       -5    1    3    3    0  502  0.23999907433E+03  0.59260477578E+03 -0.10358109842E+04  0.12172536552E+04  0.46999998093E+01 0.  1.
</event>
<event>
 5   0  0.1495517E-05  0.2765912E+04  0.7818609E-02  0.8313930E-01
       -1   -1    0    0    0  501  0.00000000000E+00  0.00000000000E+00  0.20572757787E+04  0.20572757787E+04  0.50400001928E-02 0.  1.
        1   -1    0    0  501    0  0.00000000000E+00  0.00000000000E+00 -0.92966032634E+03  0.92966032635E+03  0.50400001928E-02 0. -1.
    10030    2    1    2    0    0  0.00000000000E+00  0.00000000000E+00  0.11276154524E+04  0.29869361050E+04  0.27659122703E+04 0.  0.
        5    1    3    3  502    0  0.23087658363E+03 -0.58109928731E+03 -0.76827996533E+03  0.99058395591E+03  0.46999998093E+01 0. -1.
       -5    1    3    3    0  502 -0.23087658363E+03  0.58109928731E+03  0.18958954177E+04  0.19963521491E+04  0.46999998093E+01 0.  1.
</event>
<event>
 5   0  0.3652331E-05  0.2754644E+04  0.7818609E-02  0.8317490E-01
        2   -1    0    0  501    0  0.00000000000E+00  0.00000000000E+00  0.16144518824E+04  0.16144518824E+04  0.25500000920E-02 0.  1.
       -2   -1    0    0    0  501  0.00000000000E+00  0.00000000000E+00 -0.11750214377E+04  0.11750214377E+04  0.25500000920E-02 0. -1.
    10030    2    1    2    0    0  0.00000000000E+00  0.00000000000E+00  0.43943044467E+03  0.27894733201E+04  0.27546437679E+04 0.  0.
        1    1    3    3  502    0 -0.57352238592E+03 -0.39106059530E+03 -0.98493073197E+03  0.12049667477E+04  0.50400001928E-02 0. -1.
       -1    1    3    3    0  502  0.57352238592E+03  0.39106059530E+03  0.14243611766E+04  0.15845065724E+04  0.50400001928E-02 0.  1.
</event>
<event>
 5   0  0.1484379E-05  0.2690687E+04  0.7818609E-02  0.8338033E-01
       -1   -1    0    0    0  501  0.00000000000E+00  0.00000000000E+00  0.14560875891E+04  0.14560875891E+04  0.50400001928E-02 0.  1.
        1   -1    0    0  501    0  0.00000000000E+00  0.00000000000E+00 -0.12430219729E+04  0.12430219729E+04  0.50400001928E-02 0. -1.
    10030    2    1    2    0    0  0.00000000000E+00  0.00000000000E+00  0.21306561618E+03  0.26991095620E+04  0.26906868028E+04 0.  0.
        1    1    3    3  502    0 -0.75656745445E+03  0.97068955915E+03  0.65166408400E+03  0.13925870213E+04  0.50400001928E-02 0.  1.
       -1    1    3    3    0  502  0.75656745445E+03 -0.97068955915E+03 -0.43859846783E+03  0.13065225407E+04  0.50400001928E-02 0. -1.
</event>
<event>
 5   0  0.3568647E-05  0.2688173E+04  0.7818609E-02  0.8338853E-01
        2   -1    0    0  501    0  0.00000000000E+00  0.00000000000E+00  0.19783619848E+04  0.19783619848E+04  0.25500000920E-02 0.  1.
       -2   -1    0    0    0  501  0.00000000000E+00  0.00000000000E+00 -0.91316367548E+03  0.91316367548E+03  0.25500000920E-02 0. -1.
    10030    2    1    2    0    0  0.00000000000E+00  0.00000000000E+00  0.10651983093E+04  0.28915256603E+04  0.26881728378E+04 0.  0.
        3    1    3    3  502    0 -0.12304466900E+04  0.11801794221E+03  0.11003952112E+04  0.16549310930E+04  0.10100000352E+00 0. -1.
       -3    1    3    3    0  502  0.12304466900E+04 -0.11801794221E+03 -0.35196901860E+02  0.12365945673E+04  0.10100000352E+00 0.  1.
</event>
<event>
 5   0  0.3676724E-05  0.1642321E+04  0.7818609E-02  0.8794962E-01
        2   -1    0    0  501    0  0.00000000000E+00  0.00000000000E+00  0.12622816889E+04  0.12622816889E+04  0.25500000920E-02 0.  1.
       -2   -1    0    0    0  501  0.00000000000E+00  0.00000000000E+00 -0.53419491524E+03  0.53419491524E+03  0.25500000920E-02 0. -1.
    10030    2    1    2    0    0  0.00000000000E+00  0.00000000000E+00  0.72808677362E+03  0.17964766041E+04  0.16423208697E+04 0.  0.
        4    1    3    3  502    0  0.31539486204E+03  0.25409086661E+03 -0.41733643670E+03  0.58155601776E+03  0.12699999809E+01 0. -1.
       -4    1    3    3    0  502 -0.31539486204E+03 -0.25409086661E+03  0.11454232103E+04  0.12149205863E+04  0.12699999809E+01 0.  1.
</event>
<event>
 5   0  0.3514294E-05  0.2702621E+04  0.7818609E-02  0.8334155E-01
       -2   -1    0    0    0  501  0.00000000000E+00  0.00000000000E+00  0.80259264462E+03  0.80259264462E+03  0.25500000920E-02 0.  1.
        2   -1    0    0  501    0  0.00000000000E+00  0.00000000000E+00 -0.22751768015E+04  0.22751768015E+04  0.25500000920E-02 0. -1.
    10030    2    1    2    0    0  0.00000000000E+00  0.00000000000E+00 -0.14725841569E+04  0.30777694461E+04  0.27026210730E+04 0.  0.
        2    1    3    3  502    0 -0.92819644503E+03 -0.78947992417E+03 -0.14015096214E+04  0.18571635388E+04  0.25500000920E-02 0. -1.
       -2    1    3    3    0  502  0.92819644503E+03  0.78947992417E+03 -0.71074535489E+02  0.12206059073E+04  0.25500000920E-02 0.  1.
</event>
<event>
 5   0  0.3514294E-05  0.2774031E+04  0.7818609E-02  0.8311376E-01
        2   -1    0    0  501    0  0.00000000000E+00  0.00000000000E+00  0.10720308086E+04  0.10720308086E+04  0.25500000920E-02 0.  1.
       -2   -1    0    0    0  501  0.00000000000E+00  0.00000000000E+00 -0.17945485615E+04  0.17945485615E+04  0.25500000920E-02 0. -1.
    10030    2    1    2    0    0  0.00000000000E+00  0.00000000000E+00 -0.72251775291E+03  0.28665793701E+04  0.27740305301E+04 0.  0.
        2    1    3    3  502    0  0.12269131424E+04  0.41709277802E+03 -0.87225547606E+03  0.15620857403E+04  0.25500000920E-02 0. -1.
       -2    1    3    3    0  502 -0.12269131424E+04 -0.41709277802E+03  0.14973772316E+03  0.13044936298E+04  0.25500000920E-02 0.  1.
</event>
<event>
 5   0  0.3652331E-05  0.2716724E+04  0.7818609E-02  0.8329599E-01
        2   -1    0    0  501    0  0.00000000000E+00  0.00000000000E+00  0.11606978336E+04  0.11606978336E+04  0.25500000920E-02 0. -1.
       -2   -1    0    0    0  501  0.00000000000E+00  0.00000000000E+00 -0.15896879994E+04  0.15896879994E+04  0.25500000920E-02 0.  1.
    10030    2    1    2    0    0  0.00000000000E+00  0.00000000000E+00 -0.42899016580E+03  0.27503858330E+04  0.27167240691E+04 0.  0.
        1    1    3    3  502    0 -0.25065818450E+03  0.58122525689E+03 -0.14312584533E+04  0.15649770238E+04  0.50400001928E-02 0.  1.
       -1    1    3    3    0  502  0.25065818450E+03 -0.58122525689E+03  0.10022682875E+04  0.11854088092E+04  0.50400001928E-02 0. -1.
</event>
<event>
 5   0  0.1495517E-05  0.1587119E+04  0.7818609E-02  0.8828500E-01
        1   -1    0    0  501    0  0.00000000000E+00  0.00000000000E+00  0.68333755775E+03  0.68333755777E+03  0.50400001928E-02 0.  1.
       -1   -1    0    0    0  501  0.00000000000E+00  0.00000000000E+00 -0.92156071910E+03  0.92156071911E+03  0.50400001928E-02 0. -1.
    10030    2    1    2    0    0  0.00000000000E+00  0.00000000000E+00 -0.23822316135E+03  0.16048982769E+04  0.15871194676E+04 0.  0.
        5    1    3    3  502    0  0.77371566632E+03  0.17464184084E+03 -0.14344892896E+03  0.80606165403E+03  0.46999998093E+01 0.  1.
       -5    1    3    3    0  502 -0.77371566632E+03 -0.17464184084E+03 -0.94774232384E+02  0.79883662285E+03  0.46999998093E+01 0. -1.
</event>
<event>
 5   0  0.1484379E-05  0.2628588E+04  0.7818609E-02  0.8358555E-01
       -1   -1    0    0    0  501  0.00000000000E+00  0.00000000000E+00  0.96117638227E+03  0.96117638228E+03  0.50400001928E-02 0. -1.
        1   -1    0    0  501    0  0.00000000000E+00  0.00000000000E+00 -0.17971396181E+04  0.17971396181E+04  0.50400001928E-02 0.  1.
    10030    2    1    2    0    0  0.00000000000E+00  0.00000000000E+00 -0.83596323584E+03  0.27583160004E+04  0.26285875725E+04 0.  0.
        1    1    3    3  502    0 -0.24252829589E+03 -0.10396338555E+04  0.38647563465E+03  0.11353510224E+04  0.50400001928E-02 0. -1.
       -1    1    3    3    0  502  0.24252829589E+03  0.10396338555E+04 -0.12224388705E+04  0.16229649780E+04  0.50400001928E-02 0.  1.
</event>
<event>
 5   0  0.3652331E-05  0.2650315E+04  0.7818609E-02  0.8351308E-01
        2   -1    0    0  501    0  0.00000000000E+00  0.00000000000E+00  0.21021639464E+04  0.21021639464E+04  0.25500000920E-02 0.  1.
       -2   -1    0    0    0  501  0.00000000000E+00  0.00000000000E+00 -0.83534974876E+03  0.83534974876E+03  0.25500000920E-02 0. -1.
    10030    2    1    2    0    0  0.00000000000E+00  0.00000000000E+00  0.12668141976E+04  0.29375136951E+04  0.26503147922E+04 0.  0.
        1    1    3    3  502    0 -0.16701899572E+03 -0.46866628233E+03  0.19947104353E+04  0.20558242021E+04  0.50400001928E-02 0.  1.
       -1    1    3    3    0  502  0.16701899572E+03  0.46866628233E+03 -0.72789623775E+03  0.88168949300E+03  0.50400001928E-02 0. -1.
</event>
<event>
 5   0  0.1474012E-05  0.2651965E+04  0.7818609E-02  0.8350761E-01
        1   -1    0    0  501    0  0.00000000000E+00  0.00000000000E+00  0.18645720014E+04  0.18645720014E+04  0.50400001928E-02 0.  1.
       -1   -1    0    0    0  501  0.00000000000E+00  0.00000000000E+00 -0.94296659480E+03  0.94296659482E+03  0.50400001928E-02 0. -1.
    10030    2    1    2    0    0  0.00000000000E+00  0.00000000000E+00  0.92160540657E+03  0.28075385962E+04  0.26519646385E+04 0.  0.
        2    1    3    3  502    0 -0.14439150992E+03  0.61109978345E+03  0.16971919036E+04  0.18096276443E+04  0.25500000920E-02 0.  1.
       -2    1    3    3    0  502  0.14439150992E+03 -0.61109978345E+03 -0.77558649703E+03  0.99791095187E+03  0.25500000920E-02 0. -1.
</event>
<event>
 5   0  0.1449521E-05  0.2158338E+04  0.7818609E-02  0.8535972E-01
        1   -1    0    0  501    0  0.00000000000E+00  0.00000000000E+00  0.17785347025E+04  0.17785347025E+04  0.50400001928E-02 0. -1.
       -1   -1    0    0    0  501  0.00000000000E+00  0.00000000000E+00 -0.65481183583E+03  0.65481183585E+03  0.50400001928E-02 0.  1.
    10030    2    1    2    0    0  0.00000000000E+00  0.00000000000E+00  0.11237228667E+04  0.24333465384E+04  0.21583378546E+04 0.  0.
        3    1    3    3  502    0  0.10022548524E+04 -0.27273715927E+03  0.89191783623E+03  0.13690937820E+04  0.10100000352E+00 0. -1.
       -3    1    3    3    0  502 -0.10022548524E+04  0.27273715927E+03  0.23180503046E+03  0.10642527564E+04  0.10100000352E+00 0.  1.
</event>
<event>
 5   0  0.1438701E-05  0.2549849E+04  0.7818609E-02  0.8385439E-01
        1   -1    0    0  501    0  0.00000000000E+00  0.00000000000E+00  0.17274874448E+04  0.17274874448E+04  0.50400001928E-02 0.  1.
       -1   -1    0    0    0  501  0.00000000000E+00  0.00000000000E+00 -0.94092274213E+03  0.94092274215E+03  0.50400001928E-02 0. -1.
    10030    2    1    2    0    0  0.00000000000E+00  0.00000000000E+00  0.78656470268E+03  0.26684101870E+04  0.25498487983E+04 0.  0.
        4    1    3    3  502    0 -0.63421721026E+03 -0.98500755830E+03  0.91961879899E+03  0.14893527816E+04  0.12699999809E+01 0.  1.
       -4    1    3    3    0  502  0.63421721026E+03  0.98500755830E+03 -0.13305409632E+03  0.11790574054E+04  0.12699999809E+01 0. -1.
</event>
<event>
 5   0  0.3652331E-05  0.1391207E+04  0.7818609E-02  0.8960208E-01
        2   -1    0    0  501    0  0.00000000000E+00  0.00000000000E+00  0.20294408494E+04  0.20294408494E+04  0.25500000920E-02 0. -1.
       -2   -1    0    0    0  501  0.00000000000E+00  0.00000000000E+00 -0.23842247446E+03  0.23842247448E+03  0.25500000920E-02 0.  1.
    10030    2    1    2    0    0  0.00000000000E+00  0.00000000000E+00  0.17910183749E+04  0.22678633239E+04  0.13912071149E+04 0.  0.
        1    1    3    3  502    0 -0.19748955118E+03  0.59461173709E+03  0.40295018558E+03  0.74493898595E+03  0.50400001928E-02 0.  1.
       -1    1    3    3    0  502  0.19748955118E+03 -0.59461173709E+03  0.13880681893E+04  0.15229243379E+04  0.50400001928E-02 0. -1.
</event>
<event>
 5   0  0.1474012E-05  0.2162430E+04  0.7818609E-02  0.8534230E-01
       -1   -1    0    0    0  501  0.00000000000E+00  0.00000000000E+00  0.76999350320E+03  0.76999350322E+03  0.50400001928E-02 0.  1.
        1   -1    0    0  501    0  0.00000000000E+00  0.00000000000E+00 -0.15182275482E+04  0.15182275482E+04  0.50400001928E-02 0. -1.
    10030    2    1    2    0    0  0.00000000000E+00  0.00000000000E+00 -0.74823404496E+03  0.22882210514E+04  0.21624295119E+04 0.  0.
        2    1    3    3  502    0  0.10846970715E+03  0.28725366681E+02  0.76381558235E+03  0.77201364489E+03  0.25500000920E-02 0.  1.
       -2    1    3    3    0  502 -0.10846970715E+03 -0.28725366681E+02 -0.15120496273E+04  0.15162074065E+04  0.25500000920E-02 0. -1.
</event>
<event>
 5   0  0.1449521E-05  0.2716174E+04  0.7818609E-02  0.8329776E-01
        1   -1    0    0  501    0  0.00000000000E+00  0.00000000000E+00  0.82520116940E+03  0.82520116941E+03  0.50400001928E-02 0.  1.
       -1   -1    0    0    0  501  0.00000000000E+00  0.00000000000E+00 -0.22350913534E+04  0.22350913534E+04  0.50400001928E-02 0. -1.
    10030    2    1    2    0    0  0.00000000000E+00  0.00000000000E+00 -0.14098901840E+04  0.30602925229E+04  0.27161737784E+04 0.  0.
        3    1    3    3  502    0  0.86337660280E+03  0.26083621672E+03  0.43904746809E+03  0.10031038728E+04  0.10100000352E+00 0.  1.
       -3    1    3    3    0  502 -0.86337660280E+03 -0.26083621672E+03 -0.18489376521E+04  0.20571886500E+04  0.10100000352E+00 0. -1.
</event>
<event>
 5   0  0.1495517E-05  0.2521421E+04  0.7818609E-02  0.8395394E-01
        1   -1    0    0  501    0  0.00000000000E+00  0.00000000000E+00  0.12976674916E+04  0.12976674917E+04  0.50400001928E-02 0. -1.
       -1   -1    0    0    0  501  0.00000000000E+00  0.00000000000E+00 -0.12248064869E+04  0.12248064869E+04  0.50400001928E-02 0.  1.
    10030    2    1    2    0    0  0.00000000000E+00  0.00000000000E+00  0.72861004758E+02  0.25224739786E+04  0.25214214734E+04 0.  0.
        5    1    3    3  502    0 -0.96568921510E+03  0.48809879416E+03 -0.61081203159E+03  0.12425415570E+04  0.46999998093E+01 0.  1.
       -5    1    3    3    0  502  0.96568921510E+03 -0.48809879416E+03  0.68367303635E+03  0.12799324215E+04  0.46999998093E+01 0. -1.
</event>
<event>
 5   0  0.3652331E-05  0.2689893E+04  0.7818609E-02  0.8338292E-01
        2   -1    0    0  501    0  0.00000000000E+00  0.00000000000E+00  0.24914126242E+04  0.24914126242E+04  0.25500000920E-02 0. -1.
       -2   -1    0    0    0  501  0.00000000000E+00  0.00000000000E+00 -0.72604651556E+03  0.72604651557E+03  0.25500000920E-02 0.  1.
    10030    2    1    2    0    0  0.00000000000E+00  0.00000000000E+00  0.17653661086E+04  0.32174591398E+04  0.26898932727E+04 0.  0.
        1    1    3    3  502    0 -0.25253197545E+03  0.85130732024E+03  0.20909419565E+04  0.22716810554E+04  0.50400001928E-02 0. -1.
       -1    1    3    3    0  502  0.25253197545E+03 -0.85130732024E+03 -0.32557584784E+03  0.94577808436E+03  0.50400001928E-02 0.  1.
</event>
<event>
 5   0  0.1495517E-05  0.2701212E+04  0.7818609E-02  0.8334612E-01
        1   -1    0    0  501    0  0.00000000000E+00  0.00000000000E+00  0.13174750654E+04  0.13174750654E+04  0.50400001928E-02 0.  1.
       -1   -1    0    0    0  501  0.00000000000E+00  0.00000000000E+00 -0.13845703078E+04  0.13845703078E+04  0.50400001928E-02 0. -1.
    10030    2    1    2    0    0  0.00000000000E+00  0.00000000000E+00 -0.67095242358E+02  0.27020453733E+04  0.27012122145E+04 0.  0.
        5    1    3    3  502    0  0.93261010330E+03 -0.22293911504E+03 -0.98497258322E+03  0.13746477852E+04  0.46999998093E+01 0. -1.
       -5    1    3    3    0  502 -0.93261010330E+03  0.22293911504E+03  0.91787734086E+03  0.13273975880E+04  0.46999998093E+01 0.  1.
</event>
<event>
 5   0  0.3514294E-05  0.2637377E+04  0.7818609E-02  0.8355615E-01
       -2   -1    0    0    0  501  0.00000000000E+00  0.00000000000E+00  0.79349692406E+03  0.79349692406E+03  0.25500000920E-02 0. -1.
        2   -1    0    0  501    0  0.00000000000E+00  0.00000000000E+00 -0.21914881579E+04  0.21914881579E+04  0.25500000920E-02 0.  1.
    10030    2    1    2    0    0  0.00000000000E+00  0.00000000000E+00 -0.13979912338E+04  0.29849850819E+04  0.26373768122E+04 0.  0.
        2    1    3    3  502    0 -0.36766468717E+02 -0.72921096551E+03  0.54384257837E+03  0.91042031804E+03  0.25500000920E-02 0. -1.
       -2    1    3    3    0  502  0.36766468717E+02  0.72921096551E+03 -0.19418338122E+04  0.20745647639E+04  0.25500000920E-02 0.  1.
</event>
<event>
 5   0  0.1474012E-05  0.1411558E+04  0.7818609E-02  0.8945495E-01
        1   -1    0    0  501    0  0.00000000000E+00  0.00000000000E+00  0.72618658993E+03  0.72618658995E+03  0.50400001928E-02 0.  1.
       -1   -1    0    0    0  501  0.00000000000E+00  0.00000000000E+00 -0.68594488142E+03  0.68594488143E+03  0.50400001928E-02 0. -1.
    10030    2    1    2    0    0  0.00000000000E+00  0.00000000000E+00  0.40241708517E+02  0.14121314714E+04  0.14115579681E+04 0.  0.
        2    1    3    3  502    0 -0.25718185946E+03 -0.65089126085E+03  0.11138309047E+03  0.70866644843E+03  0.25500000920E-02 0. -1.
       -2    1    3    3    0  502  0.25718185946E+03  0.65089126085E+03 -0.71141381950E+02  0.70346502295E+03  0.25500000920E-02 0.  1.
</event>
<event>
 5   0  0.3497949E-05  0.2715263E+04  0.7818609E-02  0.8330070E-01
       -2   -1    0    0    0  501  0.00000000000E+00  0.00000000000E+00  0.71655108479E+03  0.71655108479E+03  0.25500000920E-02 0.  1.
        2   -1    0    0  501    0  0.00000000000E+00  0.00000000000E+00 -0.25722700867E+04  0.25722700867E+04  0.25500000920E-02 0. -1.
    10030    2    1    2    0    0  0.00000000000E+00  0.00000000000E+00 -0.18557190019E+04  0.32888211715E+04  0.27152627284E+04 0.  0.
        5    1    3    3  502    0  0.77606184146E+03 -0.89281169403E+03 -0.12099504719E+03  0.11891369115E+04  0.46999998093E+01 0.  1.
       -5    1    3    3    0  502 -0.77606184146E+03  0.89281169403E+03 -0.17347239547E+04  0.20996842600E+04  0.46999998093E+01 0. -1.
</event>
<event>
 5   0  0.3676724E-05  0.2639740E+04  0.7818609E-02  0.8354826E-01
       -2   -1    0    0    0  501  0.00000000000E+00  0.00000000000E+00  0.80910131135E+03  0.80910131135E+03  0.25500000920E-02 0.  1.
        2   -1    0    0  501    0  0.00000000000E+00  0.00000000000E+00 -0.21530768396E+04  0.21530768396E+04  0.25500000920E-02 0. -1.
    10030    2    1    2    0    0  0.00000000000E+00  0.00000000000E+00 -0.13439755282E+04  0.29621781509E+04  0.26397403617E+04 0.  0.
        4    1    3    3  502    0  0.11174285754E+04  0.74248186293E+01 -0.14601747477E+04  0.18386989030E+04  0.12699999809E+01 0. -1.
       -4    1    3    3    0  502 -0.11174285754E+04 -0.74248186293E+01  0.11619921951E+03  0.11234792479E+04  0.12699999809E+01 0.  1.
</event>
<event>
 5   0  0.3676724E-05  0.2681585E+04  0.7818609E-02  0.8341005E-01
       -2   -1    0    0    0  501  0.00000000000E+00  0.00000000000E+00  0.10806635068E+04  0.10806635068E+04  0.25500000920E-02 0. -1.
        2   -1    0    0  501    0  0.00000000000E+00  0.00000000000E+00 -0.16635374859E+04  0.16635374859E+04  0.25500000920E-02 0.  1.
    10030    2    1    2    0    0  0.00000000000E+00  0.00000000000E+00 -0.58287397907E+03  0.27442009927E+04  0.26815847950E+04 0.  0.
        4    1    3    3  502    0  0.32412039830E+03 -0.12887442916E+04 -0.10892807242E+03  0.13333352240E+04  0.12699999809E+01 0. -1.
       -4    1    3    3    0  502 -0.32412039830E+03  0.12887442916E+04 -0.47394590664E+03  0.14108657686E+04  0.12699999809E+01 0.  1.
</event>
<event>
 5   0  0.1495517E-05  0.2663419E+04  0.7818609E-02  0.8346973E-01
       -1   -1    0    0    0  501  0.00000000000E+00  0.00000000000E+00  0.28057658555E+04  0.28057658555E+04  0.50400001928E-02 0.  1.
        1   -1    0    0  501    0  0.00000000000E+00  0.00000000000E+00 -0.63207357497E+03  0.63207357499E+03  0.50400001928E-02 0. -1.
    10030    2    1    2    0    0  0.00000000000E+00  0.00000000000E+00  0.21736922805E+04  0.34378394305E+04  0.26634191971E+04 0.  0.
        5    1    3    3  502    0  0.41804396835E+03 -0.10773868659E+04  0.23269232040E+03  0.11788515701E+04  0.46999998093E+01 0.  1.
       -5    1    3    3    0  502 -0.41804396835E+03  0.10773868659E+04  0.19409999601E+04  0.22589878604E+04  0.46999998093E+01 0. -1.
</event>
<event>
 5   0  0.1495517E-05  0.2714185E+04  0.7818609E-02  0.8330417E-01
       -1   -1    0    0    0  501  0.00000000000E+00  0.00000000000E+00  0.79356081111E+03  0.79356081113E+03  0.50400001928E-02 0. -1.
        1   -1    0    0  501    0  0.00000000000E+00  0.00000000000E+00 -0.23208047156E+04  0.23208047156E+04  0.50400001928E-02 0.  1.
    10030    2    1    2    0    0  0.00000000000E+00  0.00000000000E+00 -0.15272439045E+04  0.31143655267E+04  0.27141847193E+04 0.  0.
        5    1    3    3  502    0  0.26087545261E+03 -0.13147141515E+04 -0.51981235872E+03  0.14376217445E+04  0.46999998093E+01 0. -1.
       -5    1    3    3    0  502 -0.26087545261E+03  0.13147141515E+04 -0.10074315458E+04  0.16767437823E+04  0.46999998093E+01 0.  1.
</event>
<event>
 5   0  0.1495517E-05  0.2707960E+04  0.7818609E-02  0.8332427E-01
        1   -1    0    0  501    0  0.00000000000E+00  0.00000000000E+00  0.11026647291E+04  0.11026647291E+04  0.50400001928E-02 0. -1.
       -1   -1    0    0    0  501  0.00000000000E+00  0.00000000000E+00 -0.16625738309E+04  0.16625738309E+04  0.50400001928E-02 0.  1.
    10030    2    1    2    0    0  0.00000000000E+00  0.00000000000E+00 -0.55990910180E+03  0.27652385600E+04  0.27079597655E+04 0.  0.
        5    1    3    3  502    0  0.62497162766E+03  0.83749325927E+03 -0.11591272566E+04  0.15606353134E+04  0.46999998093E+01 0.  1.
       -5    1    3    3    0  502 -0.62497162766E+03 -0.83749325927E+03  0.59921815476E+03  0.12046032466E+04  0.46999998093E+01 0. -1.
</event>
<event>
 5   0  0.3676724E-05  0.2717030E+04  0.7818609E-02  0.8329500E-01
        2   -1    0    0  501    0  0.00000000000E+00  0.00000000000E+00  0.16021825566E+04  0.16021825566E+04  0.25500000920E-02 0.  1.
       -2   -1    0    0    0  501  0.00000000000E+00  0.00000000000E+00 -0.11519055245E+04  0.11519055245E+04  0.25500000920E-02 0. -1.
    10030    2    1    2    0    0  0.00000000000E+00  0.00000000000E+00  0.45027703208E+03  0.27540880811E+04  0.27170299507E+04 0.  0.
        4    1    3    3  502    0  0.11215560742E+04  0.76585406914E+03  0.25937555898E+03  0.13826415936E+04  0.12699999809E+01 0. -1.
       -4    1    3    3    0  502 -0.11215560742E+04 -0.76585406914E+03  0.19090147311E+03  0.13714464875E+04  0.12699999809E+01 0.  1.
</event>
<event>
 5   0  0.3497949E-05  0.2715402E+04  0.7818609E-02  0.8330025E-01
       -2   -1    0    0    0  501  0.00000000000E+00  0.00000000000E+00  0.70492324709E+03  0.70492324709E+03  0.25500000920E-02 0. -1.
        2   -1    0    0  501    0  0.00000000000E+00  0.00000000000E+00 -0.26149683506E+04  0.26149683506E+04  0.25500000920E-02 0.  1.
    10030    2    1    2    0    0  0.00000000000E+00  0.00000000000E+00 -0.19100451035E+04  0.33198915977E+04  0.27154019818E+04 0.  0.
        5    1    3    3  502    0 -0.38366112816E+03  0.12965887478E+04 -0.11047200252E+04  0.17460717815E+04  0.46999998093E+01 0.  1.
       -5    1    3    3    0  502  0.38366112816E+03 -0.12965887478E+04 -0.80532507834E+03  0.15738198162E+04  0.46999998093E+01 0. -1.
</event>
<event>
 5   0  0.1449521E-05  0.2633552E+04  0.7818609E-02  0.8356893E-01
       -1   -1    0    0    0  501  0.00000000000E+00  0.00000000000E+00  0.14480892037E+04  0.14480892037E+04  0.50400001928E-02 0. -1.
        1   -1    0    0  501    0  0.00000000000E+00  0.00000000000E+00 -0.11973701439E+04  0.11973701439E+04  0.50400001928E-02 0.  1.
    10030    2    1    2    0    0  0.00000000000E+00  0.00000000000E+00  0.25071905976E+03  0.26454593476E+04  0.26335518057E+04 0.  0.
        3    1    3    3  502    0 -0.12216954907E+03 -0.64842893705E+03  0.12700351273E+04  0.14312144214E+04  0.10100000352E+00 0. -1.
       -3    1    3    3    0  502  0.12216954907E+03  0.64842893705E+03 -0.10193160676E+04  0.12142449263E+04  0.10100000352E+00 0.  1.
</event>
<event>
 5   0  0.3676724E-05  0.2661403E+04  0.7818609E-02  0.8347638E-01
        2   -1    0    0  501    0  0.00000000000E+00  0.00000000000E+00  0.21481567155E+04  0.21481567155E+04  0.25500000920E-02 0. -1.
       -2   -1    0    0    0  501  0.00000000000E+00  0.00000000000E+00 -0.82431915361E+03  0.82431915361E+03  0.25500000920E-02 0.  1.
    10030    2    1    2    0    0  0.00000000000E+00  0.00000000000E+00  0.13238375618E+04  0.29724758691E+04  0.26614031829E+04 0.  0.
        4    1    3    3  502    0  0.75632652604E+03  0.10799902473E+04  0.46101527103E+03  0.13967624856E+04  0.12699999809E+01 0.  1.
       -4    1    3    3    0  502 -0.75632652604E+03 -0.10799902473E+04  0.86282229082E+03  0.15757133834E+04  0.12699999809E+01 0. -1.
</event>
<event>
 5   0  0.3652331E-05  0.2718085E+04  0.7818609E-02  0.8329161E-01
        2   -1    0    0  501    0  0.00000000000E+00  0.00000000000E+00  0.13932747094E+04  0.13932747094E+04  0.25500000920E-02 0.  1.
       -2   -1    0    0    0  501  0.00000000000E+00  0.00000000000E+00 -0.13256510338E+04  0.13256510338E+04  0.25500000920E-02 0. -1.
    10030    2    1    2    0    0  0.00000000000E+00  0.00000000000E+00  0.67623675582E+02  0.27189257432E+04  0.27180846630E+04 0.  0.
        1    1    3    3  502    0  0.67036908179E+03  0.84728012793E+03 -0.79089323956E+03  0.13389512453E+04  0.50400001928E-02 0. -1.
       -1    1    3    3    0  502 -0.67036908179E+03 -0.84728012793E+03  0.85851691514E+03  0.13799744978E+04  0.50400001928E-02 0.  1.
</event>
<event>
 5   0  0.1449521E-05  0.2704063E+04  0.7818609E-02  0.8333688E-01
        1   -1    0    0  501    0  0.00000000000E+00  0.00000000000E+00  0.24486277169E+04  0.24486277169E+04  0.50400001928E-02 0. -1.
       -1   -1    0    0    0  501  0.00000000000E+00  0.00000000000E+00 -0.74653610167E+03  0.74653610169E+03  0.50400001928E-02 0.  1.
    10030    2    1    2    0    0  0.00000000000E+00  0.00000000000E+00  0.17020916152E+04  0.31951638186E+04  0.27040628619E+04 0.  0.
        3    1    3    3  502    0  0.11724543891E+03 -0.22939535473E+03  0.24193579111E+04  0.24330354362E+04  0.10100000352E+00 0. -1.
       -3    1    3    3    0  502 -0.11724543891E+03  0.22939535473E+03 -0.71726629591E+03  0.76212838233E+03  0.10100000352E+00 0.  1.
</event>
<event>
 5   0  0.3568647E-05  0.2632408E+04  0.7818609E-02  0.8357275E-01
       -2   -1    0    0    0  501  0.00000000000E+00  0.00000000000E+00  0.10396938248E+04  0.10396938248E+04  0.25500000920E-02 0.  1.
        2   -1    0    0  501    0  0.00000000000E+00  0.00000000000E+00 -0.16662535991E+04  0.16662535991E+04  0.25500000920E-02 0. -1.
    10030    2    1    2    0    0  0.00000000000E+00  0.00000000000E+00 -0.62655977423E+03  0.27059474239E+04  0.26324084619E+04 0.  0.
        3    1    3    3  502    0 -0.10479597985E+04 -0.76005687082E+03 -0.68969576035E+02  0.12964038718E+04  0.10100000352E+00 0.  1.
       -3    1    3    3    0  502  0.10479597985E+04  0.76005687082E+03 -0.55759019820E+03  0.14095435521E+04  0.10100000352E+00 0. -1.
</event>
<event>
 5   0  0.1449521E-05  0.2688268E+04  0.7818609E-02  0.8338822E-01
       -1   -1    0    0    0  501  0.00000000000E+00  0.00000000000E+00  0.98642157341E+03  0.98642157342E+03  0.50400001928E-02 0. -1.
        1   -1    0    0  501    0  0.00000000000E+00  0.00000000000E+00 -0.18315661886E+04  0.18315661886E+04  0.50400001928E-02 0.  1.
    10030    2    1    2    0    0  0.00000000000E+00  0.00000000000E+00 -0.84514461519E+03  0.28179877620E+04  0.26882681426E+04 0.  0.
        3    1    3    3  502    0 -0.22464757977E+03 -0.19748659809E+03  0.95109199269E+03  0.99701729186E+03  0.10100000352E+00 0. -1.
       -3    1    3    3    0  502  0.22464757977E+03  0.19748659809E+03 -0.17962366079E+04  0.18209704702E+04  0.10100000352E+00 0.  1.
</event>
<event>
 5   0  0.1495517E-05  0.1794702E+04  0.7818609E-02  0.8709122E-01
        1   -1    0    0  501    0  0.00000000000E+00  0.00000000000E+00  0.89994490635E+03  0.89994490637E+03  0.50400001928E-02 0. -1.
       -1   -1    0    0    0  501  0.00000000000E+00  0.00000000000E+00 -0.89476459332E+03  0.89476459333E+03  0.50400001928E-02 0.  1.
    10030    2    1    2    0    0  0.00000000000E+00  0.00000000000E+00  0.51803130326E+01  0.17947094997E+04  0.17947020234E+04 0.  0.
        5    1    3    3  502    0 -0.29465712738E+03  0.83021068044E+03 -0.16812713713E+03  0.89686198541E+03  0.46999998093E+01 0.  1.
       -5    1    3    3    0  502  0.29465712738E+03 -0.83021068044E+03  0.17330745017E+03  0.89784751429E+03  0.46999998093E+01 0. -1.
</event>
<event>
 5   0  0.1484379E-05  0.1940285E+04  0.7818609E-02  0.8635060E-01
        1   -1    0    0  501    0  0.00000000000E+00  0.00000000000E+00  0.17476484902E+04  0.17476484902E+04  0.50400001928E-02 0.  1.
       -1   -1    0    0    0  501  0.00000000000E+00  0.00000000000E+00 -0.53853885050E+03  0.53853885052E+03  0.50400001928E-02 0. -1.
    10030    2    1    2    0    0  0.00000000000E+00  0.00000000000E+00  0.12091096397E+04  0.22861873407E+04  0.19402851430E+04 0.  0.
        1    1    3    3  502    0  0.24989561492E+03  0.31251811436E+03  0.16458858136E+04  0.16938286518E+04  0.50400001928E-02 0.  1.
       -1    1    3    3    0  502 -0.24989561492E+03 -0.31251811436E+03 -0.43677617395E+03  0.59235868890E+03  0.50400001928E-02 0. -1.
</event>
<event>
 5   0  0.1484379E-05  0.2617770E+04  0.7818609E-02  0.8362190E-01
       -1   -1    0    0    0  501  0.00000000000E+00  0.00000000000E+00  0.11677081131E+04  0.11677081131E+04  0.50400001928E-02 0. -1.
        1   -1    0    0  501    0  0.00000000000E+00  0.00000000000E+00 -0.14671301458E+04  0.14671301458E+04  0.50400001928E-02 0.  1.
    10030    2    1    2    0    0  0.00000000000E+00  0.00000000000E+00 -0.29942203270E+03  0.26348382589E+04  0.26177698709E+04 0.  0.
        1    1    3    3  502    0  0.12046489186E+04  0.25066621493E+03 -0.59890239416E+03  0.13684650694E+04  0.50400001928E-02 0.  1.
       -1    1    3    3    0  502 -0.12046489186E+04 -0.25066621493E+03  0.29948036146E+03  0.12663731895E+04  0.50400001928E-02 0. -1.
</event>
<event>
 5   0  0.3568647E-05  0.2689532E+04  0.7818609E-02  0.8338410E-01
        2   -1    0    0  501    0  0.00000000000E+00  0.00000000000E+00  0.12427090989E+04  0.12427090989E+04  0.25500000920E-02 0. -1.
       -2   -1    0    0    0  501  0.00000000000E+00  0.00000000000E+00 -0.14552039549E+04  0.14552039549E+04  0.25500000920E-02 0.  1.
    10030    2    1    2    0    0  0.00000000000E+00  0.00000000000E+00 -0.21249485609E+03  0.26979130538E+04  0.26895317031E+04 0.  0.
        3    1    3    3  502    0  0.81267594144E+03 -0.48993394641E+03 -0.10620639417E+04  0.14242391948E+04  0.10100000352E+00 0.  1.
       -3    1    3    3    0  502 -0.81267594144E+03  0.48993394641E+03  0.84956908560E+03  0.12736738590E+04  0.10100000352E+00 0. -1.
</event>
<event>
 5   0  0.1484379E-05  0.1945087E+04  0.7818609E-02  0.8632734E-01
       -1   -1    0    0    0  501  0.00000000000E+00  0.00000000000E+00  0.89232369895E+03  0.89232369897E+03  0.50400001928E-02 0.  1.
        1   -1    0    0  501    0  0.00000000000E+00  0.00000000000E+00 -0.10599750135E+04  0.10599750135E+04  0.50400001928E-02 0. -1.
    10030    2    1    2    0    0  0.00000000000E+00  0.00000000000E+00 -0.16765131453E+03  0.19522987125E+04  0.19450869645E+04 0.  0.
        1    1    3    3  502    0 -0.54647086404E+03 -0.32240830713E+03  0.65597111041E+03  0.91262019453E+03  0.50400001928E-02 0.  1.
       -1    1    3    3    0  502  0.54647086404E+03  0.32240830713E+03 -0.82362242494E+03  0.10396785179E+04  0.50400001928E-02 0. -1.
</event>
<event>
 5   0  0.1474012E-05  0.2448713E+04  0.7818609E-02  0.8421488E-01
       -1   -1    0    0    0  501  0.00000000000E+00  0.00000000000E+00  0.99782931005E+03  0.99782931007E+03  0.50400001928E-02 0. -1.
        1   -1    0    0  501    0  0.00000000000E+00  0.00000000000E+00 -0.15023103030E+04  0.15023103030E+04  0.50400001928E-02 0.  1.
    10030    2    1    2    0    0  0.00000000000E+00  0.00000000000E+00 -0.50448099297E+03  0.25001396131E+04  0.24487133382E+04 0.  0.
        2    1    3    3  502    0  0.74885924256E+03 -0.83085260099E+03  0.25615568306E+03  0.11474850516E+04  0.25500000920E-02 0.  1.
       -2    1    3    3    0  502 -0.74885924256E+03  0.83085260099E+03 -0.76063667603E+03  0.13526545615E+04  0.25500000920E-02 0. -1.
</event>
<event>
 5   0  0.1495517E-05  0.2679921E+04  0.7818609E-02  0.8341549E-01
       -1   -1    0    0    0  501  0.00000000000E+00  0.00000000000E+00  0.61625105113E+03  0.61625105115E+03  0.50400001928E-02 0. -1.
        1   -1    0    0  501    0  0.00000000000E+00  0.00000000000E+00 -0.29135766709E+04  0.29135766709E+04  0.50400001928E-02 0.  1.
    10030    2    1    2    0    0  0.00000000000E+00  0.00000000000E+00 -0.22973256198E+04  0.35298277220E+04  0.26799214063E+04 0.  0.
        5    1    3    3  502    0  0.10502701209E+04 -0.13428790611E+03 -0.22302990397E+04  0.24688775719E+04  0.46999998093E+01 0.  1.
       -5    1    3    3    0  502 -0.10502701209E+04  0.13428790611E+03 -0.67026580098E+02  0.10609501502E+04  0.46999998093E+01 0. -1.
</event>
<event>
 5   0  0.3676724E-05  0.2657532E+04  0.7818609E-02  0.8348917E-01
        2   -1    0    0  501    0  0.00000000000E+00  0.00000000000E+00  0.18249203594E+04  0.18249203594E+04  0.25500000920E-02 0. -1.
       -2   -1    0    0    0  501  0.00000000000E+00  0.00000000000E+00 -0.96750468213E+03  0.96750468214E+03  0.25500000920E-02 0.  1.
    10030    2    1    2    0    0  0.00000000000E+00  0.00000000000E+00  0.85741567730E+03  0.27924250416E+04  0.26575319319E+04 0.  0.
        4    1    3    3  502    0 -0.90577724754E+03  0.98203861280E+01 -0.59279428935E+03  0.10825597187E+04  0.12699999809E+01 0.  1.
       -4    1    3    3    0  502  0.90577724754E+03 -0.98203861280E+01  0.14502099667E+04  0.17098653229E+04  0.12699999809E+01 0. -1.
</event>
<event>
 5   0  0.3568647E-05  0.2063567E+04  0.7818609E-02  0.8577464E-01
       -2   -1    0    0    0  501  0.00000000000E+00  0.00000000000E+00  0.53361156949E+03  0.53361156950E+03  0.25500000920E-02 0. -1.
        2   -1    0    0  501    0  0.00000000000E+00  0.00000000000E+00 -0.19950420222E+04  0.19950420222E+04  0.25500000920E-02 0.  1.
    10030    2    1    2    0    0  0.00000000000E+00  0.00000000000E+00 -0.14614304527E+04  0.25286535917E+04  0.20635673041E+04 0.  0.
        3    1    3    3  502    0 -0.54263287837E+03 -0.31489985994E+03 -0.17344539419E+04  0.18444356452E+04  0.10100000352E+00 0.  1.
       -3    1    3    3    0  502  0.54263287837E+03  0.31489985994E+03  0.27302348919E+03  0.68421794651E+03  0.10100000352E+00 0. -1.
</event>
<event>
 5   0  0.1438701E-05  0.1830418E+04  0.7818609E-02  0.8690289E-01
       -1   -1    0    0    0  501  0.00000000000E+00  0.00000000000E+00  0.31878276616E+03  0.31878276620E+03  0.50400001928E-02 0.  1.
        1   -1    0    0  501    0  0.00000000000E+00  0.00000000000E+00 -0.26275177149E+04  0.26275177149E+04  0.50400001928E-02 0. -1.
    10030    2    1    2    0    0  0.00000000000E+00  0.00000000000E+00 -0.23087349488E+04  0.29463004811E+04  0.18304178379E+04 0.  0.
        4    1    3    3  502    0 -0.12127828940E+03 -0.25832561162E+03 -0.25540680545E+04  0.25699622147E+04  0.12699999809E+01 0. -1.
       -4    1    3    3    0  502  0.12127828940E+03  0.25832561162E+03  0.24533310574E+03  0.37633826642E+03  0.12699999809E+01 0.  1.
</event>
<event>
 5   0  0.1474012E-05  0.2645947E+04  0.7818609E-02  0.8352759E-01
        1   -1    0    0  501    0  0.00000000000E+00  0.00000000000E+00  0.11935446229E+04  0.11935446229E+04  0.50400001928E-02 0.  1.
       -1   -1    0    0    0  501  0.00000000000E+00  0.00000000000E+00 -0.14664381141E+04  0.14664381141E+04  0.50400001928E-02 0. -1.
    10030    2    1    2    0    0  0.00000000000E+00  0.00000000000E+00 -0.27289349117E+03  0.26599827370E+04  0.26459473357E+04 0.  0.
        2    1    3    3  502    0  0.26053475509E+03 -0.11418802404E+04  0.48203246310E+03  0.12665402234E+04  0.25500000920E-02 0. -1.
       -2    1    3    3    0  502 -0.26053475509E+03  0.11418802404E+04 -0.75492595427E+03  0.13934425135E+04  0.25500000920E-02 0.  1.
</event>
<event>
 5   0  0.1438701E-05  0.2591758E+04  0.7818609E-02  0.8371006E-01
       -1   -1    0    0    0  501  0.00000000000E+00  0.00000000000E+00  0.11256274147E+04  0.11256274147E+04  0.50400001928E-02 0. -1.
        1   -1    0    0  501    0  0.00000000000E+00  0.00000000000E+00 -0.14918811927E+04  0.14918811927E+04  0.50400001928E-02 0.  1.
    10030    2    1    2    0    0  0.00000000000E+00  0.00000000000E+00 -0.36625377803E+03  0.26175086074E+04  0.25917579902E+04 0.  0.
        4    1    3    3  502    0  0.61439429111E+03  0.99699681802E+03  0.37719876530E+03  0.12303509749E+04  0.12699999809E+01 0. -1.
       -4    1    3    3    0  502 -0.61439429111E+03 -0.99699681802E+03 -0.74345254332E+03  0.13871576324E+04  0.12699999809E+01 0.  1.
</event>
<event>
 5   0  0.1484379E-05  0.2823083E+04  0.7818609E-02  0.8296138E-01
        1   -1    0    0  501    0  0.00000000000E+00  0.00000000000E+00  0.24106547505E+04  0.24106547505E+04  0.50400001928E-02 0. -1.
       -1   -1    0    0    0  501  0.00000000000E+00  0.00000000000E+00 -0.82651818457E+03  0.82651818459E+03  0.50400001928E-02 0.  1.
    10030    2    1    2    0    0  0.00000000000E+00  0.00000000000E+00  0.15841365659E+04  0.32371729351E+04  0.28230834122E+04 0.  0.
        1    1    3    3  502    0  0.10676968039E+04  0.88298543395E+03  0.48265536554E+03  0.14671727722E+04  0.50400001928E-02 0.  1.
       -1    1    3    3    0  502 -0.10676968039E+04 -0.88298543395E+03  0.11014812004E+04  0.17700001629E+04  0.50400001928E-02 0. -1.
</event>
<event>
 5   0  0.1228050E-05  0.2767487E+04  0.7818609E-02  0.8313434E-01
        3   -1    0    0  501    0  0.00000000000E+00  0.00000000000E+00  0.15982886605E+04  0.15982886637E+04  0.10100000352E+00 0.  1.
       -3   -1    0    0    0  501  0.00000000000E+00  0.00000000000E+00 -0.11979976658E+04  0.11979976701E+04  0.10100000352E+00 0. -1.
    10030    2    1    2    0    0  0.00000000000E+00  0.00000000000E+00  0.40029099470E+03  0.27962863338E+04  0.27674870153E+04 0.  0.
        3    1    3    3  502    0 -0.57247513359E+03  0.20454208945E+02 -0.10725654035E+04  0.12159534153E+04  0.10100000352E+00 0. -1.
       -3    1    3    3    0  502  0.57247513359E+03 -0.20454208945E+02  0.14728563982E+04  0.15803329185E+04  0.10100000352E+00 0.  1.
</event>
<event>
 5   0  0.1438701E-05  0.2713627E+04  0.7818609E-02  0.8330597E-01
        1   -1    0    0  501    0  0.00000000000E+00  0.00000000000E+00  0.19836005221E+04  0.19836005221E+04  0.50400001928E-02 0. -1.
       -1   -1    0    0    0  501  0.00000000000E+00  0.00000000000E+00 -0.92808148103E+03  0.92808148104E+03  0.50400001928E-02 0.  1.
    10030    2    1    2    0    0  0.00000000000E+00  0.00000000000E+00  0.10555190411E+04  0.29116820032E+04  0.27136270270E+04 0.  0.
        4    1    3    3  502    0 -0.34314904701E+03  0.12789915807E+04  0.84491802374E+03  0.15708146968E+04  0.12699999809E+01 0.  1.
       -4    1    3    3    0  502  0.34314904701E+03 -0.12789915807E+04  0.21060101734E+03  0.13408673064E+04  0.12699999809E+01 0. -1.
</event>
<event>
 5   0  0.3676724E-05  0.2674239E+04  0.7818609E-02  0.8343412E-01
        2   -1    0    0  501    0  0.00000000000E+00  0.00000000000E+00  0.14199807807E+04  0.14199807807E+04  0.25500000920E-02 0. -1.
       -2   -1    0    0    0  501  0.00000000000E+00  0.00000000000E+00 -0.12590935117E+04  0.12590935117E+04  0.25500000920E-02 0.  1.
    10030    2    1    2    0    0  0.00000000000E+00  0.00000000000E+00  0.16088726908E+03  0.26790742924E+04  0.26742390228E+04 0.  0.
        4    1    3    3  502    0  0.11618875015E+04  0.49189586260E+03  0.52389833905E+03  0.13661680674E+04  0.12699999809E+01 0. -1.
       -4    1    3    3    0  502 -0.11618875015E+04 -0.49189586260E+03 -0.36301106997E+03  0.13129062250E+04  0.12699999809E+01 0.  1.
</event>
<event>
 5   0  0.3676724E-05  0.2548180E+04  0.7818609E-02  0.8386019E-01
        2   -1    0    0  501    0  0.00000000000E+00  0.00000000000E+00  0.13654954439E+04  0.13654954439E+04  0.25500000920E-02 0.  1.
       -2   -1    0    0    0  501  0.00000000000E+00  0.00000000000E+00 -0.11888034142E+04  0.11888034142E+04  0.25500000920E-02 0. -1.
    10030    2    1    2    0    0  0.00000000000E+00  0.00000000000E+00  0.17669202964E+03  0.25542988581E+04  0.25481802494E+04 0.  0.
        4    1    3    3  502    0  0.83908353609E+03  0.21012797924E+03  0.10260541794E+04  0.13420148062E+04  0.12699999809E+01 0.  1.
       -4    1    3    3    0  502 -0.83908353609E+03 -0.21012797924E+03 -0.84936214974E+03  0.12122840519E+04  0.12699999809E+01 0. -1.
</event>
<event>
 5   0  0.1484379E-05  0.2715347E+04  0.7818609E-02  0.8330043E-01
        1   -1    0    0  501    0  0.00000000000E+00  0.00000000000E+00  0.18151970762E+04  0.18151970762E+04  0.50400001928E-02 0. -1.
       -1   -1    0    0    0  501  0.00000000000E+00  0.00000000000E+00 -0.10154693236E+04  0.10154693236E+04  0.50400001928E-02 0.  1.
    10030    2    1    2    0    0  0.00000000000E+00  0.00000000000E+00  0.79972775264E+03  0.28306663998E+04  0.27153467161E+04 0.  0.
        1    1    3    3  502    0  0.59276373325E+03  0.12066055044E+04  0.59768950740E+03  0.14712234480E+04  0.50400001928E-02 0. -1.
       -1    1    3    3    0  502 -0.59276373325E+03 -0.12066055044E+04  0.20203824524E+03  0.13594429518E+04  0.50400001928E-02 0.  1.
</event>
<event>
 5   0  0.1438701E-05  0.2449762E+04  0.7818609E-02  0.8421105E-01
       -1   -1    0    0    0  501  0.00000000000E+00  0.00000000000E+00  0.13607143890E+04  0.13607143890E+04  0.50400001928E-02 0.  1.
        1   -1    0    0  501    0  0.00000000000E+00  0.00000000000E+00 -0.11026068626E+04  0.11026068626E+04  0.50400001928E-02 0. -1.
    10030    2    1    2    0    0  0.00000000000E+00  0.00000000000E+00  0.25810752637E+03  0.24633212516E+04  0.24497616401E+04 0.  0.
        4    1    3    3  502    0 -0.51235959723E+03 -0.34569980953E+03 -0.93430169079E+03  0.11202419281E+04  0.12699999809E+01 0. -1.
       -4    1    3    3    0  502  0.51235959723E+03  0.34569980953E+03  0.11924092172E+04  0.13430793235E+04  0.12699999809E+01 0.  1.
</event>
<event>
 5   0  0.3676724E-05  0.2716173E+04  0.7818609E-02  0.8329777E-01
       -2   -1    0    0    0  501  0.00000000000E+00  0.00000000000E+00  0.11864324754E+04  0.11864324754E+04  0.25500000920E-02 0. -1.
        2   -1    0    0  501    0  0.00000000000E+00  0.00000000000E+00 -0.15545751739E+04  0.15545751739E+04  0.25500000920E-02 0.  1.
    10030    2    1    2    0    0  0.00000000000E+00  0.00000000000E+00 -0.36814269852E+03  0.27410076493E+04  0.27161726542E+04 0.  0.
        4    1    3    3  502    0 -0.24736812138E+03 -0.10866016231E+04  0.59923636572E+03  0.12652983481E+04  0.12699999809E+01 0. -1.
       -4    1    3    3    0  502  0.24736812138E+03  0.10866016231E+04 -0.96737906425E+03  0.14757093012E+04  0.12699999809E+01 0.  1.
</event>
<event>
 5   0  0.3676724E-05  0.2677233E+04  0.7818609E-02  0.8342430E-01
       -2   -1    0    0    0  501  0.00000000000E+00  0.00000000000E+00  0.11531159534E+04  0.11531159534E+04  0.25500000920E-02 0. -1.
        2   -1    0    0  501    0  0.00000000000E+00  0.00000000000E+00 -0.15539587046E+04  0.15539587046E+04  0.25500000920E-02 0.  1.
    10030    2    1    2    0    0  0.00000000000E+00  0.00000000000E+00 -0.40084275123E+03  0.27070746581E+04  0.26772333281E+04 0.  0.
        4    1    3    3  502    0  0.94037712826E+03 -0.20678060260E+03  0.73990426555E+03  0.12143011554E+04  0.12699999809E+01 0. -1.
       -4    1    3    3    0  502 -0.94037712826E+03  0.20678060260E+03 -0.11407470168E+04  0.14927735026E+04  0.12699999809E+01 0.  1.
</event>
<event>
 5   0  0.3497949E-05  0.2702121E+04  0.7818609E-02  0.8334317E-01
        2   -1    0    0  501    0  0.00000000000E+00  0.00000000000E+00  0.22474410929E+04  0.22474410929E+04  0.25500000920E-02 0.  1.
       -2   -1    0    0    0  501  0.00000000000E+00  0.00000000000E+00 -0.81219668941E+03  0.81219668941E+03  0.25500000920E-02 0. -1.
    10030    2    1    2    0    0  0.00000000000E+00  0.00000000000E+00  0.14352444035E+04  0.30596377823E+04  0.27021208080E+04 0.  0.
        5    1    3    3  502    0  0.17113973315E+03  0.43469144993E+03  0.21530661964E+04  0.22031708062E+04  0.46999998093E+01 0.  1.
       -5    1    3    3    0  502 -0.17113973315E+03 -0.43469144993E+03 -0.71782179291E+03  0.85646697618E+03  0.46999998093E+01 0. -1.
</event>
<event>
 5   0  0.3652331E-05  0.2683426E+04  0.7818609E-02  0.8340403E-01
       -2   -1    0    0    0  501  0.00000000000E+00  0.00000000000E+00  0.99051055449E+03  0.99051055449E+03  0.25500000920E-02 0. -1.
        2   -1    0    0  501    0  0.00000000000E+00  0.00000000000E+00 -0.18174397806E+04  0.18174397806E+04  0.25500000920E-02 0.  1.
    10030    2    1    2    0    0  0.00000000000E+00  0.00000000000E+00 -0.82692922612E+03  0.28079503351E+04  0.26834256352E+04 0.  0.
        1    1    3    3  502    0  0.47345400727E+03 -0.59427084225E+02 -0.17256512188E+04  0.17904084463E+04  0.50400001928E-02 0.  1.
       -1    1    3    3    0  502 -0.47345400727E+03  0.59427084225E+02  0.89872199272E+03  0.10175418888E+04  0.50400001928E-02 0. -1.
</event>
<event>
 5   0  0.1495517E-05  0.2744884E+04  0.7818609E-02  0.8320587E-01
        1   -1    0    0  501    0  0.00000000000E+00  0.00000000000E+00  0.14412379553E+04  0.14412379553E+04  0.50400001928E-02 0.  1.
       -1   -1    0    0    0  501  0.00000000000E+00  0.00000000000E+00 -0.13069298756E+04  0.13069298756E+04  0.50400001928E-02 0. -1.
    10030    2    1    2    0    0  0.00000000000E+00  0.00000000000E+00  0.13430807969E+03  0.27481678309E+04  0.27448839259E+04 0.  0.
        5    1    3    3  502    0  0.74927037274E+03 -0.10558416393E+03  0.12135220264E+04  0.14301090538E+04  0.46999998093E+01 0.  1.
       -5    1    3    3    0  502 -0.74927037274E+03  0.10558416393E+03 -0.10792139467E+04  0.13180587771E+04  0.46999998093E+01 0. -1.
</event>
<event>
 5   0  0.3497949E-05  0.2350945E+04  0.7818609E-02  0.8458101E-01
        2   -1    0    0  501    0  0.00000000000E+00  0.00000000000E+00  0.19598253757E+04  0.19598253757E+04  0.25500000920E-02 0. -1.
       -2   -1    0    0    0  501  0.00000000000E+00  0.00000000000E+00 -0.70502990516E+03  0.70502990516E+03  0.25500000920E-02 0.  1.
    10030    2    1    2    0    0  0.00000000000E+00  0.00000000000E+00  0.12547954705E+04  0.26648552808E+04  0.23509449153E+04 0.  0.
        5    1    3    3  502    0 -0.55733419944E+03 -0.76323064403E+03  0.14197075040E+04  0.17055010738E+04  0.46999998093E+01 0. -1.
       -5    1    3    3    0  502  0.55733419944E+03  0.76323064403E+03 -0.16491203343E+03  0.95935420707E+03  0.46999998093E+01 0.  1.
</event>
<event>
 5   0  0.1474012E-05  0.2701917E+04  0.7818609E-02  0.8334383E-01
       -1   -1    0    0    0  501  0.00000000000E+00  0.00000000000E+00  0.86808294158E+03  0.86808294159E+03  0.50400001928E-02 0. -1.
        1   -1    0    0  501    0  0.00000000000E+00  0.00000000000E+00 -0.21024355890E+04  0.21024355890E+04  0.50400001928E-02 0.  1.
    10030    2    1    2    0    0  0.00000000000E+00  0.00000000000E+00 -0.12343526474E+04  0.29705185306E+04  0.27019167053E+04 0.  0.
        2    1    3    3  502    0 -0.12942610708E+04  0.38626627984E+03 -0.58656778103E+03  0.14725403628E+04  0.25500000920E-02 0. -1.
       -2    1    3    3    0  502  0.12942610708E+04 -0.38626627984E+03 -0.64778486642E+03  0.14979781679E+04  0.25500000920E-02 0.  1.
</event>
<event>
 5   0  0.3497949E-05  0.2776810E+04  0.7818609E-02  0.8310504E-01
        2   -1    0    0  501    0  0.00000000000E+00  0.00000000000E+00  0.10439868558E+04  0.10439868558E+04  0.25500000920E-02 0.  1.
       -2   -1    0    0    0  501  0.00000000000E+00  0.00000000000E+00 -0.18464483162E+04  0.18464483162E+04  0.25500000920E-02 0. -1.
    10030    2    1    2    0    0  0.00000000000E+00  0.00000000000E+00 -0.80246146032E+03  0.28904351720E+04  0.27768095160E+04 0.  0.
        5    1    3    3  502    0 -0.25540634705E+02  0.50029290394E+03  0.94662954627E+03  0.10710158270E+04  0.46999998093E+01 0.  1.
       -5    1    3    3    0  502  0.25540634705E+02 -0.50029290394E+03 -0.17490910066E+04  0.18194193450E+04  0.46999998093E+01 0. -1.
</event>
<event>
 5   0  0.1449521E-05  0.2583580E+04  0.7818609E-02  0.8373800E-01
        1   -1    0    0  501    0  0.00000000000E+00  0.00000000000E+00  0.18901308262E+04  0.18901308262E+04  0.50400001928E-02 0. -1.
       -1   -1    0    0    0  501  0.00000000000E+00  0.00000000000E+00 -0.88286040960E+03  0.88286040961E+03  0.50400001928E-02 0.  1.
    10030    2    1    2    0    0  0.00000000000E+00  0.00000000000E+00  0.10072704166E+04  0.27729912358E+04  0.25835802100E+04 0.  0.
        3    1    3    3  502    0 -0.72193218727E+03  0.98282377616E+03  0.96101408979E+03  0.15526354205E+04  0.10100000352E+00 0.  1.
       -3    1    3    3    0  502  0.72193218727E+03 -0.98282377616E+03  0.46256326793E+02  0.12203558153E+04  0.10100000352E+00 0. -1.
</event>
<event>
 5   0  0.1438701E-05  0.2659630E+04  0.7818609E-02  0.8348224E-01
        1   -1    0    0  501    0  0.00000000000E+00  0.00000000000E+00  0.17512793120E+04  0.17512793120E+04  0.50400001928E-02 0.  1.
       -1   -1    0    0    0  501  0.00000000000E+00  0.00000000000E+00 -0.10097805041E+04  0.10097805041E+04  0.50400001928E-02 0. -1.
    10030    2    1    2    0    0  0.00000000000E+00  0.00000000000E+00  0.74149880789E+03  0.27610598162E+04  0.26596298288E+04 0.  0.
        4    1    3    3  502    0 -0.10093010003E+04  0.86002094837E+03  0.26651326023E+03  0.13525366803E+04  0.12699999809E+01 0.  1.
       -4    1    3    3    0  502  0.10093010003E+04 -0.86002094837E+03  0.47498554766E+03  0.14085231358E+04  0.12699999809E+01 0. -1.
</event>
<event>
 5   0  0.1449521E-05  0.2648950E+04  0.7818609E-02  0.8351761E-01
       -1   -1    0    0    0  501  0.00000000000E+00  0.00000000000E+00  0.32848777891E+04  0.32848777891E+04  0.50400001928E-02 0. -1.
        1   -1    0    0  501    0  0.00000000000E+00  0.00000000000E+00 -0.53403338603E+03  0.53403338606E+03  0.50400001928E-02 0.  1.
    10030    2    1    2    0    0  0.00000000000E+00  0.00000000000E+00  0.27508444031E+04  0.38189111752E+04  0.26489502891E+04 0.  0.
        3    1    3    3  502    0  0.64154036072E+02  0.27753621650E+01 -0.53178790991E+03  0.53565085112E+03  0.10100000352E+00 0.  1.
       -3    1    3    3    0  502 -0.64154036072E+02 -0.27753621650E+01  0.32826323130E+04  0.32832603241E+04  0.10100000352E+00 0. -1.
</event>
<event>
 5   0  0.1449521E-05  0.3083730E+04  0.7818609E-02  0.8220217E-01
        1   -1    0    0  501    0  0.00000000000E+00  0.00000000000E+00  0.26636315486E+04  0.26636315486E+04  0.50400001928E-02 0.  1.
       -1   -1    0    0    0  501  0.00000000000E+00  0.00000000000E+00 -0.89252147150E+03  0.89252147152E+03  0.50400001928E-02 0. -1.
    10030    2    1    2    0    0  0.00000000000E+00  0.00000000000E+00  0.17711100771E+04  0.35561530201E+04  0.30837304353E+04 0.  0.
        3    1    3    3  502    0 -0.14556222201E+04 -0.26413290814E+02  0.14710967153E+04  0.20697002840E+04  0.10100000352E+00 0. -1.
       -3    1    3    3    0  502  0.14556222201E+04  0.26413290814E+02  0.30001336182E+03  0.14864527362E+04  0.10100000352E+00 0.  1.
</event>
<event>
 5   0  0.3514294E-05  0.2719202E+04  0.7818609E-02  0.8328801E-01
       -2   -1    0    0    0  501  0.00000000000E+00  0.00000000000E+00  0.11475966472E+04  0.11475966472E+04  0.25500000920E-02 0.  1.
        2   -1    0    0  501    0  0.00000000000E+00  0.00000000000E+00 -0.16107707423E+04  0.16107707423E+04  0.25500000920E-02 0. -1.
    10030    2    1    2    0    0  0.00000000000E+00  0.00000000000E+00 -0.46317409506E+03  0.27583673895E+04  0.27192021648E+04 0.  0.
        2    1    3    3  502    0  0.60154172141E+03 -0.44073979151E+03 -0.13848038238E+04  0.15728272749E+04  0.25500000920E-02 0. -1.
       -2    1    3    3    0  502 -0.60154172141E+03  0.44073979151E+03  0.92162972873E+03  0.11855401146E+04  0.25500000920E-02 0.  1.
</event>
<event>
 5   0  0.1495517E-05  0.2723552E+04  0.7818609E-02  0.8327404E-01
        1   -1    0    0  501    0  0.00000000000E+00  0.00000000000E+00  0.19123838369E+04  0.19123838369E+04  0.50400001928E-02 0.  1.
       -1   -1    0    0    0  501  0.00000000000E+00  0.00000000000E+00 -0.96969726467E+03  0.96969726468E+03  0.50400001928E-02 0. -1.
    10030    2    1    2    0    0  0.00000000000E+00  0.00000000000E+00  0.94268657222E+03  0.28820811016E+04  0.27235516339E+04 0.  0.
        5    1    3    3  502    0 -0.69142812305E+03  0.90769816264E+03  0.12578569227E+04  0.16982976570E+04  0.46999998093E+01 0.  1.
       -5    1    3    3    0  502  0.69142812305E+03 -0.90769816264E+03 -0.31517035050E+03  0.11837834446E+04  0.46999998093E+01 0. -1.
</event>
<event>
 5   0  0.1474012E-05  0.2639418E+04  0.7818609E-02  0.8354934E-01
       -1   -1    0    0    0  501  0.00000000000E+00  0.00000000000E+00  0.12860326252E+04  0.12860326252E+04  0.50400001928E-02 0.  1.
        1   -1    0    0  501    0  0.00000000000E+00  0.00000000000E+00 -0.13542677240E+04  0.13542677240E+04  0.50400001928E-02 0. -1.
    10030    2    1    2    0    0  0.00000000000E+00  0.00000000000E+00 -0.68235098883E+02  0.26403003492E+04  0.26394184786E+04 0.  0.
        2    1    3    3  502    0  0.35442198979E+03 -0.79882427080E+03 -0.10233348584E+04  0.13457151983E+04  0.25500000920E-02 0. -1.
       -2    1    3    3    0  502 -0.35442198979E+03  0.79882427080E+03  0.95509975949E+03  0.12945851509E+04  0.25500000920E-02 0.  1.
</event>
<event>
 5   0  0.1449521E-05  0.2782926E+04  0.7818609E-02  0.8308589E-01
        1   -1    0    0  501    0  0.00000000000E+00  0.00000000000E+00  0.98020983513E+03  0.98020983515E+03  0.50400001928E-02 0.  1.
       -1   -1    0    0    0  501  0.00000000000E+00  0.00000000000E+00 -0.19752593303E+04  0.19752593303E+04  0.50400001928E-02 0. -1.
    10030    2    1    2    0    0  0.00000000000E+00  0.00000000000E+00 -0.99504949516E+03  0.29554691655E+04  0.27829255272E+04 0.  0.
        3    1    3    3  502    0 -0.73497486448E+03 -0.95662381882E+02  0.75312686583E+03  0.10566642934E+04  0.10100000352E+00 0.  1.
       -3    1    3    3    0  502  0.73497486448E+03  0.95662381882E+02 -0.17481763610E+04  0.18988048720E+04  0.10100000352E+00 0. -1.
</event>
<event>
 5   0  0.3652331E-05  0.2820338E+04  0.7818609E-02  0.8296982E-01
        2   -1    0    0  501    0  0.00000000000E+00  0.00000000000E+00  0.21043196738E+04  0.21043196738E+04  0.25500000920E-02 0. -1.
       -2   -1    0    0    0  501  0.00000000000E+00  0.00000000000E+00 -0.94499751699E+03  0.94499751699E+03  0.25500000920E-02 0.  1.
    10030    2    1    2    0    0  0.00000000000E+00  0.00000000000E+00  0.11593221568E+04  0.30493171908E+04  0.28203381831E+04 0.  0.
        1    1    3    3  502    0  0.44412172291E+03 -0.40131516553E+03 -0.80082607286E+03  0.99981016491E+03  0.50400001928E-02 0.  1.
       -1    1    3    3    0  502 -0.44412172291E+03  0.40131516553E+03  0.19601482297E+04  0.20495070259E+04  0.50400001928E-02 0. -1.
</event>
<event>
 5   0  0.3514294E-05  0.2440485E+04  0.7818609E-02  0.8424500E-01
        2   -1    0    0  501    0  0.00000000000E+00  0.00000000000E+00  0.78499589453E+03  0.78499589454E+03  0.25500000920E-02 0.  1.
       -2   -1    0    0    0  501  0.00000000000E+00  0.00000000000E+00 -0.18968139313E+04  0.18968139313E+04  0.25500000920E-02 0. -1.
    10030    2    1    2    0    0  0.00000000000E+00  0.00000000000E+00 -0.11118180368E+04  0.26818098258E+04  0.24404845001E+04 0.  0.
        2    1    3    3  502    0  0.10019387878E+04 -0.61651596747E+02  0.20645759319E+03  0.10248448623E+04  0.25500000920E-02 0.  1.
       -2    1    3    3    0  502 -0.10019387878E+04  0.61651596747E+02 -0.13182756299E+04  0.16569649636E+04  0.25500000920E-02 0. -1.
</event>
<event>
 5   0  0.1449521E-05  0.2693687E+04  0.7818609E-02  0.8337056E-01
       -1   -1    0    0    0  501  0.00000000000E+00  0.00000000000E+00  0.26203652246E+04  0.26203652246E+04  0.50400001928E-02 0.  1.
        1   -1    0    0  501    0  0.00000000000E+00  0.00000000000E+00 -0.69226496714E+03  0.69226496715E+03  0.50400001928E-02 0. -1.
    10030    2    1    2    0    0  0.00000000000E+00  0.00000000000E+00  0.19281002575E+04  0.33126301918E+04  0.26936867273E+04 0.  0.
        3    1    3    3  502    0  0.32088676215E+03  0.13047097071E+04  0.10790936608E+04  0.17232756230E+04  0.10100000352E+00 0.  1.
       -3    1    3    3    0  502 -0.32088676215E+03 -0.13047097071E+04  0.84900659666E+03  0.15893545688E+04  0.10100000352E+00 0. -1.
</event>
<event>
 5   0  0.3652331E-05  0.2634537E+04  0.7818609E-02  0.8356564E-01
       -2   -1    0    0    0  501  0.00000000000E+00  0.00000000000E+00  0.12436231171E+04  0.12436231171E+04  0.25500000920E-02 0. -1.
        2   -1    0    0  501    0  0.00000000000E+00  0.00000000000E+00 -0.13952746991E+04  0.13952746991E+04  0.25500000920E-02 0.  1.
    10030    2    1    2    0    0  0.00000000000E+00  0.00000000000E+00 -0.15165158199E+03  0.26388978162E+04  0.26345366732E+04 0.  0.
        1    1    3    3  502    0  0.13054521160E+04  0.17257388721E+03 -0.11065253982E+03  0.13214503238E+04  0.50400001928E-02 0.  1.
       -1    1    3    3    0  502 -0.13054521160E+04 -0.17257388721E+03 -0.40999042171E+02  0.13174474924E+04  0.50400001928E-02 0. -1.
</event>
<event>
 5   0  0.1484379E-05  0.2676212E+04  0.7818609E-02  0.8342765E-01
        1   -1    0    0  501    0  0.00000000000E+00  0.00000000000E+00  0.14579436065E+04  0.14579436065E+04  0.50400001928E-02 0. -1.
       -1   -1    0    0    0  501  0.00000000000E+00  0.00000000000E+00 -0.12281184038E+04  0.12281184038E+04  0.50400001928E-02 0.  1.
    10030    2    1    2    0    0  0.00000000000E+00  0.00000000000E+00  0.22982520271E+03  0.26860620103E+04  0.26762117814E+04 0.  0.
        1    1    3    3  502    0  0.34548499271E+02 -0.10603347392E+04 -0.70357898827E+03  0.12729991165E+04  0.50400001928E-02 0.  1.
       -1    1    3    3    0  502 -0.34548499271E+02  0.10603347392E+04  0.93340419098E+03  0.14130628937E+04  0.50400001928E-02 0. -1.
</event>
<event>
 5   0  0.1449521E-05  0.1515566E+04  0.7818609E-02  0.8874167E-01
        1   -1    0    0  501    0  0.00000000000E+00  0.00000000000E+00  0.17069678933E+04  0.17069678933E+04  0.50400001928E-02 0. -1.
       -1   -1    0    0    0  501  0.00000000000E+00  0.00000000000E+00 -0.33640663327E+03  0.33640663330E+03  0.50400001928E-02 0.  1.
    10030    2    1    2    0    0  0.00000000000E+00  0.00000000000E+00  0.13705612601E+04  0.20433745266E+04  0.15155663260E+04 0.  0.
        3    1    3    3  502    0  0.53293380029E+02 -0.47855902326E+03  0.14741860346E+04  0.15508331302E+04  0.10100000352E+00 0. -1.
       -3    1    3    3    0  502 -0.53293380029E+02  0.47855902326E+03 -0.10362477450E+03  0.49254139642E+03  0.10100000352E+00 0.  1.
</event>
<event>
 5   0  0.3676724E-05  0.2584181E+04  0.7818609E-02  0.8373594E-01
       -2   -1    0    0    0  501  0.00000000000E+00  0.00000000000E+00  0.11887840956E+04  0.11887840956E+04  0.25500000920E-02 0.  1.
        2   -1    0    0  501    0  0.00000000000E+00  0.00000000000E+00 -0.14043744827E+04  0.14043744827E+04  0.25500000920E-02 0. -1.
    10030    2    1    2    0    0  0.00000000000E+00  0.00000000000E+00 -0.21559038710E+03  0.25931585784E+04  0.25841811464E+04 0.  0.
        4    1    3    3  502    0  0.24530399428E+03 -0.85196611934E+03 -0.10509946230E+04  0.13749951376E+04  0.12699999809E+01 0. -1.
       -4    1    3    3    0  502 -0.24530399428E+03  0.85196611934E+03  0.83540423586E+03  0.12181634407E+04  0.12699999809E+01 0.  1.
</event>
<event>
 5   0  0.3497949E-05  0.1619794E+04  0.7818609E-02  0.8808479E-01
        2   -1    0    0  501    0  0.00000000000E+00  0.00000000000E+00  0.20168264119E+04  0.20168264119E+04  0.25500000920E-02 0. -1.
       -2   -1    0    0    0  501  0.00000000000E+00  0.00000000000E+00 -0.32523044332E+03  0.32523044333E+03  0.25500000920E-02 0.  1.
    10030    2    1    2    0    0  0.00000000000E+00  0.00000000000E+00  0.16915959686E+04  0.23420568553E+04  0.16197942438E+04 0.  0.
        5    1    3    3  502    0  0.12564150697E+02  0.63803899988E+03  0.12478974413E+03  0.65026624815E+03  0.46999998093E+01 0.  1.
       -5    1    3    3    0  502 -0.12564150697E+02 -0.63803899988E+03  0.15668062245E+04  0.16917906071E+04  0.46999998093E+01 0. -1.
</event>
<event>
 5   0  0.3652331E-05  0.1467093E+04  0.7818609E-02  0.8906635E-01
       -2   -1    0    0    0  501  0.00000000000E+00  0.00000000000E+00  0.22491227778E+03  0.22491227779E+03  0.25500000920E-02 0.  1.
        2   -1    0    0  501    0  0.00000000000E+00  0.00000000000E+00 -0.23924466806E+04  0.23924466806E+04  0.25500000920E-02 0. -1.
    10030    2    1    2    0    0  0.00000000000E+00  0.00000000000E+00 -0.21675344028E+04  0.26173589584E+04  0.14670932246E+04 0.  0.
        1    1    3    3  502    0  0.70364164704E+03  0.17777480866E+03 -0.89349087401E+03  0.11511044227E+04  0.50400001928E-02 0.  1.
       -1    1    3    3    0  502 -0.70364164704E+03 -0.17777480866E+03 -0.12740435288E+04  0.14662545357E+04  0.50400001928E-02 0. -1.
</event>
<event>
 5   0  0.3497949E-05  0.2107785E+04  0.7818609E-02  0.8557822E-01
        2   -1    0    0  501    0  0.00000000000E+00  0.00000000000E+00  0.16464300186E+04  0.16464300186E+04  0.25500000920E-02 0.  1.
       -2   -1    0    0    0  501  0.00000000000E+00  0.00000000000E+00 -0.67460484888E+03  0.67460484889E+03  0.25500000920E-02 0. -1.
    10030    2    1    2    0    0  0.00000000000E+00  0.00000000000E+00  0.97182516968E+03  0.23210348675E+04  0.21077852584E+04 0.  0.
        5    1    3    3  502    0  0.71005350663E+03 -0.64785698210E+03  0.10016348133E+02  0.96125806564E+03  0.46999998093E+01 0. -1.
       -5    1    3    3    0  502 -0.71005350663E+03  0.64785698210E+03  0.96180882155E+03  0.13597768018E+04  0.46999998093E+01 0.  1.
</event>
<event>
 5   0  0.3676724E-05  0.2465281E+04  0.7818609E-02  0.8415460E-01
       -2   -1    0    0    0  501  0.00000000000E+00  0.00000000000E+00  0.15243254063E+04  0.15243254063E+04  0.25500000920E-02 0.  1.
        2   -1    0    0  501    0  0.00000000000E+00  0.00000000000E+00 -0.99677042382E+03  0.99677042383E+03  0.25500000920E-02 0. -1.
    10030    2    1    2    0    0  0.00000000000E+00  0.00000000000E+00  0.52755498246E+03  0.25210958301E+04  0.24652809019E+04 0.  0.
        4    1    3    3  502    0  0.11067180923E+04 -0.44706644114E+03  0.57849086419E+03  0.13264036457E+04  0.12699999809E+01 0.  1.
       -4    1    3    3    0  502 -0.11067180923E+04  0.44706644114E+03 -0.50935881724E+02  0.11946921844E+04  0.12699999809E+01 0. -1.
</event>
<event>
 5   0  0.1449521E-05  0.2630601E+04  0.7818609E-02  0.8357881E-01
       -1   -1    0    0    0  501  0.00000000000E+00  0.00000000000E+00  0.15456875437E+04  0.15456875437E+04  0.50400001928E-02 0.  1.
        1   -1    0    0  501    0  0.00000000000E+00  0.00000000000E+00 -0.11192528174E+04  0.11192528174E+04  0.50400001928E-02 0. -1.
    10030    2    1    2    0    0  0.00000000000E+00  0.00000000000E+00  0.42643472632E+03  0.26649403610E+04  0.26306007968E+04 0.  0.
        3    1    3    3  502    0  0.67746292173E+03 -0.84042210809E+03 -0.54809097967E+03  0.12106481992E+04  0.10100000352E+00 0.  1.
       -3    1    3    3    0  502 -0.67746292173E+03  0.84042210809E+03  0.97452570600E+03  0.14542921618E+04  0.10100000352E+00 0. -1.
</event>
<event>
 5   0  0.1449521E-05  0.2400697E+04  0.7818609E-02  0.8439243E-01
       -1   -1    0    0    0  501  0.00000000000E+00  0.00000000000E+00  0.10084504372E+04  0.10084504372E+04  0.50400001928E-02 0. -1.
        1   -1    0    0  501    0  0.00000000000E+00  0.00000000000E+00 -0.14287624327E+04  0.14287624327E+04  0.50400001928E-02 0.  1.
    10030    2    1    2    0    0  0.00000000000E+00  0.00000000000E+00 -0.42031199552E+03  0.24372128698E+04  0.24006966488E+04 0.  0.
        3    1    3    3  502    0 -0.19335676228E+03  0.59244315673E+03 -0.12516554597E+04  0.13982192716E+04  0.10100000352E+00 0.  1.
       -3    1    3    3    0  502  0.19335676228E+03 -0.59244315673E+03  0.83134346420E+03  0.10389935982E+04  0.10100000352E+00 0. -1.
</event>
<event>
 5   0  0.3568647E-05  0.2054437E+04  0.7818609E-02  0.8581584E-01
       -2   -1    0    0    0  501  0.00000000000E+00  0.00000000000E+00  0.62473467843E+03  0.62473467844E+03  0.25500000920E-02 0.  1.
        2   -1    0    0  501    0  0.00000000000E+00  0.00000000000E+00 -0.16890014282E+04  0.16890014282E+04  0.25500000920E-02 0. -1.
    10030    2    1    2    0    0  0.00000000000E+00  0.00000000000E+00 -0.10642667497E+04  0.23137361066E+04  0.20544369196E+04 0.  0.
        3    1    3    3  502    0 -0.68329818855E+02 -0.99206942313E+03 -0.24213146074E+03  0.10234736728E+04  0.10100000352E+00 0.  1.
       -3    1    3    3    0  502  0.68329818855E+02  0.99206942313E+03 -0.82213528900E+03  0.12902624338E+04  0.10100000352E+00 0. -1.
</event>
<event>
 5   0  0.3676724E-05  0.2615938E+04  0.7818609E-02  0.8362808E-01
       -2   -1    0    0    0  501  0.00000000000E+00  0.00000000000E+00  0.26187017388E+04  0.26187017388E+04  0.25500000920E-02 0. -1.
        2   -1    0    0  501    0  0.00000000000E+00  0.00000000000E+00 -0.65329409079E+03  0.65329409080E+03  0.25500000920E-02 0.  1.
    10030    2    1    2    0    0  0.00000000000E+00  0.00000000000E+00  0.19654076480E+04  0.32719958296E+04  0.26159375922E+04 0.  0.
        4    1    3    3  502    0 -0.19575171342E+03  0.51388195243E+03  0.24670883643E+04  0.25276313031E+04  0.12699999809E+01 0. -1.
       -4    1    3    3    0  502  0.19575171342E+03 -0.51388195243E+03 -0.50168071627E+03  0.74436452650E+03  0.12699999809E+01 0.  1.
</event>
<event>
 5   0  0.1474012E-05  0.2642052E+04  0.7818609E-02  0.8354056E-01
        1   -1    0    0  501    0  0.00000000000E+00  0.00000000000E+00  0.19132980014E+04  0.19132980014E+04  0.50400001928E-02 0. -1.
       -1   -1    0    0    0  501  0.00000000000E+00  0.00000000000E+00 -0.91209540696E+03  0.91209540697E+03  0.50400001928E-02 0.  1.
    10030    2    1    2    0    0  0.00000000000E+00  0.00000000000E+00  0.10012025944E+04  0.28253934084E+04  0.26420524743E+04 0.  0.
        2    1    3    3  502    0 -0.96060001427E+03 -0.89304809865E+03  0.33211490002E+03  0.13529920919E+04  0.25500000920E-02 0.  1.
       -2    1    3    3    0  502  0.96060001427E+03  0.89304809865E+03  0.66908769440E+03  0.14724013165E+04  0.25500000920E-02 0. -1.
</event>
<event>
 5   0  0.1484379E-05  0.1526936E+04  0.7818609E-02  0.8866736E-01
        1   -1    0    0  501    0  0.00000000000E+00  0.00000000000E+00  0.54875537066E+03  0.54875537068E+03  0.50400001928E-02 0. -1.
       -1   -1    0    0    0  501  0.00000000000E+00  0.00000000000E+00 -0.10621913822E+04  0.10621913822E+04  0.50400001928E-02 0.  1.
    10030    2    1    2    0    0  0.00000000000E+00  0.00000000000E+00 -0.51343601149E+03  0.16109467529E+04  0.15269357886E+04 0.  0.
        1    1    3    3  502    0 -0.73590737168E+03 -0.11753606543E+03 -0.81734729250E+02  0.74970324287E+03  0.50400001928E-02 0. -1.
       -1    1    3    3    0  502  0.73590737168E+03  0.11753606543E+03 -0.43170128224E+03  0.86124350999E+03  0.50400001928E-02 0.  1.
</event>
<event>
 5   0  0.1474012E-05  0.1674630E+04  0.7818609E-02  0.8775968E-01
       -1   -1    0    0    0  501  0.00000000000E+00  0.00000000000E+00  0.25736992846E+03  0.25736992851E+03  0.50400001928E-02 0.  1.
        1   -1    0    0  501    0  0.00000000000E+00  0.00000000000E+00 -0.27240803012E+04  0.27240803012E+04  0.50400001928E-02 0. -1.
    10030    2    1    2    0    0  0.00000000000E+00  0.00000000000E+00 -0.24667103727E+04  0.29814502297E+04  0.16746299320E+04 0.  0.
        2    1    3    3  502    0  0.51648505308E+03  0.93228585047E+02 -0.23948947294E+04  0.24517277875E+04  0.25500000920E-02 0. -1.
       -2    1    3    3    0  502 -0.51648505308E+03 -0.93228585047E+02 -0.71815643321E+02  0.52972244219E+03  0.25500000920E-02 0.  1.
</event>
<event>
 5   0  0.3676724E-05  0.2626124E+04  0.7818609E-02  0.8359381E-01
       -2   -1    0    0    0  501  0.00000000000E+00  0.00000000000E+00  0.87403266810E+03  0.87403266811E+03  0.25500000920E-02 0.  1.
        2   -1    0    0  501    0  0.00000000000E+00  0.00000000000E+00 -0.19726171692E+04  0.19726171692E+04  0.25500000920E-02 0. -1.
    10030    2    1    2    0    0  0.00000000000E+00  0.00000000000E+00 -0.10985845011E+04  0.28466498373E+04  0.26261240242E+04 0.  0.
        4    1    3    3  502    0 -0.71797414525E+03 -0.73652235098E+03 -0.14340289046E+04  0.17647641652E+04  0.12699999809E+01 0. -1.
       -4    1    3    3    0  502  0.71797414525E+03  0.73652235098E+03  0.33544440350E+03  0.10818856721E+04  0.12699999809E+01 0.  1.
</event>
<event>
 5   0  0.3676724E-05  0.2790955E+04  0.7818609E-02  0.8306082E-01
        2   -1    0    0  501    0  0.00000000000E+00  0.00000000000E+00  0.19458482468E+04  0.19458482468E+04  0.25500000920E-02 0.  1.
       -2   -1    0    0    0  501  0.00000000000E+00  0.00000000000E+00 -0.10007753408E+04  0.10007753408E+04  0.25500000920E-02 0. -1.
    10030    2    1    2    0    0  0.00000000000E+00  0.00000000000E+00  0.94507290595E+03  0.29466235876E+04  0.27909546341E+04 0.  0.
        4    1    3    3  502    0 -0.92987811551E+03  0.38511435085E+03  0.14930789269E+04  0.18006311859E+04  0.12699999809E+01 0.  1.
       -4    1    3    3    0  502  0.92987811551E+03 -0.38511435085E+03 -0.54800602092E+03  0.11459924017E+04  0.12699999809E+01 0. -1.
</event>
<event>
 5   0  0.3497949E-05  0.1824143E+04  0.7818609E-02  0.8693565E-01
        2   -1    0    0  501    0  0.00000000000E+00  0.00000000000E+00  0.12892724135E+04  0.12892724135E+04  0.25500000920E-02 0. -1.
       -2   -1    0    0    0  501  0.00000000000E+00  0.00000000000E+00 -0.64522768383E+03  0.64522768384E+03  0.25500000920E-02 0.  1.
    10030    2    1    2    0    0  0.00000000000E+00  0.00000000000E+00  0.64404472970E+03  0.19345000974E+04  0.18241428159E+04 0.  0.
        5    1    3    3  502    0 -0.57903922862E+03 -0.79913765835E+02  0.10645070534E+04  0.12144422567E+04  0.46999998093E+01 0. -1.
       -5    1    3    3    0  502  0.57903922862E+03  0.79913765835E+02 -0.42046232368E+03  0.72005784065E+03  0.46999998093E+01 0.  1.
</event>
<event>
 5   0  0.1449521E-05  0.2433855E+04  0.7818609E-02  0.8426937E-01
        1   -1    0    0  501    0  0.00000000000E+00  0.00000000000E+00  0.24987954729E+04  0.24987954729E+04  0.50400001928E-02 0.  1.
       -1   -1    0    0    0  501  0.00000000000E+00  0.00000000000E+00 -0.59265040475E+03  0.59265040478E+03  0.50400001928E-02 0. -1.
    10030    2    1    2    0    0  0.00000000000E+00  0.00000000000E+00  0.19061450681E+04  0.30914458776E+04  0.24338546780E+04 0.  0.
        3    1    3    3  502    0 -0.23629450939E+03  0.86482058001E+03  0.19983062837E+04  0.21902003891E+04  0.10100000352E+00 0.  1.
       -3    1    3    3    0  502  0.23629450939E+03 -0.86482058001E+03 -0.92161215568E+02  0.90124548856E+03  0.10100000352E+00 0. -1.
</event>
<event>
 5   0  0.1474012E-05  0.2714967E+04  0.7818609E-02  0.8330165E-01
       -1   -1    0    0    0  501  0.00000000000E+00  0.00000000000E+00  0.79999268009E+03  0.79999268011E+03  0.50400001928E-02 0. -1.
        1   -1    0    0  501    0  0.00000000000E+00  0.00000000000E+00 -0.23034724059E+04  0.23034724059E+04  0.50400001928E-02 0.  1.
    10030    2    1    2    0    0  0.00000000000E+00  0.00000000000E+00 -0.15034797258E+04  0.31034650860E+04  0.27149667133E+04 0.  0.
        2    1    3    3  502    0 -0.44780570366E+03 -0.93900015072E+03 -0.17486012432E+04  0.20346639868E+04  0.25500000920E-02 0.  1.
       -2    1    3    3    0  502  0.44780570366E+03  0.93900015072E+03  0.24512151747E+03  0.10688010992E+04  0.25500000920E-02 0. -1.
</event>
<event>
 5   0  0.3652331E-05  0.2660636E+04  0.7818609E-02  0.8347892E-01
        2   -1    0    0  501    0  0.00000000000E+00  0.00000000000E+00  0.24247745800E+04  0.24247745800E+04  0.25500000920E-02 0.  1.
       -2   -1    0    0    0  501  0.00000000000E+00  0.00000000000E+00 -0.72985974404E+03  0.72985974405E+03  0.25500000920E-02 0. -1.
    10030    2    1    2    0    0  0.00000000000E+00  0.00000000000E+00  0.16949148359E+04  0.31546343240E+04  0.26606355288E+04 0.  0.
        1    1    3    3  502    0  0.32275808792E+03 -0.11920860586E+04  0.14337387817E+04  0.18923130948E+04  0.50400001928E-02 0.  1.
       -1    1    3    3    0  502 -0.32275808792E+03  0.11920860586E+04  0.26117605419E+03  0.12623212292E+04  0.50400001928E-02 0. -1.
</event>
<event>
 5   0  0.1438701E-05  0.2749003E+04  0.7818609E-02  0.8319278E-01
       -1   -1    0    0    0  501  0.00000000000E+00  0.00000000000E+00  0.91675693291E+03  0.91675693293E+03  0.50400001928E-02 0. -1.
        1   -1    0    0  501    0  0.00000000000E+00  0.00000000000E+00 -0.20608024123E+04  0.20608024123E+04  0.50400001928E-02 0.  1.
    10030    2    1    2    0    0  0.00000000000E+00  0.00000000000E+00 -0.11440454794E+04  0.29775593452E+04  0.27490033822E+04 0.  0.
        4    1    3    3  502    0 -0.54296244008E+03  0.69143058510E+03  0.57240664709E+03  0.10490640819E+04  0.12699999809E+01 0. -1.
       -4    1    3    3    0  502  0.54296244008E+03 -0.69143058510E+03 -0.17164521264E+04  0.19284952633E+04  0.12699999809E+01 0.  1.
</event>
<event>
 5   0  0.3676724E-05  0.2666544E+04  0.7818609E-02  0.8345943E-01
        2   -1    0    0  501    0  0.00000000000E+00  0.00000000000E+00  0.15859725021E+04  0.15859725021E+04  0.25500000920E-02 0.  1.
       -2   -1    0    0    0  501  0.00000000000E+00  0.00000000000E+00 -0.11208353980E+04  0.11208353980E+04  0.25500000920E-02 0. -1.
    10030    2    1    2    0    0  0.00000000000E+00  0.00000000000E+00  0.46513710413E+03  0.27068079001E+04  0.26665439209E+04 0.  0.
        4    1    3    3  502    0 -0.62935039101E+03  0.48978699359E+03 -0.85204030866E+03  0.11670250701E+04  0.12699999809E+01 0. -1.
       -4    1    3    3    0  502  0.62935039101E+03 -0.48978699359E+03  0.13171774128E+04  0.15397828300E+04  0.12699999809E+01 0.  1.
</event>
<event>
 5   0  0.1228050E-05  0.2703378E+04  0.7818609E-02  0.8333910E-01
        3   -1    0    0  501    0  0.00000000000E+00  0.00000000000E+00  0.13015240544E+04  0.13015240584E+04  0.10100000352E+00 0.  1.
       -3   -1    0    0    0  501  0.00000000000E+00  0.00000000000E+00 -0.14037872624E+04  0.14037872660E+04  0.10100000352E+00 0. -1.
    10030    2    1    2    0    0  0.00000000000E+00  0.00000000000E+00 -0.10226320792E+03  0.27053113244E+04  0.27033778127E+04 0.  0.
        3    1    3    3  502    0 -0.38014057056E+03  0.53423532143E+03  0.11317242246E+04  0.13079426451E+04  0.10100000352E+00 0.  1.
       -3    1    3    3    0  502  0.38014057056E+03 -0.53423532143E+03 -0.12339874325E+04  0.13973686793E+04  0.10100000352E+00 0. -1.
</event>
<event>
 5   0  0.3514294E-05  0.2720759E+04  0.7818609E-02  0.8328301E-01
       -2   -1    0    0    0  501  0.00000000000E+00  0.00000000000E+00  0.12502324736E+04  0.12502324736E+04  0.25500000920E-02 0. -1.
        2   -1    0    0  501    0  0.00000000000E+00  0.00000000000E+00 -0.14802309989E+04  0.14802309989E+04  0.25500000920E-02 0.  1.
    10030    2    1    2    0    0  0.00000000000E+00  0.00000000000E+00 -0.22999852526E+03  0.27304634725E+04  0.27207593523E+04 0.  0.
        2    1    3    3  502    0 -0.60143664381E+03  0.40381929467E+01  0.11095538390E+04  0.12620824320E+04  0.25500000920E-02 0. -1.
       -2    1    3    3    0  502  0.60143664381E+03 -0.40381929467E+01 -0.13395523643E+04  0.14683810405E+04  0.25500000920E-02 0.  1.
</event>
<event>
 5   0  0.1438701E-05  0.2150071E+04  0.7818609E-02  0.8539502E-01
        1   -1    0    0  501    0  0.00000000000E+00  0.00000000000E+00  0.13928565995E+04  0.13928565995E+04  0.50400001928E-02 0.  1.
       -1   -1    0    0    0  501  0.00000000000E+00  0.00000000000E+00 -0.82973433231E+03  0.82973433233E+03  0.50400001928E-02 0. -1.
    10030    2    1    2    0    0  0.00000000000E+00  0.00000000000E+00  0.56312226716E+03  0.22225909318E+04  0.21500706413E+04 0.  0.
        4    1    3    3  502    0 -0.85393623875E+03  0.65098767007E+03  0.33534766008E+03  0.11249229807E+04  0.12699999809E+01 0.  1.
       -4    1    3    3    0  502  0.85393623875E+03 -0.65098767007E+03  0.22777460708E+03  0.10976679511E+04  0.12699999809E+01 0. -1.
</event>
<event>
 5   0  0.3676724E-05  0.2654754E+04  0.7818609E-02  0.8349837E-01
        2   -1    0    0  501    0  0.00000000000E+00  0.00000000000E+00  0.18363434436E+04  0.18363434436E+04  0.25500000920E-02 0. -1.
       -2   -1    0    0    0  501  0.00000000000E+00  0.00000000000E+00 -0.95947709678E+03  0.95947709679E+03  0.25500000920E-02 0.  1.
    10030    2    1    2    0    0  0.00000000000E+00  0.00000000000E+00  0.87686634680E+03  0.27958205404E+04  0.26547538311E+04 0.  0.
        4    1    3    3  502    0  0.10837861400E+04 -0.34548821941E+03 -0.28200314576E+03  0.11719564387E+04  0.12699999809E+01 0.  1.
       -4    1    3    3    0  502 -0.10837861400E+04  0.34548821941E+03  0.11588694926E+04  0.16238641017E+04  0.12699999809E+01 0. -1.
</event>
<event>
 5   0  0.1449521E-05  0.2072960E+04  0.7818609E-02  0.8573249E-01
       -1   -1    0    0    0  501  0.00000000000E+00  0.00000000000E+00  0.60743097112E+03  0.60743097114E+03  0.50400001928E-02 0. -1.
        1   -1    0    0  501    0  0.00000000000E+00  0.00000000000E+00 -0.17685807535E+04  0.17685807535E+04  0.50400001928E-02 0.  1.
    10030    2    1    2    0    0  0.00000000000E+00  0.00000000000E+00 -0.11611497823E+04  0.23760117246E+04  0.20729599365E+04 0.  0.
        3    1    3    3  502    0  0.51618100627E+03 -0.82304966551E+03 -0.16661497529E+03  0.98570489667E+03  0.10100000352E+00 0.  1.
       -3    1    3    3    0  502 -0.51618100627E+03  0.82304966551E+03 -0.99453480705E+03  0.13903068279E+04  0.10100000352E+00 0. -1.
</event>
<event>
 5   0  0.3497949E-05  0.2636801E+04  0.7818609E-02  0.8355807E-01
       -2   -1    0    0    0  501  0.00000000000E+00  0.00000000000E+00  0.11103653788E+04  0.11103653788E+04  0.25500000920E-02 0.  1.
        2   -1    0    0  501    0  0.00000000000E+00  0.00000000000E+00 -0.15654119830E+04  0.15654119830E+04  0.25500000920E-02 0. -1.
    10030    2    1    2    0    0  0.00000000000E+00  0.00000000000E+00 -0.45504660412E+03  0.26757773618E+04  0.26368005381E+04 0.  0.
        5    1    3    3  502    0  0.21792437489E+03  0.10113144962E+04  0.60181436073E+03  0.11968503073E+04  0.46999998093E+01 0.  1.
       -5    1    3    3    0  502 -0.21792437489E+03 -0.10113144962E+04 -0.10568609649E+04  0.14789270545E+04  0.46999998093E+01 0. -1.
</event>
<event>
 5   0  0.3497949E-05  0.2741205E+04  0.7818609E-02  0.8321758E-01
       -2   -1    0    0    0  501  0.00000000000E+00  0.00000000000E+00  0.12799617372E+04  0.12799617373E+04  0.25500000920E-02 0. -1.
        2   -1    0    0  501    0  0.00000000000E+00  0.00000000000E+00 -0.14676619923E+04  0.14676619923E+04  0.25500000920E-02 0.  1.
    10030    2    1    2    0    0  0.00000000000E+00  0.00000000000E+00 -0.18770025508E+03  0.27476237296E+04  0.27412049857E+04 0.  0.
        5    1    3    3  502    0  0.16013529764E+03 -0.83117335815E+03 -0.11743523291E+04  0.14476249334E+04  0.46999998093E+01 0.  1.
       -5    1    3    3    0  502 -0.16013529764E+03  0.83117335815E+03  0.98665207406E+03  0.12999987962E+04  0.46999998093E+01 0. -1.
</event>
<event>
 5   0  0.3652331E-05  0.2135118E+04  0.7818609E-02  0.8545930E-01
        2   -1    0    0  501    0  0.00000000000E+00  0.00000000000E+00  0.22781734177E+04  0.22781734177E+04  0.25500000920E-02 0.  1.
       -2   -1    0    0    0  501  0.00000000000E+00  0.00000000000E+00 -0.50026126156E+03  0.50026126157E+03  0.25500000920E-02 0. -1.
    10030    2    1    2    0    0  0.00000000000E+00  0.00000000000E+00  0.17779121562E+04  0.27784346793E+04  0.21351177092E+04 0.  0.
        1    1    3    3  502    0 -0.94310451689E+03 -0.46614838911E+03  0.65277245857E+03  0.12380841382E+04  0.50400001928E-02 0.  1.
       -1    1    3    3    0  502  0.94310451689E+03  0.46614838911E+03  0.11251396976E+04  0.15403505411E+04  0.50400001928E-02 0. -1.
</event>
<event>
 5   0  0.1474012E-05  0.2695309E+04  0.7818609E-02  0.8336529E-01
       -1   -1    0    0    0  501  0.00000000000E+00  0.00000000000E+00  0.10378363957E+04  0.10378363957E+04  0.50400001928E-02 0.  1.
        1   -1    0    0  501    0  0.00000000000E+00  0.00000000000E+00 -0.17499608848E+04  0.17499608848E+04  0.50400001928E-02 0. -1.
    10030    2    1    2    0    0  0.00000000000E+00  0.00000000000E+00 -0.71212448909E+03  0.27877972806E+04  0.26953093310E+04 0.  0.
        2    1    3    3  502    0 -0.13198994393E+04 -0.25074989353E+03 -0.24678136680E+03  0.13659835585E+04  0.25500000920E-02 0.  1.
       -2    1    3    3    0  502  0.13198994393E+04  0.25074989353E+03 -0.46534312229E+03  0.14218137221E+04  0.25500000920E-02 0. -1.
</event>
<event>
 5   0  0.1449521E-05  0.2626346E+04  0.7818609E-02  0.8359307E-01
        1   -1    0    0  501    0  0.00000000000E+00  0.00000000000E+00  0.14278964684E+04  0.14278964685E+04  0.50400001928E-02 0.  1.
       -1   -1    0    0    0  501  0.00000000000E+00  0.00000000000E+00 -0.12076665609E+04  0.12076665609E+04  0.50400001928E-02 0. -1.
    10030    2    1    2    0    0  0.00000000000E+00  0.00000000000E+00  0.22022990751E+03  0.26355630294E+04  0.26263456113E+04 0.  0.
        3    1    3    3  502    0  0.49274495903E+03  0.64636070468E+03  0.11451625272E+04  0.14042709778E+04  0.10100000352E+00 0.  1.
       -3    1    3    3    0  502 -0.49274495903E+03 -0.64636070468E+03 -0.92493261968E+03  0.12312920516E+04  0.10100000352E+00 0. -1.
</event>
<event>
 5   0  0.1449521E-05  0.1433626E+04  0.7818609E-02  0.8929831E-01
        1   -1    0    0  501    0  0.00000000000E+00  0.00000000000E+00  0.73698804825E+03  0.73698804827E+03  0.50400001928E-02 0. -1.
       -1   -1    0    0    0  501  0.00000000000E+00  0.00000000000E+00 -0.69719071635E+03  0.69719071636E+03  0.50400001928E-02 0.  1.
    10030    2    1    2    0    0  0.00000000000E+00  0.00000000000E+00  0.39797331908E+02  0.14341787646E+04  0.14336264860E+04 0.  0.
        3    1    3    3  502    0 -0.45506788387E+03 -0.44089713889E+03  0.35520557445E+03  0.72639388512E+03  0.10100000352E+00 0. -1.
       -3    1    3    3    0  502  0.45506788387E+03  0.44089713889E+03 -0.31540824254E+03  0.70778487952E+03  0.10100000352E+00 0.  1.
</event>
<event>
 5   0  0.3676724E-05  0.2460911E+04  0.7818609E-02  0.8417045E-01
        2   -1    0    0  501    0  0.00000000000E+00  0.00000000000E+00  0.26369395676E+04  0.26369395676E+04  0.25500000920E-02 0.  1.
       -2   -1    0    0    0  501  0.00000000000E+00  0.00000000000E+00 -0.57415810999E+03  0.57415810999E+03  0.25500000920E-02 0. -1.
    10030    2    1    2    0    0  0.00000000000E+00  0.00000000000E+00  0.20627814576E+04  0.32110976776E+04  0.24609105943E+04 0.  0.
        4    1    3    3  502    0 -0.10738114015E+04 -0.35704320218E+03  0.40091086067E+03  0.12005340084E+04  0.12699999809E+01 0. -1.
       -4    1    3    3    0  502  0.10738114015E+04  0.35704320218E+03  0.16618705970E+04  0.20105636693E+04  0.12699999809E+01 0.  1.
</event>
<event>
 5   0  0.1495517E-05  0.2002351E+04  0.7818609E-02  0.8605522E-01
       -1   -1    0    0    0  501  0.00000000000E+00  0.00000000000E+00  0.62939719696E+03  0.62939719698E+03  0.50400001928E-02 0.  1.
        1   -1    0    0  501    0  0.00000000000E+00  0.00000000000E+00 -0.15925590959E+04  0.15925590959E+04  0.50400001928E-02 0. -1.
    10030    2    1    2    0    0  0.00000000000E+00  0.00000000000E+00 -0.96316189891E+03  0.22219562929E+04  0.20023508493E+04 0.  0.
        5    1    3    3  502    0  0.17347565964E+03 -0.25215009479E+03  0.57619878928E+03  0.65245736225E+03  0.46999998093E+01 0.  1.
       -5    1    3    3    0  502 -0.17347565964E+03  0.25215009479E+03 -0.15393606882E+04  0.15694989306E+04  0.46999998093E+01 0. -1.
</event>
<event>
 5   0  0.1438701E-05  0.2736988E+04  0.7818609E-02  0.8323102E-01
       -1   -1    0    0    0  501  0.00000000000E+00  0.00000000000E+00  0.18279853529E+04  0.18279853529E+04  0.50400001928E-02 0.  1.
        1   -1    0    0  501    0  0.00000000000E+00  0.00000000000E+00 -0.10245026832E+04  0.10245026832E+04  0.50400001928E-02 0. -1.
    10030    2    1    2    0    0  0.00000000000E+00  0.00000000000E+00  0.80348266974E+03  0.28524880361E+04  0.27369880517E+04 0.  0.
        4    1    3    3  502    0 -0.54772998342E+02  0.47005368000E+03 -0.93651111260E+03  0.10492879587E+04  0.12699999809E+01 0. -1.
       -4    1    3    3    0  502  0.54772998342E+02 -0.47005368000E+03  0.17399937823E+04  0.18032000773E+04  0.12699999809E+01 0.  1.
</event>
<event>
 5   0  0.1474012E-05  0.2596251E+04  0.7818609E-02  0.8369476E-01
        1   -1    0    0  501    0  0.00000000000E+00  0.00000000000E+00  0.14550319645E+04  0.14550319646E+04  0.50400001928E-02 0.  1.
       -1   -1    0    0    0  501  0.00000000000E+00  0.00000000000E+00 -0.11581392444E+04  0.11581392444E+04  0.50400001928E-02 0. -1.
    10030    2    1    2    0    0  0.00000000000E+00  0.00000000000E+00  0.29689272015E+03  0.26131712090E+04  0.25962508508E+04 0.  0.
        2    1    3    3  502    0  0.10915467352E+04 -0.66710346204E+03 -0.73509097031E+02  0.12813683668E+04  0.25500000920E-02 0. -1.
       -2    1    3    3    0  502 -0.10915467352E+04  0.66710346204E+03  0.37040181718E+03  0.13318028421E+04  0.25500000920E-02 0.  1.
</event>
<event>
 5   0  0.3568647E-05  0.2668653E+04  0.7818609E-02  0.8345248E-01
       -2   -1    0    0    0  501  0.00000000000E+00  0.00000000000E+00  0.74391292512E+03  0.74391292513E+03  0.25500000920E-02 0. -1.
        2   -1    0    0  501    0  0.00000000000E+00  0.00000000000E+00 -0.23933272254E+04  0.23933272254E+04  0.25500000920E-02 0.  1.
    10030    2    1    2    0    0  0.00000000000E+00  0.00000000000E+00 -0.16494143003E+04  0.31372401505E+04  0.26686528864E+04 0.  0.
        3    1    3    3  502    0  0.13138905776E+04  0.23167795902E+03 -0.79993817092E+03  0.15555977032E+04  0.10100000352E+00 0.  1.
       -3    1    3    3    0  502 -0.13138905776E+04 -0.23167795902E+03 -0.84947612935E+03  0.15816424473E+04  0.10100000352E+00 0. -1.
</event>
<event>
 5   0  0.3676724E-05  0.2810223E+04  0.7818609E-02  0.8300101E-01
       -2   -1    0    0    0  501  0.00000000000E+00  0.00000000000E+00  0.17504701058E+04  0.17504701058E+04  0.25500000920E-02 0. -1.
        2   -1    0    0  501    0  0.00000000000E+00  0.00000000000E+00 -0.11278906189E+04  0.11278906189E+04  0.25500000920E-02 0.  1.
    10030    2    1    2    0    0  0.00000000000E+00  0.00000000000E+00  0.62257948692E+03  0.28783607246E+04  0.28102233441E+04 0.  0.
        4    1    3    3  502    0 -0.23063353910E+03  0.16412638200E+03  0.17209621692E+04  0.17440876410E+04  0.12699999809E+01 0. -1.
       -4    1    3    3    0  502  0.23063353910E+03 -0.16412638200E+03 -0.10983826823E+04  0.11342730837E+04  0.12699999809E+01 0.  1.
</event>
<event>
 5   0  0.3652331E-05  0.2644435E+04  0.7818609E-02  0.8353262E-01
        2   -1    0    0  501    0  0.00000000000E+00  0.00000000000E+00  0.22652154464E+04  0.22652154464E+04  0.25500000920E-02 0.  1.
       -2   -1    0    0    0  501  0.00000000000E+00  0.00000000000E+00 -0.77178506283E+03  0.77178506284E+03  0.25500000920E-02 0. -1.
    10030    2    1    2    0    0  0.00000000000E+00  0.00000000000E+00  0.14934303836E+04  0.30370005092E+04  0.26444352483E+04 0.  0.
        1    1    3    3  502    0 -0.69001501717E+03 -0.11224917678E+04  0.87331034980E+03  0.15807528143E+04  0.50400001928E-02 0. -1.
       -1    1    3    3    0  502  0.69001501717E+03  0.11224917678E+04  0.62012003377E+03  0.14562476950E+04  0.50400001928E-02 0.  1.
</event>
<event>
 5   0  0.3568647E-05  0.2692968E+04  0.7818609E-02  0.8337290E-01
        2   -1    0    0  501    0  0.00000000000E+00  0.00000000000E+00  0.18592668171E+04  0.18592668171E+04  0.25500000920E-02 0.  1.
       -2   -1    0    0    0  501  0.00000000000E+00  0.00000000000E+00 -0.97512589508E+03  0.97512589508E+03  0.25500000920E-02 0. -1.
    10030    2    1    2    0    0  0.00000000000E+00  0.00000000000E+00  0.88414092203E+03  0.28343927122E+04  0.26929680423E+04 0.  0.
        3    1    3    3  502    0  0.27617415359E+03  0.39959375900E+03  0.17638364305E+04  0.18294989202E+04  0.10100000352E+00 0.  1.
       -3    1    3    3    0  502 -0.27617415359E+03 -0.39959375900E+03 -0.87969550847E+03  0.10048937920E+04  0.10100000352E+00 0. -1.
</event>
<event>
 5   0  0.1495517E-05  0.2773778E+04  0.7818609E-02  0.8311456E-01
       -1   -1    0    0    0  501  0.00000000000E+00  0.00000000000E+00  0.11007435515E+04  0.11007435515E+04  0.50400001928E-02 0.  1.
        1   -1    0    0  501    0  0.00000000000E+00  0.00000000000E+00 -0.17474193572E+04  0.17474193572E+04  0.50400001928E-02 0. -1.
    10030    2    1    2    0    0  0.00000000000E+00  0.00000000000E+00 -0.64667580578E+03  0.28481629087E+04  0.27737776329E+04 0.  0.
        5    1    3    3  502    0  0.12891787248E+04  0.17288221076E+03  0.17078261106E+03  0.13118913193E+04  0.46999998093E+01 0.  1.
       -5    1    3    3    0  502 -0.12891787248E+04 -0.17288221076E+03 -0.81745841685E+03  0.15362715895E+04  0.46999998093E+01 0. -1.
</event>
<event>
 5   0  0.1438701E-05  0.2583997E+04  0.7818609E-02  0.8373657E-01
       -1   -1    0    0    0  501  0.00000000000E+00  0.00000000000E+00  0.85863651132E+03  0.85863651133E+03  0.50400001928E-02 0.  1.
        1   -1    0    0  501    0  0.00000000000E+00  0.00000000000E+00 -0.19440824650E+04  0.19440824650E+04  0.50400001928E-02 0. -1.
    10030    2    1    2    0    0  0.00000000000E+00  0.00000000000E+00 -0.10854459537E+04  0.28027189763E+04  0.25839970476E+04 0.  0.
        4    1    3    3  502    0  0.87349719847E+02  0.66126223603E+03 -0.17428915730E+04  0.18661646140E+04  0.12699999809E+01 0. -1.
       -4    1    3    3    0  502 -0.87349719847E+02 -0.66126223603E+03  0.65744561933E+03  0.93655436235E+03  0.12699999809E+01 0.  1.
</event>
<event>
 5   0  0.1495517E-05  0.2586325E+04  0.7818609E-02  0.8372861E-01
       -1   -1    0    0    0  501  0.00000000000E+00  0.00000000000E+00  0.92859646748E+03  0.92859646749E+03  0.50400001928E-02 0. -1.
        1   -1    0    0  501    0  0.00000000000E+00  0.00000000000E+00 -0.18008574819E+04  0.18008574819E+04  0.50400001928E-02 0.  1.
    10030    2    1    2    0    0  0.00000000000E+00  0.00000000000E+00 -0.87226101443E+03  0.27294539494E+04  0.25863254986E+04 0.  0.
        5    1    3    3  502    0  0.56568667665E+03 -0.41380133058E+03 -0.15830165535E+04  0.17312413049E+04  0.46999998093E+01 0.  1.
       -5    1    3    3    0  502 -0.56568667665E+03  0.41380133058E+03  0.71075553904E+03  0.99821264448E+03  0.46999998093E+01 0. -1.
</event>
<event>
 5   0  0.1484379E-05  0.2709469E+04  0.7818609E-02  0.8331939E-01
       -1   -1    0    0    0  501  0.00000000000E+00  0.00000000000E+00  0.10760313295E+04  0.10760313295E+04  0.50400001928E-02 0.  1.
        1   -1    0    0  501    0  0.00000000000E+00  0.00000000000E+00 -0.17056251840E+04  0.17056251840E+04  0.50400001928E-02 0. -1.
    10030    2    1    2    0    0  0.00000000000E+00  0.00000000000E+00 -0.62959385454E+03  0.27816565135E+04  0.27094694199E+04 0.  0.
        1    1    3    3  502    0 -0.31321645171E+03  0.53076270086E+03  0.92378357729E+03  0.11104907419E+04  0.50400001928E-02 0.  1.
       -1    1    3    3    0  502  0.31321645171E+03 -0.53076270086E+03 -0.15533774318E+04  0.16711657715E+04  0.50400001928E-02 0. -1.
</event>
<event>
 5   0  0.3676724E-05  0.1472130E+04  0.7818609E-02  0.8903201E-01
        2   -1    0    0  501    0  0.00000000000E+00  0.00000000000E+00  0.11612310751E+04  0.11612310751E+04  0.25500000920E-02 0.  1.
       -2   -1    0    0    0  501  0.00000000000E+00  0.00000000000E+00 -0.46656663060E+03  0.46656663061E+03  0.25500000920E-02 0. -1.
    10030    2    1    2    0    0  0.00000000000E+00  0.00000000000E+00  0.69466444452E+03  0.16277977057E+04  0.14721299808E+04 0.  0.
        4    1    3    3  502    0 -0.39084583107E+03 -0.56912866448E+03  0.62950730584E+03  0.93431737723E+03  0.12699999809E+01 0.  1.
       -4    1    3    3    0  502  0.39084583107E+03  0.56912866448E+03  0.65157138685E+02  0.69348032850E+03  0.12699999809E+01 0. -1.
</event>
<event>
 5   0  0.3652331E-05  0.2646850E+04  0.7818609E-02  0.8352459E-01
        2   -1    0    0  501    0  0.00000000000E+00  0.00000000000E+00  0.12025469560E+04  0.12025469560E+04  0.25500000920E-02 0. -1.
       -2   -1    0    0    0  501  0.00000000000E+00  0.00000000000E+00 -0.14564538436E+04  0.14564538436E+04  0.25500000920E-02 0.  1.
    10030    2    1    2    0    0  0.00000000000E+00  0.00000000000E+00 -0.25390688766E+03  0.26590007996E+04  0.26468503064E+04 0.  0.
        1    1    3    3  502    0  0.69192494142E+03 -0.15984380039E+03 -0.12488359691E+04  0.14366284986E+04  0.50400001928E-02 0.  1.
       -1    1    3    3    0  502 -0.69192494142E+03  0.15984380039E+03  0.99492908148E+03  0.12223723010E+04  0.50400001928E-02 0. -1.
</event>
<event>
 5   0  0.3514294E-05  0.2519821E+04  0.7818609E-02  0.8395958E-01
       -2   -1    0    0    0  501  0.00000000000E+00  0.00000000000E+00  0.84457264227E+03  0.84457264227E+03  0.25500000920E-02 0.  1.
        2   -1    0    0  501    0  0.00000000000E+00  0.00000000000E+00 -0.18794994890E+04  0.18794994890E+04  0.25500000920E-02 0. -1.
    10030    2    1    2    0    0  0.00000000000E+00  0.00000000000E+00 -0.10349268467E+04  0.27240721312E+04  0.25198205091E+04 0.  0.
        2    1    3    3  502    0  0.29190309757E+03  0.58701347493E+03  0.64565733420E+03  0.92014435353E+03  0.25500000920E-02 0.  1.
       -2    1    3    3    0  502 -0.29190309757E+03 -0.58701347493E+03 -0.16805841809E+04  0.18039277777E+04  0.25500000920E-02 0. -1.
</event>
<event>
 5   0  0.1449521E-05  0.2647391E+04  0.7818609E-02  0.8352280E-01
       -1   -1    0    0    0  501  0.00000000000E+00  0.00000000000E+00  0.14660420199E+04  0.14660420199E+04  0.50400001928E-02 0. -1.
        1   -1    0    0  501    0  0.00000000000E+00  0.00000000000E+00 -0.11951698623E+04  0.11951698623E+04  0.50400001928E-02 0.  1.
    10030    2    1    2    0    0  0.00000000000E+00  0.00000000000E+00  0.27087215765E+03  0.26612118822E+04  0.26473905938E+04 0.  0.
        3    1    3    3  502    0 -0.11500411583E+04 -0.65474192606E+03  0.16538378461E+03  0.13336541763E+04  0.10100000352E+00 0. -1.
       -3    1    3    3    0  502  0.11500411583E+04  0.65474192606E+03  0.10548837304E+03  0.13275577059E+04  0.10100000352E+00 0.  1.
</event>
<event>
 5   0  0.3568647E-05  0.2683440E+04  0.7818609E-02  0.8340398E-01
       -2   -1    0    0    0  501  0.00000000000E+00  0.00000000000E+00  0.13289604940E+04  0.13289604940E+04  0.25500000920E-02 0.  1.
        2   -1    0    0  501    0  0.00000000000E+00  0.00000000000E+00 -0.13546023256E+04  0.13546023256E+04  0.25500000920E-02 0. -1.
    10030    2    1    2    0    0  0.00000000000E+00  0.00000000000E+00 -0.25641831585E+02  0.26835628197E+04  0.26834403112E+04 0.  0.
        3    1    3    3  502    0  0.51447938815E+03  0.40425297389E+03  0.11586007604E+04  0.13305883060E+04  0.10100000352E+00 0.  1.
       -3    1    3    3    0  502 -0.51447938815E+03 -0.40425297389E+03 -0.11842425920E+04  0.13529745137E+04  0.10100000352E+00 0. -1.
</event>
<event>
 5   0  0.3497949E-05  0.1576665E+04  0.7818609E-02  0.8835013E-01
        2   -1    0    0  501    0  0.00000000000E+00  0.00000000000E+00  0.19513624957E+04  0.19513624957E+04  0.25500000920E-02 0. -1.
       -2   -1    0    0    0  501  0.00000000000E+00  0.00000000000E+00 -0.31847909209E+03  0.31847909210E+03  0.25500000920E-02 0.  1.
    10030    2    1    2    0    0  0.00000000000E+00  0.00000000000E+00  0.16328834036E+04  0.22698415878E+04  0.15766650322E+04 0.  0.
        5    1    3    3  502    0 -0.10218714874E+03  0.36771329407E+03  0.18094757209E+04  0.18492916899E+04  0.46999998093E+01 0. -1.
       -5    1    3    3    0  502  0.10218714874E+03 -0.36771329407E+03 -0.17659231734E+03  0.42054989781E+03  0.46999998093E+01 0.  1.
</event>
<event>
 5   0  0.3652331E-05  0.2426652E+04  0.7818609E-02  0.8429592E-01
        2   -1    0    0  501    0  0.00000000000E+00  0.00000000000E+00  0.10023289690E+04  0.10023289690E+04  0.25500000920E-02 0.  1.
       -2   -1    0    0    0  501  0.00000000000E+00  0.00000000000E+00 -0.14687393504E+04  0.14687393504E+04  0.25500000920E-02 0. -1.
    10030    2    1    2    0    0  0.00000000000E+00  0.00000000000E+00 -0.46641038146E+03  0.24710683194E+04  0.24266520136E+04 0.  0.
        1    1    3    3  502    0  0.76044502627E+03 -0.54431556465E+03  0.55399279099E+03  0.10869517397E+04  0.50400001928E-02 0. -1.
       -1    1    3    3    0  502 -0.76044502627E+03  0.54431556465E+03 -0.10204031724E+04  0.13841165797E+04  0.50400001928E-02 0.  1.
</event>
<event>
 5   0  0.1449521E-05  0.2671341E+04  0.7818609E-02  0.8344364E-01
        1   -1    0    0  501    0  0.00000000000E+00  0.00000000000E+00  0.18360416032E+04  0.18360416032E+04  0.50400001928E-02 0. -1.
       -1   -1    0    0    0  501  0.00000000000E+00  0.00000000000E+00 -0.97166390411E+03  0.97166390413E+03  0.50400001928E-02 0.  1.
    10030    2    1    2    0    0  0.00000000000E+00  0.00000000000E+00  0.86437769908E+03  0.28077055073E+04  0.26713407512E+04 0.  0.
        3    1    3    3  502    0 -0.12700479551E+04 -0.27406311777E+03  0.10673235772E+03  0.13036580100E+04  0.10100000352E+00 0.  1.
       -3    1    3    3    0  502  0.12700479551E+04  0.27406311777E+03  0.75764534136E+03  0.15040474973E+04  0.10100000352E+00 0. -1.
</event>
<event>
 5   0  0.1438701E-05  0.2617965E+04  0.7818609E-02  0.8362124E-01
        1   -1    0    0  501    0  0.00000000000E+00  0.00000000000E+00  0.22104754508E+04  0.22104754508E+04  0.50400001928E-02 0.  1.
       -1   -1    0    0    0  501  0.00000000000E+00  0.00000000000E+00 -0.77514323058E+03  0.77514323060E+03  0.50400001928E-02 0. -1.
    10030    2    1    2    0    0  0.00000000000E+00  0.00000000000E+00  0.14353322202E+04  0.29856186814E+04  0.26179649211E+04 0.  0.
        4    1    3    3  502    0 -0.12430045419E+04 -0.13862231611E+03  0.27722040210E+03  0.12810656509E+04  0.12699999809E+01 0.  1.
       -4    1    3    3    0  502  0.12430045419E+04  0.13862231611E+03  0.11581118181E+04  0.17045530305E+04  0.12699999809E+01 0. -1.
</event>
<event>
 5   0  0.1449521E-05  0.2663282E+04  0.7818609E-02  0.8347018E-01
        1   -1    0    0  501    0  0.00000000000E+00  0.00000000000E+00  0.13353849642E+04  0.13353849642E+04  0.50400001928E-02 0. -1.
       -1   -1    0    0    0  501  0.00000000000E+00  0.00000000000E+00 -0.13279077334E+04  0.13279077334E+04  0.50400001928E-02 0.  1.
    10030    2    1    2    0    0  0.00000000000E+00  0.00000000000E+00  0.74772308031E+01  0.26632926976E+04  0.26632822014E+04 0.  0.
        3    1    3    3  502    0  0.22116249240E+03 -0.48955280557E+03  0.12222232956E+04  0.13350672613E+04  0.10100000352E+00 0. -1.
       -3    1    3    3    0  502 -0.22116249240E+03  0.48955280557E+03 -0.12147460648E+04  0.13282254363E+04  0.10100000352E+00 0.  1.
</event>
<event>
 5   0  0.3676724E-05  0.2654283E+04  0.7818609E-02  0.8349993E-01
        2   -1    0    0  501    0  0.00000000000E+00  0.00000000000E+00  0.11134250508E+04  0.11134250508E+04  0.25500000920E-02 0.  1.
       -2   -1    0    0    0  501  0.00000000000E+00  0.00000000000E+00 -0.15818802836E+04  0.15818802836E+04  0.25500000920E-02 0. -1.
    10030    2    1    2    0    0  0.00000000000E+00  0.00000000000E+00 -0.46845523284E+03  0.26953053344E+04  0.26542834326E+04 0.  0.
        4    1    3    3  502    0  0.34837247947E+03 -0.10616779873E+04  0.49292606782E+03  0.12212703446E+04  0.12699999809E+01 0.  1.
       -4    1    3    3    0  502 -0.34837247947E+03  0.10616779873E+04 -0.96138130065E+03  0.14740349899E+04  0.12699999809E+01 0. -1.
</event>
<event>
 5   0  0.3497949E-05  0.2781540E+04  0.7818609E-02  0.8309022E-01
        2   -1    0    0  501    0  0.00000000000E+00  0.00000000000E+00  0.16712371576E+04  0.16712371576E+04  0.25500000920E-02 0. -1.
       -2   -1    0    0    0  501  0.00000000000E+00  0.00000000000E+00 -0.11573711385E+04  0.11573711385E+04  0.25500000920E-02 0.  1.
    10030    2    1    2    0    0  0.00000000000E+00  0.00000000000E+00  0.51386601915E+03  0.28286082961E+04  0.27815403299E+04 0.  0.
        5    1    3    3  502    0  0.11569849916E+04 -0.41786688840E+03  0.91675176645E+03  0.15341717304E+04  0.46999998093E+01 0. -1.
       -5    1    3    3    0  502 -0.11569849916E+04  0.41786688840E+03 -0.40288574730E+03  0.12944365657E+04  0.46999998093E+01 0.  1.
</event>
<event>
 5   0  0.3514294E-05  0.2787017E+04  0.7818609E-02  0.8307310E-01
       -2   -1    0    0    0  501  0.00000000000E+00  0.00000000000E+00  0.19631603006E+04  0.19631603006E+04  0.25500000920E-02 0. -1.
        2   -1    0    0  501    0  0.00000000000E+00  0.00000000000E+00 -0.98915334904E+03  0.98915334904E+03  0.25500000920E-02 0.  1.
    10030    2    1    2    0    0  0.00000000000E+00  0.00000000000E+00  0.97400695153E+03  0.29523136496E+04  0.27870174639E+04 0.  0.
        2    1    3    3  502    0  0.40774709976E+03 -0.13023451807E+04  0.18831220160E+03  0.13776146603E+04  0.25500000920E-02 0.  1.
       -2    1    3    3    0  502 -0.40774709976E+03  0.13023451807E+04  0.78569474992E+03  0.15746989893E+04  0.25500000920E-02 0. -1.
</event>
<event>
 5   0  0.3568647E-05  0.2394443E+04  0.7818609E-02  0.8441587E-01
        2   -1    0    0  501    0  0.00000000000E+00  0.00000000000E+00  0.12187393055E+04  0.12187393055E+04  0.25500000920E-02 0. -1.
       -2   -1    0    0    0  501  0.00000000000E+00  0.00000000000E+00 -0.11760831830E+04  0.11760831830E+04  0.25500000920E-02 0.  1.
    10030    2    1    2    0    0  0.00000000000E+00  0.00000000000E+00  0.42656122567E+02  0.23948224885E+04  0.23944425670E+04 0.  0.
        3    1    3    3  502    0 -0.11648809490E+04 -0.75725879332E+02  0.28718362543E+03  0.12021466130E+04  0.10100000352E+00 0. -1.
       -3    1    3    3    0  502  0.11648809490E+04  0.75725879332E+02 -0.24452750287E+03  0.11926758755E+04  0.10100000352E+00 0.  1.
</event>
<event>
 5   0  0.3514294E-05  0.1961471E+04  0.7818609E-02  0.8624849E-01
       -2   -1    0    0    0  501  0.00000000000E+00  0.00000000000E+00  0.45740194984E+03  0.45740194985E+03  0.25500000920E-02 0. -1.
        2   -1    0    0  501    0  0.00000000000E+00  0.00000000000E+00 -0.21028367707E+04  0.21028367707E+04  0.25500000920E-02 0.  1.
    10030    2    1    2    0    0  0.00000000000E+00  0.00000000000E+00 -0.16454348208E+04  0.25602387205E+04  0.19614705087E+04 0.  0.
        2    1    3    3  502    0 -0.69094785004E+03  0.13129583159E+03 -0.17148868837E+04  0.18535060158E+04  0.25500000920E-02 0.  1.
       -2    1    3    3    0  502  0.69094785004E+03 -0.13129583159E+03  0.69452062839E+02  0.70673270471E+03  0.25500000920E-02 0. -1.
</event>
<event>
 5   0  0.3568647E-05  0.2755396E+04  0.7818609E-02  0.8317251E-01
        2   -1    0    0  501    0  0.00000000000E+00  0.00000000000E+00  0.11809296718E+04  0.11809296718E+04  0.25500000920E-02 0. -1.
       -2   -1    0    0    0  501  0.00000000000E+00  0.00000000000E+00 -0.16072524997E+04  0.16072524997E+04  0.25500000920E-02 0.  1.
    10030    2    1    2    0    0  0.00000000000E+00  0.00000000000E+00 -0.42632282793E+03  0.27881821716E+04  0.27553962815E+04 0.  0.
        3    1    3    3  502    0 -0.22977566107E+03 -0.57100022408E+03 -0.14603914512E+04  0.15847969306E+04  0.10100000352E+00 0.  1.
       -3    1    3    3    0  502  0.22977566107E+03  0.57100022408E+03  0.10340686233E+04  0.12033852410E+04  0.10100000352E+00 0. -1.
</event>
<event>
 5   0  0.3568647E-05  0.2695416E+04  0.7818609E-02  0.8336494E-01
        2   -1    0    0  501    0  0.00000000000E+00  0.00000000000E+00  0.21359011857E+04  0.21359011857E+04  0.25500000920E-02 0. -1.
       -2   -1    0    0    0  501  0.00000000000E+00  0.00000000000E+00 -0.85037501626E+03  0.85037501626E+03  0.25500000920E-02 0.  1.
    10030    2    1    2    0    0  0.00000000000E+00  0.00000000000E+00  0.12855261694E+04  0.29862762019E+04  0.26954161130E+04 0.  0.
        3    1    3    3  502    0 -0.95872825028E+03  0.64613260474E+03 -0.12455483146E+03  0.11628246287E+04  0.10100000352E+00 0.  1.
       -3    1    3    3    0  502  0.95872825028E+03 -0.64613260474E+03  0.14100810009E+04  0.18234515733E+04  0.10100000352E+00 0. -1.
</event>
<event>
 5   0  0.3514294E-05  0.2379648E+04  0.7818609E-02  0.8447163E-01
        2   -1    0    0  501    0  0.00000000000E+00  0.00000000000E+00  0.12226961063E+04  0.12226961063E+04  0.25500000920E-02 0.  1.
       -2   -1    0    0    0  501  0.00000000000E+00  0.00000000000E+00 -0.11578353366E+04  0.11578353366E+04  0.25500000920E-02 0. -1.
    10030    2    1    2    0    0  0.00000000000E+00  0.00000000000E+00  0.64860769696E+02  0.23805314429E+04  0.23796476695E+04 0.  0.
        2    1    3    3  502    0 -0.27898313110E+03 -0.87972731429E+03  0.78366135727E+03  0.12107340161E+04  0.25500000920E-02 0.  1.
       -2    1    3    3    0  502  0.27898313110E+03  0.87972731429E+03 -0.71880058757E+03  0.11697974268E+04  0.25500000920E-02 0. -1.
</event>
<event>
 5   0  0.1449521E-05  0.1805003E+04  0.7818609E-02  0.8703643E-01
        1   -1    0    0  501    0  0.00000000000E+00  0.00000000000E+00  0.14207742139E+04  0.14207742139E+04  0.50400001928E-02 0. -1.
       -1   -1    0    0    0  501  0.00000000000E+00  0.00000000000E+00 -0.57328557439E+03  0.57328557441E+03  0.50400001928E-02 0.  1.
    10030    2    1    2    0    0  0.00000000000E+00  0.00000000000E+00  0.84748863949E+03  0.19940597883E+04  0.18050034474E+04 0.  0.
        3    1    3    3  502    0  0.84096072542E+03 -0.25295379658E+03  0.19383946289E+03  0.89931880470E+03  0.10100000352E+00 0. -1.
       -3    1    3    3    0  502 -0.84096072542E+03  0.25295379658E+03  0.65364917660E+03  0.10947409836E+04  0.10100000352E+00 0.  1.
</event>
<event>
 5   0  0.1474012E-05  0.2395623E+04  0.7818609E-02  0.8441144E-01
       -1   -1    0    0    0  501  0.00000000000E+00  0.00000000000E+00  0.12655778212E+04  0.12655778212E+04  0.50400001928E-02 0.  1.
        1   -1    0    0  501    0  0.00000000000E+00  0.00000000000E+00 -0.11336738058E+04  0.11336738058E+04  0.50400001928E-02 0. -1.
    10030    2    1    2    0    0  0.00000000000E+00  0.00000000000E+00  0.13190401541E+03  0.23992516270E+04  0.23956230297E+04 0.  0.
        2    1    3    3  502    0  0.36045319345E+03  0.58006840183E+03  0.10514885406E+04  0.12538078028E+04  0.25500000920E-02 0.  1.
       -2    1    3    3    0  502 -0.36045319345E+03 -0.58006840183E+03 -0.91958452518E+03  0.11454438242E+04  0.25500000920E-02 0. -1.
</event>
<event>
 5   0  0.1474012E-05  0.1870359E+04  0.7818609E-02  0.8669753E-01
        1   -1    0    0  501    0  0.00000000000E+00  0.00000000000E+00  0.17490368052E+04  0.17490368052E+04  0.50400001928E-02 0.  1.
       -1   -1    0    0    0  501  0.00000000000E+00  0.00000000000E+00 -0.50002394220E+03  0.50002394223E+03  0.50400001928E-02 0. -1.
    10030    2    1    2    0    0  0.00000000000E+00  0.00000000000E+00  0.12490128630E+04  0.22490607474E+04  0.18703585522E+04 0.  0.
        2    1    3    3  502    0  0.59681288328E+03  0.30773419415E+03  0.14072011261E+04  0.15591988203E+04  0.25500000920E-02 0.  1.
       -2    1    3    3    0  502 -0.59681288328E+03 -0.30773419415E+03 -0.15818826312E+03  0.68986192712E+03  0.25500000920E-02 0. -1.
</event>
<event>
 5   0  0.1449521E-05  0.2568999E+04  0.7818609E-02  0.8378808E-01
       -1   -1    0    0    0  501  0.00000000000E+00  0.00000000000E+00  0.10404016163E+04  0.10404016163E+04  0.50400001928E-02 0.  1.
        1   -1    0    0  501    0  0.00000000000E+00  0.00000000000E+00 -0.15858671972E+04  0.15858671972E+04  0.50400001928E-02 0. -1.
    10030    2    1    2    0    0  0.00000000000E+00  0.00000000000E+00 -0.54546558089E+03  0.26262688135E+04  0.25689988674E+04 0.  0.
        3    1    3    3  502    0 -0.12479247862E+04 -0.28895880911E+03 -0.17507670567E+03  0.12928516266E+04  0.10100000352E+00 0. -1.
       -3    1    3    3    0  502  0.12479247862E+04  0.28895880911E+03 -0.37038887522E+03  0.13334171869E+04  0.10100000352E+00 0.  1.
</event>
<event>
 5   0  0.3652331E-05  0.2652861E+04  0.7818609E-02  0.8350464E-01
       -2   -1    0    0    0  501  0.00000000000E+00  0.00000000000E+00  0.97771821287E+03  0.97771821287E+03  0.25500000920E-02 0. -1.
        2   -1    0    0  501    0  0.00000000000E+00  0.00000000000E+00 -0.17995135969E+04  0.17995135969E+04  0.25500000920E-02 0.  1.
    10030    2    1    2    0    0  0.00000000000E+00  0.00000000000E+00 -0.82179538398E+03  0.27772318097E+04  0.26528605074E+04 0.  0.
        1    1    3    3  502    0  0.93364426334E+03 -0.94140115164E+03 -0.45130081480E+03  0.14005713706E+04  0.50400001928E-02 0. -1.
       -1    1    3    3    0  502 -0.93364426334E+03  0.94140115164E+03 -0.37049456919E+03  0.13766604391E+04  0.50400001928E-02 0.  1.
</event>
<event>
 5   0  0.1449521E-05  0.2729784E+04  0.7818609E-02  0.8325405E-01
        1   -1    0    0  501    0  0.00000000000E+00  0.00000000000E+00  0.13412511076E+04  0.13412511076E+04  0.50400001928E-02 0. -1.
       -1   -1    0    0    0  501  0.00000000000E+00  0.00000000000E+00 -0.13889500050E+04  0.13889500050E+04  0.50400001928E-02 0.  1.
    10030    2    1    2    0    0  0.00000000000E+00  0.00000000000E+00 -0.47698897477E+02  0.27302011126E+04  0.27297844110E+04 0.  0.
        3    1    3    3  502    0  0.82664094986E+03  0.89394753934E+03  0.59305363977E+03  0.13543227433E+04  0.10100000352E+00 0.  1.
       -3    1    3    3    0  502 -0.82664094986E+03 -0.89394753934E+03 -0.64075253725E+03  0.13758783694E+04  0.10100000352E+00 0. -1.
</event>
<event>
 5   0  0.3568647E-05  0.2458060E+04  0.7818609E-02  0.8418081E-01
       -2   -1    0    0    0  501  0.00000000000E+00  0.00000000000E+00  0.70747314370E+03  0.70747314370E+03  0.25500000920E-02 0. -1.
        2   -1    0    0  501    0  0.00000000000E+00  0.00000000000E+00 -0.21350840055E+04  0.21350840055E+04  0.25500000920E-02 0.  1.
    10030    2    1    2    0    0  0.00000000000E+00  0.00000000000E+00 -0.14276108618E+04  0.28425571492E+04  0.24580598800E+04 0.  0.
        3    1    3    3  502    0  0.15687469193E+02 -0.11841632537E+04 -0.33372050734E+03  0.12303894080E+04  0.10100000352E+00 0. -1.
       -3    1    3    3    0  502 -0.15687469193E+02  0.11841632537E+04 -0.10938903544E+04  0.16121677412E+04  0.10100000352E+00 0.  1.
</event>
<event>
 5   0  0.1484379E-05  0.2007251E+04  0.7818609E-02  0.8603238E-01
        1   -1    0    0  501    0  0.00000000000E+00  0.00000000000E+00  0.13747653689E+04  0.13747653689E+04  0.50400001928E-02 0. -1.
       -1   -1    0    0    0  501  0.00000000000E+00  0.00000000000E+00 -0.73268080427E+03  0.73268080429E+03  0.50400001928E-02 0.  1.
    10030    2    1    2    0    0  0.00000000000E+00  0.00000000000E+00  0.64208456462E+03  0.21074461732E+04  0.20072510518E+04 0.  0.
        1    1    3    3  502    0  0.36233378980E+03 -0.39335886573E+03  0.12126973333E+04  0.13253874131E+04  0.50400001928E-02 0. -1.
       -1    1    3    3    0  502 -0.36233378980E+03  0.39335886573E+03 -0.57061276868E+03  0.78205876013E+03  0.50400001928E-02 0.  1.
</event>
<event>
 5   0  0.3676724E-05  0.2697036E+04  0.7818609E-02  0.8335967E-01
       -2   -1    0    0    0  501  0.00000000000E+00  0.00000000000E+00  0.12189043796E+04  0.12189043796E+04  0.25500000920E-02 0. -1.
        2   -1    0    0  501    0  0.00000000000E+00  0.00000000000E+00 -0.14919145150E+04  0.14919145151E+04  0.25500000920E-02 0.  1.
    10030    2    1    2    0    0  0.00000000000E+00  0.00000000000E+00 -0.27301013549E+03  0.27108188946E+04  0.26970362521E+04 0.  0.
        4    1    3    3  502    0  0.92620336829E+03  0.68392558004E+02 -0.11192384149E+04  0.14543818149E+04  0.12699999809E+01 0. -1.
       -4    1    3    3    0  502 -0.92620336829E+03 -0.68392558004E+02  0.84622827939E+03  0.12564370797E+04  0.12699999809E+01 0.  1.
</event>
<event>
 5   0  0.3676724E-05  0.2684892E+04  0.7818609E-02  0.8339924E-01
       -2   -1    0    0    0  501  0.00000000000E+00  0.00000000000E+00  0.12732262676E+04  0.12732262676E+04  0.25500000920E-02 0.  1.
        2   -1    0    0  501    0  0.00000000000E+00  0.00000000000E+00 -0.14154292117E+04  0.14154292117E+04  0.25500000920E-02 0. -1.
    10030    2    1    2    0    0  0.00000000000E+00  0.00000000000E+00 -0.14220294414E+03  0.26886554793E+04  0.26848922901E+04 0.  0.
        4    1    3    3  502    0  0.10728818146E+04  0.79963474700E+03  0.37072722654E+02  0.13386064083E+04  0.12699999809E+01 0.  1.
       -4    1    3    3    0  502 -0.10728818146E+04 -0.79963474700E+03 -0.17927566679E+03  0.13500490710E+04  0.12699999809E+01 0. -1.
</event>
<event>
 5   0  0.1495517E-05  0.1930059E+04  0.7818609E-02  0.8640037E-01
        1   -1    0    0  501    0  0.00000000000E+00  0.00000000000E+00  0.14758767895E+04  0.14758767895E+04  0.50400001928E-02 0.  1.
       -1   -1    0    0    0  501  0.00000000000E+00  0.00000000000E+00 -0.63100263847E+03  0.63100263849E+03  0.50400001928E-02 0. -1.
    10030    2    1    2    0    0  0.00000000000E+00  0.00000000000E+00  0.84487415103E+03  0.21068794280E+04  0.19300592201E+04 0.  0.
        5    1    3    3  502    0  0.51638861603E+03 -0.80813638070E+03  0.30528068384E+03  0.10064591390E+04  0.46999998093E+01 0. -1.
       -5    1    3    3    0  502 -0.51638861603E+03  0.80813638070E+03  0.53959346720E+03  0.11004202890E+04  0.46999998093E+01 0.  1.
</event>
<event>
 5   0  0.1449521E-05  0.2752785E+04  0.7818609E-02  0.8318078E-01
        1   -1    0    0  501    0  0.00000000000E+00  0.00000000000E+00  0.16645734856E+04  0.16645734856E+04  0.50400001928E-02 0. -1.
       -1   -1    0    0    0  501  0.00000000000E+00  0.00000000000E+00 -0.11381033611E+04  0.11381033611E+04  0.50400001928E-02 0.  1.
    10030    2    1    2    0    0  0.00000000000E+00  0.00000000000E+00  0.52647012448E+03  0.28026768467E+04  0.27527852650E+04 0.  0.
        3    1    3    3  502    0 -0.67664474072E+03  0.79652980686E+03 -0.64862494384E+03  0.12300496601E+04  0.10100000352E+00 0.  1.
       -3    1    3    3    0  502  0.67664474072E+03 -0.79652980686E+03  0.11750950683E+04  0.15726271866E+04  0.10100000352E+00 0. -1.
</event>
<event>
 5   0  0.1474012E-05  0.2753223E+04  0.7818609E-02  0.8317940E-01
        1   -1    0    0  501    0  0.00000000000E+00  0.00000000000E+00  0.18252948963E+04  0.18252948963E+04  0.50400001928E-02 0.  1.
       -1   -1    0    0    0  501  0.00000000000E+00  0.00000000000E+00 -0.10382205213E+04  0.10382205213E+04  0.50400001928E-02 0. -1.
    10030    2    1    2    0    0  0.00000000000E+00  0.00000000000E+00  0.78707437497E+03  0.28635154175E+04  0.27532225618E+04 0.  0.
        2    1    3    3  502    0  0.13645741076E+04 -0.17865694118E+03  0.35939184272E+03  0.14223724176E+04  0.25500000920E-02 0. -1.
       -2    1    3    3    0  502 -0.13645741076E+04  0.17865694118E+03  0.42768253225E+03  0.14411429999E+04  0.25500000920E-02 0.  1.
</event>
<event>
 5   0  0.3676724E-05  0.2273246E+04  0.7818609E-02  0.8488545E-01
       -2   -1    0    0    0  501  0.00000000000E+00  0.00000000000E+00  0.76964266649E+03  0.76964266649E+03  0.25500000920E-02 0. -1.
        2   -1    0    0  501    0  0.00000000000E+00  0.00000000000E+00 -0.16785863240E+04  0.16785863240E+04  0.25500000920E-02 0.  1.
    10030    2    1    2    0    0  0.00000000000E+00  0.00000000000E+00 -0.90894365750E+03  0.24482289905E+04  0.22732458330E+04 0.  0.
        4    1    3    3  502    0 -0.90088543030E+03 -0.58663769504E+03 -0.57052433141E+02  0.10765662714E+04  0.12699999809E+01 0. -1.
       -4    1    3    3    0  502  0.90088543030E+03  0.58663769504E+03 -0.85189122436E+03  0.13716627190E+04  0.12699999809E+01 0.  1.
</event>
<event>
 5   0  0.1449521E-05  0.2779455E+04  0.7818609E-02  0.8309675E-01
        1   -1    0    0  501    0  0.00000000000E+00  0.00000000000E+00  0.22758698019E+04  0.22758698019E+04  0.50400001928E-02 0. -1.
       -1   -1    0    0    0  501  0.00000000000E+00  0.00000000000E+00 -0.84861749556E+03  0.84861749557E+03  0.50400001928E-02 0.  1.
    10030    2    1    2    0    0  0.00000000000E+00  0.00000000000E+00  0.14272523063E+04  0.31244872974E+04  0.27794552930E+04 0.  0.
        3    1    3    3  502    0  0.14506073220E+03 -0.10383707872E+04  0.17390497000E+04  0.20306526972E+04  0.10100000352E+00 0. -1.
       -3    1    3    3    0  502 -0.14506073220E+03  0.10383707872E+04 -0.31179739366E+03  0.10938346002E+04  0.10100000352E+00 0.  1.
</event>
<event>
 5   0  0.3514294E-05  0.2808035E+04  0.7818609E-02  0.8300778E-01
        2   -1    0    0  501    0  0.00000000000E+00  0.00000000000E+00  0.15396689386E+04  0.15396689386E+04  0.25500000920E-02 0.  1.
       -2   -1    0    0    0  501  0.00000000000E+00  0.00000000000E+00 -0.12803179062E+04  0.12803179062E+04  0.25500000920E-02 0. -1.
    10030    2    1    2    0    0  0.00000000000E+00  0.00000000000E+00  0.25935103239E+03  0.28199868448E+04  0.28080354070E+04 0.  0.
        2    1    3    3  502    0  0.75714355865E+03 -0.13804012291E+03 -0.10496069996E+04  0.13015361300E+04  0.25500000920E-02 0. -1.
       -2    1    3    3    0  502 -0.75714355865E+03  0.13804012291E+03  0.13089580320E+04  0.15184507149E+04  0.25500000920E-02 0.  1.
</event>
<event>
 5   0  0.3676724E-05  0.2674036E+04  0.7818609E-02  0.8343479E-01
       -2   -1    0    0    0  501  0.00000000000E+00  0.00000000000E+00  0.78286123817E+03  0.78286123818E+03  0.25500000920E-02 0. -1.
        2   -1    0    0  501    0  0.00000000000E+00  0.00000000000E+00 -0.22834399193E+04  0.22834399193E+04  0.25500000920E-02 0.  1.
    10030    2    1    2    0    0  0.00000000000E+00  0.00000000000E+00 -0.15005786811E+04  0.30663011574E+04  0.26740356037E+04 0.  0.
        4    1    3    3  502    0 -0.13575751824E+03  0.82908816869E+02  0.77197088219E+03  0.78819073296E+03  0.12699999809E+01 0. -1.
       -4    1    3    3    0  502  0.13575751824E+03 -0.82908816869E+02 -0.22725495633E+04  0.22781104245E+04  0.12699999809E+01 0.  1.
</event>
<event>
 5   0  0.1495517E-05  0.2666144E+04  0.7818609E-02  0.8346075E-01
        1   -1    0    0  501    0  0.00000000000E+00  0.00000000000E+00  0.14051448906E+04  0.14051448906E+04  0.50400001928E-02 0.  1.
       -1   -1    0    0    0  501  0.00000000000E+00  0.00000000000E+00 -0.12646954631E+04  0.12646954631E+04  0.50400001928E-02 0. -1.
    10030    2    1    2    0    0  0.00000000000E+00  0.00000000000E+00  0.14044942744E+03  0.26698403537E+04  0.26661435581E+04 0.  0.
        5    1    3    3  502    0 -0.71974519882E+02  0.12787716199E+04 -0.29991069787E+03  0.13154488603E+04  0.46999998093E+01 0. -1.
       -5    1    3    3    0  502  0.71974519882E+02 -0.12787716199E+04  0.44036012531E+03  0.13543914934E+04  0.46999998093E+01 0.  1.
</event>
<event>
 5   0  0.1474012E-05  0.2640885E+04  0.7818609E-02  0.8354445E-01
        1   -1    0    0  501    0  0.00000000000E+00  0.00000000000E+00  0.95238502351E+03  0.95238502353E+03  0.50400001928E-02 0. -1.
       -1   -1    0    0    0  501  0.00000000000E+00  0.00000000000E+00 -0.18307384156E+04  0.18307384156E+04  0.50400001928E-02 0.  1.
    10030    2    1    2    0    0  0.00000000000E+00  0.00000000000E+00 -0.87835339204E+03  0.27831234391E+04  0.26408845859E+04 0.  0.
        2    1    3    3  502    0  0.82190619242E+03 -0.57935133839E+03 -0.13410681584E+04  0.16761985467E+04  0.25500000920E-02 0.  1.
       -2    1    3    3    0  502 -0.82190619242E+03  0.57935133839E+03  0.46271476635E+03  0.11069248924E+04  0.25500000920E-02 0. -1.
</event>
<event>
 5   0  0.3514294E-05  0.2141769E+04  0.7818609E-02  0.8543064E-01
        2   -1    0    0  501    0  0.00000000000E+00  0.00000000000E+00  0.11629447884E+04  0.11629447884E+04  0.25500000920E-02 0.  1.
       -2   -1    0    0    0  501  0.00000000000E+00  0.00000000000E+00 -0.98611181650E+03  0.98611181650E+03  0.25500000920E-02 0. -1.
    10030    2    1    2    0    0  0.00000000000E+00  0.00000000000E+00  0.17683297188E+03  0.21490566049E+04  0.21417689864E+04 0.  0.
        2    1    3    3  502    0  0.19144026619E+02 -0.10513545536E+04  0.29178990121E+03  0.10912626804E+04  0.25500000920E-02 0. -1.
       -2    1    3    3    0  502 -0.19144026619E+02  0.10513545536E+04 -0.11495692934E+03  0.10577939245E+04  0.25500000920E-02 0.  1.
</event>
<event>
 5   0  0.3568647E-05  0.2691827E+04  0.7818609E-02  0.8337662E-01
       -2   -1    0    0    0  501  0.00000000000E+00  0.00000000000E+00  0.80022846685E+03  0.80022846685E+03  0.25500000920E-02 0.  1.
        2   -1    0    0  501    0  0.00000000000E+00  0.00000000000E+00 -0.22637079614E+04  0.22637079614E+04  0.25500000920E-02 0. -1.
    10030    2    1    2    0    0  0.00000000000E+00  0.00000000000E+00 -0.14634794945E+04  0.30639364282E+04  0.26918272986E+04 0.  0.
        3    1    3    3  502    0  0.83729353566E+03  0.45050129896E+03 -0.18160388330E+04  0.20498802254E+04  0.10100000352E+00 0. -1.
       -3    1    3    3    0  502 -0.83729353566E+03 -0.45050129896E+03  0.35255933846E+03  0.10140562029E+04  0.10100000352E+00 0.  1.
</event>
<event>
 5   0  0.3497949E-05  0.2444343E+04  0.7818609E-02  0.8423086E-01
       -2   -1    0    0    0  501  0.00000000000E+00  0.00000000000E+00  0.12867222492E+04  0.12867222492E+04  0.25500000920E-02 0.  1.
        2   -1    0    0  501    0  0.00000000000E+00  0.00000000000E+00 -0.11608595265E+04  0.11608595265E+04  0.25500000920E-02 0. -1.
    10030    2    1    2    0    0  0.00000000000E+00  0.00000000000E+00  0.12586272273E+03  0.24475817758E+04  0.24443434955E+04 0.  0.
        5    1    3    3  502    0  0.93405361157E+03 -0.71889723912E+03 -0.26062564538E+03  0.12071525201E+04  0.46999998093E+01 0.  1.
       -5    1    3    3    0  502 -0.93405361157E+03  0.71889723912E+03  0.38648836810E+03  0.12404292557E+04  0.46999998093E+01 0. -1.
</event>
<event>
 5   0  0.1474012E-05  0.2721124E+04  0.7818609E-02  0.8328183E-01
       -1   -1    0    0    0  501  0.00000000000E+00  0.00000000000E+00  0.92459301634E+03  0.92459301635E+03  0.50400001928E-02 0. -1.
        1   -1    0    0  501    0  0.00000000000E+00  0.00000000000E+00 -0.20021021133E+04  0.20021021133E+04  0.50400001928E-02 0.  1.
    10030    2    1    2    0    0  0.00000000000E+00  0.00000000000E+00 -0.10775090970E+04  0.29266951297E+04  0.27211244970E+04 0.  0.
        2    1    3    3  502    0 -0.10873410495E+03  0.91916365631E+03 -0.16113091029E+04  0.18582254862E+04  0.25500000920E-02 0.  1.
       -2    1    3    3    0  502  0.10873410495E+03 -0.91916365631E+03  0.53380000590E+03  0.10684696434E+04  0.25500000920E-02 0. -1.
</event>
<event>
 5   0  0.3514294E-05  0.2737403E+04  0.7818609E-02  0.8322970E-01
       -2   -1    0    0    0  501  0.00000000000E+00  0.00000000000E+00  0.85460553221E+03  0.85460553221E+03  0.25500000920E-02 0.  1.
        2   -1    0    0  501    0  0.00000000000E+00  0.00000000000E+00 -0.21920573392E+04  0.21920573392E+04  0.25500000920E-02 0. -1.
    10030    2    1    2    0    0  0.00000000000E+00  0.00000000000E+00 -0.13374518069E+04  0.30466628714E+04  0.27374033893E+04 0.  0.
        2    1    3    3  502    0  0.26722776747E+02 -0.10062045100E+03 -0.21876441880E+04  0.21901200139E+04  0.25500000920E-02 0. -1.
       -2    1    3    3    0  502 -0.26722776747E+02  0.10062045100E+03  0.85019238103E+03  0.85654285750E+03  0.25500000920E-02 0.  1.
</event>
<event>
 5   0  0.1474012E-05  0.2468564E+04  0.7818609E-02  0.8414271E-01
        1   -1    0    0  501    0  0.00000000000E+00  0.00000000000E+00  0.20966717003E+04  0.20966717003E+04  0.50400001928E-02 0.  1.
       -1   -1    0    0    0  501  0.00000000000E+00  0.00000000000E+00 -0.72660496858E+03  0.72660496860E+03  0.50400001928E-02 0. -1.
    10030    2    1    2    0    0  0.00000000000E+00  0.00000000000E+00  0.13700667317E+04  0.28232766689E+04  0.24685640158E+04 0.  0.
        2    1    3    3  502    0 -0.88672148748E+03  0.74648534517E+03  0.19989130290E+03  0.11762108229E+04  0.25500000920E-02 0. -1.
       -2    1    3    3    0  502  0.88672148748E+03 -0.74648534517E+03  0.11701754288E+04  0.16470658460E+04  0.25500000920E-02 0.  1.
</event>
<event>
 5   0  0.3497949E-05  0.2845449E+04  0.7818609E-02  0.8289295E-01
        2   -1    0    0  501    0  0.00000000000E+00  0.00000000000E+00  0.15174724791E+04  0.15174724791E+04  0.25500000920E-02 0.  1.
       -2   -1    0    0    0  501  0.00000000000E+00  0.00000000000E+00 -0.13338928266E+04  0.13338928266E+04  0.25500000920E-02 0. -1.
    10030    2    1    2    0    0  0.00000000000E+00  0.00000000000E+00  0.18357965247E+03  0.28513653057E+04  0.28454494579E+04 0.  0.
        5    1    3    3  502    0  0.46922691600E+03 -0.12521848266E+04 -0.39500077406E+03  0.13943415795E+04  0.46999998093E+01 0.  1.
       -5    1    3    3    0  502 -0.46922691600E+03  0.12521848266E+04  0.57858042653E+03  0.14570237262E+04  0.46999998093E+01 0. -1.
</event>
<event>
 5   0  0.1484379E-05  0.2626539E+04  0.7818609E-02  0.8359242E-01
       -1   -1    0    0    0  501  0.00000000000E+00  0.00000000000E+00  0.12697701982E+04  0.12697701982E+04  0.50400001928E-02 0. -1.
        1   -1    0    0  501    0  0.00000000000E+00  0.00000000000E+00 -0.13582584977E+04  0.13582584977E+04  0.50400001928E-02 0.  1.
    10030    2    1    2    0    0  0.00000000000E+00  0.00000000000E+00 -0.88488299479E+02  0.26280286959E+04  0.26265385296E+04 0.  0.
        1    1    3    3  502    0  0.30336601614E+03 -0.29391438436E+03  0.11999481966E+04  0.12721211734E+04  0.50400001928E-02 0. -1.
       -1    1    3    3    0  502 -0.30336601614E+03  0.29391438436E+03 -0.12884364961E+04  0.13559075225E+04  0.50400001928E-02 0.  1.
</event>
<event>
 5   0  0.1474012E-05  0.2696812E+04  0.7818609E-02  0.8336040E-01
        1   -1    0    0  501    0  0.00000000000E+00  0.00000000000E+00  0.21635341118E+04  0.21635341118E+04  0.50400001928E-02 0. -1.
       -1   -1    0    0    0  501  0.00000000000E+00  0.00000000000E+00 -0.84038395618E+03  0.84038395619E+03  0.50400001928E-02 0.  1.
    10030    2    1    2    0    0  0.00000000000E+00  0.00000000000E+00  0.13231501557E+04  0.30039180680E+04  0.26968124564E+04 0.  0.
        2    1    3    3  502    0  0.83114871826E+02 -0.79130793101E+03 -0.55102909087E+03  0.96783747736E+03  0.25500000920E-02 0.  1.
       -2    1    3    3    0  502 -0.83114871826E+02  0.79130793101E+03  0.18741792465E+04  0.20360805907E+04  0.25500000920E-02 0. -1.
</event>
<event>
 5   0  0.1484379E-05  0.2604821E+04  0.7818609E-02  0.8366566E-01
        1   -1    0    0  501    0  0.00000000000E+00  0.00000000000E+00  0.18511943285E+04  0.18511943285E+04  0.50400001928E-02 0.  1.
       -1   -1    0    0    0  501  0.00000000000E+00  0.00000000000E+00 -0.91631261995E+03  0.91631261996E+03  0.50400001928E-02 0. -1.
    10030    2    1    2    0    0  0.00000000000E+00  0.00000000000E+00  0.93488170851E+03  0.27675069484E+04  0.26048207041E+04 0.  0.
        1    1    3    3  502    0 -0.61509975569E+03 -0.87512364913E+03  0.12568702856E+04  0.16504278310E+04  0.50400001928E-02 0.  1.
       -1    1    3    3    0  502  0.61509975569E+03  0.87512364913E+03 -0.32198857706E+03  0.11170791174E+04  0.50400001928E-02 0. -1.
</event>
<event>
 5   0  0.3497949E-05  0.2728257E+04  0.7818609E-02  0.8325894E-01
       -2   -1    0    0    0  501  0.00000000000E+00  0.00000000000E+00  0.94979305518E+03  0.94979305518E+03  0.25500000920E-02 0.  1.
        2   -1    0    0  501    0  0.00000000000E+00  0.00000000000E+00 -0.19592122992E+04  0.19592122992E+04  0.25500000920E-02 0. -1.
    10030    2    1    2    0    0  0.00000000000E+00  0.00000000000E+00 -0.10094192440E+04  0.29090053543E+04  0.27282567587E+04 0.  0.
        5    1    3    3  502    0  0.77965107112E+03 -0.84292070224E+03  0.28059898169E+03  0.11820021072E+04  0.46999998093E+01 0.  1.
       -5    1    3    3    0  502 -0.77965107112E+03  0.84292070224E+03 -0.12900182257E+04  0.17270032471E+04  0.46999998093E+01 0. -1.
</event>
<event>
 5   0  0.1495517E-05  0.2413516E+04  0.7818609E-02  0.8434461E-01
        1   -1    0    0  501    0  0.00000000000E+00  0.00000000000E+00  0.16875529961E+04  0.16875529961E+04  0.50400001928E-02 0. -1.
       -1   -1    0    0    0  501  0.00000000000E+00  0.00000000000E+00 -0.86294478331E+03  0.86294478333E+03  0.50400001928E-02 0.  1.
    10030    2    1    2    0    0  0.00000000000E+00  0.00000000000E+00  0.82460821276E+03  0.25504977794E+04  0.24135161525E+04 0.  0.
        5    1    3    3  502    0  0.42623595984E+03  0.26322074142E+02 -0.78041399324E+03  0.88962803232E+03  0.46999998093E+01 0.  1.
       -5    1    3    3    0  502 -0.42623595984E+03 -0.26322074142E+02  0.16050222060E+04  0.16608697471E+04  0.46999998093E+01 0. -1.
</event>
<event>
 5   0  0.1449521E-05  0.2721120E+04  0.7818609E-02  0.8328185E-01
        1   -1    0    0  501    0  0.00000000000E+00  0.00000000000E+00  0.17283797435E+04  0.17283797435E+04  0.50400001928E-02 0.  1.
       -1   -1    0    0    0  501  0.00000000000E+00  0.00000000000E+00 -0.10710163644E+04  0.10710163644E+04  0.50400001928E-02 0. -1.
    10030    2    1    2    0    0  0.00000000000E+00  0.00000000000E+00  0.65736337908E+03  0.27993961079E+04  0.27211196146E+04 0.  0.
        3    1    3    3  502    0 -0.13043027092E+04 -0.38714220837E+03  0.32231227878E+03  0.13982023680E+04  0.10100000352E+00 0. -1.
       -3    1    3    3    0  502  0.13043027092E+04  0.38714220837E+03  0.33505110031E+03  0.14011937399E+04  0.10100000352E+00 0.  1.
</event>
<event>
 5   0  0.3652331E-05  0.2828714E+04  0.7818609E-02  0.8294409E-01
       -2   -1    0    0    0  501  0.00000000000E+00  0.00000000000E+00  0.96597866658E+03  0.96597866659E+03  0.25500000920E-02 0.  1.
        2   -1    0    0  501    0  0.00000000000E+00  0.00000000000E+00 -0.20708584376E+04  0.20708584376E+04  0.25500000920E-02 0. -1.
    10030    2    1    2    0    0  0.00000000000E+00  0.00000000000E+00 -0.11048797710E+04  0.30368371042E+04  0.28287135396E+04 0.  0.
        1    1    3    3  502    0 -0.27616631796E+03 -0.13751407865E+04 -0.35704606379E+03  0.14473292333E+04  0.50400001928E-02 0.  1.
       -1    1    3    3    0  502  0.27616631796E+03  0.13751407865E+04 -0.74783370721E+03  0.15895078709E+04  0.50400001928E-02 0. -1.
</event>
<event>
 5   0  0.1484379E-05  0.2700703E+04  0.7818609E-02  0.8334777E-01
       -1   -1    0    0    0  501  0.00000000000E+00  0.00000000000E+00  0.21853249784E+04  0.21853249784E+04  0.50400001928E-02 0. -1.
        1   -1    0    0  501    0  0.00000000000E+00  0.00000000000E+00 -0.83440617948E+03  0.83440617950E+03  0.50400001928E-02 0.  1.
    10030    2    1    2    0    0  0.00000000000E+00  0.00000000000E+00  0.13509187990E+04  0.30197311579E+04  0.27007026243E+04 0.  0.
        1    1    3    3  502    0  0.12380599609E+04  0.21868597654E+03  0.12446771190E+03  0.12633717721E+04  0.50400001928E-02 0.  1.
       -1    1    3    3    0  502 -0.12380599609E+04 -0.21868597654E+03  0.12264510870E+04  0.17563593858E+04  0.50400001928E-02 0. -1.
</event>
<event>
 5   0  0.3568647E-05  0.1779424E+04  0.7818609E-02  0.8717319E-01
        2   -1    0    0  501    0  0.00000000000E+00  0.00000000000E+00  0.24439493076E+04  0.24439493076E+04  0.25500000920E-02 0. -1.
       -2   -1    0    0    0  501  0.00000000000E+00  0.00000000000E+00 -0.32389692940E+03  0.32389692941E+03  0.25500000920E-02 0.  1.
    10030    2    1    2    0    0  0.00000000000E+00  0.00000000000E+00  0.21200523782E+04  0.27678462370E+04  0.17794242623E+04 0.  0.
        3    1    3    3  502    0 -0.67097257100E+03 -0.20706940907E+03  0.19098693656E+04  0.20348668101E+04  0.10100000352E+00 0. -1.
       -3    1    3    3    0  502  0.67097257100E+03  0.20706940907E+03  0.21018301259E+03  0.73297942685E+03  0.10100000352E+00 0.  1.
</event>
<event>
 5   0  0.1484379E-05  0.1514250E+04  0.7818609E-02  0.8875032E-01
        1   -1    0    0  501    0  0.00000000000E+00  0.00000000000E+00  0.11344778197E+04  0.11344778197E+04  0.50400001928E-02 0.  1.
       -1   -1    0    0    0  501  0.00000000000E+00  0.00000000000E+00 -0.50528811907E+03  0.50528811909E+03  0.50400001928E-02 0. -1.
    10030    2    1    2    0    0  0.00000000000E+00  0.00000000000E+00  0.62918970062E+03  0.16397659388E+04  0.15142498653E+04 0.  0.
        1    1    3    3  502    0  0.51991960886E+03 -0.53339759993E+03  0.46152016728E+03  0.87625924482E+03  0.50400001928E-02 0.  1.
       -1    1    3    3    0  502 -0.51991960886E+03  0.53339759993E+03  0.16766953333E+03  0.76350669397E+03  0.50400001928E-02 0. -1.
</event>
<event>
 5   0  0.1484379E-05  0.2768046E+04  0.7818609E-02  0.8313258E-01
       -1   -1    0    0    0  501  0.00000000000E+00  0.00000000000E+00  0.12229945229E+04  0.12229945229E+04  0.50400001928E-02 0.  1.
        1   -1    0    0  501    0  0.00000000000E+00  0.00000000000E+00 -0.15662533397E+04  0.15662533398E+04  0.50400001928E-02 0. -1.
    10030    2    1    2    0    0  0.00000000000E+00  0.00000000000E+00 -0.34325881684E+03  0.27892478627E+04  0.27680457048E+04 0.  0.
        1    1    3    3  502    0  0.21300989752E+03 -0.10883610586E+04 -0.10059911886E+04  0.14973046724E+04  0.50400001928E-02 0. -1.
       -1    1    3    3    0  502 -0.21300989752E+03  0.10883610586E+04  0.66273237178E+03  0.12919431903E+04  0.50400001928E-02 0.  1.
</event>
<event>
 5   0  0.3652331E-05  0.2125517E+04  0.7818609E-02  0.8550086E-01
       -2   -1    0    0    0  501  0.00000000000E+00  0.00000000000E+00  0.45186268888E+03  0.45186268888E+03  0.25500000920E-02 0.  1.
        2   -1    0    0  501    0  0.00000000000E+00  0.00000000000E+00 -0.24995539993E+04  0.24995539993E+04  0.25500000920E-02 0. -1.
    10030    2    1    2    0    0  0.00000000000E+00  0.00000000000E+00 -0.20476913105E+04  0.29514166882E+04  0.21255165877E+04 0.  0.
        1    1    3    3  502    0  0.97671454666E+03 -0.24371935625E+03 -0.14969464041E+04  0.18039453892E+04  0.50400001928E-02 0. -1.
       -1    1    3    3    0  502 -0.97671454666E+03  0.24371935625E+03 -0.55074490636E+03  0.11474712991E+04  0.50400001928E-02 0.  1.
</event>
<event>
 5   0  0.1484379E-05  0.2724306E+04  0.7818609E-02  0.8327162E-01
       -1   -1    0    0    0  501  0.00000000000E+00  0.00000000000E+00  0.10797983489E+04  0.10797983489E+04  0.50400001928E-02 0.  1.
        1   -1    0    0  501    0  0.00000000000E+00  0.00000000000E+00 -0.17183394745E+04  0.17183394745E+04  0.50400001928E-02 0. -1.
    10030    2    1    2    0    0  0.00000000000E+00  0.00000000000E+00 -0.63854112561E+03  0.27981378235E+04  0.27243055097E+04 0.  0.
        1    1    3    3  502    0 -0.12605471709E+04 -0.83241002527E+02 -0.84254002896E+03  0.15184801398E+04  0.50400001928E-02 0. -1.
       -1    1    3    3    0  502  0.12605471709E+04  0.83241002527E+02  0.20399890335E+03  0.12796576836E+04  0.50400001928E-02 0.  1.
</event>
<event>
 5   0  0.1484379E-05  0.2560078E+04  0.7818609E-02  0.8381890E-01
       -1   -1    0    0    0  501  0.00000000000E+00  0.00000000000E+00  0.12630295126E+04  0.12630295126E+04  0.50400001928E-02 0. -1.
        1   -1    0    0  501    0  0.00000000000E+00  0.00000000000E+00 -0.12972776996E+04  0.12972776996E+04  0.50400001928E-02 0.  1.
    10030    2    1    2    0    0  0.00000000000E+00  0.00000000000E+00 -0.34248186961E+02  0.25603072122E+04  0.25600781399E+04 0.  0.
        1    1    3    3  502    0 -0.49606652793E+03  0.29154287998E+03  0.11264032357E+04  0.12648571067E+04  0.50400001928E-02 0. -1.
       -1    1    3    3    0  502  0.49606652793E+03 -0.29154287998E+03 -0.11606514226E+04  0.12954501055E+04  0.50400001928E-02 0.  1.
</event>
<event>
 5   0  0.3568647E-05  0.1970906E+04  0.7818609E-02  0.8620345E-01
       -2   -1    0    0    0  501  0.00000000000E+00  0.00000000000E+00  0.96577669760E+03  0.96577669760E+03  0.25500000920E-02 0. -1.
        2   -1    0    0  501    0  0.00000000000E+00  0.00000000000E+00 -0.10055301785E+04  0.10055301785E+04  0.25500000920E-02 0.  1.
    10030    2    1    2    0    0  0.00000000000E+00  0.00000000000E+00 -0.39753480873E+02  0.19713068761E+04  0.19709059999E+04 0.  0.
        3    1    3    3  502    0  0.17070089218E+03 -0.41692750095E+03  0.85674334821E+03  0.96797547001E+03  0.10100000352E+00 0. -1.
       -3    1    3    3    0  502 -0.17070089218E+03  0.41692750095E+03 -0.89649682908E+03  0.10033314061E+04  0.10100000352E+00 0.  1.
</event>
<event>
 5   0  0.3497949E-05  0.2785465E+04  0.7818609E-02  0.8307795E-01
        2   -1    0    0  501    0  0.00000000000E+00  0.00000000000E+00  0.22713787628E+04  0.22713787628E+04  0.25500000920E-02 0. -1.
       -2   -1    0    0    0  501  0.00000000000E+00  0.00000000000E+00 -0.85397666103E+03  0.85397666103E+03  0.25500000920E-02 0.  1.
    10030    2    1    2    0    0  0.00000000000E+00  0.00000000000E+00  0.14174021018E+04  0.31253554238E+04  0.27854654561E+04 0.  0.
        5    1    3    3  502    0 -0.12493251952E+04 -0.50016972612E+03  0.30617916508E+03  0.13801271570E+04  0.46999998093E+01 0.  1.
       -5    1    3    3    0  502  0.12493251952E+04  0.50016972612E+03  0.11112229367E+04  0.17452282668E+04  0.46999998093E+01 0. -1.
</event>
<event>
 5   0  0.3514294E-05  0.2285408E+04  0.7818609E-02  0.8483697E-01
        2   -1    0    0  501    0  0.00000000000E+00  0.00000000000E+00  0.18746407744E+04  0.18746407744E+04  0.25500000920E-02 0.  1.
       -2   -1    0    0    0  501  0.00000000000E+00  0.00000000000E+00 -0.69654567288E+03  0.69654567289E+03  0.25500000920E-02 0. -1.
    10030    2    1    2    0    0  0.00000000000E+00  0.00000000000E+00  0.11780951015E+04  0.25711864473E+04  0.22854084271E+04 0.  0.
        2    1    3    3  502    0  0.21729481085E+03  0.54775713608E+03 -0.51241537388E+03  0.78091256255E+03  0.25500000920E-02 0. -1.
       -2    1    3    3    0  502 -0.21729481085E+03 -0.54775713608E+03  0.16905104754E+04  0.17902738848E+04  0.25500000920E-02 0.  1.
</event>
<event>
 5   0  0.3514294E-05  0.2638287E+04  0.7818609E-02  0.8355311E-01
        2   -1    0    0  501    0  0.00000000000E+00  0.00000000000E+00  0.16341907331E+04  0.16341907331E+04  0.25500000920E-02 0. -1.
       -2   -1    0    0    0  501  0.00000000000E+00  0.00000000000E+00 -0.10648324825E+04  0.10648324825E+04  0.25500000920E-02 0.  1.
    10030    2    1    2    0    0  0.00000000000E+00  0.00000000000E+00  0.56935825061E+03  0.26990232156E+04  0.26382868496E+04 0.  0.
        2    1    3    3  502    0 -0.12469122802E+04 -0.36406557417E+03  0.51976350303E+03  0.13991025966E+04  0.25500000920E-02 0. -1.
       -2    1    3    3    0  502  0.12469122802E+04  0.36406557417E+03  0.49594747578E+02  0.12999206190E+04  0.25500000920E-02 0.  1.
</event>
<event>
 5   0  0.3568647E-05  0.2715039E+04  0.7818609E-02  0.8330142E-01
       -2   -1    0    0    0  501  0.00000000000E+00  0.00000000000E+00  0.84694096974E+03  0.84694096975E+03  0.25500000920E-02 0. -1.
        2   -1    0    0  501    0  0.00000000000E+00  0.00000000000E+00 -0.21758997643E+04  0.21758997643E+04  0.25500000920E-02 0.  1.
    10030    2    1    2    0    0  0.00000000000E+00  0.00000000000E+00 -0.13289587946E+04  0.30228407340E+04  0.27150386048E+04 0.  0.
        3    1    3    3  502    0  0.85167128820E+03 -0.99278444007E+03 -0.10688236861E+04  0.16891859015E+04  0.10100000352E+00 0.  1.
       -3    1    3    3    0  502 -0.85167128820E+03  0.99278444007E+03 -0.26013510848E+03  0.13336548326E+04  0.10100000352E+00 0. -1.
</event>
<event>
 5   0  0.1474012E-05  0.2499316E+04  0.7818609E-02  0.8403229E-01
        1   -1    0    0  501    0  0.00000000000E+00  0.00000000000E+00  0.11661686931E+04  0.11661686931E+04  0.50400001928E-02 0. -1.
       -1   -1    0    0    0  501  0.00000000000E+00  0.00000000000E+00 -0.13391248103E+04  0.13391248103E+04  0.50400001928E-02 0.  1.
    10030    2    1    2    0    0  0.00000000000E+00  0.00000000000E+00 -0.17295611718E+03  0.25052935033E+04  0.24993162504E+04 0.  0.
        2    1    3    3  502    0  0.47499110624E+03 -0.27347561057E+03 -0.12122132997E+04  0.13303633130E+04  0.25500000920E-02 0.  1.
       -2    1    3    3    0  502 -0.47499110624E+03  0.27347561057E+03  0.10392571826E+04  0.11749301903E+04  0.25500000920E-02 0. -1.
</event>
<event>
 5   0  0.3652331E-05  0.2674564E+04  0.7818609E-02  0.8343306E-01
       -2   -1    0    0    0  501  0.00000000000E+00  0.00000000000E+00  0.14452764078E+04  0.14452764078E+04  0.25500000920E-02 0. -1.
        2   -1    0    0  501    0  0.00000000000E+00  0.00000000000E+00 -0.12373569659E+04  0.12373569659E+04  0.25500000920E-02 0.  1.
    10030    2    1    2    0    0  0.00000000000E+00  0.00000000000E+00  0.20791944184E+03  0.26826333737E+04  0.26745637632E+04 0.  0.
        1    1    3    3  502    0 -0.11232801859E+04  0.70937640005E+02 -0.62039113037E+03  0.12851753497E+04  0.50400001928E-02 0.  1.
       -1    1    3    3    0  502  0.11232801859E+04 -0.70937640005E+02  0.82831057222E+03  0.13974580240E+04  0.50400001928E-02 0. -1.
</event>
<event>
 5   0  0.1449521E-05  0.2730295E+04  0.7818609E-02  0.8325242E-01
        1   -1    0    0  501    0  0.00000000000E+00  0.00000000000E+00  0.17209076665E+04  0.17209076665E+04  0.50400001928E-02 0. -1.
       -1   -1    0    0    0  501  0.00000000000E+00  0.00000000000E+00 -0.10829329580E+04  0.10829329580E+04  0.50400001928E-02 0.  1.
    10030    2    1    2    0    0  0.00000000000E+00  0.00000000000E+00  0.63797470847E+03  0.28038406245E+04  0.27302949509E+04 0.  0.
        3    1    3    3  502    0 -0.53427075456E+02 -0.12832427062E+04  0.79411780144E+03  0.15100295984E+04  0.10100000352E+00 0. -1.
       -3    1    3    3    0  502  0.53427075456E+02  0.12832427062E+04 -0.15614309298E+03  0.12938110260E+04  0.10100000352E+00 0.  1.
</event>
<event>
 5   0  0.1449521E-05  0.2122824E+04  0.7818609E-02  0.8551255E-01
        1   -1    0    0  501    0  0.00000000000E+00  0.00000000000E+00  0.91331494246E+03  0.91331494248E+03  0.50400001928E-02 0.  1.
       -1   -1    0    0    0  501  0.00000000000E+00  0.00000000000E+00 -0.12335235570E+04  0.12335235570E+04  0.50400001928E-02 0. -1.
    10030    2    1    2    0    0  0.00000000000E+00  0.00000000000E+00 -0.32020861456E+03  0.21468384995E+04  0.21228240592E+04 0.  0.
        3    1    3    3  502    0  0.61724272545E+03  0.17426356113E+02 -0.10331799543E+04  0.12036415946E+04  0.10100000352E+00 0. -1.
       -3    1    3    3    0  502 -0.61724272545E+03 -0.17426356113E+02  0.71297133974E+03  0.94319690494E+03  0.10100000352E+00 0.  1.
</event>
<event>
 5   0  0.1438701E-05  0.2698649E+04  0.7818609E-02  0.8335443E-01
        1   -1    0    0  501    0  0.00000000000E+00  0.00000000000E+00  0.10571266086E+04  0.10571266086E+04  0.50400001928E-02 0. -1.
       -1   -1    0    0    0  501  0.00000000000E+00  0.00000000000E+00 -0.17222880804E+04  0.17222880804E+04  0.50400001928E-02 0.  1.
    10030    2    1    2    0    0  0.00000000000E+00  0.00000000000E+00 -0.66516147176E+03  0.27794146890E+04  0.26986489638E+04 0.  0.
        4    1    3    3  502    0 -0.15502430666E+03 -0.89795018741E+03 -0.13575160409E+04  0.16349918926E+04  0.12699999809E+01 0.  1.
       -4    1    3    3    0  502  0.15502430666E+03  0.89795018741E+03  0.69235456910E+03  0.11444227964E+04  0.12699999809E+01 0. -1.
</event>
<event>
 5   0  0.3676724E-05  0.2576949E+04  0.7818609E-02  0.8376073E-01
       -2   -1    0    0    0  501  0.00000000000E+00  0.00000000000E+00  0.15455971636E+04  0.15455971636E+04  0.25500000920E-02 0.  1.
        2   -1    0    0  501    0  0.00000000000E+00  0.00000000000E+00 -0.10741266562E+04  0.10741266562E+04  0.25500000920E-02 0. -1.
    10030    2    1    2    0    0  0.00000000000E+00  0.00000000000E+00  0.47147050737E+03  0.26197238198E+04  0.25769494470E+04 0.  0.
        4    1    3    3  502    0  0.78295718444E+03 -0.51509930324E+03  0.11346157514E+04  0.14716330253E+04  0.12699999809E+01 0.  1.
       -4    1    3    3    0  502 -0.78295718444E+03  0.51509930324E+03 -0.66314524401E+03  0.11480907945E+04  0.12699999809E+01 0. -1.
</event>
<event>
 5   0  0.1449521E-05  0.2429631E+04  0.7818609E-02  0.8428493E-01
        1   -1    0    0  501    0  0.00000000000E+00  0.00000000000E+00  0.16982048905E+04  0.16982048905E+04  0.50400001928E-02 0. -1.
       -1   -1    0    0    0  501  0.00000000000E+00  0.00000000000E+00 -0.86902157002E+03  0.86902157003E+03  0.50400001928E-02 0.  1.
    10030    2    1    2    0    0  0.00000000000E+00  0.00000000000E+00  0.82918332046E+03  0.25672264605E+04  0.24296309845E+04 0.  0.
        3    1    3    3  502    0  0.16570679858E+03  0.28104752489E+03 -0.82186232508E+03  0.88425343988E+03  0.10100000352E+00 0.  1.
       -3    1    3    3    0  502 -0.16570679858E+03 -0.28104752489E+03  0.16510456455E+04  0.16829730206E+04  0.10100000352E+00 0. -1.
</event>
<event>
 5   0  0.3497949E-05  0.2577565E+04  0.7818609E-02  0.8375862E-01
        2   -1    0    0  501    0  0.00000000000E+00  0.00000000000E+00  0.16813288637E+04  0.16813288637E+04  0.25500000920E-02 0. -1.
       -2   -1    0    0    0  501  0.00000000000E+00  0.00000000000E+00 -0.98788583912E+03  0.98788583912E+03  0.25500000920E-02 0.  1.
    10030    2    1    2    0    0  0.00000000000E+00  0.00000000000E+00  0.69344302457E+03  0.26692147028E+04  0.25775654989E+04 0.  0.
        5    1    3    3  502    0 -0.46465551617E+03 -0.14590150484E+03  0.15823564861E+04  0.16556165428E+04  0.46999998093E+01 0. -1.
       -5    1    3    3    0  502  0.46465551617E+03  0.14590150484E+03 -0.88891346153E+03  0.10135981600E+04  0.46999998093E+01 0.  1.
</event>
<event>
 5   0  0.1449521E-05  0.2060097E+04  0.7818609E-02  0.8579027E-01
        1   -1    0    0  501    0  0.00000000000E+00  0.00000000000E+00  0.67453673972E+03  0.67453673974E+03  0.50400001928E-02 0.  1.
       -1   -1    0    0    0  501  0.00000000000E+00  0.00000000000E+00 -0.15729318602E+04  0.15729318602E+04  0.50400001928E-02 0. -1.
    10030    2    1    2    0    0  0.00000000000E+00  0.00000000000E+00 -0.89839512050E+03  0.22474686000E+04  0.20600974043E+04 0.  0.
        3    1    3    3  502    0  0.51909573659E+03 -0.67244121908E+03 -0.10847303432E+04  0.13777799187E+04  0.10100000352E+00 0. -1.
       -3    1    3    3    0  502 -0.51909573659E+03  0.67244121908E+03  0.18633522266E+03  0.86968868124E+03  0.10100000352E+00 0.  1.
</event>
<event>
 5   0  0.3652331E-05  0.2698309E+04  0.7818609E-02  0.8335554E-01
        2   -1    0    0  501    0  0.00000000000E+00  0.00000000000E+00  0.19838858973E+04  0.19838858973E+04  0.25500000920E-02 0.  1.
       -2   -1    0    0    0  501  0.00000000000E+00  0.00000000000E+00 -0.91750116664E+03  0.91750116664E+03  0.25500000920E-02 0. -1.
    10030    2    1    2    0    0  0.00000000000E+00  0.00000000000E+00  0.10663847306E+04  0.29013870639E+04  0.26983088224E+04 0.  0.
        1    1    3    3  502    0  0.40032617233E+03  0.12448003255E+04  0.89051049900E+03  0.15820233385E+04  0.50400001928E-02 0.  1.
       -1    1    3    3    0  502 -0.40032617233E+03 -0.12448003255E+04  0.17587423162E+03  0.13193637254E+04  0.50400001928E-02 0. -1.
</event>
<event>
 5   0  0.1449521E-05  0.2715852E+04  0.7818609E-02  0.8329880E-01
       -1   -1    0    0    0  501  0.00000000000E+00  0.00000000000E+00  0.71279009149E+03  0.71279009151E+03  0.50400001928E-02 0.  1.
        1   -1    0    0  501    0  0.00000000000E+00  0.00000000000E+00 -0.25869647154E+04  0.25869647154E+04  0.50400001928E-02 0. -1.
    10030    2    1    2    0    0  0.00000000000E+00  0.00000000000E+00 -0.18741746239E+04  0.32997548069E+04  0.27158518488E+04 0.  0.
        3    1    3    3  502    0 -0.91453969552E+03  0.38905946210E+03 -0.20613464446E+04  0.22884272535E+04  0.10100000352E+00 0.  1.
       -3    1    3    3    0  502  0.91453969552E+03 -0.38905946210E+03  0.18717182065E+03  0.10113275535E+04  0.10100000352E+00 0. -1.
</event>
<event>
 5   0  0.3497949E-05  0.2549607E+04  0.7818609E-02  0.8385523E-01
        2   -1    0    0  501    0  0.00000000000E+00  0.00000000000E+00  0.18665287577E+04  0.18665287577E+04  0.25500000920E-02 0.  1.
       -2   -1    0    0    0  501  0.00000000000E+00  0.00000000000E+00 -0.87066654881E+03  0.87066654881E+03  0.25500000920E-02 0. -1.
    10030    2    1    2    0    0  0.00000000000E+00  0.00000000000E+00  0.99586220890E+03  0.27371953065E+04  0.25496071476E+04 0.  0.
        5    1    3    3  502    0 -0.84805018569E+03  0.80624023441E+03 -0.45142707419E+02  0.11710134017E+04  0.46999998093E+01 0. -1.
       -5    1    3    3    0  502  0.84805018569E+03 -0.80624023441E+03  0.10410049163E+04  0.15661819048E+04  0.46999998093E+01 0.  1.
</event>
<event>
 5   0  0.3568647E-05  0.2682903E+04  0.7818609E-02  0.8340574E-01
        2   -1    0    0  501    0  0.00000000000E+00  0.00000000000E+00  0.19960278600E+04  0.19960278600E+04  0.25500000920E-02 0.  1.
       -2   -1    0    0    0  501  0.00000000000E+00  0.00000000000E+00 -0.90153690689E+03  0.90153690689E+03  0.25500000920E-02 0. -1.
    10030    2    1    2    0    0  0.00000000000E+00  0.00000000000E+00  0.10944909532E+04  0.28975647669E+04  0.26829034891E+04 0.  0.
        3    1    3    3  502    0  0.10208253908E+04 -0.86884398267E+03  0.60144467625E+03  0.14692549314E+04  0.10100000352E+00 0. -1.
       -3    1    3    3    0  502 -0.10208253908E+04  0.86884398267E+03  0.49304627690E+03  0.14283098355E+04  0.10100000352E+00 0.  1.
</event>
<event>
 5   0  0.3568647E-05  0.2729689E+04  0.7818609E-02  0.8325436E-01
       -2   -1    0    0    0  501  0.00000000000E+00  0.00000000000E+00  0.21663318209E+04  0.21663318209E+04  0.25500000920E-02 0. -1.
        2   -1    0    0  501    0  0.00000000000E+00  0.00000000000E+00 -0.85988720023E+03  0.85988720024E+03  0.25500000920E-02 0.  1.
    10030    2    1    2    0    0  0.00000000000E+00  0.00000000000E+00  0.13064446207E+04  0.30262190211E+04  0.27296893627E+04 0.  0.
        3    1    3    3  502    0 -0.84090076567E+03 -0.44997547124E+03  0.17356058770E+04  0.19803837489E+04  0.10100000352E+00 0. -1.
       -3    1    3    3    0  502  0.84090076567E+03  0.44997547124E+03 -0.42916125637E+03  0.10458352722E+04  0.10100000352E+00 0.  1.
</event>
<event>
 5   0  0.1484379E-05  0.2706723E+04  0.7818609E-02  0.8332827E-01
       -1   -1    0    0    0  501  0.00000000000E+00  0.00000000000E+00  0.12565904921E+04  0.12565904922E+04  0.50400001928E-02 0. -1.
        1   -1    0    0  501    0  0.00000000000E+00  0.00000000000E+00 -0.14575848252E+04  0.14575848252E+04  0.50400001928E-02 0.  1.
    10030    2    1    2    0    0  0.00000000000E+00  0.00000000000E+00 -0.20099433308E+03  0.27141753174E+04  0.27067229137E+04 0.  0.
        1    1    3    3  502    0 -0.70125480682E+03  0.69302647342E+03 -0.10301653343E+04  0.14259328921E+04  0.50400001928E-02 0.  1.
       -1    1    3    3    0  502  0.70125480682E+03 -0.69302647342E+03  0.82917100119E+03  0.12882424252E+04  0.50400001928E-02 0. -1.
</event>
<event>
 5   0  0.1438701E-05  0.2584719E+04  0.7818609E-02  0.8373410E-01
       -1   -1    0    0    0  501  0.00000000000E+00  0.00000000000E+00  0.14371556560E+04  0.14371556560E+04  0.50400001928E-02 0. -1.
        1   -1    0    0  501    0  0.00000000000E+00  0.00000000000E+00 -0.11621522010E+04  0.11621522010E+04  0.50400001928E-02 0.  1.
    10030    2    1    2    0    0  0.00000000000E+00  0.00000000000E+00  0.27500345498E+03  0.25993078571E+04  0.25847194114E+04 0.  0.
        4    1    3    3  502    0 -0.85889248319E+03 -0.49215241675E+03 -0.69801951159E+03  0.12112568474E+04  0.12699999809E+01 0.  1.
       -4    1    3    3    0  502  0.85889248319E+03  0.49215241675E+03  0.97302296657E+03  0.13880510096E+04  0.12699999809E+01 0. -1.
</event>
<event>
 5   0  0.1484379E-05  0.2790280E+04  0.7818609E-02  0.8306292E-01
        1   -1    0    0  501    0  0.00000000000E+00  0.00000000000E+00  0.20846721316E+04  0.20846721316E+04  0.50400001928E-02 0. -1.
       -1   -1    0    0    0  501  0.00000000000E+00  0.00000000000E+00 -0.93367962560E+03  0.93367962561E+03  0.50400001928E-02 0.  1.
    10030    2    1    2    0    0  0.00000000000E+00  0.00000000000E+00  0.11509925060E+04  0.30183517572E+04  0.27902801976E+04 0.  0.
        1    1    3    3  502    0  0.57417731983E+03  0.49986421007E+03 -0.68919923446E+03  0.10269076920E+04  0.50400001928E-02 0.  1.
       -1    1    3    3    0  502 -0.57417731983E+03 -0.49986421007E+03  0.18401917404E+04  0.19914440652E+04  0.50400001928E-02 0. -1.
</event>
<event>
 5   0  0.1228050E-05  0.2777055E+04  0.7818609E-02  0.8310427E-01
       -3   -1    0    0    0  501  0.00000000000E+00  0.00000000000E+00  0.91533998004E+03  0.91533998561E+03  0.10100000352E+00 0. -1.
        3   -1    0    0  501    0  0.00000000000E+00  0.00000000000E+00 -0.21063306921E+04  0.21063306945E+04  0.10100000352E+00 0.  1.
    10030    2    1    2    0    0  0.00000000000E+00  0.00000000000E+00 -0.11909907121E+04  0.30216706801E+04  0.27770550630E+04 0.  0.
        2    1    3    3  502    0  0.34116214762E+03 -0.63352613052E+03 -0.18876440739E+04  0.20201354209E+04  0.25500000920E-02 0.  1.
       -2    1    3    3    0  502 -0.34116214762E+03  0.63352613052E+03  0.69665336182E+03  0.10015352593E+04  0.25500000920E-02 0. -1.
</event>
<event>
 5   0  0.1449521E-05  0.2840628E+04  0.7818609E-02  0.8290765E-01
        1   -1    0    0  501    0  0.00000000000E+00  0.00000000000E+00  0.13517471322E+04  0.13517471322E+04  0.50400001928E-02 0. -1.
       -1   -1    0    0    0  501  0.00000000000E+00  0.00000000000E+00 -0.14923592944E+04  0.14923592944E+04  0.50400001928E-02 0.  1.
    10030    2    1    2    0    0  0.00000000000E+00  0.00000000000E+00 -0.14061216215E+03  0.28441064266E+04  0.28406283787E+04 0.  0.
        3    1    3    3  502    0 -0.12031011885E+04 -0.65074138807E+03  0.31275295403E+03  0.14031148365E+04  0.10100000352E+00 0.  1.
       -3    1    3    3    0  502  0.12031011885E+04  0.65074138807E+03 -0.45336511618E+03  0.14409915901E+04  0.10100000352E+00 0. -1.
</event>
<event>
 5   0  0.1438701E-05  0.2639184E+04  0.7818609E-02  0.8355012E-01
       -1   -1    0    0    0  501  0.00000000000E+00  0.00000000000E+00  0.10790183209E+04  0.10790183209E+04  0.50400001928E-02 0.  1.
        1   -1    0    0  501    0  0.00000000000E+00  0.00000000000E+00 -0.16138026665E+04  0.16138026665E+04  0.50400001928E-02 0. -1.
    10030    2    1    2    0    0  0.00000000000E+00  0.00000000000E+00 -0.53478434560E+03  0.26928209873E+04  0.26391836945E+04 0.  0.
        4    1    3    3  502    0  0.17095246638E+03  0.13078721032E+04 -0.30778005334E+03  0.13544313782E+04  0.12699999809E+01 0.  1.
       -4    1    3    3    0  502 -0.17095246638E+03 -0.13078721032E+04 -0.22700429226E+03  0.13383896091E+04  0.12699999809E+01 0. -1.
</event>
<event>
 5   0  0.1474012E-05  0.2675616E+04  0.7818609E-02  0.8342960E-01
       -1   -1    0    0    0  501  0.00000000000E+00  0.00000000000E+00  0.15100204054E+04  0.15100204054E+04  0.50400001928E-02 0.  1.
        1   -1    0    0  501    0  0.00000000000E+00  0.00000000000E+00 -0.11852355436E+04  0.11852355436E+04  0.50400001928E-02 0. -1.
    10030    2    1    2    0    0  0.00000000000E+00  0.00000000000E+00  0.32478486180E+03  0.26952559490E+04  0.26756157094E+04 0.  0.
        2    1    3    3  502    0 -0.29956437407E+03  0.60570289003E+02 -0.11495973717E+04  0.11895300295E+04  0.25500000920E-02 0. -1.
       -2    1    3    3    0  502  0.29956437407E+03 -0.60570289003E+02  0.14743822335E+04  0.15057259195E+04  0.25500000920E-02 0.  1.
</event>
<event>
 5   0  0.3514294E-05  0.2736483E+04  0.7818609E-02  0.8323264E-01
       -2   -1    0    0    0  501  0.00000000000E+00  0.00000000000E+00  0.75361579773E+03  0.75361579774E+03  0.25500000920E-02 0.  1.
        2   -1    0    0  501    0  0.00000000000E+00  0.00000000000E+00 -0.24841366542E+04  0.24841366542E+04  0.25500000920E-02 0. -1.
    10030    2    1    2    0    0  0.00000000000E+00  0.00000000000E+00 -0.17305208565E+04  0.32377524520E+04  0.27364828714E+04 0.  0.
        2    1    3    3  502    0  0.52739159568E+03 -0.10872226246E+04 -0.16246093323E+04  0.20247346526E+04  0.25500000920E-02 0. -1.
       -2    1    3    3    0  502 -0.52739159568E+03  0.10872226246E+04 -0.10591152418E+03  0.12130177994E+04  0.25500000920E-02 0.  1.
</event>
<event>
 5   0  0.1495517E-05  0.2639179E+04  0.7818609E-02  0.8355013E-01
       -1   -1    0    0    0  501  0.00000000000E+00  0.00000000000E+00  0.15560905043E+04  0.15560905043E+04  0.50400001928E-02 0. -1.
        1   -1    0    0  501    0  0.00000000000E+00  0.00000000000E+00 -0.11190332467E+04  0.11190332467E+04  0.50400001928E-02 0.  1.
    10030    2    1    2    0    0  0.00000000000E+00  0.00000000000E+00  0.43705725755E+03  0.26751237510E+04  0.26391794249E+04 0.  0.
        5    1    3    3  502    0  0.50951416791E+03 -0.14159486076E+02  0.14522704444E+04  0.15391285560E+04  0.46999998093E+01 0. -1.
       -5    1    3    3    0  502 -0.50951416791E+03  0.14159486076E+02 -0.10152131868E+04  0.11359951950E+04  0.46999998093E+01 0.  1.
</event>
<event>
 5   0  0.1449521E-05  0.2587145E+04  0.7818609E-02  0.8372581E-01
       -1   -1    0    0    0  501  0.00000000000E+00  0.00000000000E+00  0.11715306240E+04  0.11715306240E+04  0.50400001928E-02 0. -1.
        1   -1    0    0  501    0  0.00000000000E+00  0.00000000000E+00 -0.14283275515E+04  0.14283275515E+04  0.50400001928E-02 0.  1.
    10030    2    1    2    0    0  0.00000000000E+00  0.00000000000E+00 -0.25679692752E+03  0.25998581755E+04  0.25871447333E+04 0.  0.
        3    1    3    3  502    0  0.12025751093E+04 -0.40161459230E+03  0.12947173829E+03  0.12744583616E+04  0.10100000352E+00 0. -1.
       -3    1    3    3    0  502 -0.12025751093E+04  0.40161459230E+03 -0.38626866581E+03  0.13253998139E+04  0.10100000352E+00 0.  1.
</event>
<event>
 5   0  0.3514294E-05  0.2337540E+04  0.7818609E-02  0.8463265E-01
       -2   -1    0    0    0  501  0.00000000000E+00  0.00000000000E+00  0.94273581712E+03  0.94273581712E+03  0.25500000920E-02 0.  1.
        2   -1    0    0  501    0  0.00000000000E+00  0.00000000000E+00 -0.14489985176E+04  0.14489985176E+04  0.25500000920E-02 0. -1.
    10030    2    1    2    0    0  0.00000000000E+00  0.00000000000E+00 -0.50626270044E+03  0.23917343347E+04  0.23375395624E+04 0.  0.
        2    1    3    3  502    0 -0.71166478861E+02  0.65581669316E+03  0.73404958310E+03  0.98690880693E+03  0.25500000920E-02 0.  1.
       -2    1    3    3    0  502  0.71166478861E+02 -0.65581669316E+03 -0.12403122835E+04  0.14048255278E+04  0.25500000920E-02 0. -1.
</event>
<event>
 5   0  0.1474012E-05  0.2426187E+04  0.7818609E-02  0.8429764E-01
        1   -1    0    0  501    0  0.00000000000E+00  0.00000000000E+00  0.10054254488E+04  0.10054254488E+04  0.50400001928E-02 0. -1.
       -1   -1    0    0    0  501  0.00000000000E+00  0.00000000000E+00 -0.14636543393E+04  0.14636543393E+04  0.50400001928E-02 0.  1.
    10030    2    1    2    0    0  0.00000000000E+00  0.00000000000E+00 -0.45822889051E+03  0.24690797881E+04  0.24261865723E+04 0.  0.
        2    1    3    3  502    0  0.44172858829E+03  0.69120651234E+03  0.68038839241E+03  0.10657480720E+04  0.25500000920E-02 0. -1.
       -2    1    3    3    0  502 -0.44172858829E+03 -0.69120651234E+03 -0.11386172829E+04  0.14033317161E+04  0.25500000920E-02 0.  1.
</event>
<event>
 5   0  0.1495517E-05  0.2780873E+04  0.7818609E-02  0.8309231E-01
       -1   -1    0    0    0  501  0.00000000000E+00  0.00000000000E+00  0.97350459687E+03  0.97350459688E+03  0.50400001928E-02 0. -1.
        1   -1    0    0  501    0  0.00000000000E+00  0.00000000000E+00 -0.19859316581E+04  0.19859316581E+04  0.50400001928E-02 0.  1.
    10030    2    1    2    0    0  0.00000000000E+00  0.00000000000E+00 -0.10124270612E+04  0.29594362549E+04  0.27808729552E+04 0.  0.
        5    1    3    3  502    0 -0.13335724042E+04  0.19683022452E+03 -0.86888012949E+03  0.16037868511E+04  0.46999998093E+01 0.  1.
       -5    1    3    3    0  502  0.13335724042E+04 -0.19683022452E+03 -0.14354693170E+03  0.13556494038E+04  0.46999998093E+01 0. -1.
</event>
<event>
 5   0  0.3652331E-05  0.1781343E+04  0.7818609E-02  0.8716285E-01
       -2   -1    0    0    0  501  0.00000000000E+00  0.00000000000E+00  0.13988239968E+04  0.13988239968E+04  0.25500000920E-02 0.  1.
        2   -1    0    0  501    0  0.00000000000E+00  0.00000000000E+00 -0.56711589705E+03  0.56711589705E+03  0.25500000920E-02 0. -1.
    10030    2    1    2    0    0  0.00000000000E+00  0.00000000000E+00  0.83170809977E+03  0.19659398939E+04  0.17813425564E+04 0.  0.
        1    1    3    3  502    0 -0.36006246460E+03  0.24923167254E+03 -0.44010473501E+03  0.62084908216E+03  0.50400001928E-02 0. -1.
       -1    1    3    3    0  502  0.36006246460E+03 -0.24923167254E+03  0.12718128348E+04  0.13450908117E+04  0.50400001928E-02 0.  1.
</event>
<event>
 5   0  0.3514294E-05  0.2207424E+04  0.7818609E-02  0.8515344E-01
       -2   -1    0    0    0  501  0.00000000000E+00  0.00000000000E+00  0.47569299560E+03  0.47569299560E+03  0.25500000920E-02 0. -1.
        2   -1    0    0  501    0  0.00000000000E+00  0.00000000000E+00 -0.25608545504E+04  0.25608545504E+04  0.25500000920E-02 0.  1.
    10030    2    1    2    0    0  0.00000000000E+00  0.00000000000E+00 -0.20851615548E+04  0.30365475460E+04  0.22074243564E+04 0.  0.
        2    1    3    3  502    0  0.35049855022E+03 -0.10296764938E+04 -0.78486956324E+03  0.13413065074E+04  0.25500000920E-02 0.  1.
       -2    1    3    3    0  502 -0.35049855022E+03  0.10296764938E+04 -0.13002919915E+04  0.16952410385E+04  0.25500000920E-02 0. -1.
</event>
<event>
 5   0  0.3676724E-05  0.2759859E+04  0.7818609E-02  0.8315840E-01
       -2   -1    0    0    0  501  0.00000000000E+00  0.00000000000E+00  0.89784374856E+03  0.89784374857E+03  0.25500000920E-02 0.  1.
        2   -1    0    0  501    0  0.00000000000E+00  0.00000000000E+00 -0.21208643840E+04  0.21208643840E+04  0.25500000920E-02 0. -1.
    10030    2    1    2    0    0  0.00000000000E+00  0.00000000000E+00 -0.12230206355E+04  0.30187081326E+04  0.27598585680E+04 0.  0.
        4    1    3    3  502    0  0.53129319872E+03 -0.30818326933E+03  0.74008677893E+03  0.96175851634E+03  0.12699999809E+01 0.  1.
       -4    1    3    3    0  502 -0.53129319872E+03  0.30818326933E+03 -0.19631074144E+04  0.20569496163E+04  0.12699999809E+01 0. -1.
</event>
<event>
 5   0  0.3497949E-05  0.2676959E+04  0.7818609E-02  0.8342520E-01
       -2   -1    0    0    0  501  0.00000000000E+00  0.00000000000E+00  0.75517183069E+03  0.75517183069E+03  0.25500000920E-02 0.  1.
        2   -1    0    0  501    0  0.00000000000E+00  0.00000000000E+00 -0.23723448265E+04  0.23723448265E+04  0.25500000920E-02 0. -1.
    10030    2    1    2    0    0  0.00000000000E+00  0.00000000000E+00 -0.16171729958E+04  0.31275166572E+04  0.26769594585E+04 0.  0.
        5    1    3    3  502    0 -0.74146523717E+03  0.10546129637E+04 -0.38811411233E+03  0.13463409134E+04  0.46999998093E+01 0.  1.
       -5    1    3    3    0  502  0.74146523717E+03 -0.10546129637E+04 -0.12290588835E+04  0.17811757437E+04  0.46999998093E+01 0. -1.
</event>
<event>
 5   0  0.3676724E-05  0.2820461E+04  0.7818609E-02  0.8296944E-01
       -2   -1    0    0    0  501  0.00000000000E+00  0.00000000000E+00  0.16098194566E+04  0.16098194566E+04  0.25500000920E-02 0. -1.
        2   -1    0    0  501    0  0.00000000000E+00  0.00000000000E+00 -0.12353871845E+04  0.12353871845E+04  0.25500000920E-02 0.  1.
    10030    2    1    2    0    0  0.00000000000E+00  0.00000000000E+00  0.37443227209E+03  0.28452066411E+04  0.28204611864E+04 0.  0.
        4    1    3    3  502    0  0.45203168184E+03  0.10365839839E+04  0.10371697918E+04  0.15344581412E+04  0.12699999809E+01 0. -1.
       -4    1    3    3    0  502 -0.45203168184E+03 -0.10365839839E+04 -0.66273751973E+03  0.13107484999E+04  0.12699999809E+01 0.  1.
</event>
<event>
 5   0  0.3652331E-05  0.2700764E+04  0.7818609E-02  0.8334757E-01
        2   -1    0    0  501    0  0.00000000000E+00  0.00000000000E+00  0.20941559935E+04  0.20941559935E+04  0.25500000920E-02 0. -1.
       -2   -1    0    0    0  501  0.00000000000E+00  0.00000000000E+00 -0.87077166995E+03  0.87077166995E+03  0.25500000920E-02 0.  1.
    10030    2    1    2    0    0  0.00000000000E+00  0.00000000000E+00  0.12233843236E+04  0.29649276635E+04  0.27007641227E+04 0.  0.
        1    1    3    3  502    0 -0.44071578671E+02  0.18021240597E+03  0.20800987336E+04  0.20883557065E+04  0.50400001928E-02 0. -1.
       -1    1    3    3    0  502  0.44071578671E+02 -0.18021240597E+03 -0.85671441005E+03  0.87657195696E+03  0.50400001928E-02 0.  1.
</event>
<event>
 5   0  0.1474012E-05  0.2659816E+04  0.7818609E-02  0.8348162E-01
       -1   -1    0    0    0  501  0.00000000000E+00  0.00000000000E+00  0.11349965540E+04  0.11349965540E+04  0.50400001928E-02 0. -1.
        1   -1    0    0  501    0  0.00000000000E+00  0.00000000000E+00 -0.15582908994E+04  0.15582908994E+04  0.50400001928E-02 0.  1.
    10030    2    1    2    0    0  0.00000000000E+00  0.00000000000E+00 -0.42329434534E+03  0.26932874534E+04  0.26598156334E+04 0.  0.
        2    1    3    3  502    0  0.41295213084E+03 -0.92082731150E+01  0.10683973358E+04  0.11454637147E+04  0.25500000920E-02 0. -1.
       -2    1    3    3    0  502 -0.41295213084E+03  0.92082731150E+01 -0.14916916811E+04  0.15478237387E+04  0.25500000920E-02 0.  1.
</event>
<event>
 5   0  0.3514294E-05  0.2785668E+04  0.7818609E-02  0.8307732E-01
        2   -1    0    0  501    0  0.00000000000E+00  0.00000000000E+00  0.16090778209E+04  0.16090778209E+04  0.25500000920E-02 0. -1.
       -2   -1    0    0    0  501  0.00000000000E+00  0.00000000000E+00 -0.12056510533E+04  0.12056510533E+04  0.25500000920E-02 0.  1.
    10030    2    1    2    0    0  0.00000000000E+00  0.00000000000E+00  0.40342676759E+03  0.28147288742E+04  0.27856678694E+04 0.  0.
        2    1    3    3  502    0  0.60564998643E+03  0.31896335200E+02  0.14686509165E+04  0.15889508479E+04  0.25500000920E-02 0. -1.
       -2    1    3    3    0  502 -0.60564998643E+03 -0.31896335200E+02 -0.10652241490E+04  0.12257780263E+04  0.25500000920E-02 0.  1.
</event>
<event>
 5   0  0.3568647E-05  0.2664066E+04  0.7818609E-02  0.8346759E-01
       -2   -1    0    0    0  501  0.00000000000E+00  0.00000000000E+00  0.10033129270E+04  0.10033129270E+04  0.25500000920E-02 0.  1.
        2   -1    0    0  501    0  0.00000000000E+00  0.00000000000E+00 -0.17684530873E+04  0.17684530873E+04  0.25500000920E-02 0. -1.
    10030    2    1    2    0    0  0.00000000000E+00  0.00000000000E+00 -0.76514016027E+03  0.27717660143E+04  0.26640659476E+04 0.  0.
        3    1    3    3  502    0  0.58272707183E+02  0.25040147710E+03 -0.17423946634E+04  0.17612597143E+04  0.10100000352E+00 0. -1.
       -3    1    3    3    0  502 -0.58272707183E+02 -0.25040147710E+03  0.97725450313E+03  0.10105062999E+04  0.10100000352E+00 0.  1.
</event>
<event>
 5   0  0.3497949E-05  0.2650843E+04  0.7818609E-02  0.8351133E-01
        2   -1    0    0  501    0  0.00000000000E+00  0.00000000000E+00  0.20431872723E+04  0.20431872723E+04  0.25500000920E-02 0.  1.
       -2   -1    0    0    0  501  0.00000000000E+00  0.00000000000E+00 -0.85980454677E+03  0.85980454678E+03  0.25500000920E-02 0. -1.
    10030    2    1    2    0    0  0.00000000000E+00  0.00000000000E+00  0.11833827255E+04  0.29029918191E+04  0.26508426635E+04 0.  0.
        5    1    3    3  502    0 -0.28950411046E+03  0.21705335305E+03 -0.80466005142E+03  0.88228378450E+03  0.46999998093E+01 0. -1.
       -5    1    3    3    0  502  0.28950411046E+03 -0.21705335305E+03  0.19880427770E+04  0.20207080346E+04  0.46999998093E+01 0.  1.
</event>
<event>
 5   0  0.3652331E-05  0.2709366E+04  0.7818609E-02  0.8331972E-01
       -2   -1    0    0    0  501  0.00000000000E+00  0.00000000000E+00  0.94882870587E+03  0.94882870588E+03  0.25500000920E-02 0.  1.
        2   -1    0    0  501    0  0.00000000000E+00  0.00000000000E+00 -0.19341382452E+04  0.19341382452E+04  0.25500000920E-02 0. -1.
    10030    2    1    2    0    0  0.00000000000E+00  0.00000000000E+00 -0.98530953937E+03  0.28829669511E+04  0.27093658950E+04 0.  0.
        1    1    3    3  502    0  0.12328335718E+04  0.32519858668E+03 -0.55769236883E+01  0.12750152308E+04  0.50400001928E-02 0.  1.
       -1    1    3    3    0  502 -0.12328335718E+04 -0.32519858668E+03 -0.97973261568E+03  0.16079517203E+04  0.50400001928E-02 0. -1.
</event>
<event>
 5   0  0.1484379E-05  0.2722080E+04  0.7818609E-02  0.8327876E-01
       -1   -1    0    0    0  501  0.00000000000E+00  0.00000000000E+00  0.13739952701E+04  0.13739952701E+04  0.50400001928E-02 0. -1.
        1   -1    0    0  501    0  0.00000000000E+00  0.00000000000E+00 -0.13482065325E+04  0.13482065325E+04  0.50400001928E-02 0.  1.
    10030    2    1    2    0    0  0.00000000000E+00  0.00000000000E+00  0.25788737587E+02  0.27222018027E+04  0.27220796453E+04 0.  0.
        1    1    3    3  502    0  0.40448588674E+02 -0.19300957004E+03 -0.13338436869E+04  0.13483425987E+04  0.50400001928E-02 0.  1.
       -1    1    3    3    0  502 -0.40448588674E+02  0.19300957004E+03  0.13596324245E+04  0.13738592039E+04  0.50400001928E-02 0. -1.
</event>
<event>
 5   0  0.3514294E-05  0.2726219E+04  0.7818609E-02  0.8326548E-01
        2   -1    0    0  501    0  0.00000000000E+00  0.00000000000E+00  0.12947304046E+04  0.12947304046E+04  0.25500000920E-02 0. -1.
       -2   -1    0    0    0  501  0.00000000000E+00  0.00000000000E+00 -0.14350996581E+04  0.14350996581E+04  0.25500000920E-02 0.  1.
    10030    2    1    2    0    0  0.00000000000E+00  0.00000000000E+00 -0.14036925346E+03  0.27298300626E+04  0.27262187446E+04 0.  0.
        2    1    3    3  502    0  0.27955230335E+03  0.65806415982E+03 -0.12322689129E+04  0.14246699977E+04  0.25500000920E-02 0.  1.
       -2    1    3    3    0  502 -0.27955230335E+03 -0.65806415982E+03  0.10918996594E+04  0.13051600649E+04  0.25500000920E-02 0. -1.
</event>
<event>
 5   0  0.1449521E-05  0.2433617E+04  0.7818609E-02  0.8427024E-01
        1   -1    0    0  501    0  0.00000000000E+00  0.00000000000E+00  0.24530974073E+04  0.24530974073E+04  0.50400001928E-02 0.  1.
       -1   -1    0    0    0  501  0.00000000000E+00  0.00000000000E+00 -0.60357294611E+03  0.60357294614E+03  0.50400001928E-02 0. -1.
    10030    2    1    2    0    0  0.00000000000E+00  0.00000000000E+00  0.18495244612E+04  0.30566703535E+04  0.24336172495E+04 0.  0.
        3    1    3    3  502    0 -0.42014612110E+02  0.14857308713E+03 -0.59121931857E+03  0.61104785631E+03  0.10100000352E+00 0. -1.
       -3    1    3    3    0  502  0.42014612110E+02 -0.14857308713E+03  0.24407437798E+04  0.24456224972E+04  0.10100000352E+00 0.  1.
</event>
<event>
 5   0  0.3497949E-05  0.2819589E+04  0.7818609E-02  0.8297212E-01
       -2   -1    0    0    0  501  0.00000000000E+00  0.00000000000E+00  0.83858802000E+03  0.83858802001E+03  0.25500000920E-02 0. -1.
        2   -1    0    0  501    0  0.00000000000E+00  0.00000000000E+00 -0.23700805309E+04  0.23700805309E+04  0.25500000920E-02 0.  1.
    10030    2    1    2    0    0  0.00000000000E+00  0.00000000000E+00 -0.15314925109E+04  0.32086685509E+04  0.28195894309E+04 0.  0.
        5    1    3    3  502    0  0.78216772552E+03 -0.79078551077E+01  0.56898240445E+03  0.96727036116E+03  0.46999998093E+01 0. -1.
       -5    1    3    3    0  502 -0.78216772552E+03  0.79078551077E+01 -0.21004749154E+04  0.22413981898E+04  0.46999998093E+01 0.  1.
</event>
<event>
 5   0  0.1438701E-05  0.2862090E+04  0.7818609E-02  0.8284247E-01
        1   -1    0    0  501    0  0.00000000000E+00  0.00000000000E+00  0.12157214675E+04  0.12157214675E+04  0.50400001928E-02 0.  1.
       -1   -1    0    0    0  501  0.00000000000E+00  0.00000000000E+00 -0.16845059907E+04  0.16845059907E+04  0.50400001928E-02 0. -1.
    10030    2    1    2    0    0  0.00000000000E+00  0.00000000000E+00 -0.46878452321E+03  0.29002274583E+04  0.28620902118E+04 0.  0.
        4    1    3    3  502    0  0.14287130409E+04 -0.78393490967E+02 -0.21124073554E+03  0.14463715823E+04  0.12699999809E+01 0. -1.
       -4    1    3    3    0  502 -0.14287130409E+04  0.78393490967E+02 -0.25754378767E+03  0.14538558760E+04  0.12699999809E+01 0.  1.
</event>
<event>
 5   0  0.3676724E-05  0.2727152E+04  0.7818609E-02  0.8326248E-01
       -2   -1    0    0    0  501  0.00000000000E+00  0.00000000000E+00  0.14057393059E+04  0.14057393059E+04  0.25500000920E-02 0. -1.
        2   -1    0    0  501    0  0.00000000000E+00  0.00000000000E+00 -0.13226774000E+04  0.13226774000E+04  0.25500000920E-02 0.  1.
    10030    2    1    2    0    0  0.00000000000E+00  0.00000000000E+00  0.83061905893E+02  0.27284167060E+04  0.27271520752E+04 0.  0.
        4    1    3    3  502    0  0.85864520549E+03 -0.93127844066E+03  0.54652919848E+03  0.13795821471E+04  0.12699999809E+01 0. -1.
       -4    1    3    3    0  502 -0.85864520549E+03  0.93127844066E+03 -0.46346729259E+03  0.13488345588E+04  0.12699999809E+01 0.  1.
</event>
<event>
 5   0  0.1484379E-05  0.2453053E+04  0.7818609E-02  0.8419904E-01
       -1   -1    0    0    0  501  0.00000000000E+00  0.00000000000E+00  0.86024800013E+03  0.86024800014E+03  0.50400001928E-02 0. -1.
        1   -1    0    0  501    0  0.00000000000E+00  0.00000000000E+00 -0.17487596499E+04  0.17487596499E+04  0.50400001928E-02 0.  1.
    10030    2    1    2    0    0  0.00000000000E+00  0.00000000000E+00 -0.88851164979E+03  0.26090076501E+04  0.24530527851E+04 0.  0.
        1    1    3    3  502    0  0.27638496165E+02  0.66152363002E+03  0.65385188615E+03  0.93053731176E+03  0.50400001928E-02 0. -1.
       -1    1    3    3    0  502 -0.27638496165E+02 -0.66152363002E+03 -0.15423635359E+04  0.16784703383E+04  0.50400001928E-02 0.  1.
</event>
<event>
 5   0  0.3652331E-05  0.2612427E+04  0.7818609E-02  0.8363992E-01
        2   -1    0    0  501    0  0.00000000000E+00  0.00000000000E+00  0.13669923975E+04  0.13669923975E+04  0.25500000920E-02 0.  1.
       -2   -1    0    0    0  501  0.00000000000E+00  0.00000000000E+00 -0.12481367074E+04  0.12481367074E+04  0.25500000920E-02 0. -1.
    10030    2    1    2    0    0  0.00000000000E+00  0.00000000000E+00  0.11885569011E+03  0.26151291050E+04  0.26124267570E+04 0.  0.
        1    1    3    3  502    0  0.60712532826E+03  0.10273229544E+04 -0.47234645088E+03  0.12833958027E+04  0.50400001928E-02 0. -1.
       -1    1    3    3    0  502 -0.60712532826E+03 -0.10273229544E+04  0.59120214099E+03  0.13317333022E+04  0.50400001928E-02 0.  1.
</event>
<event>
 5   0  0.1438701E-05  0.2585273E+04  0.7818609E-02  0.8373221E-01
        1   -1    0    0  501    0  0.00000000000E+00  0.00000000000E+00  0.16737230869E+04  0.16737230869E+04  0.50400001928E-02 0.  1.
       -1   -1    0    0    0  501  0.00000000000E+00  0.00000000000E+00 -0.99831878090E+03  0.99831878091E+03  0.50400001928E-02 0. -1.
    10030    2    1    2    0    0  0.00000000000E+00  0.00000000000E+00  0.67540430596E+03  0.26720418678E+04  0.25852730546E+04 0.  0.
        4    1    3    3  502    0  0.33223304866E+03 -0.89573850556E+03  0.12376625035E+04  0.15635013126E+04  0.12699999809E+01 0.  1.
       -4    1    3    3    0  502 -0.33223304866E+03  0.89573850556E+03 -0.56225819753E+03  0.11085405552E+04  0.12699999809E+01 0. -1.
</event>
<event>
 5   0  0.3568647E-05  0.2667612E+04  0.7818609E-02  0.8345591E-01
       -2   -1    0    0    0  501  0.00000000000E+00  0.00000000000E+00  0.11752621100E+04  0.11752621100E+04  0.25500000920E-02 0. -1.
        2   -1    0    0  501    0  0.00000000000E+00  0.00000000000E+00 -0.15137373353E+04  0.15137373353E+04  0.25500000920E-02 0.  1.
    10030    2    1    2    0    0  0.00000000000E+00  0.00000000000E+00 -0.33847522525E+03  0.26889994453E+04  0.26676117668E+04 0.  0.
        3    1    3    3  502    0  0.77159140142E+03  0.15912981883E+03 -0.12541391870E+04  0.14810606674E+04  0.10100000352E+00 0.  1.
       -3    1    3    3    0  502 -0.77159140142E+03 -0.15912981883E+03  0.91566396175E+03  0.12079387779E+04  0.10100000352E+00 0. -1.
</event>
<event>
 5   0  0.1449521E-05  0.3140652E+04  0.7818609E-02  0.8204669E-01
        1   -1    0    0  501    0  0.00000000000E+00  0.00000000000E+00  0.24852157775E+04  0.24852157775E+04  0.50400001928E-02 0. -1.
       -1   -1    0    0    0  501  0.00000000000E+00  0.00000000000E+00 -0.99223743347E+03  0.99223743348E+03  0.50400001928E-02 0.  1.
    10030    2    1    2    0    0  0.00000000000E+00  0.00000000000E+00  0.14929783441E+04  0.34774532110E+04  0.31406522410E+04 0.  0.
        3    1    3    3  502    0  0.99797601772E+02 -0.91056306480E+02  0.24787694874E+04  0.24824481855E+04  0.10100000352E+00 0. -1.
       -3    1    3    3    0  502 -0.99797601772E+02  0.91056306480E+02 -0.98579114330E+03  0.99500502546E+03  0.10100000352E+00 0.  1.
</event>
<event>
 5   0  0.3652331E-05  0.2693266E+04  0.7818609E-02  0.8337193E-01
        2   -1    0    0  501    0  0.00000000000E+00  0.00000000000E+00  0.13286582061E+04  0.13286582061E+04  0.25500000920E-02 0. -1.
       -2   -1    0    0    0  501  0.00000000000E+00  0.00000000000E+00 -0.13648505733E+04  0.13648505733E+04  0.25500000920E-02 0.  1.
    10030    2    1    2    0    0  0.00000000000E+00  0.00000000000E+00 -0.36192367123E+02  0.26935087794E+04  0.26932656121E+04 0.  0.
        1    1    3    3  502    0 -0.31070842548E+03 -0.12442331579E+04  0.39274991064E+03  0.13412338981E+04  0.50400001928E-02 0. -1.
       -1    1    3    3    0  502  0.31070842548E+03  0.12442331579E+04 -0.42894227777E+03  0.13522748813E+04  0.50400001928E-02 0.  1.
</event>
<event>
 5   0  0.1438701E-05  0.1340499E+04  0.7818609E-02  0.8998051E-01
        1   -1    0    0  501    0  0.00000000000E+00  0.00000000000E+00  0.92254010442E+03  0.92254010444E+03  0.50400001928E-02 0. -1.
       -1   -1    0    0    0  501  0.00000000000E+00  0.00000000000E+00 -0.48695412489E+03  0.48695412492E+03  0.50400001928E-02 0.  1.
    10030    2    1    2    0    0  0.00000000000E+00  0.00000000000E+00  0.43558597953E+03  0.14094942294E+04  0.13404994730E+04 0.  0.
        4    1    3    3  502    0 -0.48873207232E+03  0.44117021058E+03  0.85864355598E+02  0.66397627493E+03  0.12699999809E+01 0. -1.
       -4    1    3    3    0  502  0.48873207232E+03 -0.44117021058E+03  0.34972162393E+03  0.74551795442E+03  0.12699999809E+01 0.  1.
</event>
<event>
 5   0  0.3568647E-05  0.2740954E+04  0.7818609E-02  0.8321838E-01
        2   -1    0    0  501    0  0.00000000000E+00  0.00000000000E+00  0.18890028632E+04  0.18890028632E+04  0.25500000920E-02 0.  1.
       -2   -1    0    0    0  501  0.00000000000E+00  0.00000000000E+00 -0.99428495468E+03  0.99428495469E+03  0.25500000920E-02 0. -1.
    10030    2    1    2    0    0  0.00000000000E+00  0.00000000000E+00  0.89471790855E+03  0.28832878179E+04  0.27409539407E+04 0.  0.
        3    1    3    3  502    0  0.12789291056E+04 -0.38599402243E+03  0.76911169349E+03  0.15414875444E+04  0.10100000352E+00 0.  1.
       -3    1    3    3    0  502 -0.12789291056E+04  0.38599402243E+03  0.12560621505E+03  0.13418002735E+04  0.10100000352E+00 0. -1.
</event>
<event>
 5   0  0.1438701E-05  0.2687441E+04  0.7818609E-02  0.8339091E-01
        1   -1    0    0  501    0  0.00000000000E+00  0.00000000000E+00  0.23519434074E+04  0.23519434074E+04  0.50400001928E-02 0. -1.
       -1   -1    0    0    0  501  0.00000000000E+00  0.00000000000E+00 -0.76769922706E+03  0.76769922707E+03  0.50400001928E-02 0.  1.
    10030    2    1    2    0    0  0.00000000000E+00  0.00000000000E+00  0.15842441804E+04  0.31196426345E+04  0.26874412633E+04 0.  0.
        4    1    3    3  502    0 -0.61692590348E+03  0.10100543427E+04  0.15306609274E+04  0.19348725625E+04  0.12699999809E+01 0. -1.
       -4    1    3    3    0  502  0.61692590348E+03 -0.10100543427E+04  0.53583252954E+02  0.11847700720E+04  0.12699999809E+01 0.  1.
</event>
<event>
 5   0  0.1228050E-05  0.2724332E+04  0.7818609E-02  0.8327153E-01
        3   -1    0    0  501    0  0.00000000000E+00  0.00000000000E+00  0.18054865305E+04  0.18054865333E+04  0.10100000352E+00 0.  1.
       -3   -1    0    0    0  501  0.00000000000E+00  0.00000000000E+00 -0.10276985473E+04  0.10276985523E+04  0.10100000352E+00 0. -1.
    10030    2    1    2    0    0  0.00000000000E+00  0.00000000000E+00  0.77778798316E+03  0.28331850855E+04  0.27243317680E+04 0.  0.
        2    1    3    3  502    0  0.70436702592E+03  0.86676706262E+03 -0.42205687710E+03  0.11939640093E+04  0.25500000920E-02 0. -1.
       -2    1    3    3    0  502 -0.70436702592E+03 -0.86676706262E+03  0.11998448603E+04  0.16392210762E+04  0.25500000920E-02 0.  1.
</event>
<event>
 5   0  0.1438701E-05  0.1974651E+04  0.7818609E-02  0.8618565E-01
       -1   -1    0    0    0  501  0.00000000000E+00  0.00000000000E+00  0.59822595921E+03  0.59822595923E+03  0.50400001928E-02 0. -1.
        1   -1    0    0  501    0  0.00000000000E+00  0.00000000000E+00 -0.16295033446E+04  0.16295033446E+04  0.50400001928E-02 0.  1.
    10030    2    1    2    0    0  0.00000000000E+00  0.00000000000E+00 -0.10312773853E+04  0.22277293038E+04  0.19746505527E+04 0.  0.
        4    1    3    3  502    0  0.22703366650E+03 -0.39844062188E+03  0.47078582434E+03  0.65722151531E+03  0.12699999809E+01 0. -1.
       -4    1    3    3    0  502 -0.22703366650E+03  0.39844062188E+03 -0.15020632097E+04  0.15705077885E+04  0.12699999809E+01 0.  1.
</event>
<event>
 5   0  0.1495517E-05  0.2631789E+04  0.7818609E-02  0.8357483E-01
       -1   -1    0    0    0  501  0.00000000000E+00  0.00000000000E+00  0.12928174152E+04  0.12928174152E+04  0.50400001928E-02 0. -1.
        1   -1    0    0  501    0  0.00000000000E+00  0.00000000000E+00 -0.13393832313E+04  0.13393832313E+04  0.50400001928E-02 0.  1.
    10030    2    1    2    0    0  0.00000000000E+00  0.00000000000E+00 -0.46565816087E+02  0.26322006464E+04  0.26317887202E+04 0.  0.
        5    1    3    3  502    0  0.18076256926E+02 -0.41930461354E+02 -0.13385822643E+04  0.13393690615E+04  0.46999998093E+01 0.  1.
       -5    1    3    3    0  502 -0.18076256926E+02  0.41930461354E+02  0.12920164482E+04  0.12928315849E+04  0.46999998093E+01 0. -1.
</event>
<event>
 5   0  0.3514294E-05  0.2697627E+04  0.7818609E-02  0.8335775E-01
        2   -1    0    0  501    0  0.00000000000E+00  0.00000000000E+00  0.12461975841E+04  0.12461975841E+04  0.25500000920E-02 0. -1.
       -2   -1    0    0    0  501  0.00000000000E+00  0.00000000000E+00 -0.14598794637E+04  0.14598794637E+04  0.25500000920E-02 0.  1.
    10030    2    1    2    0    0  0.00000000000E+00  0.00000000000E+00 -0.21368187962E+03  0.27060770478E+04  0.26976272987E+04 0.  0.
        2    1    3    3  502    0 -0.92673919358E+03  0.61508126182E+03 -0.87220377251E+03  0.14134744116E+04  0.25500000920E-02 0.  1.
       -2    1    3    3    0  502  0.92673919358E+03 -0.61508126182E+03  0.65852189289E+03  0.12926026362E+04  0.25500000920E-02 0. -1.
</event>
<event>
 5   0  0.3676724E-05  0.2737491E+04  0.7818609E-02  0.8322942E-01
        2   -1    0    0  501    0  0.00000000000E+00  0.00000000000E+00  0.14652447411E+04  0.14652447411E+04  0.25500000920E-02 0. -1.
       -2   -1    0    0    0  501  0.00000000000E+00  0.00000000000E+00 -0.12786015328E+04  0.12786015328E+04  0.25500000920E-02 0.  1.
    10030    2    1    2    0    0  0.00000000000E+00  0.00000000000E+00  0.18664320828E+03  0.27438462738E+04  0.27374909474E+04 0.  0.
        4    1    3    3  502    0  0.14568966109E+03 -0.60626755615E+03 -0.11279803035E+04  0.12888471612E+04  0.12699999809E+01 0.  1.
       -4    1    3    3    0  502 -0.14568966109E+03  0.60626755615E+03  0.13146235118E+04  0.14549991126E+04  0.12699999809E+01 0. -1.
</event>
<event>
 5   0  0.3497949E-05  0.2700075E+04  0.7818609E-02  0.8334981E-01
        2   -1    0    0  501    0  0.00000000000E+00  0.00000000000E+00  0.16147049780E+04  0.16147049780E+04  0.25500000920E-02 0.  1.
       -2   -1    0    0    0  501  0.00000000000E+00  0.00000000000E+00 -0.11287519732E+04  0.11287519732E+04  0.25500000920E-02 0. -1.
    10030    2    1    2    0    0  0.00000000000E+00  0.00000000000E+00  0.48595300481E+03  0.27434569512E+04  0.27000751323E+04 0.  0.
        5    1    3    3  502    0 -0.12030571052E+04  0.14663420267E+03 -0.36133251955E+03  0.12646862328E+04  0.46999998093E+01 0.  1.
       -5    1    3    3    0  502  0.12030571052E+04 -0.14663420267E+03  0.84728552436E+03  0.14787707184E+04  0.46999998093E+01 0. -1.
</event>
<event>
 5   0  0.3497949E-05  0.2835095E+04  0.7818609E-02  0.8292455E-01
        2   -1    0    0  501    0  0.00000000000E+00  0.00000000000E+00  0.17205134294E+04  0.17205134294E+04  0.25500000920E-02 0.  1.
       -2   -1    0    0    0  501  0.00000000000E+00  0.00000000000E+00 -0.11679312958E+04  0.11679312958E+04  0.25500000920E-02 0. -1.
    10030    2    1    2    0    0  0.00000000000E+00  0.00000000000E+00  0.55258213352E+03  0.28884447252E+04  0.28350953981E+04 0.  0.
        5    1    3    3  502    0  0.32239526616E+03 -0.13794418562E+04  0.22413351588E+03  0.14342442140E+04  0.46999998093E+01 0. -1.
       -5    1    3    3    0  502 -0.32239526616E+03  0.13794418562E+04  0.32844861763E+03  0.14542005112E+04  0.46999998093E+01 0.  1.
</event>
<event>
 5   0  0.1438701E-05  0.2762497E+04  0.7818609E-02  0.8315007E-01
       -1   -1    0    0    0  501  0.00000000000E+00  0.00000000000E+00  0.87137877647E+03  0.87137877649E+03  0.50400001928E-02 0.  1.
        1   -1    0    0  501    0  0.00000000000E+00  0.00000000000E+00 -0.21894589625E+04  0.21894589625E+04  0.50400001928E-02 0. -1.
    10030    2    1    2    0    0  0.00000000000E+00  0.00000000000E+00 -0.13180801860E+04  0.30608377390E+04  0.27624974729E+04 0.  0.
        4    1    3    3  502    0 -0.73167480471E+03 -0.90933007235E+03 -0.14774718406E+04  0.18828578950E+04  0.12699999809E+01 0. -1.
       -4    1    3    3    0  502  0.73167480471E+03  0.90933007235E+03  0.15939165454E+03  0.11779798440E+04  0.12699999809E+01 0.  1.
</event>
<event>
 5   0  0.1484379E-05  0.2445235E+04  0.7818609E-02  0.8422760E-01
        1   -1    0    0  501    0  0.00000000000E+00  0.00000000000E+00  0.27015797654E+04  0.27015797654E+04  0.50400001928E-02 0. -1.
       -1   -1    0    0    0  501  0.00000000000E+00  0.00000000000E+00 -0.55330336373E+03  0.55330336376E+03  0.50400001928E-02 0.  1.
    10030    2    1    2    0    0  0.00000000000E+00  0.00000000000E+00  0.21482764017E+04  0.32548831292E+04  0.24452346895E+04 0.  0.
        1    1    3    3  502    0 -0.83975152101E+03 -0.76703287935E+03  0.16713186470E+04  0.20215904815E+04  0.50400001928E-02 0.  1.
       -1    1    3    3    0  502  0.83975152101E+03  0.76703287935E+03  0.47695775468E+03  0.12332926477E+04  0.50400001928E-02 0. -1.
</event>
<event>
 5   0  0.3568647E-05  0.2673397E+04  0.7818609E-02  0.8343689E-01
        2   -1    0    0  501    0  0.00000000000E+00  0.00000000000E+00  0.16195130326E+04  0.16195130326E+04  0.25500000920E-02 0.  1.
       -2   -1    0    0    0  501  0.00000000000E+00  0.00000000000E+00 -0.11032715161E+04  0.11032715161E+04  0.25500000920E-02 0. -1.
    10030    2    1    2    0    0  0.00000000000E+00  0.00000000000E+00  0.51624151651E+03  0.27227845487E+04  0.26733967897E+04 0.  0.
        3    1    3    3  502    0 -0.61103291554E+03 -0.11620570452E+03 -0.94690960366E+03  0.11329178246E+04  0.10100000352E+00 0. -1.
       -3    1    3    3    0  502  0.61103291554E+03  0.11620570452E+03  0.14631511202E+04  0.15898667241E+04  0.10100000352E+00 0.  1.
</event>
<event>
 5   0  0.3652331E-05  0.2705946E+04  0.7818609E-02  0.8333078E-01
       -2   -1    0    0    0  501  0.00000000000E+00  0.00000000000E+00  0.64059566542E+03  0.64059566542E+03  0.25500000920E-02 0.  1.
        2   -1    0    0  501    0  0.00000000000E+00  0.00000000000E+00 -0.28575523272E+04  0.28575523272E+04  0.25500000920E-02 0. -1.
    10030    2    1    2    0    0  0.00000000000E+00  0.00000000000E+00 -0.22169566617E+04  0.34981479926E+04  0.27059457751E+04 0.  0.
        1    1    3    3  502    0  0.17409241411E+03  0.82119046056E+03 -0.24801934490E+04  0.26184005587E+04  0.50400001928E-02 0.  1.
       -1    1    3    3    0  502 -0.17409241411E+03 -0.82119046056E+03  0.26323678731E+03  0.87974743386E+03  0.50400001928E-02 0. -1.
</event>
<event>
 5   0  0.3497949E-05  0.2756851E+04  0.7818609E-02  0.8316791E-01
        2   -1    0    0  501    0  0.00000000000E+00  0.00000000000E+00  0.16807698298E+04  0.16807698298E+04  0.25500000920E-02 0. -1.
       -2   -1    0    0    0  501  0.00000000000E+00  0.00000000000E+00 -0.11304685801E+04  0.11304685801E+04  0.25500000920E-02 0.  1.
    10030    2    1    2    0    0  0.00000000000E+00  0.00000000000E+00  0.55030124963E+03  0.28112384099E+04  0.27568514527E+04 0.  0.
        5    1    3    3  502    0 -0.51888663870E+03  0.12704887470E+04  0.40673264657E+03  0.14313764480E+04  0.46999998093E+01 0. -1.
       -5    1    3    3    0  502  0.51888663870E+03 -0.12704887470E+04  0.14356860306E+03  0.13798619619E+04  0.46999998093E+01 0.  1.
</event>
<event>
 5   0  0.1449521E-05  0.2692830E+04  0.7818609E-02  0.8337335E-01
        1   -1    0    0  501    0  0.00000000000E+00  0.00000000000E+00  0.21869222882E+04  0.21869222882E+04  0.50400001928E-02 0.  1.
       -1   -1    0    0    0  501  0.00000000000E+00  0.00000000000E+00 -0.82894248841E+03  0.82894248842E+03  0.50400001928E-02 0. -1.
    10030    2    1    2    0    0  0.00000000000E+00  0.00000000000E+00  0.13579797998E+04  0.30158647767E+04  0.26928295925E+04 0.  0.
        3    1    3    3  502    0  0.97533573468E+03  0.77022842703E+03  0.98874658884E+02  0.12467188270E+04  0.10100000352E+00 0. -1.
       -3    1    3    3    0  502 -0.97533573468E+03 -0.77022842703E+03  0.12591051409E+04  0.17691459497E+04  0.10100000352E+00 0.  1.
</event>
<event>
 5   0  0.3514294E-05  0.2723883E+04  0.7818609E-02  0.8327297E-01
        2   -1    0    0  501    0  0.00000000000E+00  0.00000000000E+00  0.19521272482E+04  0.19521272482E+04  0.25500000920E-02 0. -1.
       -2   -1    0    0    0  501  0.00000000000E+00  0.00000000000E+00 -0.95018640759E+03  0.95018640759E+03  0.25500000920E-02 0.  1.
    10030    2    1    2    0    0  0.00000000000E+00  0.00000000000E+00  0.10019408406E+04  0.29023136558E+04  0.27238830937E+04 0.  0.
        2    1    3    3  502    0  0.10600376963E+04 -0.64553109453E+02  0.14094901507E+04  0.17647972990E+04  0.25500000920E-02 0. -1.
       -2    1    3    3    0  502 -0.10600376963E+04  0.64553109453E+02 -0.40754931018E+03  0.11375163567E+04  0.25500000920E-02 0.  1.
</event>
<event>
 5   0  0.1484379E-05  0.2649911E+04  0.7818609E-02  0.8351442E-01
        1   -1    0    0  501    0  0.00000000000E+00  0.00000000000E+00  0.14390178351E+04  0.14390178351E+04  0.50400001928E-02 0. -1.
       -1   -1    0    0    0  501  0.00000000000E+00  0.00000000000E+00 -0.12199343216E+04  0.12199343216E+04  0.50400001928E-02 0.  1.
    10030    2    1    2    0    0  0.00000000000E+00  0.00000000000E+00  0.21908351354E+03  0.26589521567E+04  0.26499111279E+04 0.  0.
        1    1    3    3  502    0 -0.10865502112E+04  0.60780903901E+03 -0.34530832790E+03  0.12919988509E+04  0.50400001928E-02 0.  1.
       -1    1    3    3    0  502  0.10865502112E+04 -0.60780903901E+03  0.56439184145E+03  0.13669533058E+04  0.50400001928E-02 0. -1.
</event>
<event>
 5   0  0.3568647E-05  0.2347295E+04  0.7818609E-02  0.8459504E-01
       -2   -1    0    0    0  501  0.00000000000E+00  0.00000000000E+00  0.72371086100E+03  0.72371086100E+03  0.25500000920E-02 0. -1.
        2   -1    0    0  501    0  0.00000000000E+00  0.00000000000E+00 -0.19033125229E+04  0.19033125229E+04  0.25500000920E-02 0.  1.
    10030    2    1    2    0    0  0.00000000000E+00  0.00000000000E+00 -0.11796016619E+04  0.26270233839E+04  0.23472945659E+04 0.  0.
        3    1    3    3  502    0 -0.71584569779E+03  0.30880219551E+03 -0.15716485419E+04  0.17543867899E+04  0.10100000352E+00 0.  1.
       -3    1    3    3    0  502  0.71584569779E+03 -0.30880219551E+03  0.39204687998E+03  0.87263659406E+03  0.10100000352E+00 0. -1.
</event>
<event>
 5   0  0.3514294E-05  0.2662485E+04  0.7818609E-02  0.8347281E-01
       -2   -1    0    0    0  501  0.00000000000E+00  0.00000000000E+00  0.12619207891E+04  0.12619207891E+04  0.25500000920E-02 0.  1.
        2   -1    0    0  501    0  0.00000000000E+00  0.00000000000E+00 -0.14043721702E+04  0.14043721702E+04  0.25500000920E-02 0. -1.
    10030    2    1    2    0    0  0.00000000000E+00  0.00000000000E+00 -0.14245138113E+03  0.26662929593E+04  0.26624848823E+04 0.  0.
        2    1    3    3  502    0  0.10739405530E+04  0.65885772953E+03  0.35923165142E+03  0.13101485406E+04  0.25500000920E-02 0. -1.
       -2    1    3    3    0  502 -0.10739405530E+04 -0.65885772953E+03 -0.50168303254E+03  0.13561444186E+04  0.25500000920E-02 0.  1.
</event>
<event>
 5   0  0.1484379E-05  0.2698965E+04  0.7818609E-02  0.8335341E-01
        1   -1    0    0  501    0  0.00000000000E+00  0.00000000000E+00  0.11421431515E+04  0.11421431515E+04  0.50400001928E-02 0.  1.
       -1   -1    0    0    0  501  0.00000000000E+00  0.00000000000E+00 -0.15944606989E+04  0.15944606989E+04  0.50400001928E-02 0. -1.
    10030    2    1    2    0    0  0.00000000000E+00  0.00000000000E+00 -0.45231754740E+03  0.27366038505E+04  0.26989645182E+04 0.  0.
        1    1    3    3  502    0  0.52560805138E+03  0.11342180816E+04 -0.74156639257E+03  0.14534906931E+04  0.50400001928E-02 0.  1.
       -1    1    3    3    0  502 -0.52560805138E+03 -0.11342180816E+04  0.28924884517E+03  0.12831131574E+04  0.50400001928E-02 0. -1.
</event>
<event>
 5   0  0.3497949E-05  0.2702822E+04  0.7818609E-02  0.8334090E-01
        2   -1    0    0  501    0  0.00000000000E+00  0.00000000000E+00  0.17884842670E+04  0.17884842670E+04  0.25500000920E-02 0.  1.
       -2   -1    0    0    0  501  0.00000000000E+00  0.00000000000E+00 -0.10211503885E+04  0.10211503885E+04  0.25500000920E-02 0. -1.
    10030    2    1    2    0    0  0.00000000000E+00  0.00000000000E+00  0.76733387857E+03  0.28096346555E+04  0.27028217877E+04 0.  0.
        5    1    3    3  502    0 -0.42485848362E+03 -0.11761514998E+04 -0.14887961079E+03  0.12593745710E+04  0.46999998093E+01 0. -1.
       -5    1    3    3    0  502  0.42485848362E+03  0.11761514998E+04  0.91621348936E+03  0.15502600845E+04  0.46999998093E+01 0.  1.
</event>
<event>
 5   0  0.3514294E-05  0.2794726E+04  0.7818609E-02  0.8304908E-01
        2   -1    0    0  501    0  0.00000000000E+00  0.00000000000E+00  0.15086244791E+04  0.15086244791E+04  0.25500000920E-02 0. -1.
       -2   -1    0    0    0  501  0.00000000000E+00  0.00000000000E+00 -0.12943070568E+04  0.12943070568E+04  0.25500000920E-02 0.  1.
    10030    2    1    2    0    0  0.00000000000E+00  0.00000000000E+00  0.21431742227E+03  0.28029315359E+04  0.27947259682E+04 0.  0.
        2    1    3    3  502    0  0.11704890890E+04 -0.74325455313E+01  0.87263180873E+03  0.14599952821E+04  0.25500000920E-02 0. -1.
       -2    1    3    3    0  502 -0.11704890890E+04  0.74325455313E+01 -0.65831438647E+03  0.13429362538E+04  0.25500000920E-02 0.  1.
</event>
<event>
 5   0  0.3497949E-05  0.2717216E+04  0.7818609E-02  0.8329440E-01
        2   -1    0    0  501    0  0.00000000000E+00  0.00000000000E+00  0.17782272250E+04  0.17782272250E+04  0.25500000920E-02 0. -1.
       -2   -1    0    0    0  501  0.00000000000E+00  0.00000000000E+00 -0.10380091339E+04  0.10380091339E+04  0.25500000920E-02 0.  1.
    10030    2    1    2    0    0  0.00000000000E+00  0.00000000000E+00  0.74021809114E+03  0.28162363589E+04  0.27172162974E+04 0.  0.
        5    1    3    3  502    0  0.52078305411E+03  0.10993726499E+04 -0.25688149288E+03  0.12433203144E+04  0.46999998093E+01 0.  1.
       -5    1    3    3    0  502 -0.52078305411E+03 -0.10993726499E+04  0.99709958401E+03  0.15729160446E+04  0.46999998093E+01 0. -1.
</event>
<event>
 5   0  0.1484379E-05  0.2781329E+04  0.7818609E-02  0.8309088E-01
        1   -1    0    0  501    0  0.00000000000E+00  0.00000000000E+00  0.14702022739E+04  0.14702022740E+04  0.50400001928E-02 0. -1.
       -1   -1    0    0    0  501  0.00000000000E+00  0.00000000000E+00 -0.13154297686E+04  0.13154297686E+04  0.50400001928E-02 0.  1.
    10030    2    1    2    0    0  0.00000000000E+00  0.00000000000E+00  0.15477250537E+03  0.27856320425E+04  0.27813290614E+04 0.  0.
        1    1    3    3  502    0 -0.13269893747E+04 -0.41598912180E+03  0.77090932691E+02  0.13927996130E+04  0.50400001928E-02 0.  1.
       -1    1    3    3    0  502  0.13269893747E+04  0.41598912180E+03  0.77681572675E+02  0.13928324295E+04  0.50400001928E-02 0. -1.
</event>
<event>
 5   0  0.3676724E-05  0.1405178E+04  0.7818609E-02  0.8950079E-01
       -2   -1    0    0    0  501  0.00000000000E+00  0.00000000000E+00  0.48028441422E+03  0.48028441423E+03  0.25500000920E-02 0. -1.
        2   -1    0    0  501    0  0.00000000000E+00  0.00000000000E+00 -0.10277896696E+04  0.10277896696E+04  0.25500000920E-02 0.  1.
    10030    2    1    2    0    0  0.00000000000E+00  0.00000000000E+00 -0.54750525535E+03  0.15080740838E+04  0.14051780804E+04 0.  0.
        4    1    3    3  502    0  0.25970342914E+03 -0.62409381247E+03 -0.68177848014E+02  0.67940326002E+03  0.12699999809E+01 0. -1.
       -4    1    3    3    0  502 -0.25970342914E+03  0.62409381247E+03 -0.47932740734E+03  0.82867082378E+03  0.12699999809E+01 0.  1.
</event>
<event>
 5   0  0.3568647E-05  0.1553155E+04  0.7818609E-02  0.8849855E-01
        2   -1    0    0  501    0  0.00000000000E+00  0.00000000000E+00  0.94281808352E+03  0.94281808352E+03  0.25500000920E-02 0.  1.
       -2   -1    0    0    0  501  0.00000000000E+00  0.00000000000E+00 -0.63964893832E+03  0.63964893833E+03  0.25500000920E-02 0. -1.
    10030    2    1    2    0    0  0.00000000000E+00  0.00000000000E+00  0.30316914520E+03  0.15824670219E+04  0.15531549648E+04 0.  0.
        3    1    3    3  502    0 -0.34180396322E+03 -0.66623788874E+03  0.36130830842E+03  0.83141239923E+03  0.10100000352E+00 0.  1.
       -3    1    3    3    0  502  0.34180396322E+03  0.66623788874E+03 -0.58139163222E+02  0.75105462262E+03  0.10100000352E+00 0. -1.
</event>
<event>
 5   0  0.3497949E-05  0.2653800E+04  0.7818609E-02  0.8350153E-01
        2   -1    0    0  501    0  0.00000000000E+00  0.00000000000E+00  0.13075797811E+04  0.13075797811E+04  0.25500000920E-02 0. -1.
       -2   -1    0    0    0  501  0.00000000000E+00  0.00000000000E+00 -0.13465055920E+04  0.13465055920E+04  0.25500000920E-02 0.  1.
    10030    2    1    2    0    0  0.00000000000E+00  0.00000000000E+00 -0.38925810918E+02  0.26540853732E+04  0.26537999076E+04 0.  0.
        5    1    3    3  502    0  0.10658756868E+04  0.72570117083E+03  0.29347365857E+03  0.13224530416E+04  0.46999998093E+01 0. -1.
       -5    1    3    3    0  502 -0.10658756868E+04 -0.72570117083E+03 -0.33239946949E+03  0.13316323315E+04  0.46999998093E+01 0.  1.
</event>
<event>
 5   0  0.3568647E-05  0.2749716E+04  0.7818609E-02  0.8319052E-01
        2   -1    0    0  501    0  0.00000000000E+00  0.00000000000E+00  0.10103375851E+04  0.10103375851E+04  0.25500000920E-02 0. -1.
       -2   -1    0    0    0  501  0.00000000000E+00  0.00000000000E+00 -0.18708939076E+04  0.18708939076E+04  0.25500000920E-02 0.  1.
    10030    2    1    2    0    0  0.00000000000E+00  0.00000000000E+00 -0.86055632249E+03  0.28812314928E+04  0.27497159364E+04 0.  0.
        3    1    3    3  502    0  0.11449259363E+04  0.69561319371E+03 -0.75409168386E+03  0.15373312567E+04  0.10100000352E+00 0.  1.
       -3    1    3    3    0  502 -0.11449259363E+04 -0.69561319371E+03 -0.10646463863E+03  0.13439002360E+04  0.10100000352E+00 0. -1.
</event>
<event>
 5   0  0.1449521E-05  0.2608108E+04  0.7818609E-02  0.8365452E-01
        1   -1    0    0  501    0  0.00000000000E+00  0.00000000000E+00  0.79031864315E+03  0.79031864316E+03  0.50400001928E-02 0. -1.
       -1   -1    0    0    0  501  0.00000000000E+00  0.00000000000E+00 -0.21517350360E+04  0.21517350360E+04  0.50400001928E-02 0.  1.
    10030    2    1    2    0    0  0.00000000000E+00  0.00000000000E+00 -0.13614163928E+04  0.29420536791E+04  0.26081076006E+04 0.  0.
        3    1    3    3  502    0 -0.10092760784E+03  0.10478446295E+04 -0.15489276583E+04  0.18727898041E+04  0.10100000352E+00 0.  1.
       -3    1    3    3    0  502  0.10092760784E+03 -0.10478446295E+04  0.18751126545E+03  0.10692638750E+04  0.10100000352E+00 0. -1.
</event>
<event>
 5   0  0.1449521E-05  0.2629567E+04  0.7818609E-02  0.8358227E-01
       -1   -1    0    0    0  501  0.00000000000E+00  0.00000000000E+00  0.13156886149E+04  0.13156886149E+04  0.50400001928E-02 0.  1.
        1   -1    0    0  501    0  0.00000000000E+00  0.00000000000E+00 -0.13138791245E+04  0.13138791245E+04  0.50400001928E-02 0. -1.
    10030    2    1    2    0    0  0.00000000000E+00  0.00000000000E+00  0.18094904074E+01  0.26295677394E+04  0.26295671168E+04 0.  0.
        3    1    3    3  502    0  0.48994604611E+03 -0.34251428656E+03  0.11719270678E+04  0.13155896879E+04  0.10100000352E+00 0.  1.
       -3    1    3    3    0  502 -0.48994604611E+03  0.34251428656E+03 -0.11701175774E+04  0.13139780515E+04  0.10100000352E+00 0. -1.
</event>
<event>
 5   0  0.3676724E-05  0.2700989E+04  0.7818609E-02  0.8334684E-01
       -2   -1    0    0    0  501  0.00000000000E+00  0.00000000000E+00  0.11940408191E+04  0.11940408191E+04  0.25500000920E-02 0. -1.
        2   -1    0    0  501    0  0.00000000000E+00  0.00000000000E+00 -0.15274477259E+04  0.15274477259E+04  0.25500000920E-02 0.  1.
    10030    2    1    2    0    0  0.00000000000E+00  0.00000000000E+00 -0.33340690682E+03  0.27214885450E+04  0.27009886588E+04 0.  0.
        4    1    3    3  502    0  0.10816644839E+04 -0.42562993629E+03 -0.85943473771E+03  0.14456101064E+04  0.12699999809E+01 0.  1.
       -4    1    3    3    0  502 -0.10816644839E+04  0.42562993629E+03  0.52602783089E+03  0.12758784386E+04  0.12699999809E+01 0. -1.
</event>
<event>
 5   0  0.1495517E-05  0.2799966E+04  0.7818609E-02  0.8303279E-01
       -1   -1    0    0    0  501  0.00000000000E+00  0.00000000000E+00  0.20277118476E+04  0.20277118476E+04  0.50400001928E-02 0. -1.
        1   -1    0    0  501    0  0.00000000000E+00  0.00000000000E+00 -0.96658353241E+03  0.96658353242E+03  0.50400001928E-02 0.  1.
    10030    2    1    2    0    0  0.00000000000E+00  0.00000000000E+00  0.10611283151E+04  0.29942953800E+04  0.27999663429E+04 0.  0.
        5    1    3    3  502    0  0.10757549425E+03  0.13382120209E+04  0.95503390944E+03  0.16475726867E+04  0.46999998093E+01 0. -1.
       -5    1    3    3    0  502 -0.10757549425E+03 -0.13382120209E+04  0.10609440570E+03  0.13467226933E+04  0.46999998093E+01 0.  1.
</event>
<event>
 5   0  0.1228050E-05  0.2739373E+04  0.7818609E-02  0.8322342E-01
        3   -1    0    0  501    0  0.00000000000E+00  0.00000000000E+00  0.93151706419E+03  0.93151706967E+03  0.10100000352E+00 0.  1.
       -3   -1    0    0    0  501  0.00000000000E+00  0.00000000000E+00 -0.20139624926E+04  0.20139624951E+04  0.10100000352E+00 0. -1.
    10030    2    1    2    0    0  0.00000000000E+00  0.00000000000E+00 -0.10824454284E+04  0.29454795648E+04  0.27393725123E+04 0.  0.
        5    1    3    3  502    0 -0.10574962189E+04 -0.39897103323E+03 -0.13730866808E+04  0.17784446185E+04  0.46999998093E+01 0. -1.
       -5    1    3    3    0  502  0.10574962189E+04  0.39897103323E+03  0.29064125236E+03  0.11670349463E+04  0.46999998093E+01 0.  1.
</event>
<event>
 5   0  0.1449521E-05  0.2858573E+04  0.7818609E-02  0.8285311E-01
        1   -1    0    0  501    0  0.00000000000E+00  0.00000000000E+00  0.13311257419E+04  0.13311257419E+04  0.50400001928E-02 0.  1.
       -1   -1    0    0    0  501  0.00000000000E+00  0.00000000000E+00 -0.15346863309E+04  0.15346863309E+04  0.50400001928E-02 0. -1.
    10030    2    1    2    0    0  0.00000000000E+00  0.00000000000E+00 -0.20356058903E+03  0.28658120728E+04  0.28585734070E+04 0.  0.
        3    1    3    3  502    0 -0.50929085522E+03  0.56909242517E+03  0.11094251965E+04  0.13468732830E+04  0.10100000352E+00 0.  1.
       -3    1    3    3    0  502  0.50929085522E+03 -0.56909242517E+03 -0.13129857856E+04  0.15189387897E+04  0.10100000352E+00 0. -1.
</event>
<event>
 5   0  0.1228050E-05  0.2718567E+04  0.7818609E-02  0.8329006E-01
        3   -1    0    0  501    0  0.00000000000E+00  0.00000000000E+00  0.11958885294E+04  0.11958885337E+04  0.10100000352E+00 0.  1.
       -3   -1    0    0    0  501  0.00000000000E+00  0.00000000000E+00 -0.15450031266E+04  0.15450031299E+04  0.10100000352E+00 0. -1.
    10030    2    1    2    0    0  0.00000000000E+00  0.00000000000E+00 -0.34911459722E+03  0.27408916636E+04  0.27185669221E+04 0.  0.
        4    1    3    3  502    0  0.92591484317E+03  0.96047431666E+03 -0.43711997519E+03  0.14038891322E+04  0.12699999809E+01 0. -1.
       -4    1    3    3    0  502 -0.92591484317E+03 -0.96047431666E+03  0.88005377971E+02  0.13370025315E+04  0.12699999809E+01 0.  1.
</event>
<event>
 5   0  0.1449521E-05  0.2724786E+04  0.7818609E-02  0.8327007E-01
       -1   -1    0    0    0  501  0.00000000000E+00  0.00000000000E+00  0.15280146875E+04  0.15280146876E+04  0.50400001928E-02 0.  1.
        1   -1    0    0  501    0  0.00000000000E+00  0.00000000000E+00 -0.12147233864E+04  0.12147233864E+04  0.50400001928E-02 0. -1.
    10030    2    1    2    0    0  0.00000000000E+00  0.00000000000E+00  0.31329130118E+03  0.27427380739E+04  0.27247863591E+04 0.  0.
        3    1    3    3  502    0  0.44648823178E+02 -0.10260153445E+04  0.10577609949E+04  0.14742996089E+04  0.10100000352E+00 0.  1.
       -3    1    3    3    0  502 -0.44648823178E+02  0.10260153445E+04 -0.74446969368E+03  0.12684384650E+04  0.10100000352E+00 0. -1.
</event>
<event>
 5   0  0.3652331E-05  0.2683101E+04  0.7818609E-02  0.8340509E-01
        2   -1    0    0  501    0  0.00000000000E+00  0.00000000000E+00  0.23326248548E+04  0.23326248548E+04  0.25500000920E-02 0. -1.
       -2   -1    0    0    0  501  0.00000000000E+00  0.00000000000E+00 -0.77155910688E+03  0.77155910688E+03  0.25500000920E-02 0.  1.
    10030    2    1    2    0    0  0.00000000000E+00  0.00000000000E+00  0.15610657479E+04  0.31041839617E+04  0.26831011533E+04 0.  0.
        1    1    3    3  502    0 -0.34923197007E+03 -0.47761736467E+03  0.21735163804E+04  0.22526106570E+04  0.50400001928E-02 0. -1.
       -1    1    3    3    0  502  0.34923197007E+03  0.47761736467E+03 -0.61245063252E+03  0.85157330469E+03  0.50400001928E-02 0.  1.
</event>
<event>
 5   0  0.1474012E-05  0.2662056E+04  0.7818609E-02  0.8347422E-01
        1   -1    0    0  501    0  0.00000000000E+00  0.00000000000E+00  0.12883257149E+04  0.12883257150E+04  0.50400001928E-02 0. -1.
       -1   -1    0    0    0  501  0.00000000000E+00  0.00000000000E+00 -0.13751461624E+04  0.13751461624E+04  0.50400001928E-02 0.  1.
    10030    2    1    2    0    0  0.00000000000E+00  0.00000000000E+00 -0.86820447478E+02  0.26634718774E+04  0.26620564704E+04 0.  0.
        2    1    3    3  502    0  0.77722470715E+03 -0.75711663179E+03  0.72792919609E+03  0.13065928035E+04  0.25500000920E-02 0. -1.
       -2    1    3    3    0  502 -0.77722470715E+03  0.75711663179E+03 -0.81474964357E+03  0.13568790739E+04  0.25500000920E-02 0.  1.
</event>
<event>
 5   0  0.1449521E-05  0.2641123E+04  0.7818609E-02  0.8354365E-01
        1   -1    0    0  501    0  0.00000000000E+00  0.00000000000E+00  0.12143768366E+04  0.12143768366E+04  0.50400001928E-02 0.  1.
       -1   -1    0    0    0  501  0.00000000000E+00  0.00000000000E+00 -0.14360307771E+04  0.14360307771E+04  0.50400001928E-02 0. -1.
    10030    2    1    2    0    0  0.00000000000E+00  0.00000000000E+00 -0.22165394054E+03  0.26504076137E+04  0.26411228766E+04 0.  0.
        3    1    3    3  502    0  0.65745979947E+03 -0.66331186976E+03  0.82607521785E+03  0.12468505525E+04  0.10100000352E+00 0.  1.
       -3    1    3    3    0  502 -0.65745979947E+03  0.66331186976E+03 -0.10477291584E+04  0.14035570612E+04  0.10100000352E+00 0. -1.
</event>
<event>
 5   0  0.1474012E-05  0.2113282E+04  0.7818609E-02  0.8555415E-01
        1   -1    0    0  501    0  0.00000000000E+00  0.00000000000E+00  0.10560909304E+04  0.10560909304E+04  0.50400001928E-02 0. -1.
       -1   -1    0    0    0  501  0.00000000000E+00  0.00000000000E+00 -0.10571912466E+04  0.10571912466E+04  0.50400001928E-02 0.  1.
    10030    2    1    2    0    0  0.00000000000E+00  0.00000000000E+00 -0.11003162321E+01  0.21132821770E+04  0.21132818906E+04 0.  0.
        2    1    3    3  502    0  0.82873492396E+03  0.73273267120E+02 -0.65194838994E+03  0.10569802501E+04  0.25500000920E-02 0.  1.
       -2    1    3    3    0  502 -0.82873492396E+03 -0.73273267120E+02  0.65084807370E+03  0.10563019270E+04  0.25500000920E-02 0. -1.
</event>
<event>
 5   0  0.1449521E-05  0.2822007E+04  0.7818609E-02  0.8296468E-01
       -1   -1    0    0    0  501  0.00000000000E+00  0.00000000000E+00  0.13393255838E+04  0.13393255838E+04  0.50400001928E-02 0.  1.
        1   -1    0    0  501    0  0.00000000000E+00  0.00000000000E+00 -0.14865175976E+04  0.14865175976E+04  0.50400001928E-02 0. -1.
    10030    2    1    2    0    0  0.00000000000E+00  0.00000000000E+00 -0.14719201376E+03  0.28258431814E+04  0.28220071221E+04 0.  0.
        3    1    3    3  502    0 -0.99343540881E+03 -0.73239236079E+03 -0.75835196643E+03  0.14485890366E+04  0.10100000352E+00 0. -1.
       -3    1    3    3    0  502  0.99343540881E+03  0.73239236079E+03  0.61115995267E+03  0.13772541449E+04  0.10100000352E+00 0.  1.
</event>
<event>
 5   0  0.3497949E-05  0.2881484E+04  0.7818609E-02  0.8278408E-01
       -2   -1    0    0    0  501  0.00000000000E+00  0.00000000000E+00  0.80272296993E+03  0.80272296994E+03  0.25500000920E-02 0.  1.
        2   -1    0    0  501    0  0.00000000000E+00  0.00000000000E+00 -0.25858707445E+04  0.25858707445E+04  0.25500000920E-02 0. -1.
    10030    2    1    2    0    0  0.00000000000E+00  0.00000000000E+00 -0.17831477745E+04  0.33885937144E+04  0.28814842314E+04 0.  0.
        5    1    3    3  502    0 -0.37111224801E+03  0.46570499403E+03  0.65121892530E+03  0.88244751728E+03  0.46999998093E+01 0.  1.
       -5    1    3    3    0  502  0.37111224801E+03 -0.46570499403E+03 -0.24343666998E+04  0.25061461971E+04  0.46999998093E+01 0. -1.
</event>
<event>
 5   0  0.3652331E-05  0.2614608E+04  0.7818609E-02  0.8363256E-01
       -2   -1    0    0    0  501  0.00000000000E+00  0.00000000000E+00  0.98269855402E+03  0.98269855402E+03  0.25500000920E-02 0. -1.
        2   -1    0    0  501    0  0.00000000000E+00  0.00000000000E+00 -0.17391330535E+04  0.17391330536E+04  0.25500000920E-02 0.  1.
    10030    2    1    2    0    0  0.00000000000E+00  0.00000000000E+00 -0.75643449953E+03  0.27218316076E+04  0.26146078383E+04 0.  0.
        1    1    3    3  502    0 -0.12080215724E+04 -0.36911657063E+03 -0.27533957670E+02  0.12634560859E+04  0.50400001928E-02 0.  1.
       -1    1    3    3    0  502  0.12080215724E+04  0.36911657063E+03 -0.72890054186E+03  0.14583755217E+04  0.50400001928E-02 0. -1.
</event>
<event>
 5   0  0.1484379E-05  0.2602096E+04  0.7818609E-02  0.8367490E-01
        1   -1    0    0  501    0  0.00000000000E+00  0.00000000000E+00  0.26076643622E+04  0.26076643622E+04  0.50400001928E-02 0.  1.
       -1   -1    0    0    0  501  0.00000000000E+00  0.00000000000E+00 -0.64913494828E+03  0.64913494830E+03  0.50400001928E-02 0. -1.
    10030    2    1    2    0    0  0.00000000000E+00  0.00000000000E+00  0.19585294140E+04  0.32567993105E+04  0.26020961327E+04 0.  0.
        1    1    3    3  502    0  0.57110943051E+03  0.67129624862E+03  0.21770990810E+04  0.23487369039E+04  0.50400001928E-02 0.  1.
       -1    1    3    3    0  502 -0.57110943051E+03 -0.67129624862E+03 -0.21856966706E+03  0.90806240667E+03  0.50400001928E-02 0. -1.
</event>
<event>
 5   0  0.3514294E-05  0.2831381E+04  0.7818609E-02  0.8293591E-01
        2   -1    0    0  501    0  0.00000000000E+00  0.00000000000E+00  0.14556230839E+04  0.14556230839E+04  0.25500000920E-02 0.  1.
       -2   -1    0    0    0  501  0.00000000000E+00  0.00000000000E+00 -0.13768536251E+04  0.13768536251E+04  0.25500000920E-02 0. -1.
    10030    2    1    2    0    0  0.00000000000E+00  0.00000000000E+00  0.78769458803E+02  0.28324767090E+04  0.28313812318E+04 0.  0.
        2    1    3    3  502    0  0.12130823217E+04 -0.15681324981E+03  0.75241628102E+03  0.14360673294E+04  0.25500000920E-02 0.  1.
       -2    1    3    3    0  502 -0.12130823217E+04  0.15681324981E+03 -0.67364682222E+03  0.13964093797E+04  0.25500000920E-02 0. -1.
</event>
<event>
 5   0  0.3497949E-05  0.2671802E+04  0.7818609E-02  0.8344212E-01
        2   -1    0    0  501    0  0.00000000000E+00  0.00000000000E+00  0.82629619069E+03  0.82629619069E+03  0.25500000920E-02 0.  1.
       -2   -1    0    0    0  501  0.00000000000E+00  0.00000000000E+00 -0.21597970715E+04  0.21597970715E+04  0.25500000920E-02 0. -1.
    10030    2    1    2    0    0  0.00000000000E+00  0.00000000000E+00 -0.13335008808E+04  0.29860932622E+04  0.26718024574E+04 0.  0.
        5    1    3    3  502    0 -0.55924392996E+03 -0.65028294627E+03 -0.18114311097E+04  0.20042271425E+04  0.46999998093E+01 0. -1.
       -5    1    3    3    0  502  0.55924392996E+03  0.65028294627E+03  0.47793022888E+03  0.98186611974E+03  0.46999998093E+01 0.  1.
</event>
<event>
 5   0  0.1474012E-05  0.2396674E+04  0.7818609E-02  0.8440750E-01
       -1   -1    0    0    0  501  0.00000000000E+00  0.00000000000E+00  0.14150362878E+04  0.14150362879E+04  0.50400001928E-02 0.  1.
        1   -1    0    0  501    0  0.00000000000E+00  0.00000000000E+00 -0.10148233265E+04  0.10148233265E+04  0.50400001928E-02 0. -1.
    10030    2    1    2    0    0  0.00000000000E+00  0.00000000000E+00  0.40021296136E+03  0.24298596143E+04  0.23966742230E+04 0.  0.
        2    1    3    3  502    0 -0.57372051251E+03 -0.57817118923E+02  0.12651345641E+04  0.13903465435E+04  0.25500000920E-02 0.  1.
       -2    1    3    3    0  502  0.57372051251E+03  0.57817118923E+02 -0.86492160270E+03  0.10395130709E+04  0.25500000920E-02 0. -1.
</event>
<event>
 5   0  0.3514294E-05  0.2264573E+04  0.7818609E-02  0.8492022E-01
        2   -1    0    0  501    0  0.00000000000E+00  0.00000000000E+00  0.14460259614E+04  0.14460259614E+04  0.25500000920E-02 0. -1.
       -2   -1    0    0    0  501  0.00000000000E+00  0.00000000000E+00 -0.88661799146E+03  0.88661799146E+03  0.25500000920E-02 0.  1.
    10030    2    1    2    0    0  0.00000000000E+00  0.00000000000E+00  0.55940796999E+03  0.23326439529E+04  0.22645729253E+04 0.  0.
        2    1    3    3  502    0 -0.13860358644E+03  0.18715643087E+03  0.14210885572E+04  0.14400455448E+04  0.25500000920E-02 0. -1.
       -2    1    3    3    0  502  0.13860358644E+03 -0.18715643087E+03 -0.86168058719E+03  0.89259840809E+03  0.25500000920E-02 0.  1.
</event>
<event>
 5   0  0.3568647E-05  0.2200843E+04  0.7818609E-02  0.8518077E-01
       -2   -1    0    0    0  501  0.00000000000E+00  0.00000000000E+00  0.97091706244E+03  0.97091706244E+03  0.25500000920E-02 0.  1.
        2   -1    0    0  501    0  0.00000000000E+00  0.00000000000E+00 -0.12471998093E+04  0.12471998093E+04  0.25500000920E-02 0. -1.
    10030    2    1    2    0    0  0.00000000000E+00  0.00000000000E+00 -0.27628274686E+03  0.22181168717E+04  0.22008430886E+04 0.  0.
        3    1    3    3  502    0  0.40781093534E+03 -0.10326920239E+03  0.88667440235E+03  0.98141010446E+03  0.10100000352E+00 0.  1.
       -3    1    3    3    0  502 -0.40781093534E+03  0.10326920239E+03 -0.11629571492E+04  0.12367067673E+04  0.10100000352E+00 0. -1.
</event>
<event>
 5   0  0.1495517E-05  0.1636004E+04  0.7818609E-02  0.8798730E-01
        1   -1    0    0  501    0  0.00000000000E+00  0.00000000000E+00  0.64615927758E+03  0.64615927760E+03  0.50400001928E-02 0.  1.
       -1   -1    0    0    0  501  0.00000000000E+00  0.00000000000E+00 -0.10355449548E+04  0.10355449548E+04  0.50400001928E-02 0. -1.
    10030    2    1    2    0    0  0.00000000000E+00  0.00000000000E+00 -0.38938567721E+03  0.16817042324E+04  0.16360036429E+04 0.  0.
        5    1    3    3  502    0  0.62422701262E+03 -0.50719665892E+03 -0.41544167255E+02  0.80539171956E+03  0.46999998093E+01 0. -1.
       -5    1    3    3    0  502 -0.62422701262E+03  0.50719665892E+03 -0.34784150996E+03  0.87631251284E+03  0.46999998093E+01 0.  1.
</event>
<event>
 5   0  0.1495517E-05  0.2704330E+04  0.7818609E-02  0.8333601E-01
       -1   -1    0    0    0  501  0.00000000000E+00  0.00000000000E+00  0.93012010267E+03  0.93012010268E+03  0.50400001928E-02 0.  1.
        1   -1    0    0  501    0  0.00000000000E+00  0.00000000000E+00 -0.19657143947E+04  0.19657143947E+04  0.50400001928E-02 0. -1.
    10030    2    1    2    0    0  0.00000000000E+00  0.00000000000E+00 -0.10355942921E+04  0.28958344974E+04  0.27043302126E+04 0.  0.
        5    1    3    3  502    0  0.67429741486E+03 -0.11417314639E+04 -0.23428280898E+03  0.13465282262E+04  0.46999998093E+01 0. -1.
       -5    1    3    3    0  502 -0.67429741486E+03  0.11417314639E+04 -0.80131148308E+03  0.15493062713E+04  0.46999998093E+01 0.  1.
</event>
<event>
 5   0  0.3652331E-05  0.2701315E+04  0.7818609E-02  0.8334578E-01
        2   -1    0    0  501    0  0.00000000000E+00  0.00000000000E+00  0.15182373829E+04  0.15182373829E+04  0.25500000920E-02 0. -1.
       -2   -1    0    0    0  501  0.00000000000E+00  0.00000000000E+00 -0.12015745662E+04  0.12015745662E+04  0.25500000920E-02 0.  1.
    10030    2    1    2    0    0  0.00000000000E+00  0.00000000000E+00  0.31666281672E+03  0.27198119491E+04  0.27013148093E+04 0.  0.
        1    1    3    3  502    0  0.85505069232E+03  0.10419017981E+04  0.24613163157E+03  0.13701283967E+04  0.50400001928E-02 0. -1.
       -1    1    3    3    0  502 -0.85505069232E+03 -0.10419017981E+04  0.70531185142E+02  0.13496835524E+04  0.50400001928E-02 0.  1.
</event>
<event>
 5   0  0.1438701E-05  0.2711052E+04  0.7818609E-02  0.8331428E-01
       -1   -1    0    0    0  501  0.00000000000E+00  0.00000000000E+00  0.12567143193E+04  0.12567143193E+04  0.50400001928E-02 0. -1.
        1   -1    0    0  501    0  0.00000000000E+00  0.00000000000E+00 -0.14621069250E+04  0.14621069250E+04  0.50400001928E-02 0.  1.
    10030    2    1    2    0    0  0.00000000000E+00  0.00000000000E+00 -0.20539260570E+03  0.27188212444E+04  0.27110519796E+04 0.  0.
        4    1    3    3  502    0  0.90231839959E+03 -0.68965986394E+03  0.63945138919E+03  0.13033452782E+04  0.12699999809E+01 0. -1.
       -4    1    3    3    0  502 -0.90231839959E+03  0.68965986394E+03 -0.84484399489E+03  0.14154759662E+04  0.12699999809E+01 0.  1.
</event>
<event>
 5   0  0.1474012E-05  0.2667321E+04  0.7818609E-02  0.8345687E-01
        1   -1    0    0  501    0  0.00000000000E+00  0.00000000000E+00  0.15816114984E+04  0.15816114984E+04  0.50400001928E-02 0. -1.
       -1   -1    0    0    0  501  0.00000000000E+00  0.00000000000E+00 -0.11245809998E+04  0.11245809998E+04  0.50400001928E-02 0.  1.
    10030    2    1    2    0    0  0.00000000000E+00  0.00000000000E+00  0.45703049854E+03  0.27061924982E+04  0.26673209332E+04 0.  0.
        2    1    3    3  502    0  0.10620469157E+04  0.77307680462E+03  0.46221718035E+03  0.13925645833E+04  0.25500000920E-02 0. -1.
       -2    1    3    3    0  502 -0.10620469157E+04 -0.77307680462E+03 -0.51866818068E+01  0.13136279148E+04  0.25500000920E-02 0.  1.
</event>
<event>
 5   0  0.3676724E-05  0.2702935E+04  0.7818609E-02  0.8334053E-01
        2   -1    0    0  501    0  0.00000000000E+00  0.00000000000E+00  0.18337138797E+04  0.18337138797E+04  0.25500000920E-02 0. -1.
       -2   -1    0    0    0  501  0.00000000000E+00  0.00000000000E+00 -0.99604686718E+03  0.99604686718E+03  0.25500000920E-02 0.  1.
    10030    2    1    2    0    0  0.00000000000E+00  0.00000000000E+00  0.83766701249E+03  0.28297607469E+04  0.27029354155E+04 0.  0.
        4    1    3    3  502    0  0.44876264984E+03  0.12747838036E+04  0.42019470348E+03  0.14152833156E+04  0.12699999809E+01 0.  1.
       -4    1    3    3    0  502 -0.44876264984E+03 -0.12747838036E+04  0.41747230901E+03  0.14144774312E+04  0.12699999809E+01 0. -1.
</event>
<event>
 5   0  0.3514294E-05  0.2814197E+04  0.7818609E-02  0.8298874E-01
        2   -1    0    0  501    0  0.00000000000E+00  0.00000000000E+00  0.18111046799E+04  0.18111046799E+04  0.25500000920E-02 0. -1.
       -2   -1    0    0    0  501  0.00000000000E+00  0.00000000000E+00 -0.10932146855E+04  0.10932146855E+04  0.25500000920E-02 0.  1.
    10030    2    1    2    0    0  0.00000000000E+00  0.00000000000E+00  0.71788999445E+03  0.29043193654E+04  0.28141970315E+04 0.  0.
        2    1    3    3  502    0 -0.66299960186E+03  0.22283039968E+03 -0.90109877714E+03  0.11407019178E+04  0.25500000920E-02 0.  1.
       -2    1    3    3    0  502  0.66299960186E+03 -0.22283039968E+03  0.16189887716E+04  0.17636174476E+04  0.25500000920E-02 0. -1.
</event>
<event>
 5   0  0.3568647E-05  0.2644694E+04  0.7818609E-02  0.8353176E-01
        2   -1    0    0  501    0  0.00000000000E+00  0.00000000000E+00  0.11962573697E+04  0.11962573697E+04  0.25500000920E-02 0. -1.
       -2   -1    0    0    0  501  0.00000000000E+00  0.00000000000E+00 -0.14617266225E+04  0.14617266225E+04  0.25500000920E-02 0.  1.
    10030    2    1    2    0    0  0.00000000000E+00  0.00000000000E+00 -0.26546925284E+03  0.26579839922E+04  0.26446937401E+04 0.  0.
        3    1    3    3  502    0  0.19377067261E+03  0.96520288114E+03 -0.10200288181E+04  0.14176115389E+04  0.10100000352E+00 0.  1.
       -3    1    3    3    0  502 -0.19377067261E+03 -0.96520288114E+03  0.75455956523E+03  0.12403724533E+04  0.10100000352E+00 0. -1.
</event>
<event>
 5   0  0.1228050E-05  0.2350091E+04  0.7818609E-02  0.8458429E-01
        4   -1    0    0  501    0  0.00000000000E+00  0.00000000000E+00  0.72422009811E+03  0.72422121165E+03  0.12699999809E+01 0. -1.
       -4   -1    0    0    0  501  0.00000000000E+00  0.00000000000E+00 -0.19065059463E+04  0.19065063693E+04  0.12699999809E+01 0.  1.
    10030    2    1    2    0    0  0.00000000000E+00  0.00000000000E+00 -0.11822858482E+04  0.26307275810E+04  0.23500910149E+04 0.  0.
        3    1    3    3  502    0 -0.89015552530E+03 -0.63702845274E+03 -0.10694225789E+04  0.15303093711E+04  0.10100000352E+00 0.  1.
       -3    1    3    3    0  502  0.89015552530E+03  0.63702845274E+03 -0.11286326928E+03  0.11004182098E+04  0.10100000352E+00 0. -1.
</event>
<event>
 5   0  0.3676724E-05  0.2098256E+04  0.7818609E-02  0.8562012E-01
        2   -1    0    0  501    0  0.00000000000E+00  0.00000000000E+00  0.14532617822E+04  0.14532617822E+04  0.25500000920E-02 0.  1.
       -2   -1    0    0    0  501  0.00000000000E+00  0.00000000000E+00 -0.75737854092E+03  0.75737854093E+03  0.25500000920E-02 0. -1.
    10030    2    1    2    0    0  0.00000000000E+00  0.00000000000E+00  0.69588324129E+03  0.22106403231E+04  0.20982557406E+04 0.  0.
        4    1    3    3  502    0 -0.17213839217E+03 -0.99582929924E+03  0.64473940216E+03  0.11987485678E+04  0.12699999809E+01 0.  1.
       -4    1    3    3    0  502  0.17213839217E+03  0.99582929924E+03  0.51143839126E+02  0.10118917553E+04  0.12699999809E+01 0. -1.
</event>
<event>
 5   0  0.3568647E-05  0.2756613E+04  0.7818609E-02  0.8316866E-01
       -2   -1    0    0    0  501  0.00000000000E+00  0.00000000000E+00  0.10412279646E+04  0.10412279646E+04  0.25500000920E-02 0. -1.
        2   -1    0    0  501    0  0.00000000000E+00  0.00000000000E+00 -0.18245083258E+04  0.18245083258E+04  0.25500000920E-02 0.  1.
    10030    2    1    2    0    0  0.00000000000E+00  0.00000000000E+00 -0.78328036113E+03  0.28657362904E+04  0.27566132050E+04 0.  0.
        3    1    3    3  502    0 -0.19954281721E+03 -0.11873018627E+04  0.30591037984E+03  0.12422094106E+04  0.10100000352E+00 0. -1.
       -3    1    3    3    0  502  0.19954281721E+03  0.11873018627E+04 -0.10891907410E+04  0.16235268798E+04  0.10100000352E+00 0.  1.
</event>
<event>
 5   0  0.1449521E-05  0.2728011E+04  0.7818609E-02  0.8325973E-01
        1   -1    0    0  501    0  0.00000000000E+00  0.00000000000E+00  0.15755184603E+04  0.15755184603E+04  0.50400001928E-02 0. -1.
       -1   -1    0    0    0  501  0.00000000000E+00  0.00000000000E+00 -0.11808885237E+04  0.11808885237E+04  0.50400001928E-02 0.  1.
    10030    2    1    2    0    0  0.00000000000E+00  0.00000000000E+00  0.39462993652E+03  0.27564069840E+04  0.27280114873E+04 0.  0.
        3    1    3    3  502    0  0.10592476177E+04 -0.81543729903E+03 -0.76742774732E+02  0.13389671273E+04  0.10100000352E+00 0. -1.
       -3    1    3    3    0  502 -0.10592476177E+04  0.81543729903E+03  0.47137271126E+03  0.14174398567E+04  0.10100000352E+00 0.  1.
</event>
<event>
 5   0  0.3568647E-05  0.2689047E+04  0.7818609E-02  0.8338567E-01
       -2   -1    0    0    0  501  0.00000000000E+00  0.00000000000E+00  0.21598329280E+04  0.21598329280E+04  0.25500000920E-02 0. -1.
        2   -1    0    0  501    0  0.00000000000E+00  0.00000000000E+00 -0.83698324406E+03  0.83698324407E+03  0.25500000920E-02 0.  1.
    10030    2    1    2    0    0  0.00000000000E+00  0.00000000000E+00  0.13228496839E+04  0.29968161720E+04  0.26890473932E+04 0.  0.
        3    1    3    3  502    0 -0.75452424103E+02  0.23941187656E+03 -0.81063720455E+03  0.84861286966E+03  0.10100000352E+00 0.  1.
       -3    1    3    3    0  502  0.75452424103E+02 -0.23941187656E+03  0.21334868884E+04  0.21482033024E+04  0.10100000352E+00 0. -1.
</event>
<event>
 5   0  0.1474012E-05  0.2010614E+04  0.7818609E-02  0.8601674E-01
       -1   -1    0    0    0  501  0.00000000000E+00  0.00000000000E+00  0.93911517297E+03  0.93911517298E+03  0.50400001928E-02 0. -1.
        1   -1    0    0  501    0  0.00000000000E+00  0.00000000000E+00 -0.10761644376E+04  0.10761644376E+04  0.50400001928E-02 0.  1.
    10030    2    1    2    0    0  0.00000000000E+00  0.00000000000E+00 -0.13704926466E+03  0.20152796106E+04  0.20106141868E+04 0.  0.
        2    1    3    3  502    0  0.34786407709E+03 -0.48575582178E+03  0.74185262851E+03  0.95253002942E+03  0.25500000920E-02 0. -1.
       -2    1    3    3    0  502 -0.34786407709E+03  0.48575582178E+03 -0.87890189317E+03  0.10627495812E+04  0.25500000920E-02 0.  1.
</event>
<event>
 5   0  0.1484379E-05  0.2792603E+04  0.7818609E-02  0.8305568E-01
       -1   -1    0    0    0  501  0.00000000000E+00  0.00000000000E+00  0.11039274943E+04  0.11039274943E+04  0.50400001928E-02 0. -1.
        1   -1    0    0  501    0  0.00000000000E+00  0.00000000000E+00 -0.17661106542E+04  0.17661106542E+04  0.50400001928E-02 0.  1.
    10030    2    1    2    0    0  0.00000000000E+00  0.00000000000E+00 -0.66218315987E+03  0.28700381485E+04  0.27926031649E+04 0.  0.
        1    1    3    3  502    0 -0.57064925165E+03 -0.18628067811E+03 -0.16267296924E+04  0.17339522922E+04  0.50400001928E-02 0.  1.
       -1    1    3    3    0  502  0.57064925165E+03  0.18628067811E+03  0.96454653254E+03  0.11360858563E+04  0.50400001928E-02 0. -1.
</event>
<event>
 5   0  0.3676724E-05  0.1685809E+04  0.7818609E-02  0.8769499E-01
       -2   -1    0    0    0  501  0.00000000000E+00  0.00000000000E+00  0.15927885977E+04  0.15927885977E+04  0.25500000920E-02 0. -1.
        2   -1    0    0  501    0  0.00000000000E+00  0.00000000000E+00 -0.44606569394E+03  0.44606569395E+03  0.25500000920E-02 0.  1.
    10030    2    1    2    0    0  0.00000000000E+00  0.00000000000E+00  0.11467229037E+04  0.20388542916E+04  0.16858094212E+04 0.  0.
        4    1    3    3  502    0  0.22526086216E+03 -0.30303139397E+03 -0.33806129506E+03  0.50681114221E+03  0.12699999809E+01 0.  1.
       -4    1    3    3    0  502 -0.22526086216E+03  0.30303139397E+03  0.14847841988E+04  0.15320431494E+04  0.12699999809E+01 0. -1.
</event>
<event>
 5   0  0.3676724E-05  0.2700848E+04  0.7818609E-02  0.8334730E-01
        2   -1    0    0  501    0  0.00000000000E+00  0.00000000000E+00  0.15007410201E+04  0.15007410201E+04  0.25500000920E-02 0.  1.
       -2   -1    0    0    0  501  0.00000000000E+00  0.00000000000E+00 -0.12151630339E+04  0.12151630339E+04  0.25500000920E-02 0. -1.
    10030    2    1    2    0    0  0.00000000000E+00  0.00000000000E+00  0.28557798614E+03  0.27159040540E+04  0.27008480232E+04 0.  0.
        4    1    3    3  502    0 -0.91997671660E+03  0.98854477344E+03  0.13465253016E+03  0.13570964759E+04  0.12699999809E+01 0.  1.
       -4    1    3    3    0  502  0.91997671660E+03 -0.98854477344E+03  0.15092545598E+03  0.13588075781E+04  0.12699999809E+01 0. -1.
</event>
<event>
 5   0  0.3676724E-05  0.2648928E+04  0.7818609E-02  0.8351769E-01
        2   -1    0    0  501    0  0.00000000000E+00  0.00000000000E+00  0.16973333461E+04  0.16973333461E+04  0.25500000920E-02 0. -1.
       -2   -1    0    0    0  501  0.00000000000E+00  0.00000000000E+00 -0.10335066504E+04  0.10335066504E+04  0.25500000920E-02 0.  1.
    10030    2    1    2    0    0  0.00000000000E+00  0.00000000000E+00  0.66382669568E+03  0.27308399965E+04  0.26489283124E+04 0.  0.
        4    1    3    3  502    0  0.10887513242E+04 -0.32400516176E+03 -0.37020842629E+03  0.11947446097E+04  0.12699999809E+01 0.  1.
       -4    1    3    3    0  502 -0.10887513242E+04  0.32400516176E+03  0.10340351220E+04  0.15360953867E+04  0.12699999809E+01 0. -1.
</event>
<event>
 5   0  0.1228050E-05  0.2614446E+04  0.7818609E-02  0.8363311E-01
       -3   -1    0    0    0  501  0.00000000000E+00  0.00000000000E+00  0.11757176413E+04  0.11757176456E+04  0.10100000352E+00 0. -1.
        3   -1    0    0  501    0  0.00000000000E+00  0.00000000000E+00 -0.14534372498E+04  0.14534372533E+04  0.10100000352E+00 0.  1.
    10030    2    1    2    0    0  0.00000000000E+00  0.00000000000E+00 -0.27771960851E+03  0.26291548989E+04  0.26144458880E+04 0.  0.
        5    1    3    3  502    0  0.55012289289E+03 -0.80958389179E+03  0.73247235078E+03  0.12225379789E+04  0.46999998093E+01 0. -1.
       -5    1    3    3    0  502 -0.55012289289E+03  0.80958389179E+03 -0.10101919593E+04  0.14066169200E+04  0.46999998093E+01 0.  1.
</event>
<event>
 5   0  0.1484379E-05  0.2768118E+04  0.7818609E-02  0.8313235E-01
       -1   -1    0    0    0  501  0.00000000000E+00  0.00000000000E+00  0.85313141270E+03  0.85313141272E+03  0.50400001928E-02 0. -1.
        1   -1    0    0  501    0  0.00000000000E+00  0.00000000000E+00 -0.22453976495E+04  0.22453976495E+04  0.50400001928E-02 0.  1.
    10030    2    1    2    0    0  0.00000000000E+00  0.00000000000E+00 -0.13922662368E+04  0.30985290622E+04  0.27681179663E+04 0.  0.
        1    1    3    3  502    0  0.12651772147E+04  0.13166971035E+03 -0.85480829461E+02  0.12748793157E+04  0.50400001928E-02 0.  1.
       -1    1    3    3    0  502 -0.12651772147E+04 -0.13166971035E+03 -0.13067854073E+04  0.18236497466E+04  0.50400001928E-02 0. -1.
</event>
<event>
 5   0  0.3568647E-05  0.2638884E+04  0.7818609E-02  0.8355112E-01
        2   -1    0    0  501    0  0.00000000000E+00  0.00000000000E+00  0.18103374766E+04  0.18103374766E+04  0.25500000920E-02 0. -1.
       -2   -1    0    0    0  501  0.00000000000E+00  0.00000000000E+00 -0.96165923618E+03  0.96165923618E+03  0.25500000920E-02 0.  1.
    10030    2    1    2    0    0  0.00000000000E+00  0.00000000000E+00  0.84867824041E+03  0.27719967128E+04  0.26388844271E+04 0.  0.
        3    1    3    3  502    0  0.64923812073E+03 -0.11069633640E+04  0.10219434650E+03  0.12873700794E+04  0.10100000352E+00 0.  1.
       -3    1    3    3    0  502 -0.64923812073E+03  0.11069633640E+04  0.74648389391E+03  0.14846266334E+04  0.10100000352E+00 0. -1.
</event>
<event>
 5   0  0.3652331E-05  0.2657671E+04  0.7818609E-02  0.8348872E-01
        2   -1    0    0  501    0  0.00000000000E+00  0.00000000000E+00  0.59235899082E+03  0.59235899082E+03  0.25500000920E-02 0. -1.
       -2   -1    0    0    0  501  0.00000000000E+00  0.00000000000E+00 -0.29809679732E+04  0.29809679732E+04  0.25500000920E-02 0.  1.
    10030    2    1    2    0    0  0.00000000000E+00  0.00000000000E+00 -0.23886089823E+04  0.35733269640E+04  0.26576705441E+04 0.  0.
        1    1    3    3  502    0 -0.49294079793E+03  0.85833036087E+03 -0.22244608153E+01  0.98981138956E+03  0.50400001928E-02 0. -1.
       -1    1    3    3    0  502  0.49294079793E+03 -0.85833036087E+03 -0.23863845215E+04  0.25835155744E+04  0.50400001928E-02 0.  1.
</event>
<event>
 5   0  0.1474012E-05  0.2690428E+04  0.7818609E-02  0.8338117E-01
       -1   -1    0    0    0  501  0.00000000000E+00  0.00000000000E+00  0.13033311543E+04  0.13033311543E+04  0.50400001928E-02 0. -1.
        1   -1    0    0  501    0  0.00000000000E+00  0.00000000000E+00 -0.13884428638E+04  0.13884428638E+04  0.50400001928E-02 0.  1.
    10030    2    1    2    0    0  0.00000000000E+00  0.00000000000E+00 -0.85111709498E+02  0.26917740182E+04  0.26904281001E+04 0.  0.
        2    1    3    3  502    0 -0.30251484823E+03  0.10450121129E+04 -0.83417559337E+03  0.13709173826E+04  0.25500000920E-02 0.  1.
       -2    1    3    3    0  502  0.30251484823E+03 -0.10450121129E+04  0.74906388387E+03  0.13208566355E+04  0.25500000920E-02 0. -1.
</event>
<event>
 5   0  0.1484379E-05  0.2394369E+04  0.7818609E-02  0.8441615E-01
       -1   -1    0    0    0  501  0.00000000000E+00  0.00000000000E+00  0.63097936970E+03  0.63097936972E+03  0.50400001928E-02 0. -1.
        1   -1    0    0  501    0  0.00000000000E+00  0.00000000000E+00 -0.22714704481E+04  0.22714704481E+04  0.50400001928E-02 0.  1.
    10030    2    1    2    0    0  0.00000000000E+00  0.00000000000E+00 -0.16404910784E+04  0.29024498178E+04  0.23943692210E+04 0.  0.
        1    1    3    3  502    0 -0.70840033082E+03  0.39445921537E+03 -0.18879587425E+04  0.20547061383E+04  0.50400001928E-02 0.  1.
       -1    1    3    3    0  502  0.70840033082E+03 -0.39445921537E+03  0.24746766414E+03  0.84774367949E+03  0.50400001928E-02 0. -1.
</event>
<event>
 5   0  0.1474012E-05  0.2720449E+04  0.7818609E-02  0.8328400E-01
       -1   -1    0    0    0  501  0.00000000000E+00  0.00000000000E+00  0.23762199161E+04  0.23762199161E+04  0.50400001928E-02 0. -1.
        1   -1    0    0  501    0  0.00000000000E+00  0.00000000000E+00 -0.77863623419E+03  0.77863623420E+03  0.50400001928E-02 0.  1.
    10030    2    1    2    0    0  0.00000000000E+00  0.00000000000E+00  0.15975836819E+04  0.31548561503E+04  0.27204491740E+04 0.  0.
        2    1    3    3  502    0  0.12654688092E+04  0.48452296335E+03  0.93618905285E+03  0.16470044784E+04  0.25500000920E-02 0. -1.
       -2    1    3    3    0  502 -0.12654688092E+04 -0.48452296335E+03  0.66139462908E+03  0.15078516719E+04  0.25500000920E-02 0.  1.
</event>
<event>
 5   0  0.3568647E-05  0.2268771E+04  0.7818609E-02  0.8490337E-01
        2   -1    0    0  501    0  0.00000000000E+00  0.00000000000E+00  0.10869520605E+04  0.10869520605E+04  0.25500000920E-02 0. -1.
       -2   -1    0    0    0  501  0.00000000000E+00  0.00000000000E+00 -0.11838891153E+04  0.11838891153E+04  0.25500000920E-02 0.  1.
    10030    2    1    2    0    0  0.00000000000E+00  0.00000000000E+00 -0.96937054780E+02  0.22708411759E+04  0.22687712210E+04 0.  0.
        3    1    3    3  502    0  0.12187105628E+03 -0.19490802073E+02  0.10802119622E+04  0.10872397800E+04  0.10100000352E+00 0. -1.
       -3    1    3    3    0  502 -0.12187105628E+03  0.19490802073E+02 -0.11771490170E+04  0.11836013958E+04  0.10100000352E+00 0.  1.
</event>
<event>
 5   0  0.1474012E-05  0.2753769E+04  0.7818609E-02  0.8317767E-01
       -1   -1    0    0    0  501  0.00000000000E+00  0.00000000000E+00  0.10484770905E+04  0.10484770905E+04  0.50400001928E-02 0. -1.
        1   -1    0    0  501    0  0.00000000000E+00  0.00000000000E+00 -0.18081569157E+04  0.18081569157E+04  0.50400001928E-02 0.  1.
    10030    2    1    2    0    0  0.00000000000E+00  0.00000000000E+00 -0.75967982519E+03  0.28566340061E+04  0.27537691276E+04 0.  0.
        2    1    3    3  502    0 -0.62162107504E+03  0.50333790270E+03 -0.15424401771E+04  0.17374934547E+04  0.25500000920E-02 0.  1.
       -2    1    3    3    0  502  0.62162107504E+03 -0.50333790270E+03  0.78276035193E+03  0.11191405514E+04  0.25500000920E-02 0. -1.
</event>
<event>
 5   0  0.3514294E-05  0.1876666E+04  0.7818609E-02  0.8666559E-01
       -2   -1    0    0    0  501  0.00000000000E+00  0.00000000000E+00  0.16463763715E+04  0.16463763715E+04  0.25500000920E-02 0. -1.
        2   -1    0    0  501    0  0.00000000000E+00  0.00000000000E+00 -0.53479180551E+03  0.53479180552E+03  0.25500000920E-02 0.  1.
    10030    2    1    2    0    0  0.00000000000E+00  0.00000000000E+00  0.11115845660E+04  0.21811681770E+04  0.18766657585E+04 0.  0.
        2    1    3    3  502    0 -0.88587866665E+03 -0.61059235124E+02  0.20334012877E+03  0.91096457132E+03  0.25500000920E-02 0.  1.
       -2    1    3    3    0  502  0.88587866665E+03  0.61059235124E+02  0.90824443724E+03  0.12702036057E+04  0.25500000920E-02 0. -1.
</event>
<event>
 5   0  0.1449521E-05  0.2739511E+04  0.7818609E-02  0.8322298E-01
        1   -1    0    0  501    0  0.00000000000E+00  0.00000000000E+00  0.11876738741E+04  0.11876738741E+04  0.50400001928E-02 0.  1.
       -1   -1    0    0    0  501  0.00000000000E+00  0.00000000000E+00 -0.15797523114E+04  0.15797523114E+04  0.50400001928E-02 0. -1.
    10030    2    1    2    0    0  0.00000000000E+00  0.00000000000E+00 -0.39207843732E+03  0.27674261854E+04  0.27395113051E+04 0.  0.
        3    1    3    3  502    0  0.47203997080E+03 -0.70303437123E+03 -0.12836488512E+04  0.15378014971E+04  0.10100000352E+00 0. -1.
       -3    1    3    3    0  502 -0.47203997080E+03  0.70303437123E+03  0.89157041384E+03  0.12296246884E+04  0.10100000352E+00 0.  1.
</event>
<event>
 5   0  0.1484379E-05  0.2325058E+04  0.7818609E-02  0.8468106E-01
        1   -1    0    0  501    0  0.00000000000E+00  0.00000000000E+00  0.18100456505E+04  0.18100456505E+04  0.50400001928E-02 0. -1.
       -1   -1    0    0    0  501  0.00000000000E+00  0.00000000000E+00 -0.74665164843E+03  0.74665164845E+03  0.50400001928E-02 0.  1.
    10030    2    1    2    0    0  0.00000000000E+00  0.00000000000E+00  0.10633940021E+04  0.25566972990E+04  0.23250579079E+04 0.  0.
        1    1    3    3  502    0  0.49884856599E+03  0.83589151075E+03 -0.16715841575E+03  0.98767729827E+03  0.50400001928E-02 0.  1.
       -1    1    3    3    0  502 -0.49884856599E+03 -0.83589151075E+03  0.12305524178E+04  0.15690200007E+04  0.50400001928E-02 0. -1.
</event>
<event>
 5   0  0.3676724E-05  0.2682819E+04  0.7818609E-02  0.8340601E-01
        2   -1    0    0  501    0  0.00000000000E+00  0.00000000000E+00  0.23025455708E+04  0.23025455708E+04  0.25500000920E-02 0. -1.
       -2   -1    0    0    0  501  0.00000000000E+00  0.00000000000E+00 -0.78147370204E+03  0.78147370204E+03  0.25500000920E-02 0.  1.
    10030    2    1    2    0    0  0.00000000000E+00  0.00000000000E+00  0.15210718688E+04  0.30840192729E+04  0.26828185264E+04 0.  0.
        4    1    3    3  502    0  0.12503895472E+04  0.46991042238E+03  0.61933661271E+03  0.14723685943E+04  0.12699999809E+01 0.  1.
       -4    1    3    3    0  502 -0.12503895472E+04 -0.46991042238E+03  0.90173525606E+03  0.16116506785E+04  0.12699999809E+01 0. -1.
</event>
<event>
 5   0  0.3497949E-05  0.2513375E+04  0.7818609E-02  0.8398236E-01
        2   -1    0    0  501    0  0.00000000000E+00  0.00000000000E+00  0.13763033328E+04  0.13763033328E+04  0.25500000920E-02 0. -1.
       -2   -1    0    0    0  501  0.00000000000E+00  0.00000000000E+00 -0.11474675187E+04  0.11474675188E+04  0.25500000920E-02 0.  1.
    10030    2    1    2    0    0  0.00000000000E+00  0.00000000000E+00  0.22883581409E+03  0.25237708516E+04  0.25133749186E+04 0.  0.
        5    1    3    3  502    0 -0.22402042716E+03  0.18912456853E+03 -0.11126382378E+04  0.11506255657E+04  0.46999998093E+01 0.  1.
       -5    1    3    3    0  502  0.22402042716E+03 -0.18912456853E+03  0.13414740519E+04  0.13731452859E+04  0.46999998093E+01 0. -1.
</event>
<event>
 5   0  0.1474012E-05  0.2193349E+04  0.7818609E-02  0.8521202E-01
        1   -1    0    0  501    0  0.00000000000E+00  0.00000000000E+00  0.95746124645E+03  0.95746124646E+03  0.50400001928E-02 0. -1.
       -1   -1    0    0    0  501  0.00000000000E+00  0.00000000000E+00 -0.12561289710E+04  0.12561289710E+04  0.50400001928E-02 0.  1.
    10030    2    1    2    0    0  0.00000000000E+00  0.00000000000E+00 -0.29866772451E+03  0.22135902174E+04  0.21933488644E+04 0.  0.
        2    1    3    3  502    0  0.13103248487E+03  0.53525429577E+03 -0.11062550150E+04  0.12359072908E+04  0.25500000920E-02 0.  1.
       -2    1    3    3    0  502 -0.13103248487E+03 -0.53525429577E+03  0.80758729049E+03  0.97768292662E+03  0.25500000920E-02 0. -1.
</event>
<event>
 5   0  0.1474012E-05  0.2718872E+04  0.7818609E-02  0.8328908E-01
       -1   -1    0    0    0  501  0.00000000000E+00  0.00000000000E+00  0.14372902774E+04  0.14372902774E+04  0.50400001928E-02 0. -1.
        1   -1    0    0  501    0  0.00000000000E+00  0.00000000000E+00 -0.12857986830E+04  0.12857986831E+04  0.50400001928E-02 0.  1.
    10030    2    1    2    0    0  0.00000000000E+00  0.00000000000E+00  0.15149159433E+03  0.27230889604E+04  0.27188717850E+04 0.  0.
        2    1    3    3  502    0  0.13029748513E+04  0.16148397189E+03  0.42877715060E+03  0.13811844124E+04  0.25500000920E-02 0. -1.
       -2    1    3    3    0  502 -0.13029748513E+04 -0.16148397189E+03 -0.27728555627E+03  0.13419045480E+04  0.25500000920E-02 0.  1.
</event>
<event>
 5   0  0.1484379E-05  0.2279439E+04  0.7818609E-02  0.8486072E-01
        1   -1    0    0  501    0  0.00000000000E+00  0.00000000000E+00  0.13946283658E+04  0.13946283658E+04  0.50400001928E-02 0.  1.
       -1   -1    0    0    0  501  0.00000000000E+00  0.00000000000E+00 -0.93140251955E+03  0.93140251956E+03  0.50400001928E-02 0. -1.
    10030    2    1    2    0    0  0.00000000000E+00  0.00000000000E+00  0.46322584624E+03  0.23260308854E+04  0.22794388553E+04 0.  0.
        1    1    3    3  502    0 -0.61937852961E+03 -0.28923236520E+03  0.11622158598E+04  0.13483437354E+04  0.50400001928E-02 0.  1.
       -1    1    3    3    0  502  0.61937852961E+03  0.28923236520E+03 -0.69899001358E+03  0.97768714993E+03  0.50400001928E-02 0. -1.
</event>
<event>
 5   0  0.1495517E-05  0.3314244E+04  0.7818609E-02  0.8159281E-01
       -1   -1    0    0    0  501  0.00000000000E+00  0.00000000000E+00  0.15858618994E+04  0.15858618994E+04  0.50400001928E-02 0.  1.
        1   -1    0    0  501    0  0.00000000000E+00  0.00000000000E+00 -0.17315838456E+04  0.17315838456E+04  0.50400001928E-02 0. -1.
    10030    2    1    2    0    0  0.00000000000E+00  0.00000000000E+00 -0.14572194620E+03  0.33174457450E+04  0.33142437124E+04 0.  0.
        5    1    3    3  502    0 -0.77899203849E+03 -0.38727067676E+03 -0.14846219968E+04  0.17207358125E+04  0.46999998093E+01 0. -1.
       -5    1    3    3    0  502  0.77899203849E+03  0.38727067676E+03  0.13389000506E+04  0.15967099325E+04  0.46999998093E+01 0.  1.
</event>
<event>
 5   0  0.1449521E-05  0.2711898E+04  0.7818609E-02  0.8331155E-01
       -1   -1    0    0    0  501  0.00000000000E+00  0.00000000000E+00  0.10823883666E+04  0.10823883666E+04  0.50400001928E-02 0. -1.
        1   -1    0    0  501    0  0.00000000000E+00  0.00000000000E+00 -0.16986492299E+04  0.16986492299E+04  0.50400001928E-02 0.  1.
    10030    2    1    2    0    0  0.00000000000E+00  0.00000000000E+00 -0.61626086334E+03  0.27810375965E+04  0.27118983502E+04 0.  0.
        3    1    3    3  502    0  0.42324393861E+03 -0.21491005765E+03 -0.16106607541E+04  0.16791515237E+04  0.10100000352E+00 0.  1.
       -3    1    3    3    0  502 -0.42324393861E+03  0.21491005765E+03  0.99439989080E+03  0.11018860728E+04  0.10100000352E+00 0. -1.
</event>
<event>
 5   0  0.3652331E-05  0.2714228E+04  0.7818609E-02  0.8330403E-01
       -2   -1    0    0    0  501  0.00000000000E+00  0.00000000000E+00  0.12588291926E+04  0.12588291926E+04  0.25500000920E-02 0. -1.
        2   -1    0    0  501    0  0.00000000000E+00  0.00000000000E+00 -0.14630725618E+04  0.14630725618E+04  0.25500000920E-02 0.  1.
    10030    2    1    2    0    0  0.00000000000E+00  0.00000000000E+00 -0.20424336922E+03  0.27219017543E+04  0.27142280314E+04 0.  0.
        1    1    3    3  502    0 -0.26904688881E+03 -0.13293176769E+04 -0.54166647250E+02  0.13573524745E+04  0.50400001928E-02 0.  1.
       -1    1    3    3    0  502  0.26904688881E+03  0.13293176769E+04 -0.15007672197E+03  0.13645492798E+04  0.50400001928E-02 0. -1.
</event>
<event>
 5   0  0.1495517E-05  0.2867101E+04  0.7818609E-02  0.8282734E-01
        1   -1    0    0  501    0  0.00000000000E+00  0.00000000000E+00  0.90920772144E+03  0.90920772146E+03  0.50400001928E-02 0.  1.
       -1   -1    0    0    0  501  0.00000000000E+00  0.00000000000E+00 -0.22602839881E+04  0.22602839881E+04  0.50400001928E-02 0. -1.
    10030    2    1    2    0    0  0.00000000000E+00  0.00000000000E+00 -0.13510762667E+04  0.31694917096E+04  0.28671014315E+04 0.  0.
        5    1    3    3  502    0  0.87853114532E+03  0.21810157027E+03 -0.19043803095E+04  0.21085710141E+04  0.46999998093E+01 0. -1.
       -5    1    3    3    0  502 -0.87853114532E+03 -0.21810157027E+03  0.55330404284E+03  0.10609206955E+04  0.46999998093E+01 0.  1.
</event>
<event>
 5   0  0.1484379E-05  0.1793010E+04  0.7818609E-02  0.8710026E-01
       -1   -1    0    0    0  501  0.00000000000E+00  0.00000000000E+00  0.70974237865E+03  0.70974237867E+03  0.50400001928E-02 0.  1.
        1   -1    0    0  501    0  0.00000000000E+00  0.00000000000E+00 -0.11324124098E+04  0.11324124098E+04  0.50400001928E-02 0. -1.
    10030    2    1    2    0    0  0.00000000000E+00  0.00000000000E+00 -0.42267003118E+03  0.18421547885E+04  0.17930098465E+04 0.  0.
        1    1    3    3  502    0 -0.70026349306E+03  0.36270711842E+03 -0.64939663571E+03  0.10215876878E+04  0.50400001928E-02 0. -1.
       -1    1    3    3    0  502  0.70026349306E+03 -0.36270711842E+03  0.22672660453E+03  0.82056710066E+03  0.50400001928E-02 0.  1.
</event>
<event>
 5   0  0.1484379E-05  0.2739409E+04  0.7818609E-02  0.8322330E-01
       -1   -1    0    0    0  501  0.00000000000E+00  0.00000000000E+00  0.17099731098E+04  0.17099731098E+04  0.50400001928E-02 0.  1.
        1   -1    0    0  501    0  0.00000000000E+00  0.00000000000E+00 -0.10971464155E+04  0.10971464155E+04  0.50400001928E-02 0. -1.
    10030    2    1    2    0    0  0.00000000000E+00  0.00000000000E+00  0.61282669430E+03  0.28071195253E+04  0.27394093291E+04 0.  0.
        1    1    3    3  502    0  0.26255401414E+03 -0.10601482572E+04  0.11534285981E+04  0.15884729990E+04  0.50400001928E-02 0.  1.
       -1    1    3    3    0  502 -0.26255401414E+03  0.10601482572E+04 -0.54060190378E+03  0.12186465263E+04  0.50400001928E-02 0. -1.
</event>
<event>
 5   0  0.1438701E-05  0.1452774E+04  0.7818609E-02  0.8916480E-01
       -1   -1    0    0    0  501  0.00000000000E+00  0.00000000000E+00  0.56960366442E+03  0.56960366444E+03  0.50400001928E-02 0. -1.
        1   -1    0    0  501    0  0.00000000000E+00  0.00000000000E+00 -0.92632483507E+03  0.92632483509E+03  0.50400001928E-02 0.  1.
    10030    2    1    2    0    0  0.00000000000E+00  0.00000000000E+00 -0.35672117066E+03  0.14959284995E+04  0.14527739267E+04 0.  0.
        4    1    3    3  502    0 -0.62393036649E+03  0.93564260086E+02  0.19232323404E+03  0.65957047557E+03  0.12699999809E+01 0. -1.
       -4    1    3    3    0  502  0.62393036649E+03 -0.93564260086E+02 -0.54904440470E+03  0.83635802395E+03  0.12699999809E+01 0.  1.
</event>
<event>
 5   0  0.1449521E-05  0.1481117E+04  0.7818609E-02  0.8897108E-01
        1   -1    0    0  501    0  0.00000000000E+00  0.00000000000E+00  0.10897429126E+04  0.10897429126E+04  0.50400001928E-02 0.  1.
       -1   -1    0    0    0  501  0.00000000000E+00  0.00000000000E+00 -0.50326271361E+03  0.50326271363E+03  0.50400001928E-02 0. -1.
    10030    2    1    2    0    0  0.00000000000E+00  0.00000000000E+00  0.58648019897E+03  0.15930056262E+04  0.14811171127E+04 0.  0.
        3    1    3    3  502    0  0.52623890849E+03 -0.10703750659E+03 -0.25522641371E+03  0.59457964065E+03  0.10100000352E+00 0. -1.
       -3    1    3    3    0  502 -0.52623890849E+03  0.10703750659E+03  0.84170661268E+03  0.99842598557E+03  0.10100000352E+00 0.  1.
</event>
<event>
 5   0  0.3652331E-05  0.2707071E+04  0.7818609E-02  0.8332714E-01
       -2   -1    0    0    0  501  0.00000000000E+00  0.00000000000E+00  0.81940640580E+03  0.81940640580E+03  0.25500000920E-02 0.  1.
        2   -1    0    0  501    0  0.00000000000E+00  0.00000000000E+00 -0.22358367681E+04  0.22358367681E+04  0.25500000920E-02 0. -1.
    10030    2    1    2    0    0  0.00000000000E+00  0.00000000000E+00 -0.14164303623E+04  0.30552431739E+04  0.27070714583E+04 0.  0.
        1    1    3    3  502    0  0.56450506617E+02 -0.67227266226E+03 -0.20325588418E+04  0.21415958156E+04  0.50400001928E-02 0. -1.
       -1    1    3    3    0  502 -0.56450506617E+02  0.67227266226E+03  0.61612847946E+03  0.91364735831E+03  0.50400001928E-02 0.  1.
</event>
<event>
 5   0  0.3568647E-05  0.2023301E+04  0.7818609E-02  0.8595803E-01
        2   -1    0    0  501    0  0.00000000000E+00  0.00000000000E+00  0.16968555594E+04  0.16968555594E+04  0.25500000920E-02 0. -1.
       -2   -1    0    0    0  501  0.00000000000E+00  0.00000000000E+00 -0.60313725935E+03  0.60313725935E+03  0.25500000920E-02 0.  1.
    10030    2    1    2    0    0  0.00000000000E+00  0.00000000000E+00  0.10937183001E+04  0.22999928188E+04  0.20233010766E+04 0.  0.
        3    1    3    3  502    0 -0.43969996531E+03 -0.49717036476E+03 -0.32104412767E+03  0.73728133925E+03  0.10100000352E+00 0.  1.
       -3    1    3    3    0  502  0.43969996531E+03  0.49717036476E+03  0.14147624277E+04  0.15627114795E+04  0.10100000352E+00 0. -1.
</event>
<event>
 5   0  0.1449521E-05  0.2727504E+04  0.7818609E-02  0.8326136E-01
       -1   -1    0    0    0  501  0.00000000000E+00  0.00000000000E+00  0.72417892244E+03  0.72417892246E+03  0.50400001928E-02 0.  1.
        1   -1    0    0  501    0  0.00000000000E+00  0.00000000000E+00 -0.25681768685E+04  0.25681768685E+04  0.50400001928E-02 0. -1.
    10030    2    1    2    0    0  0.00000000000E+00  0.00000000000E+00 -0.18439979460E+04  0.32923557909E+04  0.27275040292E+04 0.  0.
        3    1    3    3  502    0 -0.27138873734E+02 -0.11093022498E+04 -0.18789834670E+04  0.21821702223E+04  0.10100000352E+00 0. -1.
       -3    1    3    3    0  502  0.27138873734E+02  0.11093022498E+04  0.34985520980E+02  0.11101855686E+04  0.10100000352E+00 0.  1.
</event>
<event>
 5   0  0.3497949E-05  0.2641832E+04  0.7818609E-02  0.8354129E-01
        2   -1    0    0  501    0  0.00000000000E+00  0.00000000000E+00  0.18453906865E+04  0.18453906865E+04  0.25500000920E-02 0. -1.
       -2   -1    0    0    0  501  0.00000000000E+00  0.00000000000E+00 -0.94550138683E+03  0.94550138684E+03  0.25500000920E-02 0.  1.
    10030    2    1    2    0    0  0.00000000000E+00  0.00000000000E+00  0.89988929962E+03  0.27908920733E+04  0.26418322833E+04 0.  0.
        5    1    3    3  502    0  0.35437022181E+03 -0.93481741870E+02  0.17905949321E+04  0.18277224600E+04  0.46999998093E+01 0. -1.
       -5    1    3    3    0  502 -0.35437022181E+03  0.93481741870E+02 -0.89070563246E+03  0.96316961324E+03  0.46999998093E+01 0.  1.
</event>
<event>
 5   0  0.1438701E-05  0.2680602E+04  0.7818609E-02  0.8341327E-01
       -1   -1    0    0    0  501  0.00000000000E+00  0.00000000000E+00  0.88143469146E+03  0.88143469148E+03  0.50400001928E-02 0.  1.
        1   -1    0    0  501    0  0.00000000000E+00  0.00000000000E+00 -0.20380484264E+04  0.20380484264E+04  0.50400001928E-02 0. -1.
    10030    2    1    2    0    0  0.00000000000E+00  0.00000000000E+00 -0.11566137349E+04  0.29194831179E+04  0.26806018622E+04 0.  0.
        4    1    3    3  502    0 -0.90683982362E+03 -0.98341743888E+03 -0.48759826229E+03  0.14238054653E+04  0.12699999809E+01 0.  1.
       -4    1    3    3    0  502  0.90683982362E+03  0.98341743888E+03 -0.66901547262E+03  0.14956776525E+04  0.12699999809E+01 0. -1.
</event>
<event>
 5   0  0.1474012E-05  0.2674063E+04  0.7818609E-02  0.8343470E-01
       -1   -1    0    0    0  501  0.00000000000E+00  0.00000000000E+00  0.12687077820E+04  0.12687077820E+04  0.50400001928E-02 0. -1.
        1   -1    0    0  501    0  0.00000000000E+00  0.00000000000E+00 -0.14090351137E+04  0.14090351137E+04  0.50400001928E-02 0.  1.
    10030    2    1    2    0    0  0.00000000000E+00  0.00000000000E+00 -0.14032733173E+03  0.26777428957E+04  0.26740634352E+04 0.  0.
        2    1    3    3  502    0  0.11524588298E+04  0.37783070454E+03  0.49340413335E+03  0.13093376320E+04  0.25500000920E-02 0. -1.
       -2    1    3    3    0  502 -0.11524588298E+04 -0.37783070454E+03 -0.63373146508E+03  0.13684052637E+04  0.25500000920E-02 0.  1.
</event>
<event>
 5   0  0.1723872E-05  0.1373451E+04  0.7818609E-02  0.8973263E-01
       -1   -1    0    0    0  501  0.00000000000E+00  0.00000000000E+00  0.26708950796E+03  0.26708950801E+03  0.50400001928E-02 0. -1.
        1   -1    0    0  501    0  0.00000000000E+00  0.00000000000E+00 -0.17656702010E+04  0.17656702010E+04  0.50400001928E-02 0.  1.
    10030    2    1    2    0    0  0.00000000000E+00  0.00000000000E+00 -0.14985806930E+04  0.20327597090E+04  0.13734511062E+04 0.  0.
        1    1    3    3  502    0  0.19893110884E+03 -0.36835823090E+03 -0.15549675958E+04  0.16103371064E+04  0.50400001928E-02 0.  1.
       -1    1    3    3    0  502 -0.19893110884E+03  0.36835823090E+03  0.56386902767E+02  0.42242260257E+03  0.50400001928E-02 0. -1.
</event>
<event>
 5   0  0.1495517E-05  0.2644038E+04  0.7818609E-02  0.8353395E-01
        1   -1    0    0  501    0  0.00000000000E+00  0.00000000000E+00  0.17248707332E+04  0.17248707332E+04  0.50400001928E-02 0. -1.
       -1   -1    0    0    0  501  0.00000000000E+00  0.00000000000E+00 -0.10132552291E+04  0.10132552291E+04  0.50400001928E-02 0.  1.
    10030    2    1    2    0    0  0.00000000000E+00  0.00000000000E+00  0.71161550407E+03  0.27381259623E+04  0.26440380405E+04 0.  0.
        5    1    3    3  502    0 -0.12613029444E+04  0.25937562444E+03  0.45907566789E+02  0.12885225752E+04  0.46999998093E+01 0. -1.
       -5    1    3    3    0  502  0.12613029444E+04 -0.25937562444E+03  0.66570793728E+03  0.14496033871E+04  0.46999998093E+01 0.  1.
</event>
<event>
 5   0  0.3497949E-05  0.2343339E+04  0.7818609E-02  0.8461027E-01
       -2   -1    0    0    0  501  0.00000000000E+00  0.00000000000E+00  0.10237725334E+04  0.10237725334E+04  0.25500000920E-02 0.  1.
        2   -1    0    0  501    0  0.00000000000E+00  0.00000000000E+00 -0.13409319127E+04  0.13409319127E+04  0.25500000920E-02 0. -1.
    10030    2    1    2    0    0  0.00000000000E+00  0.00000000000E+00 -0.31715937929E+03  0.23647044461E+04  0.23433388670E+04 0.  0.
        5    1    3    3  502    0  0.36691416588E+03 -0.11086327691E+04 -0.62344840704E+02  0.11694449927E+04  0.46999998093E+01 0.  1.
       -5    1    3    3    0  502 -0.36691416588E+03  0.11086327691E+04 -0.25481453859E+03  0.11952594534E+04  0.46999998093E+01 0. -1.
</event>
<event>
 5   0  0.3676724E-05  0.2783749E+04  0.7818609E-02  0.8308331E-01
        2   -1    0    0  501    0  0.00000000000E+00  0.00000000000E+00  0.18961903470E+04  0.18961903470E+04  0.25500000920E-02 0. -1.
       -2   -1    0    0    0  501  0.00000000000E+00  0.00000000000E+00 -0.10216881804E+04  0.10216881804E+04  0.25500000920E-02 0.  1.
    10030    2    1    2    0    0  0.00000000000E+00  0.00000000000E+00  0.87450216664E+03  0.29178785274E+04  0.27837494609E+04 0.  0.
        4    1    3    3  502    0 -0.68279665370E+03 -0.59862213401E+03  0.15429493508E+04  0.17903223290E+04  0.12699999809E+01 0. -1.
       -4    1    3    3    0  502  0.68279665370E+03  0.59862213401E+03 -0.66844718414E+03  0.11275561984E+04  0.12699999809E+01 0.  1.
</event>
<event>
 5   0  0.1495517E-05  0.2490661E+04  0.7818609E-02  0.8406320E-01
        1   -1    0    0  501    0  0.00000000000E+00  0.00000000000E+00  0.89350977391E+03  0.89350977393E+03  0.50400001928E-02 0.  1.
       -1   -1    0    0    0  501  0.00000000000E+00  0.00000000000E+00 -0.17356811063E+04  0.17356811063E+04  0.50400001928E-02 0. -1.
    10030    2    1    2    0    0  0.00000000000E+00  0.00000000000E+00 -0.84217133241E+03  0.26291908803E+04  0.24906609829E+04 0.  0.
        5    1    3    3  502    0 -0.10020622182E+04 -0.41840334377E+03 -0.10646120059E+04  0.15207270828E+04  0.46999998093E+01 0. -1.
       -5    1    3    3    0  502  0.10020622182E+04  0.41840334377E+03  0.22244067348E+03  0.11084637975E+04  0.46999998093E+01 0.  1.
</event>
<event>
 5   0  0.1228050E-05  0.2583742E+04  0.7818609E-02  0.8373745E-01
       -3   -1    0    0    0  501  0.00000000000E+00  0.00000000000E+00  0.17375321018E+04  0.17375321047E+04  0.10100000352E+00 0. -1.
        3   -1    0    0  501    0  0.00000000000E+00  0.00000000000E+00 -0.96051760169E+03  0.96051760700E+03  0.10100000352E+00 0.  1.
    10030    2    1    2    0    0  0.00000000000E+00  0.00000000000E+00  0.77701450007E+03  0.26980497117E+04  0.25837416112E+04 0.  0.
        2    1    3    3  502    0  0.62733489842E+03  0.10391489501E+04  0.85028223533E+03  0.14820119753E+04  0.25500000920E-02 0. -1.
       -2    1    3    3    0  502 -0.62733489842E+03 -0.10391489501E+04 -0.73267735257E+02  0.12160377364E+04  0.25500000920E-02 0.  1.
</event>
<event>
 5   0  0.3652331E-05  0.2624817E+04  0.7818609E-02  0.8359820E-01
       -2   -1    0    0    0  501  0.00000000000E+00  0.00000000000E+00  0.11118472858E+04  0.11118472858E+04  0.25500000920E-02 0.  1.
        2   -1    0    0  501    0  0.00000000000E+00  0.00000000000E+00 -0.15491477764E+04  0.15491477764E+04  0.25500000920E-02 0. -1.
    10030    2    1    2    0    0  0.00000000000E+00  0.00000000000E+00 -0.43730049057E+03  0.26609950622E+04  0.26248167559E+04 0.  0.
        1    1    3    3  502    0 -0.67585106153E+03  0.49699852538E+03 -0.12418350195E+04  0.14986448569E+04  0.50400001928E-02 0. -1.
       -1    1    3    3    0  502  0.67585106153E+03 -0.49699852538E+03  0.80453452889E+03  0.11623502053E+04  0.50400001928E-02 0.  1.
</event>
<event>
 5   0  0.3676724E-05  0.2735449E+04  0.7818609E-02  0.8323594E-01
        2   -1    0    0  501    0  0.00000000000E+00  0.00000000000E+00  0.22026967019E+04  0.22026967019E+04  0.25500000920E-02 0.  1.
       -2   -1    0    0    0  501  0.00000000000E+00  0.00000000000E+00 -0.84926368465E+03  0.84926368466E+03  0.25500000920E-02 0. -1.
    10030    2    1    2    0    0  0.00000000000E+00  0.00000000000E+00  0.13534330173E+04  0.30519603866E+04  0.27354490068E+04 0.  0.
        4    1    3    3  502    0  0.10162650330E+04  0.90402050885E+03  0.51650076090E+03  0.14549303580E+04  0.12699999809E+01 0.  1.
       -4    1    3    3    0  502 -0.10162650330E+04 -0.90402050885E+03  0.83693225638E+03  0.15970300286E+04  0.12699999809E+01 0. -1.
</event>
<event>
 5   0  0.3676724E-05  0.2731863E+04  0.7818609E-02  0.8324740E-01
        2   -1    0    0  501    0  0.00000000000E+00  0.00000000000E+00  0.14156941628E+04  0.14156941628E+04  0.25500000920E-02 0. -1.
       -2   -1    0    0    0  501  0.00000000000E+00  0.00000000000E+00 -0.13179183700E+04  0.13179183700E+04  0.25500000920E-02 0.  1.
    10030    2    1    2    0    0  0.00000000000E+00  0.00000000000E+00  0.97775792818E+02  0.27336125328E+04  0.27318633519E+04 0.  0.
        4    1    3    3  502    0  0.72762624405E+03  0.10794700314E+04  0.46276151504E+03  0.13816096888E+04  0.12699999809E+01 0. -1.
       -4    1    3    3    0  502 -0.72762624405E+03 -0.10794700314E+04 -0.36498572222E+03  0.13520028439E+04  0.12699999809E+01 0.  1.
</event>
<event>
 5   0  0.1438701E-05  0.2695505E+04  0.7818609E-02  0.8336465E-01
       -1   -1    0    0    0  501  0.00000000000E+00  0.00000000000E+00  0.12866508413E+04  0.12866508414E+04  0.50400001928E-02 0. -1.
        1   -1    0    0  501    0  0.00000000000E+00  0.00000000000E+00 -0.14117558273E+04  0.14117558273E+04  0.50400001928E-02 0.  1.
    10030    2    1    2    0    0  0.00000000000E+00  0.00000000000E+00 -0.12510498594E+03  0.26984066687E+04  0.26955050161E+04 0.  0.
        4    1    3    3  502    0 -0.10829951138E+03 -0.22884518181E+02 -0.14071971086E+04  0.14115444735E+04  0.12699999809E+01 0.  1.
       -4    1    3    3    0  502  0.10829951138E+03  0.22884518181E+02  0.12820921227E+04  0.12868621951E+04  0.12699999809E+01 0. -1.
</event>
<event>
 5   0  0.1449521E-05  0.1374892E+04  0.7818609E-02  0.8972197E-01
        1   -1    0    0  501    0  0.00000000000E+00  0.00000000000E+00  0.10558258236E+04  0.10558258236E+04  0.50400001928E-02 0.  1.
       -1   -1    0    0    0  501  0.00000000000E+00  0.00000000000E+00 -0.44759435950E+03  0.44759435953E+03  0.50400001928E-02 0. -1.
    10030    2    1    2    0    0  0.00000000000E+00  0.00000000000E+00  0.60823146409E+03  0.15034201831E+04  0.13748915350E+04 0.  0.
        3    1    3    3  502    0 -0.18735983639E+02  0.60257694051E+03 -0.57117196739E+02  0.60556782501E+03  0.10100000352E+00 0. -1.
       -3    1    3    3    0  502  0.18735983639E+02 -0.60257694051E+03  0.66534866083E+03  0.89785235813E+03  0.10100000352E+00 0.  1.
</event>
<event>
 5   0  0.1449521E-05  0.2745527E+04  0.7818609E-02  0.8320382E-01
        1   -1    0    0  501    0  0.00000000000E+00  0.00000000000E+00  0.18329692742E+04  0.18329692742E+04  0.50400001928E-02 0.  1.
       -1   -1    0    0    0  501  0.00000000000E+00  0.00000000000E+00 -0.10281020084E+04  0.10281020084E+04  0.50400001928E-02 0. -1.
    10030    2    1    2    0    0  0.00000000000E+00  0.00000000000E+00  0.80486726583E+03  0.28610712826E+04  0.27455268289E+04 0.  0.
        3    1    3    3  502    0 -0.10032022309E+04 -0.92784645909E+03  0.53896506937E+03  0.14689442208E+04  0.10100000352E+00 0. -1.
       -3    1    3    3    0  502  0.10032022309E+04  0.92784645909E+03  0.26590219646E+03  0.13921270617E+04  0.10100000352E+00 0.  1.
</event>
<event>
 5   0  0.3676724E-05  0.2043577E+04  0.7818609E-02  0.8586514E-01
        2   -1    0    0  501    0  0.00000000000E+00  0.00000000000E+00  0.72159134708E+03  0.72159134708E+03  0.25500000920E-02 0. -1.
       -2   -1    0    0    0  501  0.00000000000E+00  0.00000000000E+00 -0.14468738741E+04  0.14468738741E+04  0.25500000920E-02 0.  1.
    10030    2    1    2    0    0  0.00000000000E+00  0.00000000000E+00 -0.72528252701E+03  0.21684652212E+04  0.20435769306E+04 0.  0.
        4    1    3    3  502    0  0.74401760575E+02 -0.60733080961E+03 -0.12309813600E+04  0.13746647067E+04  0.12699999809E+01 0.  1.
       -4    1    3    3    0  502 -0.74401760575E+02  0.60733080961E+03  0.50569883296E+03  0.79380051451E+03  0.12699999809E+01 0. -1.
</event>
<event>
 5   0  0.1438701E-05  0.2706819E+04  0.7818609E-02  0.8332796E-01
       -1   -1    0    0    0  501  0.00000000000E+00  0.00000000000E+00  0.96553387279E+03  0.96553387280E+03  0.50400001928E-02 0. -1.
        1   -1    0    0  501    0  0.00000000000E+00  0.00000000000E+00 -0.18971027867E+04  0.18971027867E+04  0.50400001928E-02 0.  1.
    10030    2    1    2    0    0  0.00000000000E+00  0.00000000000E+00 -0.93156891390E+03  0.28626366595E+04  0.27068187976E+04 0.  0.
        4    1    3    3  502    0 -0.15721131470E+03 -0.48945057285E+03  0.85825902632E+03  0.10004436165E+04  0.12699999809E+01 0. -1.
       -4    1    3    3    0  502  0.15721131470E+03  0.48945057285E+03 -0.17898279402E+04  0.18621930429E+04  0.12699999809E+01 0.  1.
</event>
<event>
 5   0  0.3652331E-05  0.2662403E+04  0.7818609E-02  0.8347308E-01
       -2   -1    0    0    0  501  0.00000000000E+00  0.00000000000E+00  0.99674955434E+03  0.99674955434E+03  0.25500000920E-02 0. -1.
        2   -1    0    0  501    0  0.00000000000E+00  0.00000000000E+00 -0.17778759971E+04  0.17778759971E+04  0.25500000920E-02 0.  1.
    10030    2    1    2    0    0  0.00000000000E+00  0.00000000000E+00 -0.78112644272E+03  0.27746255514E+04  0.26624027552E+04 0.  0.
        1    1    3    3  502    0  0.12887320895E+04 -0.27054520994E+03 -0.59390820623E+03  0.14445594714E+04  0.50400001928E-02 0.  1.
       -1    1    3    3    0  502 -0.12887320895E+04  0.27054520994E+03 -0.18721823648E+03  0.13300660800E+04  0.50400001928E-02 0. -1.
</event>
<event>
 5   0  0.1495517E-05  0.2462095E+04  0.7818609E-02  0.8416615E-01
       -1   -1    0    0    0  501  0.00000000000E+00  0.00000000000E+00  0.50188937129E+03  0.50188937131E+03  0.50400001928E-02 0.  1.
        1   -1    0    0  501    0  0.00000000000E+00  0.00000000000E+00 -0.30195447087E+04  0.30195447087E+04  0.50400001928E-02 0. -1.
    10030    2    1    2    0    0  0.00000000000E+00  0.00000000000E+00 -0.25176553374E+04  0.35214340800E+04  0.24620945518E+04 0.  0.
        5    1    3    3  502    0  0.64080539592E+03 -0.20664361009E+03 -0.27328432440E+04  0.28145670046E+04  0.46999998093E+01 0. -1.
       -5    1    3    3    0  502 -0.64080539592E+03  0.20664361009E+03  0.21518790668E+03  0.70686707535E+03  0.46999998093E+01 0.  1.
</event>
<event>
 5   0  0.3568647E-05  0.2702659E+04  0.7818609E-02  0.8334143E-01
        2   -1    0    0  501    0  0.00000000000E+00  0.00000000000E+00  0.21617995948E+04  0.21617995948E+04  0.25500000920E-02 0. -1.
       -2   -1    0    0    0  501  0.00000000000E+00  0.00000000000E+00 -0.84470863640E+03  0.84470863641E+03  0.25500000920E-02 0.  1.
    10030    2    1    2    0    0  0.00000000000E+00  0.00000000000E+00  0.13170909584E+04  0.30065082312E+04  0.27026585341E+04 0.  0.
        3    1    3    3  502    0  0.82531965096E+01  0.10904757048E+04  0.15463183415E+04  0.18921696017E+04  0.10100000352E+00 0. -1.
       -3    1    3    3    0  502 -0.82531965096E+01 -0.10904757048E+04 -0.22922738308E+03  0.11143386296E+04  0.10100000352E+00 0.  1.
</event>
<event>
 5   0  0.3652331E-05  0.1341480E+04  0.7818609E-02  0.8997303E-01
       -2   -1    0    0    0  501  0.00000000000E+00  0.00000000000E+00  0.33498151854E+03  0.33498151855E+03  0.25500000920E-02 0. -1.
        2   -1    0    0  501    0  0.00000000000E+00  0.00000000000E+00 -0.13430359793E+04  0.13430359793E+04  0.25500000920E-02 0.  1.
    10030    2    1    2    0    0  0.00000000000E+00  0.00000000000E+00 -0.10080544608E+04  0.16780174979E+04  0.13414801256E+04 0.  0.
        1    1    3    3  502    0  0.64691351397E+01  0.34679828419E+03 -0.12221414803E+04  0.12704096574E+04  0.50400001928E-02 0.  1.
       -1    1    3    3    0  502 -0.64691351397E+01 -0.34679828419E+03  0.21408701958E+03  0.40760784046E+03  0.50400001928E-02 0. -1.
</event>
<event>
 5   0  0.1495517E-05  0.2653411E+04  0.7818609E-02  0.8350282E-01
       -1   -1    0    0    0  501  0.00000000000E+00  0.00000000000E+00  0.92850662206E+03  0.92850662208E+03  0.50400001928E-02 0. -1.
        1   -1    0    0  501    0  0.00000000000E+00  0.00000000000E+00 -0.18956751448E+04  0.18956751448E+04  0.50400001928E-02 0.  1.
    10030    2    1    2    0    0  0.00000000000E+00  0.00000000000E+00 -0.96716852269E+03  0.28241817668E+04  0.26534105790E+04 0.  0.
        5    1    3    3  502    0 -0.10420718161E+04  0.81853997593E+03 -0.41457739273E+03  0.13884588099E+04  0.46999998093E+01 0. -1.
       -5    1    3    3    0  502  0.10420718161E+04 -0.81853997593E+03 -0.55259112997E+03  0.14357229570E+04  0.46999998093E+01 0.  1.
</event>
<event>
 5   0  0.1474012E-05  0.2395097E+04  0.7818609E-02  0.8441341E-01
       -1   -1    0    0    0  501  0.00000000000E+00  0.00000000000E+00  0.13418310219E+04  0.13418310220E+04  0.50400001928E-02 0.  1.
        1   -1    0    0  501    0  0.00000000000E+00  0.00000000000E+00 -0.10687800963E+04  0.10687800963E+04  0.50400001928E-02 0. -1.
    10030    2    1    2    0    0  0.00000000000E+00  0.00000000000E+00  0.27305092561E+03  0.24106111183E+04  0.23950968990E+04 0.  0.
        2    1    3    3  502    0 -0.40915969027E+03  0.13488397358E+03 -0.98808284719E+03  0.10779207074E+04  0.25500000920E-02 0. -1.
       -2    1    3    3    0  502  0.40915969027E+03 -0.13488397358E+03  0.12611337728E+04  0.13326904109E+04  0.25500000920E-02 0.  1.
</event>
<event>
 5   0  0.3514294E-05  0.2682809E+04  0.7818609E-02  0.8340604E-01
        2   -1    0    0  501    0  0.00000000000E+00  0.00000000000E+00  0.20417852093E+04  0.20417852093E+04  0.25500000920E-02 0. -1.
       -2   -1    0    0    0  501  0.00000000000E+00  0.00000000000E+00 -0.88127115577E+03  0.88127115578E+03  0.25500000920E-02 0.  1.
    10030    2    1    2    0    0  0.00000000000E+00  0.00000000000E+00  0.11605140535E+04  0.29230563651E+04  0.26828092823E+04 0.  0.
        2    1    3    3  502    0 -0.13883450648E+03  0.82480025360E+03  0.17228812961E+04  0.19151737360E+04  0.25500000920E-02 0. -1.
       -2    1    3    3    0  502  0.13883450648E+03 -0.82480025360E+03 -0.56236724257E+03  0.10078826291E+04  0.25500000920E-02 0.  1.
</event>
<event>
 5   0  0.3514294E-05  0.2603247E+04  0.7818609E-02  0.8367099E-01
        2   -1    0    0  501    0  0.00000000000E+00  0.00000000000E+00  0.25693072680E+04  0.25693072680E+04  0.25500000920E-02 0.  1.
       -2   -1    0    0    0  501  0.00000000000E+00  0.00000000000E+00 -0.65940866921E+03  0.65940866921E+03  0.25500000920E-02 0. -1.
    10030    2    1    2    0    0  0.00000000000E+00  0.00000000000E+00  0.19098985988E+04  0.32287159372E+04  0.26032468084E+04 0.  0.
        2    1    3    3  502    0  0.65973853779E+03 -0.77772213525E+02 -0.43332782986E+03  0.79314340670E+03  0.25500000920E-02 0. -1.
       -2    1    3    3    0  502 -0.65973853779E+03  0.77772213525E+02  0.23432264286E+04  0.24355725305E+04  0.25500000920E-02 0.  1.
</event>
<event>
 5   0  0.1449521E-05  0.2628469E+04  0.7818609E-02  0.8358595E-01
       -1   -1    0    0    0  501  0.00000000000E+00  0.00000000000E+00  0.15219234431E+04  0.15219234431E+04  0.50400001928E-02 0. -1.
        1   -1    0    0  501    0  0.00000000000E+00  0.00000000000E+00 -0.11348875377E+04  0.11348875377E+04  0.50400001928E-02 0.  1.
    10030    2    1    2    0    0  0.00000000000E+00  0.00000000000E+00  0.38703590538E+03  0.26568109808E+04  0.26284687168E+04 0.  0.
        3    1    3    3  502    0 -0.12573113146E+04  0.37805072549E+03  0.25295546931E+03  0.13370641617E+04  0.10100000352E+00 0.  1.
       -3    1    3    3    0  502  0.12573113146E+04 -0.37805072549E+03  0.13408043608E+03  0.13197468191E+04  0.10100000352E+00 0. -1.
</event>
<event>
 5   0  0.1474012E-05  0.1432782E+04  0.7818609E-02  0.8930425E-01
       -1   -1    0    0    0  501  0.00000000000E+00  0.00000000000E+00  0.51725786259E+03  0.51725786262E+03  0.50400001928E-02 0.  1.
        1   -1    0    0  501    0  0.00000000000E+00  0.00000000000E+00 -0.99218559352E+03  0.99218559353E+03  0.50400001928E-02 0. -1.
    10030    2    1    2    0    0  0.00000000000E+00  0.00000000000E+00 -0.47492773093E+03  0.15094434561E+04  0.14327816295E+04 0.  0.
        2    1    3    3  502    0 -0.35303588904E+03  0.41293648050E+03 -0.72942381828E+03  0.90951084796E+03  0.25500000920E-02 0. -1.
       -2    1    3    3    0  502  0.35303588904E+03 -0.41293648050E+03  0.25449608735E+03  0.59993260819E+03  0.25500000920E-02 0.  1.
</event>
<event>
 5   0  0.3652331E-05  0.2677749E+04  0.7818609E-02  0.8342261E-01
        2   -1    0    0  501    0  0.00000000000E+00  0.00000000000E+00  0.26072053770E+04  0.26072053770E+04  0.25500000920E-02 0.  1.
       -2   -1    0    0    0  501  0.00000000000E+00  0.00000000000E+00 -0.68755022983E+03  0.68755022984E+03  0.25500000920E-02 0. -1.
    10030    2    1    2    0    0  0.00000000000E+00  0.00000000000E+00  0.19196551472E+04  0.32947556069E+04  0.26777487979E+04 0.  0.
        1    1    3    3  502    0 -0.10412693286E+04 -0.10702022827E+03  0.19869810422E+04  0.22458381077E+04  0.50400001928E-02 0.  1.
       -1    1    3    3    0  502  0.10412693286E+04  0.10702022827E+03 -0.67325894981E+02  0.10489174992E+04  0.50400001928E-02 0. -1.
</event>
<event>
 5   0  0.1438701E-05  0.2601779E+04  0.7818609E-02  0.8367597E-01
       -1   -1    0    0    0  501  0.00000000000E+00  0.00000000000E+00  0.18774415218E+04  0.18774415218E+04  0.50400001928E-02 0.  1.
        1   -1    0    0  501    0  0.00000000000E+00  0.00000000000E+00 -0.90139347267E+03  0.90139347269E+03  0.50400001928E-02 0. -1.
    10030    2    1    2    0    0  0.00000000000E+00  0.00000000000E+00  0.97604804911E+03  0.27788349945E+04  0.26017790322E+04 0.  0.
        4    1    3    3  502    0 -0.10417236418E+04 -0.36861898931E+03  0.12212117432E+04  0.16469450020E+04  0.12699999809E+01 0.  1.
       -4    1    3    3    0  502  0.10417236418E+04  0.36861898931E+03 -0.24516369406E+03  0.11318899924E+04  0.12699999809E+01 0. -1.
</event>
<event>
 5   0  0.3652331E-05  0.2630846E+04  0.7818609E-02  0.8357798E-01
        2   -1    0    0  501    0  0.00000000000E+00  0.00000000000E+00  0.11551732884E+04  0.11551732884E+04  0.25500000920E-02 0.  1.
       -2   -1    0    0    0  501  0.00000000000E+00  0.00000000000E+00 -0.14979036485E+04  0.14979036485E+04  0.25500000920E-02 0. -1.
    10030    2    1    2    0    0  0.00000000000E+00  0.00000000000E+00 -0.34273036007E+03  0.26530769368E+04  0.26308464670E+04 0.  0.
        1    1    3    3  502    0 -0.18736750122E+03  0.64584980128E+03  0.96872291856E+03  0.11792593605E+04  0.50400001928E-02 0.  1.
       -1    1    3    3    0  502  0.18736750122E+03 -0.64584980128E+03 -0.13114532786E+04  0.14738175764E+04  0.50400001928E-02 0. -1.
</event>
<event>
 5   0  0.2405540E-05  0.1352199E+04  0.7818609E-02  0.8989165E-01
        1   -1    0    0  501    0  0.00000000000E+00  0.00000000000E+00  0.80167802819E+03  0.80167802821E+03  0.50400001928E-02 0. -1.
       -1   -1    0    0    0  501  0.00000000000E+00  0.00000000000E+00 -0.57019233087E+03  0.57019233090E+03  0.50400001928E-02 0.  1.
    10030    2    1    2    0    0  0.00000000000E+00  0.00000000000E+00  0.23148569732E+03  0.13718703591E+04  0.13521991917E+04 0.  0.
        1    1    3    3  502    0 -0.17831687404E+03  0.51463780984E+03  0.52214693776E+03  0.75451070736E+03  0.50400001928E-02 0. -1.
       -1    1    3    3    0  502  0.17831687404E+03 -0.51463780984E+03 -0.29066124044E+03  0.61735965175E+03  0.50400001928E-02 0.  1.
</event>
<event>
 5   0  0.3676724E-05  0.2442489E+04  0.7818609E-02  0.8423765E-01
        2   -1    0    0  501    0  0.00000000000E+00  0.00000000000E+00  0.19520914864E+04  0.19520914864E+04  0.25500000920E-02 0. -1.
       -2   -1    0    0    0  501  0.00000000000E+00  0.00000000000E+00 -0.76402066877E+03  0.76402066877E+03  0.25500000920E-02 0.  1.
    10030    2    1    2    0    0  0.00000000000E+00  0.00000000000E+00  0.11880708177E+04  0.27161121552E+04  0.24424890935E+04 0.  0.
        4    1    3    3  502    0 -0.73400184315E+03  0.97578719443E+03  0.61932699266E+03  0.13691190201E+04  0.12699999809E+01 0. -1.
       -4    1    3    3    0  502  0.73400184315E+03 -0.97578719443E+03  0.56874382501E+03  0.13469931351E+04  0.12699999809E+01 0.  1.
</event>
<event>
 5   0  0.1228050E-05  0.1479100E+04  0.7818609E-02  0.8898472E-01
       -3   -1    0    0    0  501  0.00000000000E+00  0.00000000000E+00  0.82145932519E+03  0.82145933140E+03  0.10100000352E+00 0. -1.
        3   -1    0    0  501    0  0.00000000000E+00  0.00000000000E+00 -0.66580774666E+03  0.66580775432E+03  0.10100000352E+00 0.  1.
    10030    2    1    2    0    0  0.00000000000E+00  0.00000000000E+00  0.15565157853E+03  0.14872670857E+04  0.14790997162E+04 0.  0.
        2    1    3    3  502    0 -0.35595382237E+02 -0.28378408256E+03 -0.60794715811E+03  0.67186321808E+03  0.25500000920E-02 0.  1.
       -2    1    3    3    0  502  0.35595382237E+02  0.28378408256E+03  0.76359873664E+03  0.81540386764E+03  0.25500000920E-02 0. -1.
</event>
<event>
 5   0  0.3568647E-05  0.2721572E+04  0.7818609E-02  0.8328039E-01
       -2   -1    0    0    0  501  0.00000000000E+00  0.00000000000E+00  0.14280419904E+04  0.14280419904E+04  0.25500000920E-02 0. -1.
        2   -1    0    0  501    0  0.00000000000E+00  0.00000000000E+00 -0.12966977423E+04  0.12966977423E+04  0.25500000920E-02 0.  1.
    10030    2    1    2    0    0  0.00000000000E+00  0.00000000000E+00  0.13134424811E+03  0.27247397327E+04  0.27215722110E+04 0.  0.
        3    1    3    3  502    0  0.86750068243E+03  0.10301837010E+04 -0.12924119345E+03  0.13529742008E+04  0.10100000352E+00 0.  1.
       -3    1    3    3    0  502 -0.86750068243E+03 -0.10301837010E+04  0.26058544155E+03  0.13717655319E+04  0.10100000352E+00 0. -1.
</event>
<event>
 5   0  0.3514294E-05  0.2671434E+04  0.7818609E-02  0.8344334E-01
        2   -1    0    0  501    0  0.00000000000E+00  0.00000000000E+00  0.16930802456E+04  0.16930802456E+04  0.25500000920E-02 0.  1.
       -2   -1    0    0    0  501  0.00000000000E+00  0.00000000000E+00 -0.10537832871E+04  0.10537832871E+04  0.25500000920E-02 0. -1.
    10030    2    1    2    0    0  0.00000000000E+00  0.00000000000E+00  0.63929695852E+03  0.27468635327E+04  0.26714338221E+04 0.  0.
        2    1    3    3  502    0 -0.84054126663E+03  0.84808907439E+03 -0.29589891454E+03  0.12301710721E+04  0.25500000920E-02 0. -1.
       -2    1    3    3    0  502  0.84054126663E+03 -0.84808907439E+03  0.93519587306E+03  0.15166924606E+04  0.25500000920E-02 0.  1.
</event>
<event>
 5   0  0.3652331E-05  0.1764809E+04  0.7818609E-02  0.8725241E-01
        2   -1    0    0  501    0  0.00000000000E+00  0.00000000000E+00  0.24933593466E+04  0.24933593466E+04  0.25500000920E-02 0. -1.
       -2   -1    0    0    0  501  0.00000000000E+00  0.00000000000E+00 -0.31228470013E+03  0.31228470014E+03  0.25500000920E-02 0.  1.
    10030    2    1    2    0    0  0.00000000000E+00  0.00000000000E+00  0.21810746465E+04  0.28056440467E+04  0.17648093108E+04 0.  0.
        1    1    3    3  502    0  0.75845481412E+03 -0.26900528910E+03  0.51509170558E+03  0.95547737587E+03  0.50400001928E-02 0.  1.
       -1    1    3    3    0  502 -0.75845481412E+03  0.26900528910E+03  0.16659829409E+04  0.18501666709E+04  0.50400001928E-02 0. -1.
</event>
<event>
 5   0  0.1474012E-05  0.1475102E+04  0.7818609E-02  0.8901181E-01
        1   -1    0    0  501    0  0.00000000000E+00  0.00000000000E+00  0.97768359878E+03  0.97768359879E+03  0.50400001928E-02 0.  1.
       -1   -1    0    0    0  501  0.00000000000E+00  0.00000000000E+00 -0.55639844021E+03  0.55639844023E+03  0.50400001928E-02 0. -1.
    10030    2    1    2    0    0  0.00000000000E+00  0.00000000000E+00  0.42128515857E+03  0.15340820390E+04  0.14751022058E+04 0.  0.
        2    1    3    3  502    0 -0.64682010687E+03  0.12382006447E+03 -0.13471021841E+03  0.67220123622E+03  0.25500000920E-02 0. -1.
       -2    1    3    3    0  502  0.64682010687E+03 -0.12382006447E+03  0.55599537697E+03  0.86188080281E+03  0.25500000920E-02 0.  1.
</event>
<event>
 5   0  0.3514294E-05  0.2739600E+04  0.7818609E-02  0.8322269E-01
       -2   -1    0    0    0  501  0.00000000000E+00  0.00000000000E+00  0.13700190338E+04  0.13700190338E+04  0.25500000920E-02 0. -1.
        2   -1    0    0  501    0  0.00000000000E+00  0.00000000000E+00 -0.13695809983E+04  0.13695809983E+04  0.25500000920E-02 0.  1.
    10030    2    1    2    0    0  0.00000000000E+00  0.00000000000E+00  0.43803550168E+00  0.27396000321E+04  0.27395999971E+04 0.  0.
        2    1    3    3  502    0  0.10894297098E+04 -0.82732204511E+03 -0.70725871395E+02  0.13697886726E+04  0.25500000920E-02 0. -1.
       -2    1    3    3    0  502 -0.10894297098E+04  0.82732204511E+03  0.71163906897E+02  0.13698113594E+04  0.25500000920E-02 0.  1.
</event>
<event>
 5   0  0.1449521E-05  0.1779459E+04  0.7818609E-02  0.8717300E-01
        1   -1    0    0  501    0  0.00000000000E+00  0.00000000000E+00  0.17296214601E+04  0.17296214601E+04  0.50400001928E-02 0.  1.
       -1   -1    0    0    0  501  0.00000000000E+00  0.00000000000E+00 -0.45768295739E+03  0.45768295741E+03  0.50400001928E-02 0. -1.
    10030    2    1    2    0    0  0.00000000000E+00  0.00000000000E+00  0.12719385027E+04  0.21873044175E+04  0.17794586425E+04 0.  0.
        3    1    3    3  502    0 -0.46995713067E+03  0.47147046725E+03 -0.89646353968E+02  0.67169977307E+03  0.10100000352E+00 0. -1.
       -3    1    3    3    0  502  0.46995713067E+03 -0.47147046725E+03  0.13615848567E+04  0.15156046445E+04  0.10100000352E+00 0.  1.
</event>
<event>
 5   0  0.1438701E-05  0.2054516E+04  0.7818609E-02  0.8581548E-01
        1   -1    0    0  501    0  0.00000000000E+00  0.00000000000E+00  0.65368849993E+03  0.65368849995E+03  0.50400001928E-02 0. -1.
       -1   -1    0    0    0  501  0.00000000000E+00  0.00000000000E+00 -0.16143150499E+04  0.16143150499E+04  0.50400001928E-02 0.  1.
    10030    2    1    2    0    0  0.00000000000E+00  0.00000000000E+00 -0.96062654993E+03  0.22680035498E+04  0.20545161799E+04 0.  0.
        4    1    3    3  502    0  0.30426836784E+03 -0.93378665301E+03 -0.14781634350E+03  0.99317069898E+03  0.12699999809E+01 0. -1.
       -4    1    3    3    0  502 -0.30426836784E+03  0.93378665301E+03 -0.81281020643E+03  0.12748328508E+04  0.12699999809E+01 0.  1.
</event>
<event>
 5   0  0.1474012E-05  0.2632073E+04  0.7818609E-02  0.8357388E-01
        1   -1    0    0  501    0  0.00000000000E+00  0.00000000000E+00  0.15737293494E+04  0.15737293494E+04  0.50400001928E-02 0.  1.
       -1   -1    0    0    0  501  0.00000000000E+00  0.00000000000E+00 -0.11005399407E+04  0.11005399407E+04  0.50400001928E-02 0. -1.
    10030    2    1    2    0    0  0.00000000000E+00  0.00000000000E+00  0.47318940871E+03  0.26742692900E+04  0.26320729509E+04 0.  0.
        2    1    3    3  502    0  0.17594025239E+03 -0.93110231237E+03  0.11644966621E+04  0.15013190749E+04  0.25500000920E-02 0.  1.
       -2    1    3    3    0  502 -0.17594025239E+03  0.93110231237E+03 -0.69130725343E+03  0.11729502151E+04  0.25500000920E-02 0. -1.
</event>
<event>
 5   0  0.1495517E-05  0.2638462E+04  0.7818609E-02  0.8355253E-01
       -1   -1    0    0    0  501  0.00000000000E+00  0.00000000000E+00  0.84606714643E+03  0.84606714644E+03  0.50400001928E-02 0.  1.
        1   -1    0    0  501    0  0.00000000000E+00  0.00000000000E+00 -0.20570128500E+04  0.20570128500E+04  0.50400001928E-02 0. -1.
    10030    2    1    2    0    0  0.00000000000E+00  0.00000000000E+00 -0.12109457036E+04  0.29030799965E+04  0.26384624251E+04 0.  0.
        5    1    3    3  502    0  0.77616011742E+03  0.65232432549E+03  0.32321387158E+03  0.10641620414E+04  0.46999998093E+01 0.  1.
       -5    1    3    3    0  502 -0.77616011742E+03 -0.65232432549E+03 -0.15341595752E+04  0.18389179551E+04  0.46999998093E+01 0. -1.
</event>
<event>
 5   0  0.3568647E-05  0.2597144E+04  0.7818609E-02  0.8369172E-01
        2   -1    0    0  501    0  0.00000000000E+00  0.00000000000E+00  0.16762929027E+04  0.16762929027E+04  0.25500000920E-02 0.  1.
       -2   -1    0    0    0  501  0.00000000000E+00  0.00000000000E+00 -0.10059630445E+04  0.10059630445E+04  0.25500000920E-02 0. -1.
    10030    2    1    2    0    0  0.00000000000E+00  0.00000000000E+00  0.67032985819E+03  0.26822559473E+04  0.25971435940E+04 0.  0.
        3    1    3    3  502    0  0.16018233446E+03  0.11731435081E+04 -0.21556926750E+03  0.12034924969E+04  0.10100000352E+00 0.  1.
       -3    1    3    3    0  502 -0.16018233446E+03 -0.11731435081E+04  0.88589912569E+03  0.14787634503E+04  0.10100000352E+00 0. -1.
</event>
<event>
 5   0  0.3676724E-05  0.2677091E+04  0.7818609E-02  0.8342476E-01
       -2   -1    0    0    0  501  0.00000000000E+00  0.00000000000E+00  0.15453380946E+04  0.15453380946E+04  0.25500000920E-02 0.  1.
        2   -1    0    0  501    0  0.00000000000E+00  0.00000000000E+00 -0.11594256891E+04  0.11594256891E+04  0.25500000920E-02 0. -1.
    10030    2    1    2    0    0  0.00000000000E+00  0.00000000000E+00  0.38591240552E+03  0.27047637838E+04  0.26770914705E+04 0.  0.
        4    1    3    3  502    0 -0.25110634316E+03 -0.96211767861E+03  0.10983093655E+04  0.14815565795E+04  0.12699999809E+01 0.  1.
       -4    1    3    3    0  502  0.25110634316E+03  0.96211767861E+03 -0.71239695996E+03  0.12232072043E+04  0.12699999809E+01 0. -1.
</event>
<event>
 5   0  0.3568647E-05  0.2363090E+04  0.7818609E-02  0.8453453E-01
       -2   -1    0    0    0  501  0.00000000000E+00  0.00000000000E+00  0.67827115971E+03  0.67827115972E+03  0.25500000920E-02 0. -1.
        2   -1    0    0  501    0  0.00000000000E+00  0.00000000000E+00 -0.20582449246E+04  0.20582449246E+04  0.25500000920E-02 0.  1.
    10030    2    1    2    0    0  0.00000000000E+00  0.00000000000E+00 -0.13799737649E+04  0.27365160843E+04  0.23630896487E+04 0.  0.
        3    1    3    3  502    0 -0.22825407614E+02  0.11251895775E+04 -0.11066755942E+04  0.15783863486E+04  0.10100000352E+00 0.  1.
       -3    1    3    3    0  502  0.22825407614E+02 -0.11251895775E+04 -0.27329817075E+03  0.11581297357E+04  0.10100000352E+00 0. -1.
</event>
<event>
 5   0  0.1474012E-05  0.2642513E+04  0.7818609E-02  0.8353902E-01
       -1   -1    0    0    0  501  0.00000000000E+00  0.00000000000E+00  0.13756312445E+04  0.13756312445E+04  0.50400001928E-02 0. -1.
        1   -1    0    0  501    0  0.00000000000E+00  0.00000000000E+00 -0.12690313556E+04  0.12690313556E+04  0.50400001928E-02 0.  1.
    10030    2    1    2    0    0  0.00000000000E+00  0.00000000000E+00  0.10659988886E+03  0.26446626001E+04  0.26425133362E+04 0.  0.
        2    1    3    3  502    0  0.34983590392E+02 -0.55327722680E+03 -0.11470001759E+04  0.12739501344E+04  0.25500000920E-02 0.  1.
       -2    1    3    3    0  502 -0.34983590392E+02  0.55327722680E+03  0.12536000648E+04  0.13707124657E+04  0.25500000920E-02 0. -1.
</event>
<event>
 5   0  0.1228050E-05  0.2423580E+04  0.7818609E-02  0.8430728E-01
        4   -1    0    0  501    0  0.00000000000E+00  0.00000000000E+00  0.10475144675E+04  0.10475152373E+04  0.12699999809E+01 0.  1.
       -4   -1    0    0    0  501  0.00000000000E+00  0.00000000000E+00 -0.14018263307E+04  0.14018269060E+04  0.12699999809E+01 0. -1.
    10030    2    1    2    0    0  0.00000000000E+00  0.00000000000E+00 -0.35431186327E+03  0.24493421434E+04  0.24235800046E+04 0.  0.
        5    1    3    3  502    0  0.11071257951E+04  0.48017124114E+03 -0.28842150993E+03  0.12407662973E+04  0.46999998093E+01 0. -1.
       -5    1    3    3    0  502 -0.11071257951E+04 -0.48017124114E+03 -0.65890353346E+02  0.12085758461E+04  0.46999998093E+01 0.  1.
</event>
<event>
 5   0  0.1228050E-05  0.2548476E+04  0.7818609E-02  0.8385916E-01
        3   -1    0    0  501    0  0.00000000000E+00  0.00000000000E+00  0.12885232191E+04  0.12885232230E+04  0.10100000352E+00 0. -1.
       -3   -1    0    0    0  501  0.00000000000E+00  0.00000000000E+00 -0.12601113226E+04  0.12601113266E+04  0.10100000352E+00 0.  1.
    10030    2    1    2    0    0  0.00000000000E+00  0.00000000000E+00  0.28411896500E+02  0.25486345496E+04  0.25484761784E+04 0.  0.
        1    1    3    3  502    0 -0.49944458697E+03  0.61042244724E+03 -0.98666704112E+03  0.12631596533E+04  0.50400001928E-02 0.  1.
       -1    1    3    3    0  502  0.49944458697E+03 -0.61042244724E+03  0.10150789376E+04  0.12854748964E+04  0.50400001928E-02 0. -1.
</event>
<event>
 5   0  0.1228050E-05  0.1668743E+04  0.7818609E-02  0.8779395E-01
        3   -1    0    0  501    0  0.00000000000E+00  0.00000000000E+00  0.58791676323E+03  0.58791677191E+03  0.10100000352E+00 0.  1.
       -3   -1    0    0    0  501  0.00000000000E+00  0.00000000000E+00 -0.11841396318E+04  0.11841396361E+04  0.10100000352E+00 0. -1.
    10030    2    1    2    0    0  0.00000000000E+00  0.00000000000E+00 -0.59622286860E+03  0.17720564081E+04  0.16687427016E+04 0.  0.
        2    1    3    3  502    0 -0.31528915130E+03 -0.63211007600E+03 -0.76968265562E+03  0.10446921975E+04  0.25500000920E-02 0. -1.
       -2    1    3    3    0  502  0.31528915130E+03  0.63211007600E+03  0.17345978702E+03  0.72736421057E+03  0.25500000920E-02 0.  1.
</event>
<event>
 5   0  0.1438701E-05  0.2752697E+04  0.7818609E-02  0.8318106E-01
       -1   -1    0    0    0  501  0.00000000000E+00  0.00000000000E+00  0.69395639472E+03  0.69395639474E+03  0.50400001928E-02 0. -1.
        1   -1    0    0  501    0  0.00000000000E+00  0.00000000000E+00 -0.27297616690E+04  0.27297616691E+04  0.50400001928E-02 0.  1.
    10030    2    1    2    0    0  0.00000000000E+00  0.00000000000E+00 -0.20358052743E+04  0.34237180638E+04  0.27526972709E+04 0.  0.
        4    1    3    3  502    0 -0.11725208570E+04  0.27916076716E+03 -0.18444221671E+04  0.22033226358E+04  0.12699999809E+01 0.  1.
       -4    1    3    3    0  502  0.11725208570E+04 -0.27916076716E+03 -0.19138310720E+03  0.12203954280E+04  0.12699999809E+01 0. -1.
</event>
<event>
 5   0  0.1484379E-05  0.2649970E+04  0.7818609E-02  0.8351423E-01
        1   -1    0    0  501    0  0.00000000000E+00  0.00000000000E+00  0.12433290349E+04  0.12433290350E+04  0.50400001928E-02 0.  1.
       -1   -1    0    0    0  501  0.00000000000E+00  0.00000000000E+00 -0.14120041100E+04  0.14120041100E+04  0.50400001928E-02 0. -1.
    10030    2    1    2    0    0  0.00000000000E+00  0.00000000000E+00 -0.16867507507E+03  0.26553331450E+04  0.26499703451E+04 0.  0.
        1    1    3    3  502    0  0.50690022367E+03  0.11890677105E+04  0.20738020632E+03  0.13091357480E+04  0.50400001928E-02 0.  1.
       -1    1    3    3    0  502 -0.50690022367E+03 -0.11890677105E+04 -0.37605528139E+03  0.13461973969E+04  0.50400001928E-02 0. -1.
</event>
<event>
 5   0  0.3676724E-05  0.2666064E+04  0.7818609E-02  0.8346101E-01
        2   -1    0    0  501    0  0.00000000000E+00  0.00000000000E+00  0.17830837781E+04  0.17830837781E+04  0.25500000920E-02 0. -1.
       -2   -1    0    0    0  501  0.00000000000E+00  0.00000000000E+00 -0.99657398588E+03  0.99657398589E+03  0.25500000920E-02 0.  1.
    10030    2    1    2    0    0  0.00000000000E+00  0.00000000000E+00  0.78650979222E+03  0.27796577640E+04  0.26660644463E+04 0.  0.
        4    1    3    3  502    0  0.67316075731E+03 -0.70579310808E+03 -0.55413252401E+03  0.11217636933E+04  0.12699999809E+01 0.  1.
       -4    1    3    3    0  502 -0.67316075731E+03  0.70579310808E+03  0.13406423162E+04  0.16578940707E+04  0.12699999809E+01 0. -1.
</event>
<event>
 5   0  0.3497949E-05  0.2705079E+04  0.7818609E-02  0.8333359E-01
        2   -1    0    0  501    0  0.00000000000E+00  0.00000000000E+00  0.95866431656E+03  0.95866431657E+03  0.25500000920E-02 0. -1.
       -2   -1    0    0    0  501  0.00000000000E+00  0.00000000000E+00 -0.19082414491E+04  0.19082414491E+04  0.25500000920E-02 0.  1.
    10030    2    1    2    0    0  0.00000000000E+00  0.00000000000E+00 -0.94957713258E+03  0.28669057657E+04  0.27050789154E+04 0.  0.
        5    1    3    3  502    0  0.39479615323E+03 -0.15327758024E+03  0.88657209610E+03  0.98254271704E+03  0.46999998093E+01 0. -1.
       -5    1    3    3    0  502 -0.39479615323E+03  0.15327758024E+03 -0.18361492287E+04  0.18843630487E+04  0.46999998093E+01 0.  1.
</event>
<event>
 5   0  0.1495517E-05  0.2135886E+04  0.7818609E-02  0.8545598E-01
        1   -1    0    0  501    0  0.00000000000E+00  0.00000000000E+00  0.20086511081E+04  0.20086511081E+04  0.50400001928E-02 0. -1.
       -1   -1    0    0    0  501  0.00000000000E+00  0.00000000000E+00 -0.56779492992E+03  0.56779492994E+03  0.50400001928E-02 0.  1.
    10030    2    1    2    0    0  0.00000000000E+00  0.00000000000E+00  0.14408561782E+04  0.25764460381E+04  0.21358856853E+04 0.  0.
        5    1    3    3  502    0  0.26308757626E+03  0.92284380186E+03  0.15512284622E+03  0.97208072856E+03  0.46999998093E+01 0. -1.
       -5    1    3    3    0  502 -0.26308757626E+03 -0.92284380186E+03  0.12857333320E+04  0.16043653095E+04  0.46999998093E+01 0.  1.
</event>
<event>
 5   0  0.3652331E-05  0.2746033E+04  0.7818609E-02  0.8320222E-01
       -2   -1    0    0    0  501  0.00000000000E+00  0.00000000000E+00  0.81689418294E+03  0.81689418294E+03  0.25500000920E-02 0.  1.
        2   -1    0    0  501    0  0.00000000000E+00  0.00000000000E+00 -0.23077332481E+04  0.23077332481E+04  0.25500000920E-02 0. -1.
    10030    2    1    2    0    0  0.00000000000E+00  0.00000000000E+00 -0.14908390652E+04  0.31246274311E+04  0.27460326773E+04 0.  0.
        1    1    3    3  502    0 -0.90434347784E+03 -0.28734425515E+03  0.38375207445E+03  0.10235572781E+04  0.50400001928E-02 0.  1.
       -1    1    3    3    0  502  0.90434347784E+03  0.28734425515E+03 -0.18745911397E+04  0.21010701530E+04  0.50400001928E-02 0. -1.
</event>
<event>
 5   0  0.3514294E-05  0.2548498E+04  0.7818609E-02  0.8385909E-01
        2   -1    0    0  501    0  0.00000000000E+00  0.00000000000E+00  0.15879265361E+04  0.15879265361E+04  0.25500000920E-02 0.  1.
       -2   -1    0    0    0  501  0.00000000000E+00  0.00000000000E+00 -0.10225347317E+04  0.10225347317E+04  0.25500000920E-02 0. -1.
    10030    2    1    2    0    0  0.00000000000E+00  0.00000000000E+00  0.56539180439E+03  0.26104612678E+04  0.25484976237E+04 0.  0.
        2    1    3    3  502    0  0.38062798010E+03 -0.77662863227E+03  0.12412261479E+04  0.15128357617E+04  0.25500000920E-02 0.  1.
       -2    1    3    3    0  502 -0.38062798010E+03  0.77662863227E+03 -0.67583434349E+03  0.10976255061E+04  0.25500000920E-02 0. -1.
</event>
<event>
 5   0  0.3514294E-05  0.2739141E+04  0.7818609E-02  0.8322416E-01
        2   -1    0    0  501    0  0.00000000000E+00  0.00000000000E+00  0.98161960504E+03  0.98161960505E+03  0.25500000920E-02 0.  1.
       -2   -1    0    0    0  501  0.00000000000E+00  0.00000000000E+00 -0.19108459056E+04  0.19108459056E+04  0.25500000920E-02 0. -1.
    10030    2    1    2    0    0  0.00000000000E+00  0.00000000000E+00 -0.92922630056E+03  0.28924655106E+04  0.27391413276E+04 0.  0.
        2    1    3    3  502    0 -0.20167639520E+03 -0.78775595368E+03  0.69911327910E+03  0.10723768871E+04  0.25500000920E-02 0.  1.
       -2    1    3    3    0  502  0.20167639520E+03  0.78775595368E+03 -0.16283395797E+04  0.18200886236E+04  0.25500000920E-02 0. -1.
</event>
<event>
 5   0  0.1438701E-05  0.2702104E+04  0.7818609E-02  0.8334323E-01
       -1   -1    0    0    0  501  0.00000000000E+00  0.00000000000E+00  0.18699682878E+04  0.18699682878E+04  0.50400001928E-02 0.  1.
        1   -1    0    0  501    0  0.00000000000E+00  0.00000000000E+00 -0.97613467343E+03  0.97613467344E+03  0.50400001928E-02 0. -1.
    10030    2    1    2    0    0  0.00000000000E+00  0.00000000000E+00  0.89383361437E+03  0.28461029613E+04  0.27021035391E+04 0.  0.
        4    1    3    3  502    0 -0.91478515613E+03 -0.86604479751E+03 -0.67445286011E+02  0.12615133581E+04  0.12699999809E+01 0. -1.
       -4    1    3    3    0  502  0.91478515613E+03  0.86604479751E+03  0.96127890038E+03  0.15845896031E+04  0.12699999809E+01 0.  1.
</event>
<event>
 5   0  0.1881140E-05  0.1468996E+04  0.7818609E-02  0.8905336E-01
        1   -1    0    0  501    0  0.00000000000E+00  0.00000000000E+00  0.10054397600E+04  0.10054397601E+04  0.50400001928E-02 0. -1.
       -1   -1    0    0    0  501  0.00000000000E+00  0.00000000000E+00 -0.53656845925E+03  0.53656845927E+03  0.50400001928E-02 0.  1.
    10030    2    1    2    0    0  0.00000000000E+00  0.00000000000E+00  0.46887130079E+03  0.15420082193E+04  0.14689959332E+04 0.  0.
        1    1    3    3  502    0 -0.42692038998E+03  0.34518708854E+03 -0.27774169216E+03  0.61526871615E+03  0.50400001928E-02 0.  1.
       -1    1    3    3    0  502  0.42692038998E+03 -0.34518708854E+03  0.74661299295E+03  0.92673950318E+03  0.50400001928E-02 0. -1.
</event>
<event>
 5   0  0.3497949E-05  0.2628360E+04  0.7818609E-02  0.8358631E-01
       -2   -1    0    0    0  501  0.00000000000E+00  0.00000000000E+00  0.55797033646E+03  0.55797033647E+03  0.25500000920E-02 0.  1.
        2   -1    0    0  501    0  0.00000000000E+00  0.00000000000E+00 -0.30952695229E+04  0.30952695229E+04  0.25500000920E-02 0. -1.
    10030    2    1    2    0    0  0.00000000000E+00  0.00000000000E+00 -0.25372991865E+04  0.36532398594E+04  0.26283596231E+04 0.  0.
        5    1    3    3  502    0 -0.82468246549E+03 -0.13278305838E+02  0.15341337710E+03  0.83894888793E+03  0.46999998093E+01 0.  1.
       -5    1    3    3    0  502  0.82468246549E+03  0.13278305838E+02 -0.26907125636E+04  0.28142909715E+04  0.46999998093E+01 0. -1.
</event>
<event>
 5   0  0.1495517E-05  0.2643852E+04  0.7818609E-02  0.8353456E-01
        1   -1    0    0  501    0  0.00000000000E+00  0.00000000000E+00  0.13616502067E+04  0.13616502067E+04  0.50400001928E-02 0.  1.
       -1   -1    0    0    0  501  0.00000000000E+00  0.00000000000E+00 -0.12833607906E+04  0.12833607906E+04  0.50400001928E-02 0. -1.
    10030    2    1    2    0    0  0.00000000000E+00  0.00000000000E+00  0.78289416114E+02  0.26450109974E+04  0.26438521032E+04 0.  0.
        5    1    3    3  502    0 -0.79168538693E+03  0.29815012514E+03 -0.97707962766E+03  0.12924263762E+04  0.46999998093E+01 0. -1.
       -5    1    3    3    0  502  0.79168538693E+03 -0.29815012514E+03  0.10553690438E+04  0.13525846212E+04  0.46999998093E+01 0.  1.
</event>
<event>
 5   0  0.3514294E-05  0.2657060E+04  0.7818609E-02  0.8349073E-01
       -2   -1    0    0    0  501  0.00000000000E+00  0.00000000000E+00  0.96976510264E+03  0.96976510264E+03  0.25500000920E-02 0. -1.
        2   -1    0    0  501    0  0.00000000000E+00  0.00000000000E+00 -0.18200205750E+04  0.18200205750E+04  0.25500000920E-02 0.  1.
    10030    2    1    2    0    0  0.00000000000E+00  0.00000000000E+00 -0.85025547232E+03  0.27897856776E+04  0.26570603604E+04 0.  0.
        2    1    3    3  502    0 -0.24784523305E+03  0.11204317401E+04 -0.11280451891E+04  0.16091241383E+04  0.25500000920E-02 0.  1.
       -2    1    3    3    0  502  0.24784523305E+03 -0.11204317401E+04  0.27778971681E+03  0.11806615393E+04  0.25500000920E-02 0. -1.
</event>
<event>
 5   0  0.3676724E-05  0.2685187E+04  0.7818609E-02  0.8339827E-01
       -2   -1    0    0    0  501  0.00000000000E+00  0.00000000000E+00  0.11934622822E+04  0.11934622822E+04  0.25500000920E-02 0.  1.
        2   -1    0    0  501    0  0.00000000000E+00  0.00000000000E+00 -0.15103594061E+04  0.15103594061E+04  0.25500000920E-02 0. -1.
    10030    2    1    2    0    0  0.00000000000E+00  0.00000000000E+00 -0.31689712395E+03  0.27038216883E+04  0.26851867598E+04 0.  0.
        4    1    3    3  502    0  0.12127404799E+04  0.41958154768E+03  0.23896399983E+03  0.13053327364E+04  0.12699999809E+01 0. -1.
       -4    1    3    3    0  502 -0.12127404799E+04 -0.41958154768E+03 -0.55586112378E+03  0.13984889519E+04  0.12699999809E+01 0.  1.
</event>
<event>
 5   0  0.1438701E-05  0.2792831E+04  0.7818609E-02  0.8305498E-01
       -1   -1    0    0    0  501  0.00000000000E+00  0.00000000000E+00  0.12938774909E+04  0.12938774909E+04  0.50400001928E-02 0.  1.
        1   -1    0    0  501    0  0.00000000000E+00  0.00000000000E+00 -0.15070791108E+04  0.15070791108E+04  0.50400001928E-02 0. -1.
    10030    2    1    2    0    0  0.00000000000E+00  0.00000000000E+00 -0.21320161989E+03  0.28009566017E+04  0.27928306346E+04 0.  0.
        4    1    3    3  502    0  0.72833453939E+03 -0.96319332782E+03 -0.80989828659E+03  0.14540114977E+04  0.12699999809E+01 0. -1.
       -4    1    3    3    0  502 -0.72833453939E+03  0.96319332782E+03  0.59669666669E+03  0.13469451039E+04  0.12699999809E+01 0.  1.
</event>
<event>
 5   0  0.3497949E-05  0.2660919E+04  0.7818609E-02  0.8347798E-01
        2   -1    0    0  501    0  0.00000000000E+00  0.00000000000E+00  0.16182437125E+04  0.16182437125E+04  0.25500000920E-02 0. -1.
       -2   -1    0    0    0  501  0.00000000000E+00  0.00000000000E+00 -0.10938538295E+04  0.10938538295E+04  0.25500000920E-02 0.  1.
    10030    2    1    2    0    0  0.00000000000E+00  0.00000000000E+00  0.52438988297E+03  0.27120975419E+04  0.26609186999E+04 0.  0.
        5    1    3    3  502    0  0.97257091181E+03  0.84921388007E+03  0.58936985393E+03  0.14193087428E+04  0.46999998093E+01 0.  1.
       -5    1    3    3    0  502 -0.97257091181E+03 -0.84921388007E+03 -0.64979970951E+02  0.12927887992E+04  0.46999998093E+01 0. -1.
</event>
<event>
 5   0  0.3568647E-05  0.2634306E+04  0.7818609E-02  0.8356641E-01
        2   -1    0    0  501    0  0.00000000000E+00  0.00000000000E+00  0.21300389137E+04  0.21300389137E+04  0.25500000920E-02 0.  1.
       -2   -1    0    0    0  501  0.00000000000E+00  0.00000000000E+00 -0.81448865397E+03  0.81448865397E+03  0.25500000920E-02 0. -1.
    10030    2    1    2    0    0  0.00000000000E+00  0.00000000000E+00  0.13155502598E+04  0.29445275677E+04  0.26343063814E+04 0.  0.
        3    1    3    3  502    0  0.66962415950E+03 -0.10725729241E+04  0.24543861416E+03  0.12880408829E+04  0.10100000352E+00 0.  1.
       -3    1    3    3    0  502 -0.66962415950E+03  0.10725729241E+04  0.10701116456E+04  0.16564866848E+04  0.10100000352E+00 0. -1.
</event>
<event>
 5   0  0.3676724E-05  0.2778920E+04  0.7818609E-02  0.8309843E-01
       -2   -1    0    0    0  501  0.00000000000E+00  0.00000000000E+00  0.68721174275E+03  0.68721174275E+03  0.25500000920E-02 0. -1.
        2   -1    0    0  501    0  0.00000000000E+00  0.00000000000E+00 -0.28093220705E+04  0.28093220705E+04  0.25500000920E-02 0.  1.
    10030    2    1    2    0    0  0.00000000000E+00  0.00000000000E+00 -0.21221103278E+04  0.34965338133E+04  0.27789200176E+04 0.  0.
        4    1    3    3  502    0  0.23761715752E+03 -0.34360215951E+03 -0.27284290141E+04  0.27602265949E+04  0.12699999809E+01 0.  1.
       -4    1    3    3    0  502 -0.23761715752E+03  0.34360215951E+03  0.60631868629E+03  0.73630721836E+03  0.12699999809E+01 0. -1.
</event>
<event>
 5   0  0.1474012E-05  0.2218282E+04  0.7818609E-02  0.8510857E-01
        1   -1    0    0  501    0  0.00000000000E+00  0.00000000000E+00  0.17150455349E+04  0.17150455349E+04  0.50400001928E-02 0.  1.
       -1   -1    0    0    0  501  0.00000000000E+00  0.00000000000E+00 -0.71729518497E+03  0.71729518499E+03  0.50400001928E-02 0. -1.
    10030    2    1    2    0    0  0.00000000000E+00  0.00000000000E+00  0.99775034992E+03  0.24323407199E+04  0.22182821319E+04 0.  0.
        2    1    3    3  502    0 -0.68630117737E+03  0.69717560817E+03  0.10719257379E+04  0.14512366872E+04  0.25500000920E-02 0.  1.
       -2    1    3    3    0  502  0.68630117737E+03 -0.69717560817E+03 -0.74175388022E+02  0.98110403265E+03  0.25500000920E-02 0. -1.
</event>
<event>
 5   0  0.3568647E-05  0.2665530E+04  0.7818609E-02  0.8346277E-01
        2   -1    0    0  501    0  0.00000000000E+00  0.00000000000E+00  0.18964847226E+04  0.18964847226E+04  0.25500000920E-02 0. -1.
       -2   -1    0    0    0  501  0.00000000000E+00  0.00000000000E+00 -0.93660819058E+03  0.93660819059E+03  0.25500000920E-02 0.  1.
    10030    2    1    2    0    0  0.00000000000E+00  0.00000000000E+00  0.95987653197E+03  0.28330929131E+04  0.26655304346E+04 0.  0.
        3    1    3    3  502    0 -0.12608994571E+04  0.34467762426E+03  0.20360825063E+03  0.13229234428E+04  0.10100000352E+00 0.  1.
       -3    1    3    3    0  502  0.12608994571E+04 -0.34467762426E+03  0.75626828134E+03  0.15101694703E+04  0.10100000352E+00 0. -1.
</event>
<event>
 5   0  0.1449521E-05  0.2525664E+04  0.7818609E-02  0.8393899E-01
        1   -1    0    0  501    0  0.00000000000E+00  0.00000000000E+00  0.87135034199E+03  0.87135034200E+03  0.50400001928E-02 0. -1.
       -1   -1    0    0    0  501  0.00000000000E+00  0.00000000000E+00 -0.18301988474E+04  0.18301988474E+04  0.50400001928E-02 0.  1.
    10030    2    1    2    0    0  0.00000000000E+00  0.00000000000E+00 -0.95884850539E+03  0.27015491894E+04  0.25256637873E+04 0.  0.
        3    1    3    3  502    0  0.21059754587E+03  0.11241063345E+03  0.84699612395E+03  0.87999427329E+03  0.10100000352E+00 0. -1.
       -3    1    3    3    0  502 -0.21059754587E+03 -0.11241063345E+03 -0.18058446293E+04  0.18215549161E+04  0.10100000352E+00 0.  1.
</event>
<event>
 5   0  0.3676724E-05  0.2721350E+04  0.7818609E-02  0.8328111E-01
        2   -1    0    0  501    0  0.00000000000E+00  0.00000000000E+00  0.21948403167E+04  0.21948403167E+04  0.25500000920E-02 0.  1.
       -2   -1    0    0    0  501  0.00000000000E+00  0.00000000000E+00 -0.84354028932E+03  0.84354028932E+03  0.25500000920E-02 0. -1.
    10030    2    1    2    0    0  0.00000000000E+00  0.00000000000E+00  0.13513000274E+04  0.30383806061E+04  0.27213498384E+04 0.  0.
        4    1    3    3  502    0  0.10861706253E+04 -0.28346550316E+03  0.15342035069E+04  0.19010263892E+04  0.12699999809E+01 0.  1.
       -4    1    3    3    0  502 -0.10861706253E+04  0.28346550316E+03 -0.18290347953E+03  0.11373542168E+04  0.12699999809E+01 0. -1.
</event>
<event>
 5   0  0.1484379E-05  0.2687205E+04  0.7818609E-02  0.8339169E-01
       -1   -1    0    0    0  501  0.00000000000E+00  0.00000000000E+00  0.13379407089E+04  0.13379407089E+04  0.50400001928E-02 0. -1.
        1   -1    0    0  501    0  0.00000000000E+00  0.00000000000E+00 -0.13492878357E+04  0.13492878357E+04  0.50400001928E-02 0.  1.
    10030    2    1    2    0    0  0.00000000000E+00  0.00000000000E+00 -0.11347126795E+02  0.26872285447E+04  0.26872045873E+04 0.  0.
        1    1    3    3  502    0  0.46531272608E+03 -0.57573716244E+03  0.11156204785E+04  0.13388794813E+04  0.50400001928E-02 0. -1.
       -1    1    3    3    0  502 -0.46531272608E+03  0.57573716244E+03 -0.11269676053E+04  0.13483490634E+04  0.50400001928E-02 0.  1.
</event>
<event>
 5   0  0.3497949E-05  0.2730257E+04  0.7818609E-02  0.8325254E-01
        2   -1    0    0  501    0  0.00000000000E+00  0.00000000000E+00  0.17359981241E+04  0.17359981241E+04  0.25500000920E-02 0. -1.
       -2   -1    0    0    0  501  0.00000000000E+00  0.00000000000E+00 -0.10734893810E+04  0.10734893810E+04  0.25500000920E-02 0.  1.
    10030    2    1    2    0    0  0.00000000000E+00  0.00000000000E+00  0.66250874303E+03  0.28094875051E+04  0.27302568023E+04 0.  0.
        5    1    3    3  502    0  0.10123315075E+04 -0.69741246829E+03  0.94207451639E+03  0.15487820107E+04  0.46999998093E+01 0.  1.
       -5    1    3    3    0  502 -0.10123315075E+04  0.69741246829E+03 -0.27956577337E+03  0.12607054944E+04  0.46999998093E+01 0. -1.
</event>
<event>
 5   0  0.1495517E-05  0.2695135E+04  0.7818609E-02  0.8336585E-01
       -1   -1    0    0    0  501  0.00000000000E+00  0.00000000000E+00  0.71567928933E+03  0.71567928935E+03  0.50400001928E-02 0.  1.
        1   -1    0    0  501    0  0.00000000000E+00  0.00000000000E+00 -0.25373630045E+04  0.25373630045E+04  0.50400001928E-02 0. -1.
    10030    2    1    2    0    0  0.00000000000E+00  0.00000000000E+00 -0.18216837152E+04  0.32530422938E+04  0.26951349887E+04 0.  0.
        5    1    3    3  502    0 -0.13438341779E+04 -0.91982026541E+01 -0.79049696559E+03  0.15591287462E+04  0.46999998093E+01 0.  1.
       -5    1    3    3    0  502  0.13438341779E+04  0.91982026541E+01 -0.10311867496E+04  0.16939135477E+04  0.46999998093E+01 0. -1.
</event>
<event>
 5   0  0.1495517E-05  0.2660772E+04  0.7818609E-02  0.8347846E-01
       -1   -1    0    0    0  501  0.00000000000E+00  0.00000000000E+00  0.16443919872E+04  0.16443919872E+04  0.50400001928E-02 0.  1.
        1   -1    0    0  501    0  0.00000000000E+00  0.00000000000E+00 -0.10763413332E+04  0.10763413333E+04  0.50400001928E-02 0. -1.
    10030    2    1    2    0    0  0.00000000000E+00  0.00000000000E+00  0.56805065397E+03  0.27207333205E+04  0.26607721165E+04 0.  0.
        5    1    3    3  502    0 -0.67633371109E+03  0.35113630648E+03  0.13990956868E+04  0.15931775875E+04  0.46999998093E+01 0.  1.
       -5    1    3    3    0  502  0.67633371109E+03 -0.35113630648E+03 -0.83104503280E+03  0.11275557330E+04  0.46999998093E+01 0. -1.
</event>
<event>
 5   0  0.3497949E-05  0.1626155E+04  0.7818609E-02  0.8804639E-01
        2   -1    0    0  501    0  0.00000000000E+00  0.00000000000E+00  0.68577734354E+03  0.68577734354E+03  0.25500000920E-02 0. -1.
       -2   -1    0    0    0  501  0.00000000000E+00  0.00000000000E+00 -0.96400817933E+03  0.96400817933E+03  0.25500000920E-02 0.  1.
    10030    2    1    2    0    0  0.00000000000E+00  0.00000000000E+00 -0.27823083579E+03  0.16497855229E+04  0.16261549353E+04 0.  0.
        5    1    3    3  502    0  0.51012695902E+03  0.63277875103E+03 -0.16026095036E+03  0.82845888509E+03  0.46999998093E+01 0.  1.
       -5    1    3    3    0  502 -0.51012695902E+03 -0.63277875103E+03 -0.11796988543E+03  0.82132663779E+03  0.46999998093E+01 0. -1.
</event>
<event>
 5   0  0.1438701E-05  0.2697805E+04  0.7818609E-02  0.8335717E-01
        1   -1    0    0  501    0  0.00000000000E+00  0.00000000000E+00  0.30928907583E+04  0.30928907583E+04  0.50400001928E-02 0. -1.
       -1   -1    0    0    0  501  0.00000000000E+00  0.00000000000E+00 -0.58829691043E+03  0.58829691045E+03  0.50400001928E-02 0.  1.
    10030    2    1    2    0    0  0.00000000000E+00  0.00000000000E+00  0.25045938479E+04  0.36811876687E+04  0.26978050911E+04 0.  0.
        4    1    3    3  502    0 -0.85280631445E+03  0.10341298807E+04  0.10461099609E+04  0.17003090552E+04  0.12699999809E+01 0.  1.
       -4    1    3    3    0  502  0.85280631445E+03 -0.10341298807E+04  0.14584838870E+04  0.19808786135E+04  0.12699999809E+01 0. -1.
</event>
<event>
 5   0  0.1438701E-05  0.1373373E+04  0.7818609E-02  0.8973321E-01
        1   -1    0    0  501    0  0.00000000000E+00  0.00000000000E+00  0.38499514459E+03  0.38499514462E+03  0.50400001928E-02 0.  1.
       -1   -1    0    0    0  501  0.00000000000E+00  0.00000000000E+00 -0.12247912433E+04  0.12247912433E+04  0.50400001928E-02 0. -1.
    10030    2    1    2    0    0  0.00000000000E+00  0.00000000000E+00 -0.83979609875E+03  0.16097863880E+04  0.13733734843E+04 0.  0.
        4    1    3    3  502    0 -0.35309096228E+03  0.13596751746E+03  0.25178709542E+03  0.45448734610E+03  0.12699999809E+01 0.  1.
       -4    1    3    3    0  502  0.35309096228E+03 -0.13596751746E+03 -0.10915831942E+04  0.11552990419E+04  0.12699999809E+01 0. -1.
</event>
<event>
 5   0  0.1495517E-05  0.2681768E+04  0.7818609E-02  0.8340945E-01
        1   -1    0    0  501    0  0.00000000000E+00  0.00000000000E+00  0.16220739488E+04  0.16220739488E+04  0.50400001928E-02 0.  1.
       -1   -1    0    0    0  501  0.00000000000E+00  0.00000000000E+00 -0.11084388338E+04  0.11084388338E+04  0.50400001928E-02 0. -1.
    10030    2    1    2    0    0  0.00000000000E+00  0.00000000000E+00  0.51363511500E+03  0.27305127826E+04  0.26817678916E+04 0.  0.
        5    1    3    3  502    0 -0.12821576741E+04  0.36498677175E+03  0.10995987385E+03  0.13376310809E+04  0.46999998093E+01 0. -1.
       -5    1    3    3    0  502  0.12821576741E+04 -0.36498677175E+03  0.40367524115E+03  0.13928817017E+04  0.46999998093E+01 0.  1.
</event>
<event>
 5   0  0.1438701E-05  0.2342317E+04  0.7818609E-02  0.8461420E-01
        1   -1    0    0  501    0  0.00000000000E+00  0.00000000000E+00  0.24214496170E+04  0.24214496170E+04  0.50400001928E-02 0.  1.
       -1   -1    0    0    0  501  0.00000000000E+00  0.00000000000E+00 -0.56644271483E+03  0.56644271485E+03  0.50400001928E-02 0. -1.
    10030    2    1    2    0    0  0.00000000000E+00  0.00000000000E+00  0.18550069022E+04  0.29878923318E+04  0.23423172244E+04 0.  0.
        4    1    3    3  502    0  0.38055761818E+01  0.56101722977E+03  0.22388792186E+04  0.23081023770E+04  0.12699999809E+01 0.  1.
       -4    1    3    3    0  502 -0.38055761818E+01 -0.56101722977E+03 -0.38387231640E+03  0.67978995484E+03  0.12699999809E+01 0. -1.
</event>
<event>
 5   0  0.1438701E-05  0.2679968E+04  0.7818609E-02  0.8341534E-01
       -1   -1    0    0    0  501  0.00000000000E+00  0.00000000000E+00  0.15449641919E+04  0.15449641919E+04  0.50400001928E-02 0.  1.
        1   -1    0    0  501    0  0.00000000000E+00  0.00000000000E+00 -0.11621999601E+04  0.11621999601E+04  0.50400001928E-02 0. -1.
    10030    2    1    2    0    0  0.00000000000E+00  0.00000000000E+00  0.38276423179E+03  0.27071641520E+04  0.26799681507E+04 0.  0.
        4    1    3    3  502    0  0.49700618318E+03 -0.11400167688E+04 -0.31258179647E+03  0.12823269363E+04  0.12699999809E+01 0. -1.
       -4    1    3    3    0  502 -0.49700618318E+03  0.11400167688E+04  0.69534602826E+03  0.14248372157E+04  0.12699999809E+01 0.  1.
</event>
<event>
 5   0  0.1438701E-05  0.2576906E+04  0.7818609E-02  0.8376088E-01
        1   -1    0    0  501    0  0.00000000000E+00  0.00000000000E+00  0.12287736318E+04  0.12287736318E+04  0.50400001928E-02 0.  1.
       -1   -1    0    0    0  501  0.00000000000E+00  0.00000000000E+00 -0.13510308081E+04  0.13510308081E+04  0.50400001928E-02 0. -1.
    10030    2    1    2    0    0  0.00000000000E+00  0.00000000000E+00 -0.12225717633E+03  0.25798044399E+04  0.25769059220E+04 0.  0.
        4    1    3    3  502    0  0.43920365656E+03  0.30097302539E+03  0.11134876972E+04  0.12342370431E+04  0.12699999809E+01 0.  1.
       -4    1    3    3    0  502 -0.43920365656E+03 -0.30097302539E+03 -0.12357448735E+04  0.13455673968E+04  0.12699999809E+01 0. -1.
</event>
<event>
 5   0  0.1484379E-05  0.2727505E+04  0.7818609E-02  0.8326135E-01
        1   -1    0    0  501    0  0.00000000000E+00  0.00000000000E+00  0.14926255066E+04  0.14926255066E+04  0.50400001928E-02 0.  1.
       -1   -1    0    0    0  501  0.00000000000E+00  0.00000000000E+00 -0.12460065386E+04  0.12460065386E+04  0.50400001928E-02 0. -1.
    10030    2    1    2    0    0  0.00000000000E+00  0.00000000000E+00  0.24661896799E+03  0.27386320453E+04  0.27275051905E+04 0.  0.
        1    1    3    3  502    0 -0.11758802215E+04 -0.51906076255E+03 -0.33429391811E+03  0.13281079754E+04  0.50400001928E-02 0. -1.
       -1    1    3    3    0  502  0.11758802215E+04  0.51906076255E+03  0.58091288609E+03  0.14105240699E+04  0.50400001928E-02 0.  1.
</event>
<event>
 5   0  0.3514294E-05  0.2091528E+04  0.7818609E-02  0.8564985E-01
        2   -1    0    0  501    0  0.00000000000E+00  0.00000000000E+00  0.21310938058E+04  0.21310938058E+04  0.25500000920E-02 0.  1.
       -2   -1    0    0    0  501  0.00000000000E+00  0.00000000000E+00 -0.51317405741E+03  0.51317405742E+03  0.25500000920E-02 0. -1.
    10030    2    1    2    0    0  0.00000000000E+00  0.00000000000E+00  0.16179197484E+04  0.26442678632E+04  0.20915277240E+04 0.  0.
        2    1    3    3  502    0  0.65389386167E+03  0.79709839789E+03  0.10304031717E+04  0.14576260613E+04  0.25500000920E-02 0.  1.
       -2    1    3    3    0  502 -0.65389386167E+03 -0.79709839789E+03  0.58751657672E+03  0.11866418020E+04  0.25500000920E-02 0. -1.
</event>
<event>
 5   0  0.1484379E-05  0.1585113E+04  0.7818609E-02  0.8829746E-01
       -1   -1    0    0    0  501  0.00000000000E+00  0.00000000000E+00  0.72630797955E+03  0.72630797957E+03  0.50400001928E-02 0.  1.
        1   -1    0    0  501    0  0.00000000000E+00  0.00000000000E+00 -0.86484786211E+03  0.86484786212E+03  0.50400001928E-02 0. -1.
    10030    2    1    2    0    0  0.00000000000E+00  0.00000000000E+00 -0.13853988255E+03  0.15911558417E+04  0.15851131232E+04 0.  0.
        1    1    3    3  502    0 -0.19024014606E+02  0.77472833965E+03  0.97435397294E+02  0.78106310248E+03  0.50400001928E-02 0.  1.
       -1    1    3    3    0  502  0.19024014606E+02 -0.77472833965E+03 -0.23597527985E+03  0.81009273921E+03  0.50400001928E-02 0. -1.
</event>
<event>
 5   0  0.1438701E-05  0.2332809E+04  0.7818609E-02  0.8465096E-01
       -1   -1    0    0    0  501  0.00000000000E+00  0.00000000000E+00  0.97560250394E+03  0.97560250396E+03  0.50400001928E-02 0. -1.
        1   -1    0    0  501    0  0.00000000000E+00  0.00000000000E+00 -0.13945224099E+04  0.13945224099E+04  0.50400001928E-02 0.  1.
    10030    2    1    2    0    0  0.00000000000E+00  0.00000000000E+00 -0.41891990592E+03  0.23701249138E+04  0.23328090834E+04 0.  0.
        4    1    3    3  502    0 -0.11549515300E+03  0.96515108077E+02  0.96569387029E+03  0.97735385632E+03  0.12699999809E+01 0. -1.
       -4    1    3    3    0  502  0.11549515300E+03 -0.96515108077E+02 -0.13846137762E+04  0.13927710575E+04  0.12699999809E+01 0.  1.
</event>
<event>
 5   0  0.3497949E-05  0.2625271E+04  0.7818609E-02  0.8359667E-01
        2   -1    0    0  501    0  0.00000000000E+00  0.00000000000E+00  0.18441374665E+04  0.18441374665E+04  0.25500000920E-02 0. -1.
       -2   -1    0    0    0  501  0.00000000000E+00  0.00000000000E+00 -0.93431878919E+03  0.93431878919E+03  0.25500000920E-02 0.  1.
    10030    2    1    2    0    0  0.00000000000E+00  0.00000000000E+00  0.90981867728E+03  0.27784562557E+04  0.26252712506E+04 0.  0.
        5    1    3    3  502    0 -0.80879426832E+03  0.75730901676E+03 -0.28995046792E+03  0.11453202518E+04  0.46999998093E+01 0.  1.
       -5    1    3    3    0  502  0.80879426832E+03 -0.75730901676E+03  0.11997691452E+04  0.16331360039E+04  0.46999998093E+01 0. -1.
</event>
<event>
 5   0  0.3497949E-05  0.2785604E+04  0.7818609E-02  0.8307752E-01
       -2   -1    0    0    0  501  0.00000000000E+00  0.00000000000E+00  0.12131704957E+04  0.12131704957E+04  0.25500000920E-02 0. -1.
        2   -1    0    0  501    0  0.00000000000E+00  0.00000000000E+00 -0.15990310451E+04  0.15990310451E+04  0.25500000920E-02 0.  1.
    10030    2    1    2    0    0  0.00000000000E+00  0.00000000000E+00 -0.38586054933E+03  0.28122015408E+04  0.27856039098E+04 0.  0.
        5    1    3    3  502    0  0.38462964823E+03  0.13157740602E+04  0.55742283592E+02  0.13719805523E+04  0.46999998093E+01 0. -1.
       -5    1    3    3    0  502 -0.38462964823E+03 -0.13157740602E+04 -0.44160283292E+03  0.14402209885E+04  0.46999998093E+01 0.  1.
</event>
<event>
 5   0  0.1449521E-05  0.1973880E+04  0.7818609E-02  0.8618931E-01
       -1   -1    0    0    0  501  0.00000000000E+00  0.00000000000E+00  0.75279666763E+03  0.75279666765E+03  0.50400001928E-02 0. -1.
        1   -1    0    0  501    0  0.00000000000E+00  0.00000000000E+00 -0.12939091302E+04  0.12939091302E+04  0.50400001928E-02 0.  1.
    10030    2    1    2    0    0  0.00000000000E+00  0.00000000000E+00 -0.54111246253E+03  0.20467057978E+04  0.19738799167E+04 0.  0.
        3    1    3    3  502    0  0.72322602530E+03  0.30887062682E+03  0.34776137459E+03  0.85988076595E+03  0.10100000352E+00 0. -1.
       -3    1    3    3    0  502 -0.72322602530E+03 -0.30887062682E+03 -0.88887383712E+03  0.11868250319E+04  0.10100000352E+00 0.  1.
</event>
<event>
 5   0  0.1438701E-05  0.2689717E+04  0.7818609E-02  0.8338349E-01
        1   -1    0    0  501    0  0.00000000000E+00  0.00000000000E+00  0.15643903806E+04  0.15643903806E+04  0.50400001928E-02 0. -1.
       -1   -1    0    0    0  501  0.00000000000E+00  0.00000000000E+00 -0.11561335712E+04  0.11561335712E+04  0.50400001928E-02 0.  1.
    10030    2    1    2    0    0  0.00000000000E+00  0.00000000000E+00  0.40825680937E+03  0.27205239519E+04  0.26897168904E+04 0.  0.
        4    1    3    3  502    0  0.53361644383E+03 -0.10525715038E+04 -0.44823123929E+03  0.12623652944E+04  0.12699999809E+01 0.  1.
       -4    1    3    3    0  502 -0.53361644383E+03  0.10525715038E+04  0.85648804866E+03  0.14581586574E+04  0.12699999809E+01 0. -1.
</event>
<event>
 5   0  0.1438701E-05  0.2459105E+04  0.7818609E-02  0.8417701E-01
       -1   -1    0    0    0  501  0.00000000000E+00  0.00000000000E+00  0.60050449847E+03  0.60050449849E+03  0.50400001928E-02 0. -1.
        1   -1    0    0  501    0  0.00000000000E+00  0.00000000000E+00 -0.25175479474E+04  0.25175479474E+04  0.50400001928E-02 0.  1.
    10030    2    1    2    0    0  0.00000000000E+00  0.00000000000E+00 -0.19170434490E+04  0.31180524459E+04  0.24591046074E+04 0.  0.
        4    1    3    3  502    0 -0.69757609916E+03  0.57734221128E+03  0.96146297693E+02  0.91059440285E+03  0.12699999809E+01 0. -1.
       -4    1    3    3    0  502  0.69757609916E+03 -0.57734221128E+03 -0.20131897467E+04  0.22074580431E+04  0.12699999809E+01 0.  1.
</event>
<event>
 5   0  0.3676724E-05  0.2523560E+04  0.7818609E-02  0.8394640E-01
        2   -1    0    0  501    0  0.00000000000E+00  0.00000000000E+00  0.12903342175E+04  0.12903342175E+04  0.25500000920E-02 0. -1.
       -2   -1    0    0    0  501  0.00000000000E+00  0.00000000000E+00 -0.12338577815E+04  0.12338577815E+04  0.25500000920E-02 0.  1.
    10030    2    1    2    0    0  0.00000000000E+00  0.00000000000E+00  0.56476436029E+02  0.25241919990E+04  0.25235601162E+04 0.  0.
        4    1    3    3  502    0 -0.10272843123E+04  0.73163855109E+03 -0.10232749682E+02  0.12612352476E+04  0.12699999809E+01 0. -1.
       -4    1    3    3    0  502  0.10272843123E+04 -0.73163855109E+03  0.66709185710E+02  0.12629567515E+04  0.12699999809E+01 0.  1.
</event>
<event>
 5   0  0.1228050E-05  0.2702672E+04  0.7818609E-02  0.8334138E-01
       -3   -1    0    0    0  501  0.00000000000E+00  0.00000000000E+00  0.11963231847E+04  0.11963231890E+04  0.10100000352E+00 0. -1.
        3   -1    0    0  501    0  0.00000000000E+00  0.00000000000E+00 -0.15264346837E+04  0.15264346870E+04  0.10100000352E+00 0.  1.
    10030    2    1    2    0    0  0.00000000000E+00  0.00000000000E+00 -0.33011149895E+03  0.27227578760E+04  0.27026721683E+04 0.  0.
        4    1    3    3  502    0  0.26756364742E+03 -0.70743652199E+03 -0.12932223260E+04  0.14981596495E+04  0.12699999809E+01 0.  1.
       -4    1    3    3    0  502 -0.26756364742E+03  0.70743652199E+03  0.96311082707E+03  0.12245982264E+04  0.12699999809E+01 0. -1.
</event>
<event>
 5   0  0.1449521E-05  0.2840519E+04  0.7818609E-02  0.8290798E-01
       -1   -1    0    0    0  501  0.00000000000E+00  0.00000000000E+00  0.11097293745E+04  0.11097293745E+04  0.50400001928E-02 0. -1.
        1   -1    0    0  501    0  0.00000000000E+00  0.00000000000E+00 -0.18176839200E+04  0.18176839200E+04  0.50400001928E-02 0.  1.
    10030    2    1    2    0    0  0.00000000000E+00  0.00000000000E+00 -0.70795454550E+03  0.29274132946E+04  0.28405191354E+04 0.  0.
        3    1    3    3  502    0 -0.55957232469E+02 -0.46579907968E+03 -0.17355217130E+04  0.17978141230E+04  0.10100000352E+00 0.  1.
       -3    1    3    3    0  502  0.55957232469E+02  0.46579907968E+03  0.10275671675E+04  0.11295991715E+04  0.10100000352E+00 0. -1.
</event>
<event>
 5   0  0.3514294E-05  0.2665938E+04  0.7818609E-02  0.8346142E-01
        2   -1    0    0  501    0  0.00000000000E+00  0.00000000000E+00  0.10091262212E+04  0.10091262212E+04  0.25500000920E-02 0.  1.
       -2   -1    0    0    0  501  0.00000000000E+00  0.00000000000E+00 -0.17607380053E+04  0.17607380053E+04  0.25500000920E-02 0. -1.
    10030    2    1    2    0    0  0.00000000000E+00  0.00000000000E+00 -0.75161178414E+03  0.27698642266E+04  0.26659384013E+04 0.  0.
        2    1    3    3  502    0 -0.33052195318E+03  0.12777193362E+04 -0.57016908041E+03  0.14376732048E+04  0.25500000920E-02 0. -1.
       -2    1    3    3    0  502  0.33052195318E+03 -0.12777193362E+04 -0.18144270373E+03  0.13321910217E+04  0.25500000920E-02 0.  1.
</event>
<event>
 5   0  0.3497949E-05  0.2713754E+04  0.7818609E-02  0.8330556E-01
       -2   -1    0    0    0  501  0.00000000000E+00  0.00000000000E+00  0.16946437269E+04  0.16946437269E+04  0.25500000920E-02 0.  1.
        2   -1    0    0  501    0  0.00000000000E+00  0.00000000000E+00 -0.10864320377E+04  0.10864320377E+04  0.25500000920E-02 0. -1.
    10030    2    1    2    0    0  0.00000000000E+00  0.00000000000E+00  0.60821168921E+03  0.27810757646E+04  0.27137540327E+04 0.  0.
        5    1    3    3  502    0  0.56252527897E+03  0.10455264750E+04  0.97731384492E+03  0.15377661529E+04  0.46999998093E+01 0.  1.
       -5    1    3    3    0  502 -0.56252527897E+03 -0.10455264750E+04 -0.36910215571E+03  0.12433096118E+04  0.46999998093E+01 0. -1.
</event>
<event>
 5   0  0.3568647E-05  0.2678285E+04  0.7818609E-02  0.8342085E-01
        2   -1    0    0  501    0  0.00000000000E+00  0.00000000000E+00  0.18045361377E+04  0.18045361377E+04  0.25500000920E-02 0.  1.
       -2   -1    0    0    0  501  0.00000000000E+00  0.00000000000E+00 -0.99377506296E+03  0.99377506296E+03  0.25500000920E-02 0. -1.
    10030    2    1    2    0    0  0.00000000000E+00  0.00000000000E+00  0.81076107470E+03  0.27983112006E+04  0.26782852827E+04 0.  0.
        3    1    3    3  502    0  0.42942575675E+03 -0.14758130520E+02 -0.91979629454E+03  0.10152091000E+04  0.10100000352E+00 0. -1.
       -3    1    3    3    0  502 -0.42942575675E+03  0.14758130520E+02  0.17305573692E+04  0.17831021007E+04  0.10100000352E+00 0.  1.
</event>
<event>
 5   0  0.1474012E-05  0.2669504E+04  0.7818609E-02  0.8344968E-01
        1   -1    0    0  501    0  0.00000000000E+00  0.00000000000E+00  0.20172810233E+04  0.20172810233E+04  0.50400001928E-02 0.  1.
       -1   -1    0    0    0  501  0.00000000000E+00  0.00000000000E+00 -0.88315063133E+03  0.88315063134E+03  0.50400001928E-02 0. -1.
    10030    2    1    2    0    0  0.00000000000E+00  0.00000000000E+00  0.11341303920E+04  0.29004316547E+04  0.26695040808E+04 0.  0.
        2    1    3    3  502    0  0.70668684337E+03 -0.93677896313E+03 -0.12404293130E+03  0.11799778681E+04  0.25500000920E-02 0. -1.
       -2    1    3    3    0  502 -0.70668684337E+03  0.93677896313E+03  0.12581733233E+04  0.17204537866E+04  0.25500000920E-02 0.  1.
</event>
<event>
 5   0  0.3568647E-05  0.2708888E+04  0.7818609E-02  0.8332127E-01
        2   -1    0    0  501    0  0.00000000000E+00  0.00000000000E+00  0.25485711663E+04  0.25485711663E+04  0.25500000920E-02 0. -1.
       -2   -1    0    0    0  501  0.00000000000E+00  0.00000000000E+00 -0.71982214379E+03  0.71982214379E+03  0.25500000920E-02 0.  1.
    10030    2    1    2    0    0  0.00000000000E+00  0.00000000000E+00  0.18287490225E+04  0.32683933100E+04  0.27088875654E+04 0.  0.
        3    1    3    3  502    0 -0.11899367861E+04  0.52100029172E+03  0.13771705766E+04  0.18931428013E+04  0.10100000352E+00 0. -1.
       -3    1    3    3    0  502  0.11899367861E+04 -0.52100029172E+03  0.45157844591E+03  0.13752505088E+04  0.10100000352E+00 0.  1.
</event>
<event>
 5   0  0.1495517E-05  0.2709927E+04  0.7818609E-02  0.8331791E-01
       -1   -1    0    0    0  501  0.00000000000E+00  0.00000000000E+00  0.11199784300E+04  0.11199784300E+04  0.50400001928E-02 0.  1.
        1   -1    0    0  501    0  0.00000000000E+00  0.00000000000E+00 -0.16392508672E+04  0.16392508672E+04  0.50400001928E-02 0. -1.
    10030    2    1    2    0    0  0.00000000000E+00  0.00000000000E+00 -0.51927243721E+03  0.27592292972E+04  0.27099266504E+04 0.  0.
        5    1    3    3  502    0  0.11340521117E+04  0.37757564097E+03  0.39014823455E+03  0.12573286331E+04  0.46999998093E+01 0.  1.
       -5    1    3    3    0  502 -0.11340521117E+04 -0.37757564097E+03 -0.90942067176E+03  0.15019006641E+04  0.46999998093E+01 0. -1.
</event>
<event>
 5   0  0.1449521E-05  0.2660123E+04  0.7818609E-02  0.8348061E-01
       -1   -1    0    0    0  501  0.00000000000E+00  0.00000000000E+00  0.12348548928E+04  0.12348548928E+04  0.50400001928E-02 0. -1.
        1   -1    0    0  501    0  0.00000000000E+00  0.00000000000E+00 -0.14326084352E+04  0.14326084352E+04  0.50400001928E-02 0.  1.
    10030    2    1    2    0    0  0.00000000000E+00  0.00000000000E+00 -0.19775354240E+03  0.26674633280E+04  0.26601229563E+04 0.  0.
        3    1    3    3  502    0  0.18311009855E+02  0.26610137714E+02 -0.14322150563E+04  0.14325792719E+04  0.10100000352E+00 0.  1.
       -3    1    3    3    0  502 -0.18311009855E+02 -0.26610137714E+02  0.12344615139E+04  0.12348840561E+04  0.10100000352E+00 0. -1.
</event>
<event>
 5   0  0.1438701E-05  0.2781264E+04  0.7818609E-02  0.8309109E-01
       -1   -1    0    0    0  501  0.00000000000E+00  0.00000000000E+00  0.12053693832E+04  0.12053693832E+04  0.50400001928E-02 0.  1.
        1   -1    0    0  501    0  0.00000000000E+00  0.00000000000E+00 -0.16043695121E+04  0.16043695121E+04  0.50400001928E-02 0. -1.
    10030    2    1    2    0    0  0.00000000000E+00  0.00000000000E+00 -0.39900012891E+03  0.28097388954E+04  0.27812643811E+04 0.  0.
        4    1    3    3  502    0 -0.11689741479E+04  0.75313356573E+03 -0.18731213044E+03  0.14031386864E+04  0.12699999809E+01 0. -1.
       -4    1    3    3    0  502  0.11689741479E+04 -0.75313356573E+03 -0.21168799847E+03  0.14066002090E+04  0.12699999809E+01 0.  1.
</event>
<event>
 5   0  0.3676724E-05  0.2685768E+04  0.7818609E-02  0.8339638E-01
       -2   -1    0    0    0  501  0.00000000000E+00  0.00000000000E+00  0.91021919445E+03  0.91021919445E+03  0.25500000920E-02 0. -1.
        2   -1    0    0  501    0  0.00000000000E+00  0.00000000000E+00 -0.19812122187E+04  0.19812122187E+04  0.25500000920E-02 0.  1.
    10030    2    1    2    0    0  0.00000000000E+00  0.00000000000E+00 -0.10709930243E+04  0.28914314132E+04  0.26857679645E+04 0.  0.
        4    1    3    3  502    0 -0.12852263668E+04 -0.12641645627E+03 -0.93185732478E+03  0.15925286877E+04  0.12699999809E+01 0.  1.
       -4    1    3    3    0  502  0.12852263668E+04  0.12641645627E+03 -0.13913569948E+03  0.12989027255E+04  0.12699999809E+01 0. -1.
</event>
<event>
 5   0  0.1438701E-05  0.2493058E+04  0.7818609E-02  0.8405463E-01
        1   -1    0    0  501    0  0.00000000000E+00  0.00000000000E+00  0.19989584348E+04  0.19989584348E+04  0.50400001928E-02 0. -1.
       -1   -1    0    0    0  501  0.00000000000E+00  0.00000000000E+00 -0.77732227613E+03  0.77732227615E+03  0.50400001928E-02 0.  1.
    10030    2    1    2    0    0  0.00000000000E+00  0.00000000000E+00  0.12216361587E+04  0.27762807110E+04  0.24930582989E+04 0.  0.
        4    1    3    3  502    0  0.18925569421E+03 -0.11962162558E+04  0.28219672217E+03  0.12435383594E+04  0.12699999809E+01 0.  1.
       -4    1    3    3    0  502 -0.18925569421E+03  0.11962162558E+04  0.93943943653E+03  0.15327423516E+04  0.12699999809E+01 0. -1.
</event>
<event>
 5   0  0.3497949E-05  0.1824296E+04  0.7818609E-02  0.8693485E-01
        2   -1    0    0  501    0  0.00000000000E+00  0.00000000000E+00  0.73687161917E+03  0.73687161917E+03  0.25500000920E-02 0.  1.
       -2   -1    0    0    0  501  0.00000000000E+00  0.00000000000E+00 -0.11291160930E+04  0.11291160930E+04  0.25500000920E-02 0. -1.
    10030    2    1    2    0    0  0.00000000000E+00  0.00000000000E+00 -0.39224447378E+03  0.18659877121E+04  0.18242955941E+04 0.  0.
        5    1    3    3  502    0  0.56792874506E+03  0.30391307299E+03 -0.85670313502E+03  0.10718528663E+04  0.46999998093E+01 0. -1.
       -5    1    3    3    0  502 -0.56792874506E+03 -0.30391307299E+03  0.46445866124E+03  0.79413484585E+03  0.46999998093E+01 0.  1.
</event>
<event>
 5   0  0.1449521E-05  0.2237134E+04  0.7818609E-02  0.8503129E-01
        1   -1    0    0  501    0  0.00000000000E+00  0.00000000000E+00  0.11753944718E+04  0.11753944718E+04  0.50400001928E-02 0.  1.
       -1   -1    0    0    0  501  0.00000000000E+00  0.00000000000E+00 -0.10644865715E+04  0.10644865715E+04  0.50400001928E-02 0. -1.
    10030    2    1    2    0    0  0.00000000000E+00  0.00000000000E+00  0.11090790031E+03  0.22398810432E+04  0.22371335511E+04 0.  0.
        3    1    3    3  502    0  0.95386071756E+03 -0.53256828400E+03  0.29598299053E+03  0.11318503375E+04  0.10100000352E+00 0. -1.
       -3    1    3    3    0  502 -0.95386071756E+03  0.53256828400E+03 -0.18507509022E+03  0.11080307057E+04  0.10100000352E+00 0.  1.
</event>
<event>
 5   0  0.3514294E-05  0.2705478E+04  0.7818609E-02  0.8333230E-01
       -2   -1    0    0    0  501  0.00000000000E+00  0.00000000000E+00  0.10920109425E+04  0.10920109425E+04  0.25500000920E-02 0. -1.
        2   -1    0    0  501    0  0.00000000000E+00  0.00000000000E+00 -0.16757188516E+04  0.16757188516E+04  0.25500000920E-02 0.  1.
    10030    2    1    2    0    0  0.00000000000E+00  0.00000000000E+00 -0.58370790914E+03  0.27677297941E+04  0.27054783847E+04 0.  0.
        2    1    3    3  502    0 -0.23289051145E+03  0.71591484633E+03 -0.14416051316E+04  0.16263448014E+04  0.25500000920E-02 0.  1.
       -2    1    3    3    0  502  0.23289051145E+03 -0.71591484633E+03  0.85789722243E+03  0.11413849928E+04  0.25500000920E-02 0. -1.
</event>
<event>
 5   0  0.3676724E-05  0.2584316E+04  0.7818609E-02  0.8373548E-01
       -2   -1    0    0    0  501  0.00000000000E+00  0.00000000000E+00  0.13714186069E+04  0.13714186069E+04  0.25500000920E-02 0.  1.
        2   -1    0    0  501    0  0.00000000000E+00  0.00000000000E+00 -0.12174783850E+04  0.12174783850E+04  0.25500000920E-02 0. -1.
    10030    2    1    2    0    0  0.00000000000E+00  0.00000000000E+00  0.15394022190E+03  0.25888969919E+04  0.25843161654E+04 0.  0.
        4    1    3    3  502    0 -0.47199590528E+02 -0.49128358544E+03  0.12732742617E+04  0.13655827771E+04  0.12699999809E+01 0.  1.
       -4    1    3    3    0  502  0.47199590528E+02  0.49128358544E+03 -0.11193340398E+04  0.12233142148E+04  0.12699999809E+01 0. -1.
</event>
<event>
 5   0  0.3514294E-05  0.2693862E+04  0.7818609E-02  0.8336999E-01
        2   -1    0    0  501    0  0.00000000000E+00  0.00000000000E+00  0.21398935897E+04  0.21398935897E+04  0.25500000920E-02 0.  1.
       -2   -1    0    0    0  501  0.00000000000E+00  0.00000000000E+00 -0.84780968586E+03  0.84780968586E+03  0.25500000920E-02 0. -1.
    10030    2    1    2    0    0  0.00000000000E+00  0.00000000000E+00  0.12920839038E+04  0.29877032756E+04  0.26938615496E+04 0.  0.
        2    1    3    3  502    0  0.23411659978E+03  0.38646808861E+03  0.20533282510E+04  0.21024569133E+04  0.25500000920E-02 0.  1.
       -2    1    3    3    0  502 -0.23411659978E+03 -0.38646808861E+03 -0.76124434717E+03  0.88524636228E+03  0.25500000920E-02 0. -1.
</event>
<event>
 5   0  0.1438701E-05  0.2730405E+04  0.7818609E-02  0.8325207E-01
        1   -1    0    0  501    0  0.00000000000E+00  0.00000000000E+00  0.13989081281E+04  0.13989081281E+04  0.50400001928E-02 0. -1.
       -1   -1    0    0    0  501  0.00000000000E+00  0.00000000000E+00 -0.13323088992E+04  0.13323088992E+04  0.50400001928E-02 0.  1.
    10030    2    1    2    0    0  0.00000000000E+00  0.00000000000E+00  0.66599228891E+02  0.27312170273E+04  0.27304049138E+04 0.  0.
        4    1    3    3  502    0 -0.51423794332E+03  0.12646149547E+04  0.24105069373E+02  0.13653843097E+04  0.12699999809E+01 0. -1.
       -4    1    3    3    0  502  0.51423794332E+03 -0.12646149547E+04  0.42494159518E+02  0.13658327176E+04  0.12699999809E+01 0.  1.
</event>
<event>
 5   0  0.3497949E-05  0.2672270E+04  0.7818609E-02  0.8344059E-01
        2   -1    0    0  501    0  0.00000000000E+00  0.00000000000E+00  0.18092661180E+04  0.18092661180E+04  0.25500000920E-02 0.  1.
       -2   -1    0    0    0  501  0.00000000000E+00  0.00000000000E+00 -0.98672974658E+03  0.98672974658E+03  0.25500000920E-02 0. -1.
    10030    2    1    2    0    0  0.00000000000E+00  0.00000000000E+00  0.82253637140E+03  0.27959958646E+04  0.26722699700E+04 0.  0.
        5    1    3    3  502    0 -0.20353764249E+03  0.51027735179E+03 -0.86308219453E+03  0.10231048393E+04  0.46999998093E+01 0. -1.
       -5    1    3    3    0  502  0.20353764249E+03 -0.51027735179E+03  0.16856185659E+04  0.17728910253E+04  0.46999998093E+01 0.  1.
</event>
<event>
 5   0  0.1474012E-05  0.2740035E+04  0.7818609E-02  0.8322131E-01
        1   -1    0    0  501    0  0.00000000000E+00  0.00000000000E+00  0.24060086850E+04  0.24060086850E+04  0.50400001928E-02 0. -1.
       -1   -1    0    0    0  501  0.00000000000E+00  0.00000000000E+00 -0.78010832723E+03  0.78010832725E+03  0.50400001928E-02 0.  1.
    10030    2    1    2    0    0  0.00000000000E+00  0.00000000000E+00  0.16259003578E+04  0.31861170123E+04  0.27400346061E+04 0.  0.
        2    1    3    3  502    0 -0.95582964686E+02 -0.75890327041E+03 -0.50869927007E+03  0.91861048565E+03  0.25500000920E-02 0.  1.
       -2    1    3    3    0  502  0.95582964686E+02  0.75890327041E+03  0.21345996279E+04  0.22675065266E+04  0.25500000920E-02 0. -1.
</event>
<event>
 5   0  0.1484379E-05  0.2509053E+04  0.7818609E-02  0.8399767E-01
       -1   -1    0    0    0  501  0.00000000000E+00  0.00000000000E+00  0.11191482231E+04  0.11191482231E+04  0.50400001928E-02 0. -1.
        1   -1    0    0  501    0  0.00000000000E+00  0.00000000000E+00 -0.14062807238E+04  0.14062807238E+04  0.50400001928E-02 0.  1.
    10030    2    1    2    0    0  0.00000000000E+00  0.00000000000E+00 -0.28713250069E+03  0.25254289470E+04  0.25090528677E+04 0.  0.
        1    1    3    3  502    0  0.91662913898E+03  0.12808963336E+02 -0.10055808126E+04  0.13607225355E+04  0.50400001928E-02 0.  1.
       -1    1    3    3    0  502 -0.91662913898E+03 -0.12808963336E+02  0.71844831190E+03  0.11647064114E+04  0.50400001928E-02 0. -1.
</event>
<event>
 5   0  0.1495517E-05  0.2631866E+04  0.7818609E-02  0.8357457E-01
        1   -1    0    0  501    0  0.00000000000E+00  0.00000000000E+00  0.18435110587E+04  0.18435110587E+04  0.50400001928E-02 0.  1.
       -1   -1    0    0    0  501  0.00000000000E+00  0.00000000000E+00 -0.93933751886E+03  0.93933751887E+03  0.50400001928E-02 0. -1.
    10030    2    1    2    0    0  0.00000000000E+00  0.00000000000E+00  0.90417353985E+03  0.27828485776E+04  0.26318655770E+04 0.  0.
        5    1    3    3  502    0  0.92398258298E+03  0.32691383082E+02  0.14422052274E+04  0.17131230394E+04  0.46999998093E+01 0.  1.
       -5    1    3    3    0  502 -0.92398258298E+03 -0.32691383082E+02 -0.53803168757E+03  0.10697255382E+04  0.46999998093E+01 0. -1.
</event>
<event>
 5   0  0.1438701E-05  0.2687853E+04  0.7818609E-02  0.8338957E-01
       -1   -1    0    0    0  501  0.00000000000E+00  0.00000000000E+00  0.13225732610E+04  0.13225732610E+04  0.50400001928E-02 0. -1.
        1   -1    0    0  501    0  0.00000000000E+00  0.00000000000E+00 -0.13656248989E+04  0.13656248989E+04  0.50400001928E-02 0.  1.
    10030    2    1    2    0    0  0.00000000000E+00  0.00000000000E+00 -0.43051637982E+02  0.26881981599E+04  0.26878534007E+04 0.  0.
        4    1    3    3  502    0 -0.10352441264E+04 -0.47416058162E+03 -0.73546519721E+03  0.13555328575E+04  0.12699999809E+01 0.  1.
       -4    1    3    3    0  502  0.10352441264E+04  0.47416058162E+03  0.69241355923E+03  0.13326653025E+04  0.12699999809E+01 0. -1.
</event>
<event>
 5   0  0.3652331E-05  0.2573305E+04  0.7818609E-02  0.8377326E-01
       -2   -1    0    0    0  501  0.00000000000E+00  0.00000000000E+00  0.20546693102E+04  0.20546693102E+04  0.25500000920E-02 0. -1.
        2   -1    0    0  501    0  0.00000000000E+00  0.00000000000E+00 -0.80571319712E+03  0.80571319713E+03  0.25500000920E-02 0.  1.
    10030    2    1    2    0    0  0.00000000000E+00  0.00000000000E+00  0.12489561131E+04  0.28603825073E+04  0.25733046294E+04 0.  0.
        1    1    3    3  502    0 -0.94481102958E+03 -0.49125775206E+03  0.14271691767E+04  0.17806779382E+04  0.50400001928E-02 0. -1.
       -1    1    3    3    0  502  0.94481102958E+03  0.49125775206E+03 -0.17821306362E+03  0.10797045692E+04  0.50400001928E-02 0.  1.
</event>
<event>
 5   0  0.1484379E-05  0.2128374E+04  0.7818609E-02  0.8548846E-01
        1   -1    0    0  501    0  0.00000000000E+00  0.00000000000E+00  0.13024444427E+04  0.13024444427E+04  0.50400001928E-02 0. -1.
       -1   -1    0    0    0  501  0.00000000000E+00  0.00000000000E+00 -0.86951415857E+03  0.86951415858E+03  0.50400001928E-02 0.  1.
    10030    2    1    2    0    0  0.00000000000E+00  0.00000000000E+00  0.43293028411E+03  0.21719586013E+04  0.21283739180E+04 0.  0.
        1    1    3    3  502    0 -0.58580572049E+03 -0.88816851463E+03  0.19405569069E+03  0.10815124889E+04  0.50400001928E-02 0. -1.
       -1    1    3    3    0  502  0.58580572049E+03  0.88816851463E+03  0.23887459342E+03  0.10904461124E+04  0.50400001928E-02 0.  1.
</event>
<event>
 5   0  0.3568647E-05  0.2565487E+04  0.7818609E-02  0.8380020E-01
        2   -1    0    0  501    0  0.00000000000E+00  0.00000000000E+00  0.85529285275E+03  0.85529285275E+03  0.25500000920E-02 0.  1.
       -2   -1    0    0    0  501  0.00000000000E+00  0.00000000000E+00 -0.19238209206E+04  0.19238209206E+04  0.25500000920E-02 0. -1.
    10030    2    1    2    0    0  0.00000000000E+00  0.00000000000E+00 -0.10685280679E+04  0.27791137734E+04  0.25654865296E+04 0.  0.
        3    1    3    3  502    0 -0.63009150550E+03  0.58872734424E+03 -0.15629796559E+04  0.17850828009E+04  0.10100000352E+00 0. -1.
       -3    1    3    3    0  502  0.63009150550E+03 -0.58872734424E+03  0.49445158801E+03  0.99403097248E+03  0.10100000352E+00 0.  1.
</event>
<event>
 5   0  0.3652331E-05  0.2751179E+04  0.7818609E-02  0.8318588E-01
        2   -1    0    0  501    0  0.00000000000E+00  0.00000000000E+00  0.22228883928E+04  0.22228883928E+04  0.25500000920E-02 0. -1.
       -2   -1    0    0    0  501  0.00000000000E+00  0.00000000000E+00 -0.85125575950E+03  0.85125575951E+03  0.25500000920E-02 0.  1.
    10030    2    1    2    0    0  0.00000000000E+00  0.00000000000E+00  0.13716326333E+04  0.30741441523E+04  0.27511790542E+04 0.  0.
        1    1    3    3  502    0 -0.28627145319E+03 -0.10000858870E+04  0.16915453004E+04  0.19858118313E+04  0.50400001928E-02 0. -1.
       -1    1    3    3    0  502  0.28627145319E+03  0.10000858870E+04 -0.31991266711E+03  0.10883323209E+04  0.50400001928E-02 0.  1.
</event>
<event>
 5   0  0.3652331E-05  0.1530837E+04  0.7818609E-02  0.8864202E-01
        2   -1    0    0  501    0  0.00000000000E+00  0.00000000000E+00  0.12572496958E+04  0.12572496958E+04  0.25500000920E-02 0.  1.
       -2   -1    0    0    0  501  0.00000000000E+00  0.00000000000E+00 -0.46598966982E+03  0.46598966982E+03  0.25500000920E-02 0. -1.
    10030    2    1    2    0    0  0.00000000000E+00  0.00000000000E+00  0.79126002603E+03  0.17232393657E+04  0.15308368570E+04 0.  0.
        1    1    3    3  502    0  0.69723135341E+03  0.31105654126E+03  0.33420394888E+03  0.83341466960E+03  0.50400001928E-02 0.  1.
       -1    1    3    3    0  502 -0.69723135341E+03 -0.31105654126E+03  0.45705607715E+03  0.88982469606E+03  0.50400001928E-02 0. -1.
</event>
<event>
 5   0  0.3497949E-05  0.2694460E+04  0.7818609E-02  0.8336805E-01
       -2   -1    0    0    0  501  0.00000000000E+00  0.00000000000E+00  0.16554221957E+04  0.16554221957E+04  0.25500000920E-02 0.  1.
        2   -1    0    0  501    0  0.00000000000E+00  0.00000000000E+00 -0.10964146911E+04  0.10964146911E+04  0.25500000920E-02 0. -1.
    10030    2    1    2    0    0  0.00000000000E+00  0.00000000000E+00  0.55900750462E+03  0.27518368868E+04  0.26944604026E+04 0.  0.
        5    1    3    3  502    0 -0.13803551983E+02  0.13072334327E+04 -0.52938644670E+02  0.13083861722E+04  0.46999998093E+01 0. -1.
       -5    1    3    3    0  502  0.13803551983E+02 -0.13072334327E+04  0.61194614929E+03  0.14434507145E+04  0.46999998093E+01 0.  1.
</event>
<event>
 5   0  0.1495517E-05  0.2713992E+04  0.7818609E-02  0.8330479E-01
       -1   -1    0    0    0  501  0.00000000000E+00  0.00000000000E+00  0.11953864611E+04  0.11953864611E+04  0.50400001928E-02 0.  1.
        1   -1    0    0  501    0  0.00000000000E+00  0.00000000000E+00 -0.15404543170E+04  0.15404543170E+04  0.50400001928E-02 0. -1.
    10030    2    1    2    0    0  0.00000000000E+00  0.00000000000E+00 -0.34506785587E+03  0.27358407781E+04  0.27139920666E+04 0.  0.
        5    1    3    3  502    0  0.83578652061E+03 -0.72701428463E+03 -0.96263407094E+03  0.14675746395E+04  0.46999998093E+01 0. -1.
       -5    1    3    3    0  502 -0.83578652061E+03  0.72701428463E+03  0.61756621507E+03  0.12682661385E+04  0.46999998093E+01 0.  1.
</event>
<event>
 5   0  0.3568647E-05  0.2673427E+04  0.7818609E-02  0.8343679E-01
        2   -1    0    0  501    0  0.00000000000E+00  0.00000000000E+00  0.11664930178E+04  0.11664930178E+04  0.25500000920E-02 0. -1.
       -2   -1    0    0    0  501  0.00000000000E+00  0.00000000000E+00 -0.15317734257E+04  0.15317734257E+04  0.25500000920E-02 0.  1.
    10030    2    1    2    0    0  0.00000000000E+00  0.00000000000E+00 -0.36528040788E+03  0.26982664435E+04  0.26734270186E+04 0.  0.
        3    1    3    3  502    0  0.11372291809E+04 -0.70072449309E+03 -0.13219612979E+03  0.13423043068E+04  0.10100000352E+00 0.  1.
       -3    1    3    3    0  502 -0.11372291809E+04  0.70072449309E+03 -0.23308427808E+03  0.13559621367E+04  0.10100000352E+00 0. -1.
</event>
<event>
 5   0  0.1474012E-05  0.1907045E+04  0.7818609E-02  0.8651357E-01
       -1   -1    0    0    0  501  0.00000000000E+00  0.00000000000E+00  0.11235411613E+04  0.11235411614E+04  0.50400001928E-02 0.  1.
        1   -1    0    0  501    0  0.00000000000E+00  0.00000000000E+00 -0.80923184636E+03  0.80923184638E+03  0.50400001928E-02 0. -1.
    10030    2    1    2    0    0  0.00000000000E+00  0.00000000000E+00  0.31430931498E+03  0.19327730077E+04  0.19070451368E+04 0.  0.
        2    1    3    3  502    0 -0.39188791641E+03  0.19659338824E+03 -0.70101559770E+03  0.82683007175E+03  0.25500000920E-02 0. -1.
       -2    1    3    3    0  502  0.39188791641E+03 -0.19659338824E+03  0.10153249127E+04  0.11059429360E+04  0.25500000920E-02 0.  1.
</event>
<event>
 5   0  0.1484379E-05  0.2724990E+04  0.7818609E-02  0.8326942E-01
        1   -1    0    0  501    0  0.00000000000E+00  0.00000000000E+00  0.23378277134E+04  0.23378277134E+04  0.50400001928E-02 0.  1.
       -1   -1    0    0    0  501  0.00000000000E+00  0.00000000000E+00 -0.79406711215E+03  0.79406711216E+03  0.50400001928E-02 0. -1.
    10030    2    1    2    0    0  0.00000000000E+00  0.00000000000E+00  0.15437606012E+04  0.31318948255E+04  0.27249896154E+04 0.  0.
        1    1    3    3  502    0  0.23357987038E+03 -0.46463877376E+03  0.22192722527E+04  0.22793898477E+04  0.50400001928E-02 0.  1.
       -1    1    3    3    0  502 -0.23357987038E+03  0.46463877376E+03 -0.67551165151E+03  0.85250497786E+03  0.50400001928E-02 0. -1.
</event>
<event>
 5   0  0.1449521E-05  0.2416564E+04  0.7818609E-02  0.8433328E-01
        1   -1    0    0  501    0  0.00000000000E+00  0.00000000000E+00  0.74614676265E+03  0.74614676266E+03  0.50400001928E-02 0. -1.
       -1   -1    0    0    0  501  0.00000000000E+00  0.00000000000E+00 -0.19566470757E+04  0.19566470758E+04  0.50400001928E-02 0.  1.
    10030    2    1    2    0    0  0.00000000000E+00  0.00000000000E+00 -0.12105003131E+04  0.27027938384E+04  0.24165644053E+04 0.  0.
        3    1    3    3  502    0 -0.41898983136E+03 -0.55028622107E+03  0.50284500176E+03  0.85511432562E+03  0.10100000352E+00 0. -1.
       -3    1    3    3    0  502  0.41898983136E+03  0.55028622107E+03 -0.17133453149E+04  0.18476795128E+04  0.10100000352E+00 0.  1.
</event>
<event>
 5   0  0.1449521E-05  0.2806721E+04  0.7818609E-02  0.8301185E-01
        1   -1    0    0  501    0  0.00000000000E+00  0.00000000000E+00  0.98142081958E+03  0.98142081959E+03  0.50400001928E-02 0. -1.
       -1   -1    0    0    0  501  0.00000000000E+00  0.00000000000E+00 -0.20067038309E+04  0.20067038309E+04  0.50400001928E-02 0.  1.
    10030    2    1    2    0    0  0.00000000000E+00  0.00000000000E+00 -0.10252830113E+04  0.29881246505E+04  0.28067211606E+04 0.  0.
        3    1    3    3  502    0 -0.85868611258E+03 -0.96931800971E+03  0.63147823578E+02  0.12964979374E+04  0.10100000352E+00 0. -1.
       -3    1    3    3    0  502  0.85868611258E+03  0.96931800971E+03 -0.10884308349E+04  0.16916267131E+04  0.10100000352E+00 0.  1.
</event>
<event>
 5   0  0.3514294E-05  0.2692123E+04  0.7818609E-02  0.8337565E-01
        2   -1    0    0  501    0  0.00000000000E+00  0.00000000000E+00  0.21731882699E+04  0.21731882699E+04  0.25500000920E-02 0.  1.
       -2   -1    0    0    0  501  0.00000000000E+00  0.00000000000E+00 -0.83374337501E+03  0.83374337502E+03  0.25500000920E-02 0. -1.
    10030    2    1    2    0    0  0.00000000000E+00  0.00000000000E+00  0.13394448949E+04  0.30069316449E+04  0.26921228224E+04 0.  0.
        2    1    3    3  502    0  0.82115406549E+03  0.81399642727E+03 -0.10007095232E+03  0.11605595109E+04  0.25500000920E-02 0. -1.
       -2    1    3    3    0  502 -0.82115406549E+03 -0.81399642727E+03  0.14395158472E+04  0.18463721340E+04  0.25500000920E-02 0.  1.
</event>
<event>
 5   0  0.1495517E-05  0.2704384E+04  0.7818609E-02  0.8333584E-01
       -1   -1    0    0    0  501  0.00000000000E+00  0.00000000000E+00  0.13067546970E+04  0.13067546970E+04  0.50400001928E-02 0.  1.
        1   -1    0    0  501    0  0.00000000000E+00  0.00000000000E+00 -0.13992092286E+04  0.13992092286E+04  0.50400001928E-02 0. -1.
    10030    2    1    2    0    0  0.00000000000E+00  0.00000000000E+00 -0.92454531655E+02  0.27059639256E+04  0.27043840197E+04 0.  0.
        5    1    3    3  502    0  0.77474989560E+03  0.56346821128E+03 -0.10010736689E+04  0.13856061512E+04  0.46999998093E+01 0. -1.
       -5    1    3    3    0  502 -0.77474989560E+03 -0.56346821128E+03  0.90861913720E+03  0.13203577744E+04  0.46999998093E+01 0.  1.
</event>
<event>
 5   0  0.3497949E-05  0.2721157E+04  0.7818609E-02  0.8328173E-01
       -2   -1    0    0    0  501  0.00000000000E+00  0.00000000000E+00  0.14105711477E+04  0.14105711477E+04  0.25500000920E-02 0.  1.
        2   -1    0    0  501    0  0.00000000000E+00  0.00000000000E+00 -0.13123581072E+04  0.13123581072E+04  0.25500000920E-02 0. -1.
    10030    2    1    2    0    0  0.00000000000E+00  0.00000000000E+00  0.98213040458E+02  0.27229292549E+04  0.27211574607E+04 0.  0.
        5    1    3    3  502    0  0.34467044126E+02 -0.10460680287E+04 -0.82077308148E+03  0.13300890343E+04  0.46999998093E+01 0. -1.
       -5    1    3    3    0  502 -0.34467044126E+02  0.10460680287E+04  0.91898612194E+03  0.13928402206E+04  0.46999998093E+01 0.  1.
</event>
<event>
 5   0  0.1474012E-05  0.2099559E+04  0.7818609E-02  0.8561438E-01
       -1   -1    0    0    0  501  0.00000000000E+00  0.00000000000E+00  0.15363497523E+04  0.15363497523E+04  0.50400001928E-02 0. -1.
        1   -1    0    0  501    0  0.00000000000E+00  0.00000000000E+00 -0.71730889635E+03  0.71730889637E+03  0.50400001928E-02 0.  1.
    10030    2    1    2    0    0  0.00000000000E+00  0.00000000000E+00  0.81904085598E+03  0.22536586487E+04  0.20995593302E+04 0.  0.
        2    1    3    3  502    0  0.41884562205E+03  0.39926723585E+02  0.14418861154E+04  0.15020190971E+04  0.25500000920E-02 0. -1.
       -2    1    3    3    0  502 -0.41884562205E+03 -0.39926723585E+02 -0.62284525940E+03  0.75163955160E+03  0.25500000920E-02 0.  1.
</event>
<event>
 5   0  0.1228050E-05  0.2692214E+04  0.7818609E-02  0.8337536E-01
        4   -1    0    0  501    0  0.00000000000E+00  0.00000000000E+00  0.11770437086E+04  0.11770443938E+04  0.12699999809E+01 0. -1.
       -4   -1    0    0    0  501  0.00000000000E+00  0.00000000000E+00 -0.15394518159E+04  0.15394523397E+04  0.12699999809E+01 0.  1.
    10030    2    1    2    0    0  0.00000000000E+00  0.00000000000E+00 -0.36240810723E+03  0.27164967335E+04  0.26922137484E+04 0.  0.
        4    1    3    3  502    0 -0.10532537475E+04  0.57960961172E+03 -0.79223305333E+03  0.14397658081E+04  0.12699999809E+01 0.  1.
       -4    1    3    3    0  502  0.10532537475E+04 -0.57960961172E+03  0.42982494610E+03  0.12767309254E+04  0.12699999809E+01 0. -1.
</event>
<event>
 5   0  0.1484379E-05  0.2414215E+04  0.7818609E-02  0.8434201E-01
        1   -1    0    0  501    0  0.00000000000E+00  0.00000000000E+00  0.12674250913E+04  0.12674250914E+04  0.50400001928E-02 0.  1.
       -1   -1    0    0    0  501  0.00000000000E+00  0.00000000000E+00 -0.11496600950E+04  0.11496600950E+04  0.50400001928E-02 0. -1.
    10030    2    1    2    0    0  0.00000000000E+00  0.00000000000E+00  0.11776499638E+03  0.24170851863E+04  0.24142146142E+04 0.  0.
        1    1    3    3  502    0 -0.70158121410E+02  0.26473095614E+03  0.12359092977E+04  0.12658895818E+04  0.50400001928E-02 0.  1.
       -1    1    3    3    0  502  0.70158121410E+02 -0.26473095614E+03 -0.11181443014E+04  0.11511956045E+04  0.50400001928E-02 0. -1.
</event>
<event>
 5   0  0.1474012E-05  0.2671470E+04  0.7818609E-02  0.8344322E-01
       -1   -1    0    0    0  501  0.00000000000E+00  0.00000000000E+00  0.97315941938E+03  0.97315941940E+03  0.50400001928E-02 0.  1.
        1   -1    0    0  501    0  0.00000000000E+00  0.00000000000E+00 -0.18333978459E+04  0.18333978459E+04  0.50400001928E-02 0. -1.
    10030    2    1    2    0    0  0.00000000000E+00  0.00000000000E+00 -0.86023842647E+03  0.28065572653E+04  0.26714702942E+04 0.  0.
        2    1    3    3  502    0 -0.11985101758E+04  0.35443504112E+03 -0.92526665672E+03  0.15550463742E+04  0.25500000920E-02 0.  1.
       -2    1    3    3    0  502  0.11985101758E+04 -0.35443504112E+03  0.65028230245E+02  0.12515108911E+04  0.25500000920E-02 0. -1.
</event>
<event>
 5   0  0.3652331E-05  0.2755428E+04  0.7818609E-02  0.8317241E-01
       -2   -1    0    0    0  501  0.00000000000E+00  0.00000000000E+00  0.78701943008E+03  0.78701943008E+03  0.25500000920E-02 0. -1.
        2   -1    0    0  501    0  0.00000000000E+00  0.00000000000E+00 -0.24117521065E+04  0.24117521065E+04  0.25500000920E-02 0.  1.
    10030    2    1    2    0    0  0.00000000000E+00  0.00000000000E+00 -0.16247326764E+04  0.31987715365E+04  0.27554279293E+04 0.  0.
        1    1    3    3  502    0 -0.12313776820E+04  0.38475619645E+03 -0.25107779321E+03  0.13142938730E+04  0.50400001928E-02 0. -1.
       -1    1    3    3    0  502  0.12313776820E+04 -0.38475619645E+03 -0.13736548832E+04  0.18844776635E+04  0.50400001928E-02 0.  1.
</event>
<event>
 5   0  0.3652331E-05  0.2678727E+04  0.7818609E-02  0.8341941E-01
        2   -1    0    0  501    0  0.00000000000E+00  0.00000000000E+00  0.10704557266E+04  0.10704557266E+04  0.25500000920E-02 0.  1.
       -2   -1    0    0    0  501  0.00000000000E+00  0.00000000000E+00 -0.16758230717E+04  0.16758230717E+04  0.25500000920E-02 0. -1.
    10030    2    1    2    0    0  0.00000000000E+00  0.00000000000E+00 -0.60536734510E+03  0.27462787983E+04  0.26787268646E+04 0.  0.
        1    1    3    3  502    0 -0.61166991276E+03  0.10836489558E+04 -0.81061605692E+03  0.14851038797E+04  0.50400001928E-02 0. -1.
       -1    1    3    3    0  502  0.61166991276E+03 -0.10836489558E+04  0.20524871181E+03  0.12611749186E+04  0.50400001928E-02 0.  1.
</event>
<event>
 5   0  0.1228050E-05  0.2717794E+04  0.7818609E-02  0.8329254E-01
        3   -1    0    0  501    0  0.00000000000E+00  0.00000000000E+00  0.23103258072E+04  0.23103258094E+04  0.10100000352E+00 0.  1.
       -3   -1    0    0    0  501  0.00000000000E+00  0.00000000000E+00 -0.79928184172E+03  0.79928184810E+03  0.10100000352E+00 0. -1.
    10030    2    1    2    0    0  0.00000000000E+00  0.00000000000E+00  0.15110439654E+04  0.31096076575E+04  0.27177943112E+04 0.  0.
        1    1    3    3  502    0  0.14147494897E+03 -0.12842752557E+04  0.12371919037E+04  0.17888605033E+04  0.50400001928E-02 0. -1.
       -1    1    3    3    0  502 -0.14147494897E+03  0.12842752557E+04  0.27385206176E+03  0.13207471542E+04  0.50400001928E-02 0.  1.
</event>
<event>
 5   0  0.1438701E-05  0.2674401E+04  0.7818609E-02  0.8343359E-01
       -1   -1    0    0    0  501  0.00000000000E+00  0.00000000000E+00  0.14420508663E+04  0.14420508663E+04  0.50400001928E-02 0.  1.
        1   -1    0    0  501    0  0.00000000000E+00  0.00000000000E+00 -0.12399735302E+04  0.12399735302E+04  0.50400001928E-02 0. -1.
    10030    2    1    2    0    0  0.00000000000E+00  0.00000000000E+00  0.20207733615E+03  0.26820243966E+04  0.26744007953E+04 0.  0.
        4    1    3    3  502    0  0.50384659570E+03  0.23714115168E+03 -0.11181595685E+04  0.12491516126E+04  0.12699999809E+01 0. -1.
       -4    1    3    3    0  502 -0.50384659570E+03 -0.23714115168E+03  0.13202369046E+04  0.14328727840E+04  0.12699999809E+01 0.  1.
</event>
<event>
 5   0  0.3497949E-05  0.2712986E+04  0.7818609E-02  0.8330804E-01
        2   -1    0    0  501    0  0.00000000000E+00  0.00000000000E+00  0.16412722693E+04  0.16412722693E+04  0.25500000920E-02 0.  1.
       -2   -1    0    0    0  501  0.00000000000E+00  0.00000000000E+00 -0.11211258516E+04  0.11211258516E+04  0.25500000920E-02 0. -1.
    10030    2    1    2    0    0  0.00000000000E+00  0.00000000000E+00  0.52014641772E+03  0.27623981210E+04  0.27129856400E+04 0.  0.
        5    1    3    3  502    0 -0.51747689955E+03  0.24230159846E+03  0.15127480302E+04  0.16170717669E+04  0.46999998093E+01 0.  1.
       -5    1    3    3    0  502  0.51747689955E+03 -0.24230159846E+03 -0.99260161252E+03  0.11453263541E+04  0.46999998093E+01 0. -1.
</event>
<event>
 5   0  0.1495517E-05  0.2705350E+04  0.7818609E-02  0.8333271E-01
       -1   -1    0    0    0  501  0.00000000000E+00  0.00000000000E+00  0.97682657140E+03  0.97682657141E+03  0.50400001928E-02 0. -1.
        1   -1    0    0  501    0  0.00000000000E+00  0.00000000000E+00 -0.18731363136E+04  0.18731363136E+04  0.50400001928E-02 0.  1.
    10030    2    1    2    0    0  0.00000000000E+00  0.00000000000E+00 -0.89630974217E+03  0.28499628850E+04  0.27053497541E+04 0.  0.
        5    1    3    3  502    0 -0.11616512867E+04 -0.64884776704E+03 -0.19168662574E+03  0.13443225020E+04  0.46999998093E+01 0.  1.
       -5    1    3    3    0  502  0.11616512867E+04  0.64884776704E+03 -0.70462311643E+03  0.15056403830E+04  0.46999998093E+01 0. -1.
</event>
<event>
 5   0  0.1474012E-05  0.1561417E+04  0.7818609E-02  0.8844608E-01
        1   -1    0    0  501    0  0.00000000000E+00  0.00000000000E+00  0.16269215110E+04  0.16269215110E+04  0.50400001928E-02 0.  1.
       -1   -1    0    0    0  501  0.00000000000E+00  0.00000000000E+00 -0.37463749467E+03  0.37463749470E+03  0.50400001928E-02 0. -1.
    10030    2    1    2    0    0  0.00000000000E+00  0.00000000000E+00  0.12522840164E+04  0.20015590057E+04  0.15614170474E+04 0.  0.
        2    1    3    3  502    0  0.58184142608E+03 -0.96834145494E+02  0.12817732446E+04  0.14109780109E+04  0.25500000920E-02 0.  1.
       -2    1    3    3    0  502 -0.58184142608E+03  0.96834145494E+02 -0.29489228212E+02  0.59058099480E+03  0.25500000920E-02 0. -1.
</event>
<event>
 5   0  0.3497949E-05  0.2706384E+04  0.7818609E-02  0.8332936E-01
        2   -1    0    0  501    0  0.00000000000E+00  0.00000000000E+00  0.10265321060E+04  0.10265321060E+04  0.25500000920E-02 0. -1.
       -2   -1    0    0    0  501  0.00000000000E+00  0.00000000000E+00 -0.17838009386E+04  0.17838009386E+04  0.25500000920E-02 0.  1.
    10030    2    1    2    0    0  0.00000000000E+00  0.00000000000E+00 -0.75726883257E+03  0.28103330446E+04  0.27063842552E+04 0.  0.
        5    1    3    3  502    0  0.44639168030E+03 -0.11056386955E+04 -0.10430572939E+04  0.15842010811E+04  0.46999998093E+01 0.  1.
       -5    1    3    3    0  502 -0.44639168030E+03  0.11056386955E+04  0.28578846129E+03  0.12261319635E+04  0.46999998093E+01 0. -1.
</event>
<event>
 5   0  0.3652331E-05  0.2713567E+04  0.7818609E-02  0.8330617E-01
        2   -1    0    0  501    0  0.00000000000E+00  0.00000000000E+00  0.12988627552E+04  0.12988627552E+04  0.25500000920E-02 0. -1.
       -2   -1    0    0    0  501  0.00000000000E+00  0.00000000000E+00 -0.14172866182E+04  0.14172866182E+04  0.25500000920E-02 0.  1.
    10030    2    1    2    0    0  0.00000000000E+00  0.00000000000E+00 -0.11842386298E+03  0.27161493734E+04  0.27135665106E+04 0.  0.
        1    1    3    3  502    0 -0.76837474274E+03 -0.17496824004E+02 -0.11783794472E+04  0.14068702875E+04  0.50400001928E-02 0.  1.
       -1    1    3    3    0  502  0.76837474274E+03  0.17496824004E+02  0.10599555843E+04  0.13092790859E+04  0.50400001928E-02 0. -1.
</event>
<event>
 5   0  0.1474012E-05  0.2655566E+04  0.7818609E-02  0.8349568E-01
        1   -1    0    0  501    0  0.00000000000E+00  0.00000000000E+00  0.15621506210E+04  0.15621506210E+04  0.50400001928E-02 0. -1.
       -1   -1    0    0    0  501  0.00000000000E+00  0.00000000000E+00 -0.11285769700E+04  0.11285769700E+04  0.50400001928E-02 0.  1.
    10030    2    1    2    0    0  0.00000000000E+00  0.00000000000E+00  0.43357365099E+03  0.26907275910E+04  0.26555656381E+04 0.  0.
        2    1    3    3  502    0 -0.12551292680E+04 -0.34173745405E+03  0.48653210827E+03  0.13888295285E+04  0.25500000920E-02 0.  1.
       -2    1    3    3    0  502  0.12551292680E+04  0.34173745405E+03 -0.52958457289E+02  0.13018980625E+04  0.25500000920E-02 0. -1.
</event>
<event>
 5   0  0.1495517E-05  0.2717848E+04  0.7818609E-02  0.8329237E-01
       -1   -1    0    0    0  501  0.00000000000E+00  0.00000000000E+00  0.15503496126E+04  0.15503496126E+04  0.50400001928E-02 0. -1.
        1   -1    0    0  501    0  0.00000000000E+00  0.00000000000E+00 -0.11911344534E+04  0.11911344534E+04  0.50400001928E-02 0.  1.
    10030    2    1    2    0    0  0.00000000000E+00  0.00000000000E+00  0.35921515919E+03  0.27414840660E+04  0.27178482948E+04 0.  0.
        5    1    3    3  502    0 -0.95806533790E+03 -0.25938626128E+03 -0.75662489238E+03  0.12480680038E+04  0.46999998093E+01 0.  1.
       -5    1    3    3    0  502  0.95806533790E+03  0.25938626128E+03  0.11158400516E+04  0.14934160622E+04  0.46999998093E+01 0. -1.
</event>
<event>
 5   0  0.1449521E-05  0.2010580E+04  0.7818609E-02  0.8601690E-01
       -1   -1    0    0    0  501  0.00000000000E+00  0.00000000000E+00  0.86650942414E+03  0.86650942416E+03  0.50400001928E-02 0. -1.
        1   -1    0    0  501    0  0.00000000000E+00  0.00000000000E+00 -0.11662981228E+04  0.11662981228E+04  0.50400001928E-02 0.  1.
    10030    2    1    2    0    0  0.00000000000E+00  0.00000000000E+00 -0.29978869865E+03  0.20328075470E+04  0.20105803289E+04 0.  0.
        3    1    3    3  502    0  0.96209656436E+02  0.47839093352E+03  0.73873862966E+03  0.88535244757E+03  0.10100000352E+00 0. -1.
       -3    1    3    3    0  502 -0.96209656436E+02 -0.47839093352E+03 -0.10385273283E+04  0.11474550994E+04  0.10100000352E+00 0.  1.
</event>
<event>
 5   0  0.1449521E-05  0.2656461E+04  0.7818609E-02  0.8349272E-01
       -1   -1    0    0    0  501  0.00000000000E+00  0.00000000000E+00  0.63941242399E+03  0.63941242401E+03  0.50400001928E-02 0.  1.
        1   -1    0    0  501    0  0.00000000000E+00  0.00000000000E+00 -0.27590905924E+04  0.27590905924E+04  0.50400001928E-02 0. -1.
    10030    2    1    2    0    0  0.00000000000E+00  0.00000000000E+00 -0.21196781684E+04  0.33985030164E+04  0.26564614085E+04 0.  0.
        3    1    3    3  502    0 -0.10923803387E+04 -0.36487039587E+03 -0.21337617594E+03  0.11713046627E+04  0.10100000352E+00 0.  1.
       -3    1    3    3    0  502  0.10923803387E+04  0.36487039587E+03 -0.19063019925E+04  0.22271983537E+04  0.10100000352E+00 0. -1.
</event>
<event>
 5   0  0.1495517E-05  0.2669067E+04  0.7818609E-02  0.8345112E-01
       -1   -1    0    0    0  501  0.00000000000E+00  0.00000000000E+00  0.13352656036E+04  0.13352656036E+04  0.50400001928E-02 0. -1.
        1   -1    0    0  501    0  0.00000000000E+00  0.00000000000E+00 -0.13338013393E+04  0.13338013393E+04  0.50400001928E-02 0.  1.
    10030    2    1    2    0    0  0.00000000000E+00  0.00000000000E+00  0.14642643700E+01  0.26690669429E+04  0.26690665412E+04 0.  0.
        5    1    3    3  502    0  0.85719509372E+03  0.44434466294E+03 -0.92053417441E+03  0.13340280598E+04  0.46999998093E+01 0.  1.
       -5    1    3    3    0  502 -0.85719509372E+03 -0.44434466294E+03  0.92199843878E+03  0.13350388831E+04  0.46999998093E+01 0. -1.
</event>
<event>
 5   0  0.1438701E-05  0.2717997E+04  0.7818609E-02  0.8329189E-01
        1   -1    0    0  501    0  0.00000000000E+00  0.00000000000E+00  0.19733798724E+04  0.19733798724E+04  0.50400001928E-02 0. -1.
       -1   -1    0    0    0  501  0.00000000000E+00  0.00000000000E+00 -0.93589514635E+03  0.93589514637E+03  0.50400001928E-02 0.  1.
    10030    2    1    2    0    0  0.00000000000E+00  0.00000000000E+00  0.10374847260E+04  0.29092750188E+04  0.27179967951E+04 0.  0.
        4    1    3    3  502    0  0.10752713939E+04 -0.20464864416E+03 -0.34341465831E+03  0.11471812753E+04  0.12699999809E+01 0.  1.
       -4    1    3    3    0  502 -0.10752713939E+04  0.20464864416E+03  0.13808993844E+04  0.17620937434E+04  0.12699999809E+01 0. -1.
</event>
<event>
 5   0  0.1495517E-05  0.1932222E+04  0.7818609E-02  0.8638981E-01
        1   -1    0    0  501    0  0.00000000000E+00  0.00000000000E+00  0.11957884100E+04  0.11957884100E+04  0.50400001928E-02 0.  1.
       -1   -1    0    0    0  501  0.00000000000E+00  0.00000000000E+00 -0.78054846409E+03  0.78054846411E+03  0.50400001928E-02 0. -1.
    10030    2    1    2    0    0  0.00000000000E+00  0.00000000000E+00  0.41523994591E+03  0.19763368741E+04  0.19322223545E+04 0.  0.
        5    1    3    3  502    0  0.60865254211E+03  0.69549625526E+03  0.49542606889E+03  0.10486381825E+04  0.46999998093E+01 0. -1.
       -5    1    3    3    0  502 -0.60865254211E+03 -0.69549625526E+03 -0.80186122979E+02  0.92769869161E+03  0.46999998093E+01 0.  1.
</event>
<event>
 5   0  0.3676724E-05  0.2727815E+04  0.7818609E-02  0.8326036E-01
       -2   -1    0    0    0  501  0.00000000000E+00  0.00000000000E+00  0.12890070841E+04  0.12890070841E+04  0.25500000920E-02 0. -1.
        2   -1    0    0  501    0  0.00000000000E+00  0.00000000000E+00 -0.14431603755E+04  0.14431603755E+04  0.25500000920E-02 0.  1.
    10030    2    1    2    0    0  0.00000000000E+00  0.00000000000E+00 -0.15415329144E+03  0.27321674596E+04  0.27278152045E+04 0.  0.
        4    1    3    3  502    0  0.63524605976E+03  0.11440567788E+04 -0.46218831524E+03  0.13878123509E+04  0.12699999809E+01 0.  1.
       -4    1    3    3    0  502 -0.63524605976E+03 -0.11440567788E+04  0.30803502380E+03  0.13443551087E+04  0.12699999809E+01 0. -1.
</event>
<event>
 5   0  0.1449521E-05  0.2821392E+04  0.7818609E-02  0.8296658E-01
       -1   -1    0    0    0  501  0.00000000000E+00  0.00000000000E+00  0.11243216659E+04  0.11243216659E+04  0.50400001928E-02 0. -1.
        1   -1    0    0  501    0  0.00000000000E+00  0.00000000000E+00 -0.17700120786E+04  0.17700120787E+04  0.50400001928E-02 0.  1.
    10030    2    1    2    0    0  0.00000000000E+00  0.00000000000E+00 -0.64569041272E+03  0.28943337446E+04  0.28213918048E+04 0.  0.
        3    1    3    3  502    0  0.27814347979E+03 -0.17066734718E+03 -0.17307597496E+04  0.17612553648E+04  0.10100000352E+00 0.  1.
       -3    1    3    3    0  502 -0.27814347979E+03  0.17066734718E+03  0.10850693369E+04  0.11330783798E+04  0.10100000352E+00 0. -1.
</event>
<event>
 5   0  0.3568647E-05  0.2724441E+04  0.7818609E-02  0.8327118E-01
       -2   -1    0    0    0  501  0.00000000000E+00  0.00000000000E+00  0.12887197695E+04  0.12887197695E+04  0.25500000920E-02 0. -1.
        2   -1    0    0  501    0  0.00000000000E+00  0.00000000000E+00 -0.14399130102E+04  0.14399130102E+04  0.25500000920E-02 0.  1.
    10030    2    1    2    0    0  0.00000000000E+00  0.00000000000E+00 -0.15119324077E+03  0.27286327797E+04  0.27244407592E+04 0.  0.
        3    1    3    3  502    0  0.69512358391E+03  0.10704233742E+04 -0.55239777971E+03  0.13907358894E+04  0.10100000352E+00 0. -1.
       -3    1    3    3    0  502 -0.69512358391E+03 -0.10704233742E+04  0.40120453895E+03  0.13378968903E+04  0.10100000352E+00 0.  1.
</event>
<event>
 5   0  0.3568647E-05  0.2693605E+04  0.7818609E-02  0.8337083E-01
        2   -1    0    0  501    0  0.00000000000E+00  0.00000000000E+00  0.16368000043E+04  0.16368000043E+04  0.25500000920E-02 0.  1.
       -2   -1    0    0    0  501  0.00000000000E+00  0.00000000000E+00 -0.11081848626E+04  0.11081848626E+04  0.25500000920E-02 0. -1.
    10030    2    1    2    0    0  0.00000000000E+00  0.00000000000E+00  0.52861514170E+03  0.27449848669E+04  0.26936050103E+04 0.  0.
        3    1    3    3  502    0  0.17023324097E+03  0.16526902527E+03  0.16153346697E+04  0.16326663200E+04  0.10100000352E+00 0.  1.
       -3    1    3    3    0  502 -0.17023324097E+03 -0.16526902527E+03 -0.10867195280E+04  0.11123185469E+04  0.10100000352E+00 0. -1.
</event>
<event>
 5   0  0.1228050E-05  0.2291993E+04  0.7818609E-02  0.8481085E-01
       -4   -1    0    0    0  501  0.00000000000E+00  0.00000000000E+00  0.11568189810E+04  0.11568196781E+04  0.12699999809E+01 0.  1.
        4   -1    0    0  501    0  0.00000000000E+00  0.00000000000E+00 -0.11352735895E+04  0.11352742999E+04  0.12699999809E+01 0. -1.
    10030    2    1    2    0    0  0.00000000000E+00  0.00000000000E+00  0.21545391486E+02  0.22920939780E+04  0.22919927138E+04 0.  0.
        1    1    3    3  502    0 -0.25414773668E+03  0.91765699333E+03 -0.62692484377E+03  0.11400527134E+04  0.50400001928E-02 0. -1.
       -1    1    3    3    0  502  0.25414773668E+03 -0.91765699333E+03  0.64847023525E+03  0.11520412647E+04  0.50400001928E-02 0.  1.
</event>
<event>
 5   0  0.3497949E-05  0.2730911E+04  0.7818609E-02  0.8325045E-01
        2   -1    0    0  501    0  0.00000000000E+00  0.00000000000E+00  0.19764840118E+04  0.19764840118E+04  0.25500000920E-02 0.  1.
       -2   -1    0    0    0  501  0.00000000000E+00  0.00000000000E+00 -0.94332586625E+03  0.94332586626E+03  0.25500000920E-02 0. -1.
    10030    2    1    2    0    0  0.00000000000E+00  0.00000000000E+00  0.10331581455E+04  0.29198098780E+04  0.27309108316E+04 0.  0.
        5    1    3    3  502    0 -0.30672809444E+03  0.11259418260E+04  0.12745745716E+04  0.17281173421E+04  0.46999998093E+01 0.  1.
       -5    1    3    3    0  502  0.30672809444E+03 -0.11259418260E+04 -0.24141642612E+03  0.11916925359E+04  0.46999998093E+01 0. -1.
</event>
<event>
 5   0  0.1495517E-05  0.1796734E+04  0.7818609E-02  0.8708038E-01
       -1   -1    0    0    0  501  0.00000000000E+00  0.00000000000E+00  0.61934739998E+03  0.61934740000E+03  0.50400001928E-02 0. -1.
        1   -1    0    0  501    0  0.00000000000E+00  0.00000000000E+00 -0.13030866184E+04  0.13030866184E+04  0.50400001928E-02 0.  1.
    10030    2    1    2    0    0  0.00000000000E+00  0.00000000000E+00 -0.68373921845E+03  0.19224340184E+04  0.17967340472E+04 0.  0.
        5    1    3    3  502    0 -0.15963327798E+03 -0.62917728138E+03 -0.10063609152E+04  0.11975521770E+04  0.46999998093E+01 0.  1.
       -5    1    3    3    0  502  0.15963327798E+03  0.62917728138E+03  0.32262169680E+03  0.72488184147E+03  0.46999998093E+01 0. -1.
</event>
<event>
 5   0  0.1474012E-05  0.2749003E+04  0.7818609E-02  0.8319278E-01
        1   -1    0    0  501    0  0.00000000000E+00  0.00000000000E+00  0.65447983494E+03  0.65447983496E+03  0.50400001928E-02 0. -1.
       -1   -1    0    0    0  501  0.00000000000E+00  0.00000000000E+00 -0.28866500292E+04  0.28866500292E+04  0.50400001928E-02 0.  1.
    10030    2    1    2    0    0  0.00000000000E+00  0.00000000000E+00 -0.22321701943E+04  0.35411298642E+04  0.27490028990E+04 0.  0.
        2    1    3    3  502    0 -0.54747100078E+03  0.75435193874E+03 -0.24173613968E+04  0.25908314239E+04  0.25500000920E-02 0.  1.
       -2    1    3    3    0  502  0.54747100078E+03 -0.75435193874E+03  0.18519120251E+03  0.95029844032E+03  0.25500000920E-02 0. -1.
</event>
<event>
 5   0  0.3497949E-05  0.2733925E+04  0.7818609E-02  0.8324081E-01
       -2   -1    0    0    0  501  0.00000000000E+00  0.00000000000E+00  0.14832800511E+04  0.14832800511E+04  0.25500000920E-02 0.  1.
        2   -1    0    0  501    0  0.00000000000E+00  0.00000000000E+00 -0.12597667064E+04  0.12597667064E+04  0.25500000920E-02 0. -1.
    10030    2    1    2    0    0  0.00000000000E+00  0.00000000000E+00  0.22351334476E+03  0.27430467575E+04  0.27339252548E+04 0.  0.
        5    1    3    3  502    0  0.94805460310E+03  0.94204913468E+03  0.39959469264E+03  0.13949774590E+04  0.46999998093E+01 0.  1.
       -5    1    3    3    0  502 -0.94805460310E+03 -0.94204913468E+03 -0.17608134789E+03  0.13480692985E+04  0.46999998093E+01 0. -1.
</event>
<event>
 5   0  0.3652331E-05  0.2808236E+04  0.7818609E-02  0.8300716E-01
        2   -1    0    0  501    0  0.00000000000E+00  0.00000000000E+00  0.33924499314E+04  0.33924499314E+04  0.25500000920E-02 0.  1.
       -2   -1    0    0    0  501  0.00000000000E+00  0.00000000000E+00 -0.58115750730E+03  0.58115750730E+03  0.25500000920E-02 0. -1.
    10030    2    1    2    0    0  0.00000000000E+00  0.00000000000E+00  0.28112924241E+04  0.39736074387E+04  0.28082362762E+04 0.  0.
        1    1    3    3  502    0  0.11218961000E+04  0.80636588186E+03  0.10514169311E+04  0.17361896088E+04  0.50400001928E-02 0.  1.
       -1    1    3    3    0  502 -0.11218961000E+04 -0.80636588186E+03  0.17598754930E+04  0.22374178299E+04  0.50400001928E-02 0. -1.
</event>
<event>
 5   0  0.1474012E-05  0.1846623E+04  0.7818609E-02  0.8681891E-01
       -1   -1    0    0    0  501  0.00000000000E+00  0.00000000000E+00  0.84720034522E+03  0.84720034523E+03  0.50400001928E-02 0.  1.
        1   -1    0    0  501    0  0.00000000000E+00  0.00000000000E+00 -0.10062604121E+04  0.10062604121E+04  0.50400001928E-02 0. -1.
    10030    2    1    2    0    0  0.00000000000E+00  0.00000000000E+00 -0.15906006692E+03  0.18534607574E+04  0.18466230461E+04 0.  0.
        2    1    3    3  502    0  0.56337880672E+03 -0.60619333588E+03 -0.49048245657E+03  0.96199744311E+03  0.25500000920E-02 0.  1.
       -2    1    3    3    0  502 -0.56337880672E+03  0.60619333588E+03  0.33142238965E+03  0.89146331428E+03  0.25500000920E-02 0. -1.
</event>
<event>
 5   0  0.3652331E-05  0.2751106E+04  0.7818609E-02  0.8318611E-01
       -2   -1    0    0    0  501  0.00000000000E+00  0.00000000000E+00  0.71935187078E+03  0.71935187078E+03  0.25500000920E-02 0.  1.
        2   -1    0    0  501    0  0.00000000000E+00  0.00000000000E+00 -0.26303489361E+04  0.26303489361E+04  0.25500000920E-02 0. -1.
    10030    2    1    2    0    0  0.00000000000E+00  0.00000000000E+00 -0.19109970653E+04  0.33497008069E+04  0.27511062706E+04 0.  0.
        1    1    3    3  502    0 -0.78792690291E+03 -0.10144434610E+04 -0.35625200964E+03  0.13329815582E+04  0.50400001928E-02 0.  1.
       -1    1    3    3    0  502  0.78792690291E+03  0.10144434610E+04 -0.15547450557E+04  0.20167192487E+04  0.50400001928E-02 0. -1.
</event>
<event>
 5   0  0.1438701E-05  0.2705687E+04  0.7818609E-02  0.8333162E-01
        1   -1    0    0  501    0  0.00000000000E+00  0.00000000000E+00  0.92763129802E+03  0.92763129803E+03  0.50400001928E-02 0. -1.
       -1   -1    0    0    0  501  0.00000000000E+00  0.00000000000E+00 -0.19729658646E+04  0.19729658646E+04  0.50400001928E-02 0.  1.
    10030    2    1    2    0    0  0.00000000000E+00  0.00000000000E+00 -0.10453345666E+04  0.29005971627E+04  0.27056865199E+04 0.  0.
        4    1    3    3  502    0 -0.12359812690E+04 -0.11580412066E+03  0.53768916810E+02  0.12425590534E+04  0.12699999809E+01 0. -1.
       -4    1    3    3    0  502  0.12359812690E+04  0.11580412066E+03 -0.10991034834E+04  0.16580381093E+04  0.12699999809E+01 0.  1.
</event>
<event>
 5   0  0.3568647E-05  0.2717227E+04  0.7818609E-02  0.8329437E-01
       -2   -1    0    0    0  501  0.00000000000E+00  0.00000000000E+00  0.12369629908E+04  0.12369629908E+04  0.25500000920E-02 0.  1.
        2   -1    0    0  501    0  0.00000000000E+00  0.00000000000E+00 -0.14922280579E+04  0.14922280579E+04  0.25500000920E-02 0. -1.
    10030    2    1    2    0    0  0.00000000000E+00  0.00000000000E+00 -0.25526506715E+03  0.27291910487E+04  0.27172271759E+04 0.  0.
        3    1    3    3  502    0  0.12639259361E+04 -0.24100856605E+03  0.31044950685E+03  0.13236210966E+04  0.10100000352E+00 0. -1.
       -3    1    3    3    0  502 -0.12639259361E+04  0.24100856605E+03 -0.56571457400E+03  0.14055699521E+04  0.10100000352E+00 0.  1.
</event>
<event>
 5   0  0.1438701E-05  0.2733622E+04  0.7818609E-02  0.8324178E-01
        1   -1    0    0  501    0  0.00000000000E+00  0.00000000000E+00  0.15277924445E+04  0.15277924445E+04  0.50400001928E-02 0. -1.
       -1   -1    0    0    0  501  0.00000000000E+00  0.00000000000E+00 -0.12227919000E+04  0.12227919000E+04  0.50400001928E-02 0.  1.
    10030    2    1    2    0    0  0.00000000000E+00  0.00000000000E+00  0.30500054448E+03  0.27505843445E+04  0.27336219388E+04 0.  0.
        4    1    3    3  502    0 -0.10336191843E+02 -0.83501913840E+03 -0.93625215534E+03  0.12545650679E+04  0.12699999809E+01 0.  1.
       -4    1    3    3    0  502  0.10336191843E+02  0.83501913840E+03  0.12412526998E+04  0.14960192766E+04  0.12699999809E+01 0. -1.
</event>
<event>
 5   0  0.3568647E-05  0.2676235E+04  0.7818609E-02  0.8342757E-01
       -2   -1    0    0    0  501  0.00000000000E+00  0.00000000000E+00  0.93369696706E+03  0.93369696706E+03  0.25500000920E-02 0.  1.
        2   -1    0    0  501    0  0.00000000000E+00  0.00000000000E+00 -0.19177076742E+04  0.19177076742E+04  0.25500000920E-02 0. -1.
    10030    2    1    2    0    0  0.00000000000E+00  0.00000000000E+00 -0.98401070719E+03  0.28514046413E+04  0.26762345481E+04 0.  0.
        3    1    3    3  502    0 -0.10764479824E+04  0.42893712786E+03  0.22099791145E+03  0.11796471530E+04  0.10100000352E+00 0.  1.
       -3    1    3    3    0  502  0.10764479824E+04 -0.42893712786E+03 -0.12050086186E+04  0.16717574883E+04  0.10100000352E+00 0. -1.
</event>
<event>
 5   0  0.3676724E-05  0.2701562E+04  0.7818609E-02  0.8334498E-01
       -2   -1    0    0    0  501  0.00000000000E+00  0.00000000000E+00  0.11348419647E+04  0.11348419647E+04  0.25500000920E-02 0.  1.
        2   -1    0    0  501    0  0.00000000000E+00  0.00000000000E+00 -0.16078087656E+04  0.16078087656E+04  0.25500000920E-02 0. -1.
    10030    2    1    2    0    0  0.00000000000E+00  0.00000000000E+00 -0.47296680088E+03  0.27426507303E+04  0.27015616657E+04 0.  0.
        4    1    3    3  502    0  0.17188986554E+03  0.12530727963E+04  0.24493321717E+03  0.12883056518E+04  0.12699999809E+01 0.  1.
       -4    1    3    3    0  502 -0.17188986554E+03 -0.12530727963E+04 -0.71790001805E+03  0.14543450785E+04  0.12699999809E+01 0. -1.
</event>
<event>
 5   0  0.3514294E-05  0.2626316E+04  0.7818609E-02  0.8359317E-01
       -2   -1    0    0    0  501  0.00000000000E+00  0.00000000000E+00  0.93862105908E+03  0.93862105908E+03  0.25500000920E-02 0.  1.
        2   -1    0    0  501    0  0.00000000000E+00  0.00000000000E+00 -0.18371459845E+04  0.18371459845E+04  0.25500000920E-02 0. -1.
    10030    2    1    2    0    0  0.00000000000E+00  0.00000000000E+00 -0.89852492546E+03  0.27757670436E+04  0.26263159823E+04 0.  0.
        2    1    3    3  502    0 -0.28419568899E+03  0.12244435014E+04 -0.47701301718E+02  0.12578968527E+04  0.25500000920E-02 0.  1.
       -2    1    3    3    0  502  0.28419568899E+03 -0.12244435014E+04 -0.85082362374E+03  0.15178701909E+04  0.25500000920E-02 0. -1.
</event>
<event>
 5   0  0.3514294E-05  0.2646000E+04  0.7818609E-02  0.8352742E-01
        2   -1    0    0  501    0  0.00000000000E+00  0.00000000000E+00  0.97631849309E+03  0.97631849310E+03  0.25500000920E-02 0. -1.
       -2   -1    0    0    0  501  0.00000000000E+00  0.00000000000E+00 -0.17927846215E+04  0.17927846215E+04  0.25500000920E-02 0.  1.
    10030    2    1    2    0    0  0.00000000000E+00  0.00000000000E+00 -0.81646612838E+03  0.27691031146E+04  0.26459998338E+04 0.  0.
        2    1    3    3  502    0  0.54372588801E+03  0.34647713490E+03 -0.16172492682E+04  0.17410282714E+04  0.25500000920E-02 0.  1.
       -2    1    3    3    0  502 -0.54372588801E+03 -0.34647713490E+03  0.80078313978E+03  0.10280748432E+04  0.25500000920E-02 0. -1.
</event>
<event>
 5   0  0.1438701E-05  0.2675054E+04  0.7818609E-02  0.8343145E-01
        1   -1    0    0  501    0  0.00000000000E+00  0.00000000000E+00  0.23718194045E+04  0.23718194045E+04  0.50400001928E-02 0. -1.
       -1   -1    0    0    0  501  0.00000000000E+00  0.00000000000E+00 -0.75426435636E+03  0.75426435637E+03  0.50400001928E-02 0.  1.
    10030    2    1    2    0    0  0.00000000000E+00  0.00000000000E+00  0.16175550481E+04  0.31260837609E+04  0.26750542698E+04 0.  0.
        4    1    3    3  502    0 -0.76686729340E+03 -0.10380849982E+04  0.12190751716E+04  0.17753455427E+04  0.12699999809E+01 0. -1.
       -4    1    3    3    0  502  0.76686729340E+03  0.10380849982E+04  0.39847987653E+03  0.13507382182E+04  0.12699999809E+01 0.  1.
</event>
<event>
 5   0  0.3514294E-05  0.2720741E+04  0.7818609E-02  0.8328306E-01
       -2   -1    0    0    0  501  0.00000000000E+00  0.00000000000E+00  0.12711768324E+04  0.12711768324E+04  0.25500000920E-02 0.  1.
        2   -1    0    0  501    0  0.00000000000E+00  0.00000000000E+00 -0.14558230780E+04  0.14558230780E+04  0.25500000920E-02 0. -1.
    10030    2    1    2    0    0  0.00000000000E+00  0.00000000000E+00 -0.18464624555E+03  0.27269999104E+04  0.27207414937E+04 0.  0.
        2    1    3    3  502    0  0.31854179712E+03 -0.79647427610E+03 -0.11505777405E+04  0.14351547951E+04  0.25500000920E-02 0. -1.
       -2    1    3    3    0  502 -0.31854179712E+03  0.79647427610E+03  0.96593149494E+03  0.12918451153E+04  0.25500000920E-02 0.  1.
</event>
<event>
 5   0  0.3497949E-05  0.2663653E+04  0.7818609E-02  0.8346895E-01
       -2   -1    0    0    0  501  0.00000000000E+00  0.00000000000E+00  0.18713780523E+04  0.18713780523E+04  0.25500000920E-02 0. -1.
        2   -1    0    0  501    0  0.00000000000E+00  0.00000000000E+00 -0.94783740132E+03  0.94783740132E+03  0.25500000920E-02 0.  1.
    10030    2    1    2    0    0  0.00000000000E+00  0.00000000000E+00  0.92354065095E+03  0.28192154536E+04  0.26636532131E+04 0.  0.
        5    1    3    3  502    0 -0.34083767483E+03 -0.45329504925E+03  0.17371745329E+04  0.18274146136E+04  0.46999998093E+01 0. -1.
       -5    1    3    3    0  502  0.34083767483E+03  0.45329504925E+03 -0.81363388197E+03  0.99180083996E+03  0.46999998093E+01 0.  1.
</event>
<event>
 5   0  0.3497949E-05  0.2494923E+04  0.7818609E-02  0.8404797E-01
        2   -1    0    0  501    0  0.00000000000E+00  0.00000000000E+00  0.13652434384E+04  0.13652434384E+04  0.25500000920E-02 0.  1.
       -2   -1    0    0    0  501  0.00000000000E+00  0.00000000000E+00 -0.11398406665E+04  0.11398406665E+04  0.25500000920E-02 0. -1.
    10030    2    1    2    0    0  0.00000000000E+00  0.00000000000E+00  0.22540277191E+03  0.25050841050E+04  0.24949228372E+04 0.  0.
        5    1    3    3  502    0  0.83930786997E+03 -0.46131305733E+03 -0.68986025004E+03  0.11803290609E+04  0.46999998093E+01 0. -1.
       -5    1    3    3    0  502 -0.83930786997E+03  0.46131305733E+03  0.91526302195E+03  0.13247550441E+04  0.46999998093E+01 0.  1.
</event>
<event>
 5   0  0.3568647E-05  0.2831033E+04  0.7818609E-02  0.8293698E-01
        2   -1    0    0  501    0  0.00000000000E+00  0.00000000000E+00  0.15249611422E+04  0.15249611422E+04  0.25500000920E-02 0.  1.
       -2   -1    0    0    0  501  0.00000000000E+00  0.00000000000E+00 -0.13139266470E+04  0.13139266470E+04  0.25500000920E-02 0. -1.
    10030    2    1    2    0    0  0.00000000000E+00  0.00000000000E+00  0.21103449516E+03  0.28388877892E+04  0.28310330838E+04 0.  0.
        3    1    3    3  502    0 -0.32543291206E+03  0.13206599999E+04 -0.28753665869E+03  0.13902254334E+04  0.10100000352E+00 0. -1.
       -3    1    3    3    0  502  0.32543291206E+03 -0.13206599999E+04  0.49857115385E+03  0.14486623558E+04  0.10100000352E+00 0.  1.
</event>
<event>
 5   0  0.1495517E-05  0.2632531E+04  0.7818609E-02  0.8357234E-01
       -1   -1    0    0    0  501  0.00000000000E+00  0.00000000000E+00  0.81963780981E+03  0.81963780982E+03  0.50400001928E-02 0. -1.
        1   -1    0    0  501    0  0.00000000000E+00  0.00000000000E+00 -0.21138054084E+04  0.21138054084E+04  0.50400001928E-02 0.  1.
    10030    2    1    2    0    0  0.00000000000E+00  0.00000000000E+00 -0.12941675986E+04  0.29334432182E+04  0.26325309763E+04 0.  0.
        5    1    3    3  502    0  0.58639623758E+03  0.17079548186E+03 -0.19463375460E+04  0.20399224438E+04  0.46999998093E+01 0.  1.
       -5    1    3    3    0  502 -0.58639623758E+03 -0.17079548186E+03  0.65216994735E+03  0.89352077440E+03  0.46999998093E+01 0. -1.
</event>
<event>
 5   0  0.1484379E-05  0.2667401E+04  0.7818609E-02  0.8345660E-01
        1   -1    0    0  501    0  0.00000000000E+00  0.00000000000E+00  0.17551886132E+04  0.17551886132E+04  0.50400001928E-02 0. -1.
       -1   -1    0    0    0  501  0.00000000000E+00  0.00000000000E+00 -0.10134280732E+04  0.10134280732E+04  0.50400001928E-02 0.  1.
    10030    2    1    2    0    0  0.00000000000E+00  0.00000000000E+00  0.74176054005E+03  0.27686166864E+04  0.26674012929E+04 0.  0.
        1    1    3    3  502    0  0.84487474325E+03  0.10275035322E+04  0.27142921628E+03  0.13576636771E+04  0.50400001928E-02 0.  1.
       -1    1    3    3    0  502 -0.84487474325E+03 -0.10275035322E+04  0.47033132378E+03  0.14109530094E+04  0.50400001928E-02 0. -1.
</event>
<event>
 5   0  0.3568647E-05  0.2692459E+04  0.7818609E-02  0.8337456E-01
       -2   -1    0    0    0  501  0.00000000000E+00  0.00000000000E+00  0.82613445488E+03  0.82613445488E+03  0.25500000920E-02 0.  1.
        2   -1    0    0  501    0  0.00000000000E+00  0.00000000000E+00 -0.21937509714E+04  0.21937509714E+04  0.25500000920E-02 0. -1.
    10030    2    1    2    0    0  0.00000000000E+00  0.00000000000E+00 -0.13676165165E+04  0.30198854263E+04  0.26924585515E+04 0.  0.
        3    1    3    3  502    0  0.54613567546E+02 -0.25510232767E+03  0.79751117552E+03  0.83909708892E+03  0.10100000352E+00 0.  1.
       -3    1    3    3    0  502 -0.54613567546E+02  0.25510232767E+03 -0.21651276920E+04  0.21807883374E+04  0.10100000352E+00 0. -1.
</event>
<event>
 5   0  0.1474012E-05  0.2722839E+04  0.7818609E-02  0.8327632E-01
        1   -1    0    0  501    0  0.00000000000E+00  0.00000000000E+00  0.16794328090E+04  0.16794328090E+04  0.50400001928E-02 0.  1.
       -1   -1    0    0    0  501  0.00000000000E+00  0.00000000000E+00 -0.11036244283E+04  0.11036244283E+04  0.50400001928E-02 0. -1.
    10030    2    1    2    0    0  0.00000000000E+00  0.00000000000E+00  0.57580838066E+03  0.27830572373E+04  0.27228390137E+04 0.  0.
        2    1    3    3  502    0 -0.19037976050E+03  0.26290822435E+03 -0.10634931112E+04  0.11119275090E+04  0.25500000920E-02 0. -1.
       -2    1    3    3    0  502  0.19037976050E+03 -0.26290822435E+03  0.16393014919E+04  0.16711297283E+04  0.25500000920E-02 0.  1.
</event>
<event>
 5   0  0.3676724E-05  0.2535897E+04  0.7818609E-02  0.8390308E-01
       -2   -1    0    0    0  501  0.00000000000E+00  0.00000000000E+00  0.91984039797E+03  0.91984039798E+03  0.25500000920E-02 0. -1.
        2   -1    0    0  501    0  0.00000000000E+00  0.00000000000E+00 -0.17477960453E+04  0.17477960453E+04  0.25500000920E-02 0.  1.
    10030    2    1    2    0    0  0.00000000000E+00  0.00000000000E+00 -0.82795564734E+03  0.26676364433E+04  0.25358970089E+04 0.  0.
        4    1    3    3  502    0 -0.68354443587E+02  0.99545107966E+03  0.40903200033E+03  0.10783802540E+04  0.12699999809E+01 0. -1.
       -4    1    3    3    0  502  0.68354443587E+02 -0.99545107966E+03 -0.12369876477E+04  0.15892561893E+04  0.12699999809E+01 0.  1.
</event>
<event>
 5   0  0.1438701E-05  0.2589541E+04  0.7818609E-02  0.8371763E-01
       -1   -1    0    0    0  501  0.00000000000E+00  0.00000000000E+00  0.10142572119E+04  0.10142572119E+04  0.50400001928E-02 0.  1.
        1   -1    0    0  501    0  0.00000000000E+00  0.00000000000E+00 -0.16528655372E+04  0.16528655372E+04  0.50400001928E-02 0. -1.
    10030    2    1    2    0    0  0.00000000000E+00  0.00000000000E+00 -0.63860832528E+03  0.26671227491E+04  0.25895411110E+04 0.  0.
        4    1    3    3  502    0 -0.80141443749E+03 -0.59129977605E+02  0.72632944031E+03  0.10831978229E+04  0.12699999809E+01 0.  1.
       -4    1    3    3    0  502  0.80141443749E+03  0.59129977605E+02 -0.13649377656E+04  0.15839249262E+04  0.12699999809E+01 0. -1.
</event>
<event>
 5   0  0.3676724E-05  0.2721454E+04  0.7818609E-02  0.8328077E-01
        2   -1    0    0  501    0  0.00000000000E+00  0.00000000000E+00  0.11069789117E+04  0.11069789117E+04  0.25500000920E-02 0. -1.
       -2   -1    0    0    0  501  0.00000000000E+00  0.00000000000E+00 -0.16726407248E+04  0.16726407248E+04  0.25500000920E-02 0.  1.
    10030    2    1    2    0    0  0.00000000000E+00  0.00000000000E+00 -0.56566181307E+03  0.27796196364E+04  0.27214540298E+04 0.  0.
        4    1    3    3  502    0 -0.58020717636E+03 -0.85421199116E+03  0.62225650865E+03  0.12056215280E+04  0.12699999809E+01 0.  1.
       -4    1    3    3    0  502  0.58020717636E+03  0.85421199116E+03 -0.11879183217E+04  0.15739981084E+04  0.12699999809E+01 0. -1.
</event>
<event>
 5   0  0.3652331E-05  0.2685618E+04  0.7818609E-02  0.8339686E-01
        2   -1    0    0  501    0  0.00000000000E+00  0.00000000000E+00  0.18886580254E+04  0.18886580254E+04  0.25500000920E-02 0. -1.
       -2   -1    0    0    0  501  0.00000000000E+00  0.00000000000E+00 -0.95471832162E+03  0.95471832162E+03  0.25500000920E-02 0.  1.
    10030    2    1    2    0    0  0.00000000000E+00  0.00000000000E+00  0.93393970375E+03  0.28433763470E+04  0.26856183051E+04 0.  0.
        1    1    3    3  502    0  0.37219408519E+03  0.12808219675E+04  0.63134124802E+03  0.14756778514E+04  0.50400001928E-02 0. -1.
       -1    1    3    3    0  502 -0.37219408519E+03 -0.12808219675E+04  0.30259845573E+03  0.13676984956E+04  0.50400001928E-02 0.  1.
</event>
<event>
 5   0  0.3514294E-05  0.2688197E+04  0.7818609E-02  0.8338845E-01
        2   -1    0    0  501    0  0.00000000000E+00  0.00000000000E+00  0.15481580591E+04  0.15481580591E+04  0.25500000920E-02 0. -1.
       -2   -1    0    0    0  501  0.00000000000E+00  0.00000000000E+00 -0.11669353898E+04  0.11669353898E+04  0.25500000920E-02 0.  1.
    10030    2    1    2    0    0  0.00000000000E+00  0.00000000000E+00  0.38122266928E+03  0.27150934490E+04  0.26881967400E+04 0.  0.
        2    1    3    3  502    0  0.53366418990E+03  0.59754233268E+03  0.12806436372E+04  0.15105967140E+04  0.25500000920E-02 0. -1.
       -2    1    3    3    0  502 -0.53366418990E+03 -0.59754233268E+03 -0.89942096793E+03  0.12044967349E+04  0.25500000920E-02 0.  1.
</event>
<event>
 5   0  0.1449521E-05  0.2518457E+04  0.7818609E-02  0.8396439E-01
        1   -1    0    0  501    0  0.00000000000E+00  0.00000000000E+00  0.10844159128E+04  0.10844159129E+04  0.50400001928E-02 0.  1.
       -1   -1    0    0    0  501  0.00000000000E+00  0.00000000000E+00 -0.14622220316E+04  0.14622220316E+04  0.50400001928E-02 0. -1.
    10030    2    1    2    0    0  0.00000000000E+00  0.00000000000E+00 -0.37780611877E+03  0.25466379445E+04  0.25184573367E+04 0.  0.
        3    1    3    3  502    0  0.99572901003E+03 -0.56036776462E+03 -0.72413532693E+03  0.13527232810E+04  0.10100000352E+00 0. -1.
       -3    1    3    3    0  502 -0.99572901003E+03  0.56036776462E+03  0.34632920816E+03  0.11939146635E+04  0.10100000352E+00 0.  1.
</event>
<event>
 5   0  0.1484379E-05  0.2696215E+04  0.7818609E-02  0.8336234E-01
       -1   -1    0    0    0  501  0.00000000000E+00  0.00000000000E+00  0.92475633324E+03  0.92475633326E+03  0.50400001928E-02 0. -1.
        1   -1    0    0  501    0  0.00000000000E+00  0.00000000000E+00 -0.19652673763E+04  0.19652673763E+04  0.50400001928E-02 0.  1.
    10030    2    1    2    0    0  0.00000000000E+00  0.00000000000E+00 -0.10405110431E+04  0.28900237096E+04  0.26962147190E+04 0.  0.
        1    1    3    3  502    0  0.40862471506E+03 -0.61139476299E+03 -0.17313472211E+04  0.18810478234E+04  0.50400001928E-02 0.  1.
       -1    1    3    3    0  502 -0.40862471506E+03  0.61139476299E+03  0.69083617802E+03  0.10089758862E+04  0.50400001928E-02 0. -1.
</event>
<event>
 5   0  0.1474012E-05  0.2349974E+04  0.7818609E-02  0.8458474E-01
       -1   -1    0    0    0  501  0.00000000000E+00  0.00000000000E+00  0.94238070558E+03  0.94238070560E+03  0.50400001928E-02 0.  1.
        1   -1    0    0  501    0  0.00000000000E+00  0.00000000000E+00 -0.14650074938E+04  0.14650074938E+04  0.50400001928E-02 0. -1.
    10030    2    1    2    0    0  0.00000000000E+00  0.00000000000E+00 -0.52262678825E+03  0.24073881994E+04  0.23499742941E+04 0.  0.
        2    1    3    3  502    0  0.23362621894E+02 -0.93217706139E+03 -0.99368887063E+03  0.13626875862E+04  0.25500000920E-02 0. -1.
       -2    1    3    3    0  502 -0.23362621894E+02  0.93217706139E+03  0.47106208238E+03  0.10447006133E+04  0.25500000920E-02 0.  1.
</event>
<event>
 5   0  0.3514294E-05  0.2702153E+04  0.7818609E-02  0.8334307E-01
       -2   -1    0    0    0  501  0.00000000000E+00  0.00000000000E+00  0.19207523294E+04  0.19207523294E+04  0.25500000920E-02 0.  1.
        2   -1    0    0  501    0  0.00000000000E+00  0.00000000000E+00 -0.95036083427E+03  0.95036083427E+03  0.25500000920E-02 0. -1.
    10030    2    1    2    0    0  0.00000000000E+00  0.00000000000E+00  0.97039149512E+03  0.28711131637E+04  0.27021530572E+04 0.  0.
        2    1    3    3  502    0  0.31861110509E+03 -0.97159241785E+03 -0.45314513718E+03  0.11184119894E+04  0.25500000920E-02 0. -1.
       -2    1    3    3    0  502 -0.31861110509E+03  0.97159241785E+03  0.14235366323E+04  0.17527011742E+04  0.25500000920E-02 0.  1.
</event>
<event>
 5   0  0.3497949E-05  0.1542744E+04  0.7818609E-02  0.8856516E-01
        2   -1    0    0  501    0  0.00000000000E+00  0.00000000000E+00  0.63274065746E+03  0.63274065746E+03  0.25500000920E-02 0. -1.
       -2   -1    0    0    0  501  0.00000000000E+00  0.00000000000E+00 -0.94037729495E+03  0.94037729495E+03  0.25500000920E-02 0.  1.
    10030    2    1    2    0    0  0.00000000000E+00  0.00000000000E+00 -0.30763663749E+03  0.15731179524E+04  0.15427442405E+04 0.  0.
        5    1    3    3  502    0  0.15353000417E+03 -0.67754761960E+03 -0.49560496292E+03  0.85339827061E+03  0.46999998093E+01 0.  1.
       -5    1    3    3    0  502 -0.15353000417E+03  0.67754761960E+03  0.18796832543E+03  0.71971968180E+03  0.46999998093E+01 0. -1.
</event>
<event>
 5   0  0.1484379E-05  0.2645731E+04  0.7818609E-02  0.8352831E-01
       -1   -1    0    0    0  501  0.00000000000E+00  0.00000000000E+00  0.70997076403E+03  0.70997076405E+03  0.50400001928E-02 0.  1.
        1   -1    0    0  501    0  0.00000000000E+00  0.00000000000E+00 -0.24648520760E+04  0.24648520760E+04  0.50400001928E-02 0. -1.
    10030    2    1    2    0    0  0.00000000000E+00  0.00000000000E+00 -0.17548813120E+04  0.31748228401E+04  0.26457308341E+04 0.  0.
        1    1    3    3  502    0 -0.29785558411E+03  0.12494972479E+02  0.66913644109E+03  0.73254191017E+03  0.50400001928E-02 0.  1.
       -1    1    3    3    0  502  0.29785558411E+03 -0.12494972479E+02 -0.24240177531E+04  0.24422809299E+04  0.50400001928E-02 0. -1.
</event>
<event>
 5   0  0.3652331E-05  0.2758671E+04  0.7818609E-02  0.8316215E-01
        2   -1    0    0  501    0  0.00000000000E+00  0.00000000000E+00  0.20555429262E+04  0.20555429262E+04  0.25500000920E-02 0. -1.
       -2   -1    0    0    0  501  0.00000000000E+00  0.00000000000E+00 -0.92557851188E+03  0.92557851189E+03  0.25500000920E-02 0.  1.
    10030    2    1    2    0    0  0.00000000000E+00  0.00000000000E+00  0.11299644143E+04  0.29811214380E+04  0.27586709573E+04 0.  0.
        1    1    3    3  502    0 -0.96909849004E+03  0.21937367550E+03  0.15988358095E+04  0.18824326385E+04  0.50400001928E-02 0. -1.
       -1    1    3    3    0  502  0.96909849004E+03 -0.21937367550E+03 -0.46887139520E+03  0.10986887995E+04  0.50400001928E-02 0.  1.
</event>
<event>
 5   0  0.1484379E-05  0.2683650E+04  0.7818609E-02  0.8340330E-01
       -1   -1    0    0    0  501  0.00000000000E+00  0.00000000000E+00  0.12815011679E+04  0.12815011680E+04  0.50400001928E-02 0.  1.
        1   -1    0    0  501    0  0.00000000000E+00  0.00000000000E+00 -0.14049881941E+04  0.14049881941E+04  0.50400001928E-02 0. -1.
    10030    2    1    2    0    0  0.00000000000E+00  0.00000000000E+00 -0.12348702617E+03  0.26864893621E+04  0.26836497623E+04 0.  0.
        1    1    3    3  502    0  0.11584253288E+04 -0.57645277229E+03  0.29394494418E+03  0.13268951245E+04  0.50400001928E-02 0.  1.
       -1    1    3    3    0  502 -0.11584253288E+04  0.57645277229E+03 -0.41743197035E+03  0.13595942376E+04  0.50400001928E-02 0. -1.
</event>
<event>
 5   0  0.3497949E-05  0.1735097E+04  0.7818609E-02  0.8741597E-01
        2   -1    0    0  501    0  0.00000000000E+00  0.00000000000E+00  0.88896066774E+03  0.88896066774E+03  0.25500000920E-02 0. -1.
       -2   -1    0    0    0  501  0.00000000000E+00  0.00000000000E+00 -0.84665164303E+03  0.84665164304E+03  0.25500000920E-02 0.  1.
    10030    2    1    2    0    0  0.00000000000E+00  0.00000000000E+00  0.42309024706E+02  0.17356123108E+04  0.17350965506E+04 0.  0.
        5    1    3    3  502    0 -0.11220756251E+03  0.19383048666E+03  0.85953080041E+03  0.88824325581E+03  0.46999998093E+01 0. -1.
       -5    1    3    3    0  502  0.11220756251E+03 -0.19383048666E+03 -0.81722177570E+03  0.84736905497E+03  0.46999998093E+01 0.  1.
</event>
<event>
 5   0  0.3652331E-05  0.2647796E+04  0.7818609E-02  0.8352145E-01
        2   -1    0    0  501    0  0.00000000000E+00  0.00000000000E+00  0.14811415114E+04  0.14811415114E+04  0.25500000920E-02 0. -1.
       -2   -1    0    0    0  501  0.00000000000E+00  0.00000000000E+00 -0.11833481205E+04  0.11833481205E+04  0.25500000920E-02 0.  1.
    10030    2    1    2    0    0  0.00000000000E+00  0.00000000000E+00  0.29779339097E+03  0.26644896319E+04  0.26477960826E+04 0.  0.
        1    1    3    3  502    0  0.76084717134E+03 -0.53077144886E+03 -0.80156822458E+03  0.12260172787E+04  0.50400001928E-02 0.  1.
       -1    1    3    3    0  502 -0.76084717134E+03  0.53077144886E+03  0.10993616156E+04  0.14384723532E+04  0.50400001928E-02 0. -1.
</event>
<event>
 5   0  0.3497949E-05  0.2709563E+04  0.7818609E-02  0.8331909E-01
       -2   -1    0    0    0  501  0.00000000000E+00  0.00000000000E+00  0.16486948263E+04  0.16486948263E+04  0.25500000920E-02 0. -1.
        2   -1    0    0  501    0  0.00000000000E+00  0.00000000000E+00 -0.11132644396E+04  0.11132644396E+04  0.25500000920E-02 0.  1.
    10030    2    1    2    0    0  0.00000000000E+00  0.00000000000E+00  0.53543038668E+03  0.27619592660E+04  0.27095633021E+04 0.  0.
        5    1    3    3  502    0 -0.83521058688E+03  0.10665369528E+04  0.28632852388E+03  0.13845879928E+04  0.46999998093E+01 0. -1.
       -5    1    3    3    0  502  0.83521058688E+03 -0.10665369528E+04  0.24910186280E+03  0.13773712732E+04  0.46999998093E+01 0.  1.
</event>
<event>
 5   0  0.3497949E-05  0.2672363E+04  0.7818609E-02  0.8344028E-01
       -2   -1    0    0    0  501  0.00000000000E+00  0.00000000000E+00  0.15032088158E+04  0.15032088158E+04  0.25500000920E-02 0.  1.
        2   -1    0    0  501    0  0.00000000000E+00  0.00000000000E+00 -0.11877132898E+04  0.11877132898E+04  0.25500000920E-02 0. -1.
    10030    2    1    2    0    0  0.00000000000E+00  0.00000000000E+00  0.31549552594E+03  0.26909221056E+04  0.26723630651E+04 0.  0.
        5    1    3    3  502    0 -0.32121899888E+03  0.98386850701E+02  0.14599798398E+04  0.14981404608E+04  0.46999998093E+01 0.  1.
       -5    1    3    3    0  502  0.32121899888E+03 -0.98386850701E+02 -0.11444843138E+04  0.11927816448E+04  0.46999998093E+01 0. -1.
</event>
<event>
 5   0  0.1228050E-05  0.2659285E+04  0.7818609E-02  0.8348338E-01
       -4   -1    0    0    0  501  0.00000000000E+00  0.00000000000E+00  0.14772960752E+04  0.14772966211E+04  0.12699999809E+01 0. -1.
        4   -1    0    0  501    0  0.00000000000E+00  0.00000000000E+00 -0.11967452115E+04  0.11967458854E+04  0.12699999809E+01 0.  1.
    10030    2    1    2    0    0  0.00000000000E+00  0.00000000000E+00  0.28055086367E+03  0.26740425064E+04  0.26592845916E+04 0.  0.
        1    1    3    3  502    0  0.30447360997E+03  0.10902003589E+04 -0.56124054745E+03  0.12634207351E+04  0.50400001928E-02 0.  1.
       -1    1    3    3    0  502 -0.30447360997E+03 -0.10902003589E+04  0.84179141112E+03  0.14106217713E+04  0.50400001928E-02 0. -1.
</event>
<event>
 5   0  0.3652331E-05  0.2702777E+04  0.7818609E-02  0.8334104E-01
        2   -1    0    0  501    0  0.00000000000E+00  0.00000000000E+00  0.23879181058E+04  0.23879181058E+04  0.25500000920E-02 0. -1.
       -2   -1    0    0    0  501  0.00000000000E+00  0.00000000000E+00 -0.76478795564E+03  0.76478795565E+03  0.25500000920E-02 0.  1.
    10030    2    1    2    0    0  0.00000000000E+00  0.00000000000E+00  0.16231301501E+04  0.31527060614E+04  0.27027770950E+04 0.  0.
        1    1    3    3  502    0  0.11672179034E+04  0.67609429131E+03  0.71573069630E+03  0.15270139339E+04  0.50400001928E-02 0.  1.
       -1    1    3    3    0  502 -0.11672179034E+04 -0.67609429131E+03  0.90739945383E+03  0.16256921275E+04  0.50400001928E-02 0. -1.
</event>
<event>
 5   0  0.1474012E-05  0.2759882E+04  0.7818609E-02  0.8315833E-01
       -1   -1    0    0    0  501  0.00000000000E+00  0.00000000000E+00  0.10937417307E+04  0.10937417307E+04  0.50400001928E-02 0.  1.
        1   -1    0    0  501    0  0.00000000000E+00  0.00000000000E+00 -0.17410304367E+04  0.17410304367E+04  0.50400001928E-02 0. -1.
    10030    2    1    2    0    0  0.00000000000E+00  0.00000000000E+00 -0.64728870601E+03  0.28347721674E+04  0.27598823476E+04 0.  0.
        2    1    3    3  502    0 -0.11420555102E+04 -0.73347951715E+03 -0.67983310852E+02  0.13590087273E+04  0.25500000920E-02 0. -1.
       -2    1    3    3    0  502  0.11420555102E+04  0.73347951715E+03 -0.57930539516E+03  0.14757634401E+04  0.25500000920E-02 0.  1.
</event>
<event>
 5   0  0.3676724E-05  0.2714673E+04  0.7818609E-02  0.8330260E-01
        2   -1    0    0  501    0  0.00000000000E+00  0.00000000000E+00  0.72365659793E+03  0.72365659793E+03  0.25500000920E-02 0.  1.
       -2   -1    0    0    0  501  0.00000000000E+00  0.00000000000E+00 -0.25459069949E+04  0.25459069949E+04  0.25500000920E-02 0. -1.
    10030    2    1    2    0    0  0.00000000000E+00  0.00000000000E+00 -0.18222503969E+04  0.32695635928E+04  0.27146730150E+04 0.  0.
        4    1    3    3  502    0 -0.11192964764E+04  0.76104058866E+03 -0.10336753360E+04  0.17030835836E+04  0.12699999809E+01 0.  1.
       -4    1    3    3    0  502  0.11192964764E+04 -0.76104058866E+03 -0.78857506091E+03  0.15664800092E+04  0.12699999809E+01 0. -1.
</event>
<event>
 5   0  0.1449521E-05  0.2731966E+04  0.7818609E-02  0.8324707E-01
        1   -1    0    0  501    0  0.00000000000E+00  0.00000000000E+00  0.26107282614E+04  0.26107282614E+04  0.50400001928E-02 0. -1.
       -1   -1    0    0    0  501  0.00000000000E+00  0.00000000000E+00 -0.71470834076E+03  0.71470834078E+03  0.50400001928E-02 0.  1.
    10030    2    1    2    0    0  0.00000000000E+00  0.00000000000E+00  0.18960199206E+04  0.33254366021E+04  0.27319657859E+04 0.  0.
        3    1    3    3  502    0 -0.15875724351E+03 -0.11249907421E+04  0.24916739536E+02  0.11364105272E+04  0.10100000352E+00 0.  1.
       -3    1    3    3    0  502  0.15875724351E+03  0.11249907421E+04  0.18711031811E+04  0.21890260749E+04  0.10100000352E+00 0. -1.
</event>
<event>
 5   0  0.3568647E-05  0.2752223E+04  0.7818609E-02  0.8318256E-01
       -2   -1    0    0    0  501  0.00000000000E+00  0.00000000000E+00  0.11660464293E+04  0.11660464293E+04  0.25500000920E-02 0. -1.
        2   -1    0    0  501    0  0.00000000000E+00  0.00000000000E+00 -0.16240205531E+04  0.16240205531E+04  0.25500000920E-02 0.  1.
    10030    2    1    2    0    0  0.00000000000E+00  0.00000000000E+00 -0.45797412379E+03  0.27900669823E+04  0.27522233681E+04 0.  0.
        3    1    3    3  502    0  0.13496397924E+04  0.43042362280E+02 -0.49778028889E+03  0.14391544185E+04  0.10100000352E+00 0.  1.
       -3    1    3    3    0  502 -0.13496397924E+04 -0.43042362280E+02  0.39806165095E+02  0.13509125638E+04  0.10100000352E+00 0. -1.
</event>
<event>
 5   0  0.1438701E-05  0.2719995E+04  0.7818609E-02  0.8328546E-01
        1   -1    0    0  501    0  0.00000000000E+00  0.00000000000E+00  0.21482253422E+04  0.21482253422E+04  0.50400001928E-02 0.  1.
       -1   -1    0    0    0  501  0.00000000000E+00  0.00000000000E+00 -0.86098640352E+03  0.86098640354E+03  0.50400001928E-02 0. -1.
    10030    2    1    2    0    0  0.00000000000E+00  0.00000000000E+00  0.12872389387E+04  0.30092117458E+04  0.27199947143E+04 0.  0.
        4    1    3    3  502    0 -0.31159163812E+03  0.12206346831E+04  0.12105019454E+04  0.17470990101E+04  0.12699999809E+01 0.  1.
       -4    1    3    3    0  502  0.31159163812E+03 -0.12206346831E+04  0.76736993331E+02  0.12621127357E+04  0.12699999809E+01 0. -1.
</event>
<event>
 5   0  0.3652331E-05  0.2726940E+04  0.7818609E-02  0.8326317E-01
        2   -1    0    0  501    0  0.00000000000E+00  0.00000000000E+00  0.17894668229E+04  0.17894668229E+04  0.25500000920E-02 0.  1.
       -2   -1    0    0    0  501  0.00000000000E+00  0.00000000000E+00 -0.10388847884E+04  0.10388847884E+04  0.25500000920E-02 0. -1.
    10030    2    1    2    0    0  0.00000000000E+00  0.00000000000E+00  0.75058203456E+03  0.28283516113E+04  0.27269395751E+04 0.  0.
        1    1    3    3  502    0 -0.56791557970E+03  0.21009011085E+03 -0.89177184401E+03  0.10779253138E+04  0.50400001928E-02 0. -1.
       -1    1    3    3    0  502  0.56791557970E+03 -0.21009011085E+03  0.16423538786E+04  0.17504262975E+04  0.50400001928E-02 0.  1.
</event>
<event>
 5   0  0.1903780E-05  0.1389145E+04  0.7818609E-02  0.8961714E-01
        1   -1    0    0  501    0  0.00000000000E+00  0.00000000000E+00  0.12357208083E+04  0.12357208083E+04  0.50400001928E-02 0. -1.
       -1   -1    0    0    0  501  0.00000000000E+00  0.00000000000E+00 -0.39040449010E+03  0.39040449014E+03  0.50400001928E-02 0.  1.
    10030    2    1    2    0    0  0.00000000000E+00  0.00000000000E+00  0.84531631815E+03  0.16261252984E+04  0.13891449918E+04 0.  0.
        5    1    3    3  502    0  0.29250483310E+03  0.40703613762E+03 -0.14016693134E+03  0.52048665050E+03  0.46999998093E+01 0.  1.
       -5    1    3    3    0  502 -0.29250483310E+03 -0.40703613762E+03  0.98548324949E+03  0.11056386479E+04  0.46999998093E+01 0. -1.
</event>
<event>
 5   0  0.1438701E-05  0.2685124E+04  0.7818609E-02  0.8339848E-01
       -1   -1    0    0    0  501  0.00000000000E+00  0.00000000000E+00  0.14839548763E+04  0.14839548763E+04  0.50400001928E-02 0. -1.
        1   -1    0    0  501    0  0.00000000000E+00  0.00000000000E+00 -0.12146412001E+04  0.12146412001E+04  0.50400001928E-02 0.  1.
    10030    2    1    2    0    0  0.00000000000E+00  0.00000000000E+00  0.26931367621E+03  0.26985960764E+04  0.26851240059E+04 0.  0.
        4    1    3    3  502    0 -0.79533117113E+03  0.10788528945E+04  0.21247840609E+03  0.13570644515E+04  0.12699999809E+01 0.  1.
       -4    1    3    3    0  502  0.79533117113E+03 -0.10788528945E+04  0.56835270125E+02  0.13415316249E+04  0.12699999809E+01 0. -1.
</event>
<event>
 5   0  0.3568647E-05  0.2640909E+04  0.7818609E-02  0.8354437E-01
       -2   -1    0    0    0  501  0.00000000000E+00  0.00000000000E+00  0.75153426758E+03  0.75153426758E+03  0.25500000920E-02 0. -1.
        2   -1    0    0  501    0  0.00000000000E+00  0.00000000000E+00 -0.23200532398E+04  0.23200532398E+04  0.25500000920E-02 0.  1.
    10030    2    1    2    0    0  0.00000000000E+00  0.00000000000E+00 -0.15685189722E+04  0.30715875074E+04  0.26409085651E+04 0.  0.
        3    1    3    3  502    0 -0.11784754463E+04 -0.58955014776E+03 -0.68539258404E+03  0.14853069578E+04  0.10100000352E+00 0. -1.
       -3    1    3    3    0  502  0.11784754463E+04  0.58955014776E+03 -0.88312638820E+03  0.15862805496E+04  0.10100000352E+00 0.  1.
</event>
<event>
 5   0  0.1495517E-05  0.2734698E+04  0.7818609E-02  0.8323834E-01
       -1   -1    0    0    0  501  0.00000000000E+00  0.00000000000E+00  0.11240243198E+04  0.11240243198E+04  0.50400001928E-02 0. -1.
        1   -1    0    0  501    0  0.00000000000E+00  0.00000000000E+00 -0.16633479939E+04  0.16633479939E+04  0.50400001928E-02 0.  1.
    10030    2    1    2    0    0  0.00000000000E+00  0.00000000000E+00 -0.53932367412E+03  0.27873723138E+04  0.27346982265E+04 0.  0.
        5    1    3    3  502    0 -0.13033457228E+04  0.28038284897E+03  0.39993886905E+02  0.13337714257E+04  0.46999998093E+01 0. -1.
       -5    1    3    3    0  502  0.13033457228E+04 -0.28038284897E+03 -0.57931756102E+03  0.14536008880E+04  0.46999998093E+01 0.  1.
</event>
<event>
 5   0  0.1449521E-05  0.1959594E+04  0.7818609E-02  0.8625748E-01
        1   -1    0    0  501    0  0.00000000000E+00  0.00000000000E+00  0.94590762378E+03  0.94590762380E+03  0.50400001928E-02 0.  1.
       -1   -1    0    0    0  501  0.00000000000E+00  0.00000000000E+00 -0.10149005539E+04  0.10149005539E+04  0.50400001928E-02 0. -1.
    10030    2    1    2    0    0  0.00000000000E+00  0.00000000000E+00 -0.68992930141E+02  0.19608081777E+04  0.19595940104E+04 0.  0.
        3    1    3    3  502    0  0.21401166710E+03  0.43314304070E+03  0.81843315869E+03  0.95039293601E+03  0.10100000352E+00 0.  1.
       -3    1    3    3    0  502 -0.21401166710E+03 -0.43314304070E+03 -0.88742608883E+03  0.10104152417E+04  0.10100000352E+00 0. -1.
</event>
<event>
 5   0  0.1474012E-05  0.3202911E+04  0.7818609E-02  0.8188049E-01
        1   -1    0    0  501    0  0.00000000000E+00  0.00000000000E+00  0.22079430653E+04  0.22079430653E+04  0.50400001928E-02 0.  1.
       -1   -1    0    0    0  501  0.00000000000E+00  0.00000000000E+00 -0.11615608871E+04  0.11615608871E+04  0.50400001928E-02 0. -1.
    10030    2    1    2    0    0  0.00000000000E+00  0.00000000000E+00  0.10463821783E+04  0.33695039524E+04  0.32029113666E+04 0.  0.
        2    1    3    3  502    0 -0.62219887833E+03 -0.13701686966E+04  0.10995622408E+04  0.18637410825E+04  0.25500000920E-02 0.  1.
       -2    1    3    3    0  502  0.62219887833E+03  0.13701686966E+04 -0.53180062501E+02  0.15057628699E+04  0.25500000920E-02 0. -1.
</event>
<event>
 5   0  0.3514294E-05  0.2718936E+04  0.7818609E-02  0.8328887E-01
        2   -1    0    0  501    0  0.00000000000E+00  0.00000000000E+00  0.13793838930E+04  0.13793838930E+04  0.25500000920E-02 0.  1.
       -2   -1    0    0    0  501  0.00000000000E+00  0.00000000000E+00 -0.13398398230E+04  0.13398398230E+04  0.25500000920E-02 0. -1.
    10030    2    1    2    0    0  0.00000000000E+00  0.00000000000E+00  0.39544070032E+02  0.27192237160E+04  0.27189361677E+04 0.  0.
        2    1    3    3  502    0 -0.50627638515E+03  0.61807316651E+03  0.11198080178E+04  0.13756090338E+04  0.25500000920E-02 0.  1.
       -2    1    3    3    0  502  0.50627638515E+03 -0.61807316651E+03 -0.10802639477E+04  0.13436146821E+04  0.25500000920E-02 0. -1.
</event>
<event>
 5   0  0.1474012E-05  0.2416429E+04  0.7818609E-02  0.8433378E-01
        1   -1    0    0  501    0  0.00000000000E+00  0.00000000000E+00  0.12621670793E+04  0.12621670793E+04  0.50400001928E-02 0.  1.
       -1   -1    0    0    0  501  0.00000000000E+00  0.00000000000E+00 -0.11565683320E+04  0.11565683320E+04  0.50400001928E-02 0. -1.
    10030    2    1    2    0    0  0.00000000000E+00  0.00000000000E+00  0.10559874737E+03  0.24187354113E+04  0.24164291619E+04 0.  0.
        2    1    3    3  502    0  0.11323675228E+04 -0.28617056859E+03 -0.25674109860E+03  0.11958535834E+04  0.25500000920E-02 0. -1.
       -2    1    3    3    0  502 -0.11323675228E+04  0.28617056859E+03  0.36233984596E+03  0.12228818279E+04  0.25500000920E-02 0.  1.
</event>
<event>
 5   0  0.1474012E-05  0.2301244E+04  0.7818609E-02  0.8477431E-01
        1   -1    0    0  501    0  0.00000000000E+00  0.00000000000E+00  0.20591518806E+04  0.20591518806E+04  0.50400001928E-02 0. -1.
       -1   -1    0    0    0  501  0.00000000000E+00  0.00000000000E+00 -0.64294951346E+03  0.64294951348E+03  0.50400001928E-02 0.  1.
    10030    2    1    2    0    0  0.00000000000E+00  0.00000000000E+00  0.14162023672E+04  0.27021013941E+04  0.23012437505E+04 0.  0.
        2    1    3    3  502    0 -0.57505578303E+03  0.41258490421E+02 -0.46111274911E+03  0.73825224959E+03  0.25500000920E-02 0.  1.
       -2    1    3    3    0  502  0.57505578303E+03 -0.41258490421E+02  0.18773151163E+04  0.19638491445E+04  0.25500000920E-02 0. -1.
</event>
<event>
 5   0  0.1449521E-05  0.2688871E+04  0.7818609E-02  0.8338625E-01
        1   -1    0    0  501    0  0.00000000000E+00  0.00000000000E+00  0.90418500795E+03  0.90418500797E+03  0.50400001928E-02 0.  1.
       -1   -1    0    0    0  501  0.00000000000E+00  0.00000000000E+00 -0.19990450416E+04  0.19990450416E+04  0.50400001928E-02 0. -1.
    10030    2    1    2    0    0  0.00000000000E+00  0.00000000000E+00 -0.10948600337E+04  0.29032300496E+04  0.26888708090E+04 0.  0.
        3    1    3    3  502    0  0.71462637800E+03 -0.34252734859E+03  0.62519397289E+03  0.10093975226E+04  0.10100000352E+00 0.  1.
       -3    1    3    3    0  502 -0.71462637800E+03  0.34252734859E+03 -0.17200540066E+04  0.18938325270E+04  0.10100000352E+00 0. -1.
</event>
<event>
 5   0  0.3652331E-05  0.1955050E+04  0.7818609E-02  0.8627930E-01
        2   -1    0    0  501    0  0.00000000000E+00  0.00000000000E+00  0.10054718123E+04  0.10054718123E+04  0.25500000920E-02 0.  1.
       -2   -1    0    0    0  501  0.00000000000E+00  0.00000000000E+00 -0.95035455761E+03  0.95035455761E+03  0.25500000920E-02 0. -1.
    10030    2    1    2    0    0  0.00000000000E+00  0.00000000000E+00  0.55117254681E+02  0.19558263699E+04  0.19550495844E+04 0.  0.
        1    1    3    3  502    0 -0.59738918085E+03 -0.55660769655E+03  0.56523729708E+03  0.99306553826E+03  0.50400001928E-02 0.  1.
       -1    1    3    3    0  502  0.59738918085E+03  0.55660769655E+03 -0.51012004240E+03  0.96276083164E+03  0.50400001928E-02 0. -1.
</event>
<event>
 5   0  0.3676724E-05  0.2362029E+04  0.7818609E-02  0.8453858E-01
        2   -1    0    0  501    0  0.00000000000E+00  0.00000000000E+00  0.13983123850E+04  0.13983123850E+04  0.25500000920E-02 0.  1.
       -2   -1    0    0    0  501  0.00000000000E+00  0.00000000000E+00 -0.99748457893E+03  0.99748457893E+03  0.25500000920E-02 0. -1.
    10030    2    1    2    0    0  0.00000000000E+00  0.00000000000E+00  0.40082780603E+03  0.23957969639E+04  0.23620288233E+04 0.  0.
        4    1    3    3  502    0  0.84710823415E+03 -0.49400498395E+03  0.86797199020E+03  0.13095840077E+04  0.12699999809E+01 0.  1.
       -4    1    3    3    0  502 -0.84710823415E+03  0.49400498395E+03 -0.46714418417E+03  0.10862129562E+04  0.12699999809E+01 0. -1.
</event>
<event>
 5   0  0.1484379E-05  0.2672670E+04  0.7818609E-02  0.8343927E-01
        1   -1    0    0  501    0  0.00000000000E+00  0.00000000000E+00  0.15780078023E+04  0.15780078023E+04  0.50400001928E-02 0.  1.
       -1   -1    0    0    0  501  0.00000000000E+00  0.00000000000E+00 -0.11316744070E+04  0.11316744070E+04  0.50400001928E-02 0. -1.
    10030    2    1    2    0    0  0.00000000000E+00  0.00000000000E+00  0.44633339526E+03  0.27096822093E+04  0.26726698591E+04 0.  0.
        1    1    3    3  502    0 -0.28402083182E+03 -0.11538779296E+03  0.15418748546E+04  0.15720560559E+04  0.50400001928E-02 0.  1.
       -1    1    3    3    0  502  0.28402083182E+03  0.11538779296E+03 -0.10955414593E+04  0.11376261534E+04  0.50400001928E-02 0. -1.
</event>
<event>
 5   0  0.3652331E-05  0.2704200E+04  0.7818609E-02  0.8333643E-01
       -2   -1    0    0    0  501  0.00000000000E+00  0.00000000000E+00  0.11386209549E+04  0.11386209549E+04  0.25500000920E-02 0. -1.
        2   -1    0    0  501    0  0.00000000000E+00  0.00000000000E+00 -0.16056045928E+04  0.16056045928E+04  0.25500000920E-02 0.  1.
    10030    2    1    2    0    0  0.00000000000E+00  0.00000000000E+00 -0.46698363788E+03  0.27442255477E+04  0.27042004619E+04 0.  0.
        1    1    3    3  502    0 -0.26721757287E+02 -0.10322999722E+04  0.65224860160E+03  0.12213867214E+04  0.50400001928E-02 0. -1.
       -1    1    3    3    0  502  0.26721757287E+02  0.10322999722E+04 -0.11192322395E+04  0.15228388263E+04  0.50400001928E-02 0.  1.
</event>
<event>
 5   0  0.3676724E-05  0.1759615E+04  0.7818609E-02  0.8728075E-01
       -2   -1    0    0    0  501  0.00000000000E+00  0.00000000000E+00  0.14850565965E+04  0.14850565965E+04  0.25500000920E-02 0. -1.
        2   -1    0    0  501    0  0.00000000000E+00  0.00000000000E+00 -0.52123357798E+03  0.52123357799E+03  0.25500000920E-02 0.  1.
    10030    2    1    2    0    0  0.00000000000E+00  0.00000000000E+00  0.96382301848E+03  0.20062901745E+04  0.17596151435E+04 0.  0.
        4    1    3    3  502    0  0.92239611897E+02  0.21896701007E+01  0.14795241210E+04  0.14823987919E+04  0.12699999809E+01 0. -1.
       -4    1    3    3    0  502 -0.92239611897E+02 -0.21896701007E+01 -0.51570110254E+03  0.52389138255E+03  0.12699999809E+01 0.  1.
</event>
<event>
 5   0  0.3497949E-05  0.2467457E+04  0.7818609E-02  0.8414672E-01
        2   -1    0    0  501    0  0.00000000000E+00  0.00000000000E+00  0.14370905730E+04  0.14370905730E+04  0.25500000920E-02 0. -1.
       -2   -1    0    0    0  501  0.00000000000E+00  0.00000000000E+00 -0.10591440235E+04  0.10591440235E+04  0.25500000920E-02 0.  1.
    10030    2    1    2    0    0  0.00000000000E+00  0.00000000000E+00  0.37794654950E+03  0.24962345965E+04  0.24674569027E+04 0.  0.
        5    1    3    3  502    0  0.25957209830E+03  0.11951326807E+04  0.24771931192E+02  0.12232561208E+04  0.46999998093E+01 0.  1.
       -5    1    3    3    0  502 -0.25957209830E+03 -0.11951326807E+04  0.35317461831E+03  0.12729784757E+04  0.46999998093E+01 0. -1.
</event>
<event>
 5   0  0.3652331E-05  0.2711595E+04  0.7818609E-02  0.8331253E-01
        2   -1    0    0  501    0  0.00000000000E+00  0.00000000000E+00  0.13165303977E+04  0.13165303977E+04  0.25500000920E-02 0. -1.
       -2   -1    0    0    0  501  0.00000000000E+00  0.00000000000E+00 -0.13962354476E+04  0.13962354476E+04  0.25500000920E-02 0.  1.
    10030    2    1    2    0    0  0.00000000000E+00  0.00000000000E+00 -0.79705049879E+02  0.27127658454E+04  0.27115946667E+04 0.  0.
        1    1    3    3  502    0 -0.76679579568E+03  0.46354721366E+03 -0.10578059345E+04  0.13862918908E+04  0.50400001928E-02 0.  1.
       -1    1    3    3    0  502  0.76679579568E+03 -0.46354721366E+03  0.97810088459E+03  0.13264739545E+04  0.50400001928E-02 0. -1.
</event>
<event>
 5   0  0.3497949E-05  0.2731501E+04  0.7818609E-02  0.8324856E-01
        2   -1    0    0  501    0  0.00000000000E+00  0.00000000000E+00  0.14483509548E+04  0.14483509548E+04  0.25500000920E-02 0. -1.
       -2   -1    0    0    0  501  0.00000000000E+00  0.00000000000E+00 -0.12878603936E+04  0.12878603936E+04  0.25500000920E-02 0.  1.
    10030    2    1    2    0    0  0.00000000000E+00  0.00000000000E+00  0.16049056117E+03  0.27362113483E+04  0.27315005624E+04 0.  0.
        5    1    3    3  502    0 -0.12769997723E+04 -0.44842289256E+03 -0.10293679837E+03  0.13573612576E+04  0.46999998093E+01 0.  1.
       -5    1    3    3    0  502  0.12769997723E+04  0.44842289256E+03  0.26342735955E+03  0.13788500908E+04  0.46999998093E+01 0. -1.
</event>
<event>
 5   0  0.3652331E-05  0.2707712E+04  0.7818609E-02  0.8332507E-01
       -2   -1    0    0    0  501  0.00000000000E+00  0.00000000000E+00  0.12470231965E+04  0.12470231965E+04  0.25500000920E-02 0.  1.
        2   -1    0    0  501    0  0.00000000000E+00  0.00000000000E+00 -0.14698407254E+04  0.14698407254E+04  0.25500000920E-02 0. -1.
    10030    2    1    2    0    0  0.00000000000E+00  0.00000000000E+00 -0.22281752894E+03  0.27168639219E+04  0.27077115649E+04 0.  0.
        1    1    3    3  502    0 -0.13056248149E+04  0.20102912829E+03 -0.40881680958E+03  0.13828232178E+04  0.50400001928E-02 0. -1.
       -1    1    3    3    0  502  0.13056248149E+04 -0.20102912829E+03  0.18599928064E+03  0.13340407041E+04  0.50400001928E-02 0.  1.
</event>
<event>
 5   0  0.1438701E-05  0.1594368E+04  0.7818609E-02  0.8824015E-01
       -1   -1    0    0    0  501  0.00000000000E+00  0.00000000000E+00  0.74783641730E+03  0.74783641731E+03  0.50400001928E-02 0.  1.
        1   -1    0    0  501    0  0.00000000000E+00  0.00000000000E+00 -0.84978795148E+03  0.84978795150E+03  0.50400001928E-02 0. -1.
    10030    2    1    2    0    0  0.00000000000E+00  0.00000000000E+00 -0.10195153418E+03  0.15976243688E+04  0.15943680593E+04 0.  0.
        4    1    3    3  502    0 -0.60985964609E+03  0.51331218906E+03 -0.41870247065E+02  0.79823112057E+03  0.12699999809E+01 0. -1.
       -4    1    3    3    0  502  0.60985964609E+03 -0.51331218906E+03 -0.60081287119E+02  0.79939324824E+03  0.12699999809E+01 0.  1.
</event>
<event>
 5   0  0.1449521E-05  0.2671705E+04  0.7818609E-02  0.8344245E-01
        1   -1    0    0  501    0  0.00000000000E+00  0.00000000000E+00  0.12650921796E+04  0.12650921797E+04  0.50400001928E-02 0. -1.
       -1   -1    0    0    0  501  0.00000000000E+00  0.00000000000E+00 -0.14105703888E+04  0.14105703888E+04  0.50400001928E-02 0.  1.
    10030    2    1    2    0    0  0.00000000000E+00  0.00000000000E+00 -0.14547820918E+03  0.26756625685E+04  0.26717047500E+04 0.  0.
        3    1    3    3  502    0  0.19591135132E+03 -0.99479658904E+03 -0.94379767866E+03  0.13851915317E+04  0.10100000352E+00 0.  1.
       -3    1    3    3    0  502 -0.19591135132E+03  0.99479658904E+03  0.79831946948E+03  0.12904710368E+04  0.10100000352E+00 0. -1.
</event>
<event>
 5   0  0.3652331E-05  0.2626230E+04  0.7818609E-02  0.8359346E-01
       -2   -1    0    0    0  501  0.00000000000E+00  0.00000000000E+00  0.12060402449E+04  0.12060402449E+04  0.25500000920E-02 0. -1.
        2   -1    0    0  501    0  0.00000000000E+00  0.00000000000E+00 -0.14296956412E+04  0.14296956412E+04  0.25500000920E-02 0.  1.
    10030    2    1    2    0    0  0.00000000000E+00  0.00000000000E+00 -0.22365539631E+03  0.26357358861E+04  0.26262296025E+04 0.  0.
        1    1    3    3  502    0  0.33046040494E+02  0.54162808388E+03 -0.13119057560E+04  0.14197005792E+04  0.50400001928E-02 0.  1.
       -1    1    3    3    0  502 -0.33046040494E+02 -0.54162808388E+03  0.10882503597E+04  0.12160353068E+04  0.50400001928E-02 0. -1.
</event>
<event>
 5   0  0.1474012E-05  0.2548295E+04  0.7818609E-02  0.8385979E-01
       -1   -1    0    0    0  501  0.00000000000E+00  0.00000000000E+00  0.83866249627E+03  0.83866249629E+03  0.50400001928E-02 0.  1.
        1   -1    0    0  501    0  0.00000000000E+00  0.00000000000E+00 -0.19357636759E+04  0.19357636759E+04  0.50400001928E-02 0. -1.
    10030    2    1    2    0    0  0.00000000000E+00  0.00000000000E+00 -0.10971011796E+04  0.27744261722E+04  0.25482954276E+04 0.  0.
        2    1    3    3  502    0 -0.11377732122E+04  0.57066734238E+03 -0.48635611475E+03  0.13626193043E+04  0.25500000920E-02 0.  1.
       -2    1    3    3    0  502  0.11377732122E+04 -0.57066734238E+03 -0.61074506485E+03  0.14118068679E+04  0.25500000920E-02 0. -1.
</event>
<event>
 5   0  0.3514294E-05  0.2713616E+04  0.7818609E-02  0.8330601E-01
       -2   -1    0    0    0  501  0.00000000000E+00  0.00000000000E+00  0.10804914346E+04  0.10804914346E+04  0.25500000920E-02 0.  1.
        2   -1    0    0  501    0  0.00000000000E+00  0.00000000000E+00 -0.17037876859E+04  0.17037876859E+04  0.25500000920E-02 0. -1.
    10030    2    1    2    0    0  0.00000000000E+00  0.00000000000E+00 -0.62329625135E+03  0.27842791205E+04  0.27136160384E+04 0.  0.
        2    1    3    3  502    0  0.35097311305E+03  0.23598147010E+03 -0.16344278878E+04  0.16882606140E+04  0.25500000920E-02 0. -1.
       -2    1    3    3    0  502 -0.35097311305E+03 -0.23598147010E+03  0.10111316365E+04  0.10960185065E+04  0.25500000920E-02 0.  1.
</event>
<event>
 5   0  0.1438701E-05  0.2087777E+04  0.7818609E-02  0.8566647E-01
        1   -1    0    0  501    0  0.00000000000E+00  0.00000000000E+00  0.62914736866E+03  0.62914736868E+03  0.50400001928E-02 0.  1.
       -1   -1    0    0    0  501  0.00000000000E+00  0.00000000000E+00 -0.17320317247E+04  0.17320317247E+04  0.50400001928E-02 0. -1.
    10030    2    1    2    0    0  0.00000000000E+00  0.00000000000E+00 -0.11028843560E+04  0.23611790934E+04  0.20877770016E+04 0.  0.
        4    1    3    3  502    0  0.20603268698E+03 -0.68927606580E+03 -0.14069027716E+04  0.15801670749E+04  0.12699999809E+01 0. -1.
       -4    1    3    3    0  502 -0.20603268698E+03  0.68927606580E+03  0.30401841562E+03  0.78101201843E+03  0.12699999809E+01 0.  1.
</event>
<event>
 5   0  0.3497949E-05  0.2699885E+04  0.7818609E-02  0.8335042E-01
        2   -1    0    0  501    0  0.00000000000E+00  0.00000000000E+00  0.12464232848E+04  0.12464232848E+04  0.25500000920E-02 0. -1.
       -2   -1    0    0    0  501  0.00000000000E+00  0.00000000000E+00 -0.14620589027E+04  0.14620589027E+04  0.25500000920E-02 0.  1.
    10030    2    1    2    0    0  0.00000000000E+00  0.00000000000E+00 -0.21563561793E+03  0.27084821875E+04  0.26998846346E+04 0.  0.
        5    1    3    3  502    0  0.69768749605E+03 -0.14516780168E+02 -0.12670683031E+04  0.14465347399E+04  0.46999998093E+01 0.  1.
       -5    1    3    3    0  502 -0.69768749605E+03  0.14516780168E+02  0.10514326851E+04  0.12619474476E+04  0.46999998093E+01 0. -1.
</event>
<event>
 5   0  0.1438701E-05  0.2698544E+04  0.7818609E-02  0.8335477E-01
       -1   -1    0    0    0  501  0.00000000000E+00  0.00000000000E+00  0.85017760980E+03  0.85017760982E+03  0.50400001928E-02 0. -1.
        1   -1    0    0  501    0  0.00000000000E+00  0.00000000000E+00 -0.21413586274E+04  0.21413586275E+04  0.50400001928E-02 0.  1.
    10030    2    1    2    0    0  0.00000000000E+00  0.00000000000E+00 -0.12911810176E+04  0.29915362373E+04  0.26985441702E+04 0.  0.
        4    1    3    3  502    0 -0.86091968050E+03 -0.39351706081E+03 -0.17114919783E+04  0.19558232993E+04  0.12699999809E+01 0.  1.
       -4    1    3    3    0  502  0.86091968050E+03  0.39351706081E+03  0.42031096061E+03  0.10357129380E+04  0.12699999809E+01 0. -1.
</event>
<event>
 5   0  0.3652331E-05  0.2714150E+04  0.7818609E-02  0.8330428E-01
        2   -1    0    0  501    0  0.00000000000E+00  0.00000000000E+00  0.24515526954E+04  0.24515526954E+04  0.25500000920E-02 0.  1.
       -2   -1    0    0    0  501  0.00000000000E+00  0.00000000000E+00 -0.75121860329E+03  0.75121860329E+03  0.25500000920E-02 0. -1.
    10030    2    1    2    0    0  0.00000000000E+00  0.00000000000E+00  0.17003340921E+04  0.32027712987E+04  0.27141495845E+04 0.  0.
        1    1    3    3  502    0 -0.10852666011E+03  0.10512396415E+04  0.18547643422E+04  0.21347209619E+04  0.50400001928E-02 0.  1.
       -1    1    3    3    0  502  0.10852666011E+03 -0.10512396415E+04 -0.15443025006E+03  0.10680503369E+04  0.50400001928E-02 0. -1.
</event>
<event>
 5   0  0.1474012E-05  0.2742819E+04  0.7818609E-02  0.8321244E-01
       -1   -1    0    0    0  501  0.00000000000E+00  0.00000000000E+00  0.14743066970E+04  0.14743066970E+04  0.50400001928E-02 0. -1.
        1   -1    0    0  501    0  0.00000000000E+00  0.00000000000E+00 -0.12756937660E+04  0.12756937660E+04  0.50400001928E-02 0.  1.
    10030    2    1    2    0    0  0.00000000000E+00  0.00000000000E+00  0.19861293101E+03  0.27500004629E+04  0.27428188875E+04 0.  0.
        2    1    3    3  502    0  0.98635435821E+03  0.51837439951E+03 -0.70225971387E+03  0.13171088200E+04  0.25500000920E-02 0.  1.
       -2    1    3    3    0  502 -0.98635435821E+03 -0.51837439951E+03  0.90087264488E+03  0.14328916429E+04  0.25500000920E-02 0. -1.
</event>
<event>
 5   0  0.1474012E-05  0.2641975E+04  0.7818609E-02  0.8354081E-01
       -1   -1    0    0    0  501  0.00000000000E+00  0.00000000000E+00  0.83685838730E+03  0.83685838732E+03  0.50400001928E-02 0.  1.
        1   -1    0    0  501    0  0.00000000000E+00  0.00000000000E+00 -0.20851894961E+04  0.20851894961E+04  0.50400001928E-02 0. -1.
    10030    2    1    2    0    0  0.00000000000E+00  0.00000000000E+00 -0.12483311088E+04  0.29220478834E+04  0.26419752603E+04 0.  0.
        2    1    3    3  502    0 -0.56172333200E+03 -0.10872646531E+04 -0.74121245592E+02  0.12260389417E+04  0.25500000920E-02 0.  1.
       -2    1    3    3    0  502  0.56172333200E+03  0.10872646531E+04 -0.11742098632E+04  0.16960089417E+04  0.25500000920E-02 0. -1.
</event>
<event>
 5   0  0.1449521E-05  0.2465232E+04  0.7818609E-02  0.8415478E-01
       -1   -1    0    0    0  501  0.00000000000E+00  0.00000000000E+00  0.70069150664E+03  0.70069150666E+03  0.50400001928E-02 0. -1.
        1   -1    0    0  501    0  0.00000000000E+00  0.00000000000E+00 -0.21683468554E+04  0.21683468554E+04  0.50400001928E-02 0.  1.
    10030    2    1    2    0    0  0.00000000000E+00  0.00000000000E+00 -0.14676553488E+04  0.28690383621E+04  0.24652320176E+04 0.  0.
        3    1    3    3  502    0  0.54220354144E+03  0.11046314674E+04 -0.65033477215E+03  0.13918084226E+04  0.10100000352E+00 0.  1.
       -3    1    3    3    0  502 -0.54220354144E+03 -0.11046314674E+04 -0.81732057663E+03  0.14772299395E+04  0.10100000352E+00 0. -1.
</event>
<event>
 5   0  0.1495517E-05  0.2700089E+04  0.7818609E-02  0.8334976E-01
       -1   -1    0    0    0  501  0.00000000000E+00  0.00000000000E+00  0.82810466883E+03  0.82810466884E+03  0.50400001928E-02 0.  1.
        1   -1    0    0  501    0  0.00000000000E+00  0.00000000000E+00 -0.22009542322E+04  0.22009542322E+04  0.50400001928E-02 0. -1.
    10030    2    1    2    0    0  0.00000000000E+00  0.00000000000E+00 -0.13728495634E+04  0.30290589011E+04  0.27000892397E+04 0.  0.
        5    1    3    3  502    0  0.38910012281E+01 -0.12109840708E+04 -0.16977949431E+02  0.12111184502E+04  0.46999998093E+01 0.  1.
       -5    1    3    3    0  502 -0.38910012281E+01  0.12109840708E+04 -0.13558716140E+04  0.18179404509E+04  0.46999998093E+01 0. -1.
</event>
<event>
 5   0  0.1438701E-05  0.2694909E+04  0.7818609E-02  0.8336659E-01
        1   -1    0    0  501    0  0.00000000000E+00  0.00000000000E+00  0.18016095785E+04  0.18016095785E+04  0.50400001928E-02 0.  1.
       -1   -1    0    0    0  501  0.00000000000E+00  0.00000000000E+00 -0.10077842361E+04  0.10077842361E+04  0.50400001928E-02 0. -1.
    10030    2    1    2    0    0  0.00000000000E+00  0.00000000000E+00  0.79382534236E+03  0.28093938146E+04  0.26949090767E+04 0.  0.
        4    1    3    3  502    0 -0.99497994381E+03 -0.58109546950E+03  0.11251405981E+04  0.16104657747E+04  0.12699999809E+01 0.  1.
       -4    1    3    3    0  502  0.99497994381E+03  0.58109546950E+03 -0.33131525571E+03  0.11989280399E+04  0.12699999809E+01 0. -1.
</event>
<event>
 5   0  0.3676724E-05  0.2771593E+04  0.7818609E-02  0.8312142E-01
        2   -1    0    0  501    0  0.00000000000E+00  0.00000000000E+00  0.20289168455E+04  0.20289168456E+04  0.25500000920E-02 0. -1.
       -2   -1    0    0    0  501  0.00000000000E+00  0.00000000000E+00 -0.94653058498E+03  0.94653058498E+03  0.25500000920E-02 0.  1.
    10030    2    1    2    0    0  0.00000000000E+00  0.00000000000E+00  0.10823862606E+04  0.29754474305E+04  0.27715929345E+04 0.  0.
        4    1    3    3  502    0  0.42127479458E+03  0.12500544104E+04  0.99706930778E+03  0.16535589796E+04  0.12699999809E+01 0. -1.
       -4    1    3    3    0  502 -0.42127479458E+03 -0.12500544104E+04  0.85316952790E+02  0.13218884510E+04  0.12699999809E+01 0.  1.
</event>
<event>
 5   0  0.3652331E-05  0.2649531E+04  0.7818609E-02  0.8351569E-01
        2   -1    0    0  501    0  0.00000000000E+00  0.00000000000E+00  0.27232367395E+04  0.27232367395E+04  0.25500000920E-02 0.  1.
       -2   -1    0    0    0  501  0.00000000000E+00  0.00000000000E+00 -0.64445499068E+03  0.64445499069E+03  0.25500000920E-02 0. -1.
    10030    2    1    2    0    0  0.00000000000E+00  0.00000000000E+00  0.20787817488E+04  0.33676917301E+04  0.26495309076E+04 0.  0.
        1    1    3    3  502    0  0.12407522601E+04 -0.57926705347E+02  0.45390362811E+03  0.13224409922E+04  0.50400001928E-02 0. -1.
       -1    1    3    3    0  502 -0.12407522601E+04  0.57926705347E+02  0.16248781207E+04  0.20452507380E+04  0.50400001928E-02 0.  1.
</event>
<event>
 5   0  0.3497949E-05  0.1808222E+04  0.7818609E-02  0.8701939E-01
       -2   -1    0    0    0  501  0.00000000000E+00  0.00000000000E+00  0.99174075906E+03  0.99174075906E+03  0.25500000920E-02 0.  1.
        2   -1    0    0  501    0  0.00000000000E+00  0.00000000000E+00 -0.82422452863E+03  0.82422452864E+03  0.25500000920E-02 0. -1.
    10030    2    1    2    0    0  0.00000000000E+00  0.00000000000E+00  0.16751623042E+03  0.18159652877E+04  0.18082223975E+04 0.  0.
        5    1    3    3  502    0  0.85737982702E+02  0.62095610898E+03  0.73805189773E+03  0.96833887906E+03  0.46999998093E+01 0.  1.
       -5    1    3    3    0  502 -0.85737982702E+02 -0.62095610898E+03 -0.57053566731E+03  0.84762640864E+03  0.46999998093E+01 0. -1.
</event>
<event>
 5   0  0.3514294E-05  0.1505648E+04  0.7818609E-02  0.8880705E-01
        2   -1    0    0  501    0  0.00000000000E+00  0.00000000000E+00  0.36047514861E+03  0.36047514862E+03  0.25500000920E-02 0. -1.
       -2   -1    0    0    0  501  0.00000000000E+00  0.00000000000E+00 -0.15722146499E+04  0.15722146499E+04  0.25500000920E-02 0.  1.
    10030    2    1    2    0    0  0.00000000000E+00  0.00000000000E+00 -0.12117395012E+04  0.19326897985E+04  0.15056484444E+04 0.  0.
        2    1    3    3  502    0  0.46443556607E+03 -0.52057396124E+03 -0.96903994365E+03  0.11940418990E+04  0.25500000920E-02 0.  1.
       -2    1    3    3    0  502 -0.46443556607E+03  0.52057396124E+03 -0.24269955760E+03  0.73864789948E+03  0.25500000920E-02 0. -1.
</event>
<event>
 5   0  0.1474012E-05  0.2685765E+04  0.7818609E-02  0.8339639E-01
       -1   -1    0    0    0  501  0.00000000000E+00  0.00000000000E+00  0.10633801559E+04  0.10633801559E+04  0.50400001928E-02 0.  1.
        1   -1    0    0  501    0  0.00000000000E+00  0.00000000000E+00 -0.16958498860E+04  0.16958498860E+04  0.50400001928E-02 0. -1.
    10030    2    1    2    0    0  0.00000000000E+00  0.00000000000E+00 -0.63246973006E+03  0.27592300419E+04  0.26857647821E+04 0.  0.
        2    1    3    3  502    0 -0.11187588393E+04  0.37683501286E+03  0.34135741507E+03  0.12288819521E+04  0.25500000920E-02 0.  1.
       -2    1    3    3    0  502  0.11187588393E+04 -0.37683501286E+03 -0.97382714513E+03  0.15303480898E+04  0.25500000920E-02 0. -1.
</event>
<event>
 5   0  0.1484379E-05  0.2566916E+04  0.7818609E-02  0.8379527E-01
        1   -1    0    0  501    0  0.00000000000E+00  0.00000000000E+00  0.12554012116E+04  0.12554012117E+04  0.50400001928E-02 0. -1.
       -1   -1    0    0    0  501  0.00000000000E+00  0.00000000000E+00 -0.13121415723E+04  0.13121415723E+04  0.50400001928E-02 0.  1.
    10030    2    1    2    0    0  0.00000000000E+00  0.00000000000E+00 -0.56740360660E+02  0.25675427840E+04  0.25669157522E+04 0.  0.
        1    1    3    3  502    0  0.36373379261E+03  0.26254818767E+03 -0.12311739214E+04  0.13103522609E+04  0.50400001928E-02 0.  1.
       -1    1    3    3    0  502 -0.36373379261E+03 -0.26254818767E+03  0.11744335608E+04  0.12571905231E+04  0.50400001928E-02 0. -1.
</event>
<event>
 5   0  0.3497949E-05  0.2685978E+04  0.7818609E-02  0.8339569E-01
        2   -1    0    0  501    0  0.00000000000E+00  0.00000000000E+00  0.15082184167E+04  0.15082184167E+04  0.25500000920E-02 0. -1.
       -2   -1    0    0    0  501  0.00000000000E+00  0.00000000000E+00 -0.11958607862E+04  0.11958607862E+04  0.25500000920E-02 0.  1.
    10030    2    1    2    0    0  0.00000000000E+00  0.00000000000E+00  0.31235763045E+03  0.27040792029E+04  0.26859778566E+04 0.  0.
        5    1    3    3  502    0  0.11547062496E+04 -0.48603992791E+03 -0.33083312026E+03  0.12957831523E+04  0.46999998093E+01 0.  1.
       -5    1    3    3    0  502 -0.11547062496E+04  0.48603992791E+03  0.64319075071E+03  0.14082960506E+04  0.46999998093E+01 0. -1.
</event>
<event>
 5   0  0.3652331E-05  0.2352077E+04  0.7818609E-02  0.8457666E-01
       -2   -1    0    0    0  501  0.00000000000E+00  0.00000000000E+00  0.87406717835E+03  0.87406717836E+03  0.25500000920E-02 0. -1.
        2   -1    0    0  501    0  0.00000000000E+00  0.00000000000E+00 -0.15823349213E+04  0.15823349213E+04  0.25500000920E-02 0.  1.
    10030    2    1    2    0    0  0.00000000000E+00  0.00000000000E+00 -0.70826774292E+03  0.24564020996E+04  0.23520773966E+04 0.  0.
        1    1    3    3  502    0  0.41677873572E+03 -0.41292487461E+03  0.71031654049E+03  0.92128228809E+03  0.50400001928E-02 0. -1.
       -1    1    3    3    0  502 -0.41677873572E+03  0.41292487461E+03 -0.14185842834E+04  0.15351198115E+04  0.50400001928E-02 0.  1.
</event>
<event>
 5   0  0.1495517E-05  0.2159384E+04  0.7818609E-02  0.8535526E-01
        1   -1    0    0  501    0  0.00000000000E+00  0.00000000000E+00  0.78147852486E+03  0.78147852488E+03  0.50400001928E-02 0.  1.
       -1   -1    0    0    0  501  0.00000000000E+00  0.00000000000E+00 -0.14917037631E+04  0.14917037631E+04  0.50400001928E-02 0. -1.
    10030    2    1    2    0    0  0.00000000000E+00  0.00000000000E+00 -0.71022523820E+03  0.22731822879E+04  0.21593836679E+04 0.  0.
        5    1    3    3  502    0 -0.78041045442E+03  0.46746717395E+03  0.25703588198E+03  0.94533357642E+03  0.46999998093E+01 0.  1.
       -5    1    3    3    0  502  0.78041045442E+03 -0.46746717395E+03 -0.96726112018E+03  0.13278487115E+04  0.46999998093E+01 0. -1.
</event>
<event>
 5   0  0.1449521E-05  0.2733785E+04  0.7818609E-02  0.8324126E-01
       -1   -1    0    0    0  501  0.00000000000E+00  0.00000000000E+00  0.16116297010E+04  0.16116297010E+04  0.50400001928E-02 0. -1.
        1   -1    0    0  501    0  0.00000000000E+00  0.00000000000E+00 -0.11593201813E+04  0.11593201813E+04  0.50400001928E-02 0.  1.
    10030    2    1    2    0    0  0.00000000000E+00  0.00000000000E+00  0.45230951970E+03  0.27709498824E+04  0.27337848030E+04 0.  0.
        3    1    3    3  502    0 -0.97079788943E+03 -0.58050225047E+03  0.10040274201E+04  0.15124491646E+04  0.10100000352E+00 0.  1.
       -3    1    3    3    0  502  0.97079788943E+03  0.58050225047E+03 -0.55171790037E+03  0.12585007178E+04  0.10100000352E+00 0. -1.
</event>
<event>
 5   0  0.3497949E-05  0.1555631E+04  0.7818609E-02  0.8848279E-01
       -2   -1    0    0    0  501  0.00000000000E+00  0.00000000000E+00  0.10887628408E+04  0.10887628408E+04  0.25500000920E-02 0. -1.
        2   -1    0    0  501    0  0.00000000000E+00  0.00000000000E+00 -0.55567374766E+03  0.55567374766E+03  0.25500000920E-02 0.  1.
    10030    2    1    2    0    0  0.00000000000E+00  0.00000000000E+00  0.53308909316E+03  0.16444365885E+04  0.15556309692E+04 0.  0.
        5    1    3    3  502    0 -0.17781984751E+03  0.14320559422E+03 -0.51943829958E+03  0.56742045915E+03  0.46999998093E+01 0.  1.
       -5    1    3    3    0  502  0.17781984751E+03 -0.14320559422E+03  0.10525273927E+04  0.10770161293E+04  0.46999998093E+01 0. -1.
</event>
<event>
 5   0  0.1449521E-05  0.2738955E+04  0.7818609E-02  0.8322475E-01
        1   -1    0    0  501    0  0.00000000000E+00  0.00000000000E+00  0.19888377306E+04  0.19888377306E+04  0.50400001928E-02 0.  1.
       -1   -1    0    0    0  501  0.00000000000E+00  0.00000000000E+00 -0.94299725914E+03  0.94299725915E+03  0.50400001928E-02 0. -1.
    10030    2    1    2    0    0  0.00000000000E+00  0.00000000000E+00  0.10458404714E+04  0.29318349897E+04  0.27389549312E+04 0.  0.
        3    1    3    3  502    0 -0.16162383120E+03 -0.48951700358E+03 -0.83517342179E+03  0.98146004211E+03  0.10100000352E+00 0. -1.
       -3    1    3    3    0  502  0.16162383120E+03  0.48951700358E+03  0.18810138932E+04  0.19503749476E+04  0.10100000352E+00 0.  1.
</event>
<event>
 5   0  0.3497949E-05  0.2706861E+04  0.7818609E-02  0.8332782E-01
       -2   -1    0    0    0  501  0.00000000000E+00  0.00000000000E+00  0.12017464521E+04  0.12017464521E+04  0.25500000920E-02 0.  1.
        2   -1    0    0  501    0  0.00000000000E+00  0.00000000000E+00 -0.15242601182E+04  0.15242601182E+04  0.25500000920E-02 0. -1.
    10030    2    1    2    0    0  0.00000000000E+00  0.00000000000E+00 -0.32251366605E+03  0.27260065703E+04  0.27068610523E+04 0.  0.
        5    1    3    3  502    0 -0.24184075155E+03  0.10676374947E+04 -0.96275995796E+03  0.14578290695E+04  0.46999998093E+01 0. -1.
       -5    1    3    3    0  502  0.24184075155E+03 -0.10676374947E+04  0.64024629191E+03  0.12681775008E+04  0.46999998093E+01 0.  1.
</event>
<event>
 5   0  0.1474012E-05  0.1943593E+04  0.7818609E-02  0.8633456E-01
       -1   -1    0    0    0  501  0.00000000000E+00  0.00000000000E+00  0.77617224546E+03  0.77617224548E+03  0.50400001928E-02 0.  1.
        1   -1    0    0  501    0  0.00000000000E+00  0.00000000000E+00 -0.12167256466E+04  0.12167256466E+04  0.50400001928E-02 0. -1.
    10030    2    1    2    0    0  0.00000000000E+00  0.00000000000E+00 -0.44055340110E+03  0.19928978921E+04  0.19435932468E+04 0.  0.
        2    1    3    3  502    0 -0.57041677704E+02  0.17748024145E+03 -0.11982194065E+04  0.12126346256E+04  0.25500000920E-02 0. -1.
       -2    1    3    3    0  502  0.57041677704E+02 -0.17748024145E+03  0.75766600544E+03  0.78026326641E+03  0.25500000920E-02 0.  1.
</event>
<event>
 5   0  0.3652331E-05  0.2723256E+04  0.7818609E-02  0.8327498E-01
        2   -1    0    0  501    0  0.00000000000E+00  0.00000000000E+00  0.13707693501E+04  0.13707693501E+04  0.25500000920E-02 0. -1.
       -2   -1    0    0    0  501  0.00000000000E+00  0.00000000000E+00 -0.13525480027E+04  0.13525480027E+04  0.25500000920E-02 0.  1.
    10030    2    1    2    0    0  0.00000000000E+00  0.00000000000E+00  0.18221347438E+02  0.27233173528E+04  0.27232563939E+04 0.  0.
        1    1    3    3  502    0  0.54755227265E+03 -0.12459644779E+04 -0.33203099686E+02  0.13613755607E+04  0.50400001928E-02 0. -1.
       -1    1    3    3    0  502 -0.54755227265E+03  0.12459644779E+04  0.51424447124E+02  0.13619417921E+04  0.50400001928E-02 0.  1.
</event>
<event>
 5   0  0.1474012E-05  0.1692389E+04  0.7818609E-02  0.8765717E-01
       -1   -1    0    0    0  501  0.00000000000E+00  0.00000000000E+00  0.75890648193E+03  0.75890648195E+03  0.50400001928E-02 0.  1.
        1   -1    0    0  501    0  0.00000000000E+00  0.00000000000E+00 -0.94352275861E+03  0.94352275862E+03  0.50400001928E-02 0. -1.
    10030    2    1    2    0    0  0.00000000000E+00  0.00000000000E+00 -0.18461627668E+03  0.17024292406E+04  0.16923894793E+04 0.  0.
        2    1    3    3  502    0  0.64434579846E+03  0.44175070684E+03  0.23476737648E+03  0.81574561969E+03  0.25500000920E-02 0.  1.
       -2    1    3    3    0  502 -0.64434579846E+03 -0.44175070684E+03 -0.41938365316E+03  0.88668362088E+03  0.25500000920E-02 0. -1.
</event>
<event>
 5   0  0.3676724E-05  0.2630583E+04  0.7818609E-02  0.8357886E-01
        2   -1    0    0  501    0  0.00000000000E+00  0.00000000000E+00  0.14188638554E+04  0.14188638554E+04  0.25500000920E-02 0. -1.
       -2   -1    0    0    0  501  0.00000000000E+00  0.00000000000E+00 -0.12192795150E+04  0.12192795150E+04  0.25500000920E-02 0.  1.
    10030    2    1    2    0    0  0.00000000000E+00  0.00000000000E+00  0.19958434040E+03  0.26381433705E+04  0.26305829267E+04 0.  0.
        4    1    3    3  502    0 -0.10475966399E+04 -0.29172426058E+02  0.89685958122E+03  0.13793724920E+04  0.12699999809E+01 0. -1.
       -4    1    3    3    0  502  0.10475966399E+04  0.29172426058E+02 -0.69727524081E+03  0.12587708785E+04  0.12699999809E+01 0.  1.
</event>
<event>
 5   0  0.1438701E-05  0.2282481E+04  0.7818609E-02  0.8484861E-01
        1   -1    0    0  501    0  0.00000000000E+00  0.00000000000E+00  0.14370563233E+04  0.14370563233E+04  0.50400001928E-02 0.  1.
       -1   -1    0    0    0  501  0.00000000000E+00  0.00000000000E+00 -0.90631826295E+03  0.90631826296E+03  0.50400001928E-02 0. -1.
    10030    2    1    2    0    0  0.00000000000E+00  0.00000000000E+00  0.53073806031E+03  0.23433745862E+04  0.22824814485E+04 0.  0.
        4    1    3    3  502    0  0.69172399193E+02  0.86845420027E+03 -0.49147565829E+03  0.10002736897E+04  0.12699999809E+01 0. -1.
       -4    1    3    3    0  502 -0.69172399193E+02 -0.86845420027E+03  0.10222137186E+04  0.13431008965E+04  0.12699999809E+01 0.  1.
</event>
<event>
 5   0  0.1228050E-05  0.2597396E+04  0.7818609E-02  0.8369086E-01
        4   -1    0    0  501    0  0.00000000000E+00  0.00000000000E+00  0.12942934884E+04  0.12942941115E+04  0.12699999809E+01 0. -1.
       -4   -1    0    0    0  501  0.00000000000E+00  0.00000000000E+00 -0.13031161867E+04  0.13031168055E+04  0.12699999809E+01 0.  1.
    10030    2    1    2    0    0  0.00000000000E+00  0.00000000000E+00 -0.88226982621E+01  0.25974109170E+04  0.25973959329E+04 0.  0.
        5    1    3    3  502    0 -0.48042416103E+03  0.11253266819E+04  0.43082305684E+03  0.12972270857E+04  0.46999998093E+01 0. -1.
       -5    1    3    3    0  502  0.48042416103E+03 -0.11253266819E+04 -0.43964575510E+03  0.13001838314E+04  0.46999998093E+01 0.  1.
</event>
<event>
 5   0  0.1495517E-05  0.2649734E+04  0.7818609E-02  0.8351501E-01
        1   -1    0    0  501    0  0.00000000000E+00  0.00000000000E+00  0.14215234310E+04  0.14215234310E+04  0.50400001928E-02 0.  1.
       -1   -1    0    0    0  501  0.00000000000E+00  0.00000000000E+00 -0.12347824975E+04  0.12347824975E+04  0.50400001928E-02 0. -1.
    10030    2    1    2    0    0  0.00000000000E+00  0.00000000000E+00  0.18674093349E+03  0.26563059286E+04  0.26497337621E+04 0.  0.
        5    1    3    3  502    0 -0.35631625038E+03 -0.73558628072E+03  0.11386463170E+04  0.14016368902E+04  0.46999998093E+01 0.  1.
       -5    1    3    3    0  502  0.35631625038E+03  0.73558628072E+03 -0.95190538353E+03  0.12546690384E+04  0.46999998093E+01 0. -1.
</event>
<event>
 5   0  0.1474012E-05  0.2571065E+04  0.7818609E-02  0.8378097E-01
        1   -1    0    0  501    0  0.00000000000E+00  0.00000000000E+00  0.14581037855E+04  0.14581037855E+04  0.50400001928E-02 0.  1.
       -1   -1    0    0    0  501  0.00000000000E+00  0.00000000000E+00 -0.11333852291E+04  0.11333852291E+04  0.50400001928E-02 0. -1.
    10030    2    1    2    0    0  0.00000000000E+00  0.00000000000E+00  0.32471855639E+03  0.25914890147E+04  0.25710645990E+04 0.  0.
        2    1    3    3  502    0 -0.44125898694E+03 -0.11365101438E+04 -0.24859084676E+03  0.12442516665E+04  0.25500000920E-02 0.  1.
       -2    1    3    3    0  502  0.44125898694E+03  0.11365101438E+04  0.57330940315E+03  0.13472373481E+04  0.25500000920E-02 0. -1.
</event>
<event>
 5   0  0.1449521E-05  0.2663104E+04  0.7818609E-02  0.8347077E-01
       -1   -1    0    0    0  501  0.00000000000E+00  0.00000000000E+00  0.80787107340E+03  0.80787107342E+03  0.50400001928E-02 0. -1.
        1   -1    0    0  501    0  0.00000000000E+00  0.00000000000E+00 -0.21946945250E+04  0.21946945250E+04  0.50400001928E-02 0.  1.
    10030    2    1    2    0    0  0.00000000000E+00  0.00000000000E+00 -0.13868234516E+04  0.30025655984E+04  0.26631036193E+04 0.  0.
        3    1    3    3  502    0  0.46646583135E+03 -0.78382252314E+03  0.40032697463E+03  0.99610733178E+03  0.10100000352E+00 0. -1.
       -3    1    3    3    0  502 -0.46646583135E+03  0.78382252314E+03 -0.17871504262E+04  0.20064582666E+04  0.10100000352E+00 0.  1.
</event>
<event>
 5   0  0.1495517E-05  0.2744729E+04  0.7818609E-02  0.8320636E-01
       -1   -1    0    0    0  501  0.00000000000E+00  0.00000000000E+00  0.12580970200E+04  0.12580970200E+04  0.50400001928E-02 0.  1.
        1   -1    0    0  501    0  0.00000000000E+00  0.00000000000E+00 -0.14970104141E+04  0.14970104141E+04  0.50400001928E-02 0. -1.
    10030    2    1    2    0    0  0.00000000000E+00  0.00000000000E+00 -0.23891339406E+03  0.27551074341E+04  0.27447290146E+04 0.  0.
        5    1    3    3  502    0  0.29622057990E+03 -0.41617728479E+03  0.11590990005E+04  0.12666817861E+04  0.46999998093E+01 0.  1.
       -5    1    3    3    0  502 -0.29622057990E+03  0.41617728479E+03 -0.13980123945E+04  0.14884256480E+04  0.46999998093E+01 0. -1.
</event>
<event>
 5   0  0.1495517E-05  0.2430056E+04  0.7818609E-02  0.8428336E-01
       -1   -1    0    0    0  501  0.00000000000E+00  0.00000000000E+00  0.83064782355E+03  0.83064782357E+03  0.50400001928E-02 0.  1.
        1   -1    0    0  501    0  0.00000000000E+00  0.00000000000E+00 -0.17772796098E+04  0.17772796098E+04  0.50400001928E-02 0. -1.
    10030    2    1    2    0    0  0.00000000000E+00  0.00000000000E+00 -0.94663178627E+03  0.26079274334E+04  0.24300563284E+04 0.  0.
        5    1    3    3  502    0 -0.45634479312E+03  0.38934088517E+03 -0.16072707818E+04  0.17155693956E+04  0.46999998093E+01 0. -1.
       -5    1    3    3    0  502  0.45634479312E+03 -0.38934088517E+03  0.66063899557E+03  0.89235803776E+03  0.46999998093E+01 0.  1.
</event>
<event>
 5   0  0.1495517E-05  0.2675763E+04  0.7818609E-02  0.8342912E-01
       -1   -1    0    0    0  501  0.00000000000E+00  0.00000000000E+00  0.13609542005E+04  0.13609542005E+04  0.50400001928E-02 0.  1.
        1   -1    0    0  501    0  0.00000000000E+00  0.00000000000E+00 -0.13151997483E+04  0.13151997483E+04  0.50400001928E-02 0. -1.
    10030    2    1    2    0    0  0.00000000000E+00  0.00000000000E+00  0.45754452161E+02  0.26761539488E+04  0.26757627862E+04 0.  0.
        5    1    3    3  502    0 -0.38213418973E+03 -0.12299745748E+04  0.38492536383E+03  0.13442669450E+04  0.46999998093E+01 0. -1.
       -5    1    3    3    0  502  0.38213418973E+03  0.12299745748E+04 -0.33917091167E+03  0.13318870038E+04  0.46999998093E+01 0.  1.
</event>
<event>
 5   0  0.3676724E-05  0.2704691E+04  0.7818609E-02  0.8333485E-01
        2   -1    0    0  501    0  0.00000000000E+00  0.00000000000E+00  0.13282089461E+04  0.13282089461E+04  0.25500000920E-02 0. -1.
       -2   -1    0    0    0  501  0.00000000000E+00  0.00000000000E+00 -0.13769201884E+04  0.13769201884E+04  0.25500000920E-02 0.  1.
    10030    2    1    2    0    0  0.00000000000E+00  0.00000000000E+00 -0.48711242357E+02  0.27051291345E+04  0.27046905274E+04 0.  0.
        4    1    3    3  502    0  0.19971848237E+03 -0.27300036873E+03  0.12852151138E+04  0.13289831357E+04  0.12699999809E+01 0. -1.
       -4    1    3    3    0  502 -0.19971848237E+03  0.27300036873E+03 -0.13339263561E+04  0.13761459988E+04  0.12699999809E+01 0.  1.
</event>
<event>
 5   0  0.1438701E-05  0.2680031E+04  0.7818609E-02  0.8341514E-01
        1   -1    0    0  501    0  0.00000000000E+00  0.00000000000E+00  0.16746743190E+04  0.16746743190E+04  0.50400001928E-02 0. -1.
       -1   -1    0    0    0  501  0.00000000000E+00  0.00000000000E+00 -0.10722330440E+04  0.10722330440E+04  0.50400001928E-02 0.  1.
    10030    2    1    2    0    0  0.00000000000E+00  0.00000000000E+00  0.60244127496E+03  0.27469073630E+04  0.26800307034E+04 0.  0.
        4    1    3    3  502    0  0.96363691417E+03 -0.78189749385E+03 -0.21704498126E+03  0.12597896372E+04  0.12699999809E+01 0.  1.
       -4    1    3    3    0  502 -0.96363691417E+03  0.78189749385E+03  0.81948625622E+03  0.14871177258E+04  0.12699999809E+01 0. -1.
</event>
<event>
 5   0  0.3568647E-05  0.1516738E+04  0.7818609E-02  0.8873398E-01
        2   -1    0    0  501    0  0.00000000000E+00  0.00000000000E+00  0.61289679742E+03  0.61289679742E+03  0.25500000920E-02 0. -1.
       -2   -1    0    0    0  501  0.00000000000E+00  0.00000000000E+00 -0.93836975546E+03  0.93836975546E+03  0.25500000920E-02 0.  1.
    10030    2    1    2    0    0  0.00000000000E+00  0.00000000000E+00 -0.32547295804E+03  0.15512665529E+04  0.15167383663E+04 0.  0.
        3    1    3    3  502    0  0.23162428610E+03 -0.58873904577E+03  0.26494594977E+03  0.68590075114E+03  0.10100000352E+00 0. -1.
       -3    1    3    3    0  502 -0.23162428610E+03  0.58873904577E+03 -0.59041890781E+03  0.86536580174E+03  0.10100000352E+00 0.  1.
</event>
<event>
 5   0  0.3652331E-05  0.2714396E+04  0.7818609E-02  0.8330349E-01
        2   -1    0    0  501    0  0.00000000000E+00  0.00000000000E+00  0.20050376145E+04  0.20050376145E+04  0.25500000920E-02 0. -1.
       -2   -1    0    0    0  501  0.00000000000E+00  0.00000000000E+00 -0.91867939820E+03  0.91867939821E+03  0.25500000920E-02 0.  1.
    10030    2    1    2    0    0  0.00000000000E+00  0.00000000000E+00  0.10863582163E+04  0.29237170127E+04  0.27143962489E+04 0.  0.
        1    1    3    3  502    0 -0.28711294529E+03 -0.12798844139E+04  0.91854835519E+03  0.16013335184E+04  0.50400001928E-02 0. -1.
       -1    1    3    3    0  502  0.28711294529E+03  0.12798844139E+04  0.16780986109E+03  0.13223834943E+04  0.50400001928E-02 0.  1.
</event>
<event>
 5   0  0.1438701E-05  0.1728874E+04  0.7818609E-02  0.8745066E-01
       -1   -1    0    0    0  501  0.00000000000E+00  0.00000000000E+00  0.13235960304E+04  0.13235960304E+04  0.50400001928E-02 0. -1.
        1   -1    0    0  501    0  0.00000000000E+00  0.00000000000E+00 -0.56456133441E+03  0.56456133443E+03  0.50400001928E-02 0.  1.
    10030    2    1    2    0    0  0.00000000000E+00  0.00000000000E+00  0.75903469599E+03  0.18881573648E+04  0.17288737851E+04 0.  0.
        4    1    3    3  502    0  0.92208757548E+02  0.57135610135E+02  0.13161323242E+04  0.13205956386E+04  0.12699999809E+01 0. -1.
       -4    1    3    3    0  502 -0.92208757548E+02 -0.57135610135E+02 -0.55709762819E+03  0.56756172629E+03  0.12699999809E+01 0.  1.
</event>
<event>
 5   0  0.3652331E-05  0.2698196E+04  0.7818609E-02  0.8335591E-01
        2   -1    0    0  501    0  0.00000000000E+00  0.00000000000E+00  0.23146892262E+04  0.23146892262E+04  0.25500000920E-02 0.  1.
       -2   -1    0    0    0  501  0.00000000000E+00  0.00000000000E+00 -0.78631084762E+03  0.78631084763E+03  0.25500000920E-02 0. -1.
    10030    2    1    2    0    0  0.00000000000E+00  0.00000000000E+00  0.15283783786E+04  0.31010000739E+04  0.26981958769E+04 0.  0.
        1    1    3    3  502    0 -0.66437432540E+03 -0.99434575080E+03  0.14818710120E+04  0.19042212089E+04  0.50400001928E-02 0.  1.
       -1    1    3    3    0  502  0.66437432540E+03  0.99434575080E+03  0.46507366645E+02  0.11967788649E+04  0.50400001928E-02 0. -1.
</event>
<event>
 5   0  0.3568647E-05  0.2733318E+04  0.7818609E-02  0.8324275E-01
       -2   -1    0    0    0  501  0.00000000000E+00  0.00000000000E+00  0.11915761674E+04  0.11915761674E+04  0.25500000920E-02 0.  1.
        2   -1    0    0  501    0  0.00000000000E+00  0.00000000000E+00 -0.15674673953E+04  0.15674673953E+04  0.25500000920E-02 0. -1.
    10030    2    1    2    0    0  0.00000000000E+00  0.00000000000E+00 -0.37589122792E+03  0.27590435627E+04  0.27333179774E+04 0.  0.
        3    1    3    3  502    0 -0.32018204764E+02  0.35532337074E+03 -0.15196337600E+04  0.15609505559E+04  0.10100000352E+00 0. -1.
       -3    1    3    3    0  502  0.32018204764E+02 -0.35532337074E+03  0.11437425320E+04  0.11980930068E+04  0.10100000352E+00 0.  1.
</event>
<event>
 5   0  0.1474012E-05  0.2708424E+04  0.7818609E-02  0.8332277E-01
        1   -1    0    0  501    0  0.00000000000E+00  0.00000000000E+00  0.20521456005E+04  0.20521456005E+04  0.50400001928E-02 0.  1.
       -1   -1    0    0    0  501  0.00000000000E+00  0.00000000000E+00 -0.89364514615E+03  0.89364514617E+03  0.50400001928E-02 0. -1.
    10030    2    1    2    0    0  0.00000000000E+00  0.00000000000E+00  0.11585004543E+04  0.29457907466E+04  0.27084238627E+04 0.  0.
        2    1    3    3  502    0 -0.43645947097E+03 -0.12669641277E+04  0.36668685509E+03  0.13892999029E+04  0.25500000920E-02 0.  1.
       -2    1    3    3    0  502  0.43645947097E+03  0.12669641277E+04  0.79181359921E+03  0.15564908437E+04  0.25500000920E-02 0. -1.
</event>
<event>
 5   0  0.3568647E-05  0.2716437E+04  0.7818609E-02  0.8329691E-01
        2   -1    0    0  501    0  0.00000000000E+00  0.00000000000E+00  0.13948045714E+04  0.13948045714E+04  0.25500000920E-02 0. -1.
       -2   -1    0    0    0  501  0.00000000000E+00  0.00000000000E+00 -0.13225919270E+04  0.13225919270E+04  0.25500000920E-02 0.  1.
    10030    2    1    2    0    0  0.00000000000E+00  0.00000000000E+00  0.72212644357E+02  0.27173964984E+04  0.27164368323E+04 0.  0.
        3    1    3    3  502    0 -0.84752454510E+03 -0.39982297726E+03  0.10196123327E+04  0.13848341369E+04  0.10100000352E+00 0. -1.
       -3    1    3    3    0  502  0.84752454510E+03  0.39982297726E+03 -0.94739968831E+03  0.13325623615E+04  0.10100000352E+00 0.  1.
</event>
<event>
 5   0  0.1438701E-05  0.2617119E+04  0.7818609E-02  0.8362409E-01
       -1   -1    0    0    0  501  0.00000000000E+00  0.00000000000E+00  0.76638780300E+03  0.76638780301E+03  0.50400001928E-02 0. -1.
        1   -1    0    0  501    0  0.00000000000E+00  0.00000000000E+00 -0.22342845799E+04  0.22342845799E+04  0.50400001928E-02 0.  1.
    10030    2    1    2    0    0  0.00000000000E+00  0.00000000000E+00 -0.14678967769E+04  0.30006723829E+04  0.26171193710E+04 0.  0.
        4    1    3    3  502    0 -0.19429995683E+03 -0.26447955397E+03 -0.21863335956E+04  0.22108274722E+04  0.12699999809E+01 0.  1.
       -4    1    3    3    0  502  0.19429995683E+03  0.26447955397E+03  0.71843681867E+03  0.78984491074E+03  0.12699999809E+01 0. -1.
</event>
<event>
 5   0  0.1474012E-05  0.2753157E+04  0.7818609E-02  0.8317960E-01
       -1   -1    0    0    0  501  0.00000000000E+00  0.00000000000E+00  0.11270491228E+04  0.11270491228E+04  0.50400001928E-02 0. -1.
        1   -1    0    0  501    0  0.00000000000E+00  0.00000000000E+00 -0.16813542076E+04  0.16813542076E+04  0.50400001928E-02 0.  1.
    10030    2    1    2    0    0  0.00000000000E+00  0.00000000000E+00 -0.55430508477E+03  0.28084033304E+04  0.27531573037E+04 0.  0.
        2    1    3    3  502    0 -0.99633293526E+03 -0.68708793473E+03  0.39190500357E+03  0.12721472713E+04  0.25500000920E-02 0. -1.
       -2    1    3    3    0  502  0.99633293526E+03  0.68708793473E+03 -0.94621008834E+03  0.15362560591E+04  0.25500000920E-02 0.  1.
</event>
<event>
 5   0  0.1438701E-05  0.1333122E+04  0.7818609E-02  0.9003704E-01
       -1   -1    0    0    0  501  0.00000000000E+00  0.00000000000E+00  0.28912168531E+03  0.28912168536E+03  0.50400001928E-02 0.  1.
        1   -1    0    0  501    0  0.00000000000E+00  0.00000000000E+00 -0.15367359089E+04  0.15367359090E+04  0.50400001928E-02 0. -1.
    10030    2    1    2    0    0  0.00000000000E+00  0.00000000000E+00 -0.12476142236E+04  0.18258575943E+04  0.13331221638E+04 0.  0.
        4    1    3    3  502    0 -0.53459683941E+01 -0.11446624308E+03  0.27552832457E+03  0.29841007141E+03  0.12699999809E+01 0.  1.
       -4    1    3    3    0  502  0.53459683941E+01  0.11446624308E+03 -0.15231425482E+04  0.15274475229E+04  0.12699999809E+01 0. -1.
</event>
<event>
 5   0  0.3652331E-05  0.2724287E+04  0.7818609E-02  0.8327168E-01
       -2   -1    0    0    0  501  0.00000000000E+00  0.00000000000E+00  0.21689826798E+04  0.21689826798E+04  0.25500000920E-02 0. -1.
        2   -1    0    0  501    0  0.00000000000E+00  0.00000000000E+00 -0.85544007563E+03  0.85544007563E+03  0.25500000920E-02 0.  1.
    10030    2    1    2    0    0  0.00000000000E+00  0.00000000000E+00  0.13135426042E+04  0.30244227554E+04  0.27242868481E+04 0.  0.
        1    1    3    3  502    0  0.26872598428E+03 -0.62353459676E+03 -0.65418237533E+03  0.94284867725E+03  0.50400001928E-02 0.  1.
       -1    1    3    3    0  502 -0.26872598428E+03  0.62353459676E+03  0.19677249795E+04  0.20815740782E+04  0.50400001928E-02 0. -1.
</event>
<event>
 5   0  0.1484379E-05  0.1356075E+04  0.7818609E-02  0.8986242E-01
        1   -1    0    0  501    0  0.00000000000E+00  0.00000000000E+00  0.40756472054E+03  0.40756472057E+03  0.50400001928E-02 0.  1.
       -1   -1    0    0    0  501  0.00000000000E+00  0.00000000000E+00 -0.11280052443E+04  0.11280052444E+04  0.50400001928E-02 0. -1.
    10030    2    1    2    0    0  0.00000000000E+00  0.00000000000E+00 -0.72044052380E+03  0.15355699649E+04  0.13560754289E+04 0.  0.
        1    1    3    3  502    0  0.21683127185E+03 -0.41034454423E+03 -0.91995222940E+03  0.10303933957E+04  0.50400001928E-02 0. -1.
       -1    1    3    3    0  502 -0.21683127185E+03  0.41034454423E+03  0.19951170560E+03  0.50517656926E+03  0.50400001928E-02 0.  1.
</event>
<event>
 5   0  0.1438701E-05  0.2696275E+04  0.7818609E-02  0.8336215E-01
        1   -1    0    0  501    0  0.00000000000E+00  0.00000000000E+00  0.14432198200E+04  0.14432198200E+04  0.50400001928E-02 0.  1.
       -1   -1    0    0    0  501  0.00000000000E+00  0.00000000000E+00 -0.12593195561E+04  0.12593195561E+04  0.50400001928E-02 0. -1.
    10030    2    1    2    0    0  0.00000000000E+00  0.00000000000E+00  0.18390026394E+03  0.27025393761E+04  0.26962751663E+04 0.  0.
        4    1    3    3  502    0  0.96298037824E+03 -0.36127316715E+03 -0.78163876573E+03  0.12918244011E+04  0.12699999809E+01 0. -1.
       -4    1    3    3    0  502 -0.96298037824E+03  0.36127316715E+03  0.96553902967E+03  0.14107149751E+04  0.12699999809E+01 0.  1.
</event>
<event>
 5   0  0.3514294E-05  0.2682830E+04  0.7818609E-02  0.8340598E-01
       -2   -1    0    0    0  501  0.00000000000E+00  0.00000000000E+00  0.16621900117E+04  0.16621900117E+04  0.25500000920E-02 0. -1.
        2   -1    0    0  501    0  0.00000000000E+00  0.00000000000E+00 -0.10825440375E+04  0.10825440375E+04  0.25500000920E-02 0.  1.
    10030    2    1    2    0    0  0.00000000000E+00  0.00000000000E+00  0.57964597416E+03  0.27447340492E+04  0.26828297645E+04 0.  0.
        2    1    3    3  502    0 -0.12072422741E+04  0.77116731781E+01 -0.30839163893E+03  0.12460332183E+04  0.25500000920E-02 0.  1.
       -2    1    3    3    0  502  0.12072422741E+04 -0.77116731781E+01  0.88803761309E+03  0.14987008309E+04  0.25500000920E-02 0. -1.
</event>
<event>
 5   0  0.3514294E-05  0.2684778E+04  0.7818609E-02  0.8339961E-01
        2   -1    0    0  501    0  0.00000000000E+00  0.00000000000E+00  0.14985758870E+04  0.14985758870E+04  0.25500000920E-02 0. -1.
       -2   -1    0    0    0  501  0.00000000000E+00  0.00000000000E+00 -0.12024805299E+04  0.12024805299E+04  0.25500000920E-02 0.  1.
    10030    2    1    2    0    0  0.00000000000E+00  0.00000000000E+00  0.29609535711E+03  0.27010564170E+04  0.26847780741E+04 0.  0.
        2    1    3    3  502    0 -0.47915424292E+03 -0.57581175525E+03 -0.97264547462E+03  0.12276755212E+04  0.25500000920E-02 0.  1.
       -2    1    3    3    0  502  0.47915424292E+03  0.57581175525E+03  0.12687408317E+04  0.14733808958E+04  0.25500000920E-02 0. -1.
</event>
<event>
 5   0  0.3497949E-05  0.2626708E+04  0.7818609E-02  0.8359185E-01
        2   -1    0    0  501    0  0.00000000000E+00  0.00000000000E+00  0.11190991730E+04  0.11190991730E+04  0.25500000920E-02 0. -1.
       -2   -1    0    0    0  501  0.00000000000E+00  0.00000000000E+00 -0.15413281722E+04  0.15413281722E+04  0.25500000920E-02 0.  1.
    10030    2    1    2    0    0  0.00000000000E+00  0.00000000000E+00 -0.42222899923E+03  0.26604273452E+04  0.26267082692E+04 0.  0.
        5    1    3    3  502    0 -0.12227932017E+04 -0.23230316146E+03 -0.63564790738E+03  0.13975901850E+04  0.46999998093E+01 0.  1.
       -5    1    3    3    0  502  0.12227932017E+04  0.23230316146E+03  0.21341890815E+03  0.12628371603E+04  0.46999998093E+01 0. -1.
</event>
<event>
 5   0  0.3652331E-05  0.2689365E+04  0.7818609E-02  0.8338464E-01
        2   -1    0    0  501    0  0.00000000000E+00  0.00000000000E+00  0.17471009556E+04  0.17471009556E+04  0.25500000920E-02 0.  1.
       -2   -1    0    0    0  501  0.00000000000E+00  0.00000000000E+00 -0.10349549871E+04  0.10349549871E+04  0.25500000920E-02 0. -1.
    10030    2    1    2    0    0  0.00000000000E+00  0.00000000000E+00  0.71214596848E+03  0.27820559427E+04  0.26893648670E+04 0.  0.
        1    1    3    3  502    0 -0.43715570902E+03  0.85803316570E+03  0.13269536082E+04  0.16395523492E+04  0.50400001928E-02 0.  1.
       -1    1    3    3    0  502  0.43715570902E+03 -0.85803316570E+03 -0.61480763970E+03  0.11425035935E+04  0.50400001928E-02 0. -1.
</event>
<event>
 5   0  0.1449521E-05  0.2802798E+04  0.7818609E-02  0.8302400E-01
       -1   -1    0    0    0  501  0.00000000000E+00  0.00000000000E+00  0.10873160004E+04  0.10873160004E+04  0.50400001928E-02 0.  1.
        1   -1    0    0  501    0  0.00000000000E+00  0.00000000000E+00 -0.18062081372E+04  0.18062081372E+04  0.50400001928E-02 0. -1.
    10030    2    1    2    0    0  0.00000000000E+00  0.00000000000E+00 -0.71889213685E+03  0.28935241376E+04  0.28027978933E+04 0.  0.
        3    1    3    3  502    0 -0.38433320479E+02  0.24827091734E+02  0.10865446790E+04  0.10875076341E+04  0.10100000352E+00 0.  1.
       -3    1    3    3    0  502  0.38433320479E+02 -0.24827091734E+02 -0.18054368159E+04  0.18060165035E+04  0.10100000352E+00 0. -1.
</event>
<event>
 5   0  0.3676724E-05  0.2704971E+04  0.7818609E-02  0.8333394E-01
       -2   -1    0    0    0  501  0.00000000000E+00  0.00000000000E+00  0.83941191228E+03  0.83941191228E+03  0.25500000920E-02 0.  1.
        2   -1    0    0  501    0  0.00000000000E+00  0.00000000000E+00 -0.21791647414E+04  0.21791647414E+04  0.25500000920E-02 0. -1.
    10030    2    1    2    0    0  0.00000000000E+00  0.00000000000E+00 -0.13397528292E+04  0.30185766537E+04  0.27049708633E+04 0.  0.
        4    1    3    3  502    0  0.13407268612E+04  0.10727985312E+03 -0.82831487280E+03  0.15796090101E+04  0.12699999809E+01 0.  1.
       -4    1    3    3    0  502 -0.13407268612E+04 -0.10727985312E+03 -0.51143795636E+03  0.14389676436E+04  0.12699999809E+01 0. -1.
</event>
<event>
 5   0  0.3497949E-05  0.2582781E+04  0.7818609E-02  0.8374074E-01
        2   -1    0    0  501    0  0.00000000000E+00  0.00000000000E+00  0.18543513565E+04  0.18543513565E+04  0.25500000920E-02 0. -1.
       -2   -1    0    0    0  501  0.00000000000E+00  0.00000000000E+00 -0.89933874818E+03  0.89933874818E+03  0.25500000920E-02 0.  1.
    10030    2    1    2    0    0  0.00000000000E+00  0.00000000000E+00  0.95501260837E+03  0.27536901047E+04  0.25827814679E+04 0.  0.
        5    1    3    3  502    0  0.64019654122E+03  0.72111169308E+03 -0.43829429328E+03  0.10592344702E+04  0.46999998093E+01 0.  1.
       -5    1    3    3    0  502 -0.64019654122E+03 -0.72111169308E+03  0.13933069016E+04  0.16944556346E+04  0.46999998093E+01 0. -1.
</event>
<event>
 5   0  0.3568647E-05  0.2031168E+04  0.7818609E-02  0.8592186E-01
        2   -1    0    0  501    0  0.00000000000E+00  0.00000000000E+00  0.16724261184E+04  0.16724261184E+04  0.25500000920E-02 0. -1.
       -2   -1    0    0    0  501  0.00000000000E+00  0.00000000000E+00 -0.61671529290E+03  0.61671529290E+03  0.25500000920E-02 0.  1.
    10030    2    1    2    0    0  0.00000000000E+00  0.00000000000E+00  0.10557108255E+04  0.22891414113E+04  0.20311679039E+04 0.  0.
        3    1    3    3  502    0  0.33548350976E+03  0.56455460392E+03  0.14009332485E+04  0.15472184923E+04  0.10100000352E+00 0. -1.
       -3    1    3    3    0  502 -0.33548350976E+03 -0.56455460392E+03 -0.34522242299E+03  0.74192291895E+03  0.10100000352E+00 0.  1.
</event>
<event>
 5   0  0.1820926E-05  0.1406072E+04  0.7818609E-02  0.8949435E-01
       -1   -1    0    0    0  501  0.00000000000E+00  0.00000000000E+00  0.35856639446E+03  0.35856639449E+03  0.50400001928E-02 0.  1.
        1   -1    0    0  501    0  0.00000000000E+00  0.00000000000E+00 -0.13784317120E+04  0.13784317120E+04  0.50400001928E-02 0. -1.
    10030    2    1    2    0    0  0.00000000000E+00  0.00000000000E+00 -0.10198653176E+04  0.17369981065E+04  0.14060715331E+04 0.  0.
        1    1    3    3  502    0  0.35164586037E+03  0.43821039305E+03 -0.10319724796E+04  0.11750107908E+04  0.50400001928E-02 0. -1.
       -1    1    3    3    0  502 -0.35164586037E+03 -0.43821039305E+03  0.12107162042E+02  0.56198731577E+03  0.50400001928E-02 0.  1.
</event>
<event>
 5   0  0.1474012E-05  0.2704360E+04  0.7818609E-02  0.8333592E-01
       -1   -1    0    0    0  501  0.00000000000E+00  0.00000000000E+00  0.12450685653E+04  0.12450685653E+04  0.50400001928E-02 0. -1.
        1   -1    0    0  501    0  0.00000000000E+00  0.00000000000E+00 -0.14685059260E+04  0.14685059260E+04  0.50400001928E-02 0.  1.
    10030    2    1    2    0    0  0.00000000000E+00  0.00000000000E+00 -0.22343736070E+03  0.27135744913E+04  0.27043598625E+04 0.  0.
        2    1    3    3  502    0 -0.31633542397E+03  0.79614246562E+03  0.93801978208E+03  0.12703511474E+04  0.25500000920E-02 0. -1.
       -2    1    3    3    0  502  0.31633542397E+03 -0.79614246562E+03 -0.11614571428E+04  0.14432233440E+04  0.25500000920E-02 0.  1.
</event>
<event>
 5   0  0.1474012E-05  0.2732760E+04  0.7818609E-02  0.8324453E-01
        1   -1    0    0  501    0  0.00000000000E+00  0.00000000000E+00  0.99949540088E+03  0.99949540089E+03  0.50400001928E-02 0.  1.
       -1   -1    0    0    0  501  0.00000000000E+00  0.00000000000E+00 -0.18679371698E+04  0.18679371698E+04  0.50400001928E-02 0. -1.
    10030    2    1    2    0    0  0.00000000000E+00  0.00000000000E+00 -0.86844176890E+03  0.28674325707E+04  0.27327602239E+04 0.  0.
        2    1    3    3  502    0  0.24331404448E+03 -0.10232224543E+04  0.48100737206E+03  0.11565266997E+04  0.25500000920E-02 0.  1.
       -2    1    3    3    0  502 -0.24331404448E+03  0.10232224543E+04 -0.13494491410E+04  0.17109058709E+04  0.25500000920E-02 0. -1.
</event>
<event>
 5   0  0.3514294E-05  0.1518596E+04  0.7818609E-02  0.8872180E-01
       -2   -1    0    0    0  501  0.00000000000E+00  0.00000000000E+00  0.64551156860E+03  0.64551156860E+03  0.25500000920E-02 0.  1.
        2   -1    0    0  501    0  0.00000000000E+00  0.00000000000E+00 -0.89314141245E+03  0.89314141246E+03  0.25500000920E-02 0. -1.
    10030    2    1    2    0    0  0.00000000000E+00  0.00000000000E+00 -0.24762984385E+03  0.15386529811E+04  0.15185955540E+04 0.  0.
        2    1    3    3  502    0  0.68588767868E+03 -0.19081019031E+03 -0.39127623591E+03  0.81237154633E+03  0.25500000920E-02 0. -1.
       -2    1    3    3    0  502 -0.68588767868E+03  0.19081019031E+03  0.14364639206E+03  0.72628143474E+03  0.25500000920E-02 0.  1.
</event>
<event>
 5   0  0.3676724E-05  0.2684936E+04  0.7818609E-02  0.8339909E-01
        2   -1    0    0  501    0  0.00000000000E+00  0.00000000000E+00  0.10984853741E+04  0.10984853741E+04  0.25500000920E-02 0. -1.
       -2   -1    0    0    0  501  0.00000000000E+00  0.00000000000E+00 -0.16406411648E+04  0.16406411648E+04  0.25500000920E-02 0.  1.
    10030    2    1    2    0    0  0.00000000000E+00  0.00000000000E+00 -0.54215579072E+03  0.27391265389E+04  0.26849359945E+04 0.  0.
        4    1    3    3  502    0  0.96601092856E+03 -0.11130709361E+03  0.67315789565E+03  0.11826705156E+04  0.12699999809E+01 0. -1.
       -4    1    3    3    0  502 -0.96601092856E+03  0.11130709361E+03 -0.12153136864E+04  0.15564560233E+04  0.12699999809E+01 0.  1.
</event>
<event>
 5   0  0.3497949E-05  0.2256699E+04  0.7818609E-02  0.8495193E-01
        2   -1    0    0  501    0  0.00000000000E+00  0.00000000000E+00  0.12285858866E+04  0.12285858866E+04  0.25500000920E-02 0. -1.
       -2   -1    0    0    0  501  0.00000000000E+00  0.00000000000E+00 -0.10362906854E+04  0.10362906854E+04  0.25500000920E-02 0.  1.
    10030    2    1    2    0    0  0.00000000000E+00  0.00000000000E+00  0.19229520115E+03  0.22648765720E+04  0.22566985713E+04 0.  0.
        5    1    3    3  502    0 -0.90260864431E+03  0.18158503608E+03 -0.55850028462E+03  0.10768566051E+04  0.46999998093E+01 0. -1.
       -5    1    3    3    0  502  0.90260864431E+03 -0.18158503608E+03  0.75079548577E+03  0.11880199668E+04  0.46999998093E+01 0.  1.
</event>
<event>
 5   0  0.1438701E-05  0.2734475E+04  0.7818609E-02  0.8323905E-01
       -1   -1    0    0    0  501  0.00000000000E+00  0.00000000000E+00  0.11691667156E+04  0.11691667156E+04  0.50400001928E-02 0. -1.
        1   -1    0    0  501    0  0.00000000000E+00  0.00000000000E+00 -0.15988640381E+04  0.15988640381E+04  0.50400001928E-02 0.  1.
    10030    2    1    2    0    0  0.00000000000E+00  0.00000000000E+00 -0.42969732252E+03  0.27680307538E+04  0.27344751717E+04 0.  0.
        4    1    3    3  502    0  0.80406303396E+02 -0.11084830901E+04 -0.10209478738E+04  0.15091507905E+04  0.12699999809E+01 0.  1.
       -4    1    3    3    0  502 -0.80406303396E+02  0.11084830901E+04  0.59125055130E+03  0.12588799633E+04  0.12699999809E+01 0. -1.
</event>
<event>
 5   0  0.1438701E-05  0.2665922E+04  0.7818609E-02  0.8346147E-01
       -1   -1    0    0    0  501  0.00000000000E+00  0.00000000000E+00  0.14539430630E+04  0.14539430630E+04  0.50400001928E-02 0.  1.
        1   -1    0    0  501    0  0.00000000000E+00  0.00000000000E+00 -0.12220462029E+04  0.12220462029E+04  0.50400001928E-02 0. -1.
    10030    2    1    2    0    0  0.00000000000E+00  0.00000000000E+00  0.23189686005E+03  0.26759892659E+04  0.26659224291E+04 0.  0.
        4    1    3    3  502    0 -0.39083716875E+03 -0.22941721066E+02 -0.11630309308E+04  0.12271603701E+04  0.12699999809E+01 0. -1.
       -4    1    3    3    0  502  0.39083716875E+03  0.22941721066E+02  0.13949277908E+04  0.14488288959E+04  0.12699999809E+01 0.  1.
</event>
<event>
 5   0  0.3514294E-05  0.2701015E+04  0.7818609E-02  0.8334676E-01
       -2   -1    0    0    0  501  0.00000000000E+00  0.00000000000E+00  0.23730684411E+04  0.23730684411E+04  0.25500000920E-02 0.  1.
        2   -1    0    0  501    0  0.00000000000E+00  0.00000000000E+00 -0.76857066334E+03  0.76857066334E+03  0.25500000920E-02 0. -1.
    10030    2    1    2    0    0  0.00000000000E+00  0.00000000000E+00  0.16044977778E+04  0.31416391045E+04  0.27010152061E+04 0.  0.
        2    1    3    3  502    0  0.26558018735E+03 -0.78159481526E+03  0.20454671758E+04  0.22057559381E+04  0.25500000920E-02 0.  1.
       -2    1    3    3    0  502 -0.26558018735E+03  0.78159481526E+03 -0.44096939800E+03  0.93588316639E+03  0.25500000920E-02 0. -1.
</event>
<event>
 5   0  0.3652331E-05  0.2686452E+04  0.7818609E-02  0.8339414E-01
       -2   -1    0    0    0  501  0.00000000000E+00  0.00000000000E+00  0.98756643797E+03  0.98756643798E+03  0.25500000920E-02 0. -1.
        2   -1    0    0  501    0  0.00000000000E+00  0.00000000000E+00 -0.18269724237E+04  0.18269724237E+04  0.25500000920E-02 0.  1.
    10030    2    1    2    0    0  0.00000000000E+00  0.00000000000E+00 -0.83940598572E+03  0.28145388617E+04  0.26864524182E+04 0.  0.
        1    1    3    3  502    0  0.61783885266E+03  0.76826808577E+03 -0.13755029070E+04  0.16923264894E+04  0.50400001928E-02 0.  1.
       -1    1    3    3    0  502 -0.61783885266E+03 -0.76826808577E+03  0.53609692129E+03  0.11222123723E+04  0.50400001928E-02 0. -1.
</event>
<event>
 5   0  0.3652331E-05  0.2074076E+04  0.7818609E-02  0.8572750E-01
       -2   -1    0    0    0  501  0.00000000000E+00  0.00000000000E+00  0.10161987969E+04  0.10161987969E+04  0.25500000920E-02 0. -1.
        2   -1    0    0  501    0  0.00000000000E+00  0.00000000000E+00 -0.10583043053E+04  0.10583043053E+04  0.25500000920E-02 0.  1.
    10030    2    1    2    0    0  0.00000000000E+00  0.00000000000E+00 -0.42105508429E+02  0.20745031023E+04  0.20740757574E+04 0.  0.
        1    1    3    3  502    0 -0.39548347315E+03 -0.93519022000E+03 -0.23195073815E+03  0.10415320783E+04  0.50400001928E-02 0.  1.
       -1    1    3    3    0  502  0.39548347315E+03  0.93519022000E+03  0.18984522972E+03  0.10329710240E+04  0.50400001928E-02 0. -1.
</event>
<event>
 5   0  0.1474012E-05  0.2748405E+04  0.7818609E-02  0.8319468E-01
       -1   -1    0    0    0  501  0.00000000000E+00  0.00000000000E+00  0.11709398489E+04  0.11709398489E+04  0.50400001928E-02 0. -1.
        1   -1    0    0  501    0  0.00000000000E+00  0.00000000000E+00 -0.16127498854E+04  0.16127498854E+04  0.50400001928E-02 0.  1.
    10030    2    1    2    0    0  0.00000000000E+00  0.00000000000E+00 -0.44181003654E+03  0.27836897343E+04  0.27484054338E+04 0.  0.
        2    1    3    3  502    0  0.41081563316E+01 -0.99354279396E+03  0.74064537947E+03  0.12392335286E+04  0.25500000920E-02 0. -1.
       -2    1    3    3    0  502 -0.41081563316E+01  0.99354279396E+03 -0.11824554160E+04  0.15444562057E+04  0.25500000920E-02 0.  1.
</event>
<event>
 5   0  0.3497949E-05  0.1841733E+04  0.7818609E-02  0.8684416E-01
        2   -1    0    0  501    0  0.00000000000E+00  0.00000000000E+00  0.20574452311E+04  0.20574452311E+04  0.25500000920E-02 0.  1.
       -2   -1    0    0    0  501  0.00000000000E+00  0.00000000000E+00 -0.41215929543E+03  0.41215929544E+03  0.25500000920E-02 0. -1.
    10030    2    1    2    0    0  0.00000000000E+00  0.00000000000E+00  0.16452859356E+04  0.24696045265E+04  0.18417330717E+04 0.  0.
        5    1    3    3  502    0 -0.66122379580E+03 -0.15839438623E+03 -0.10092742861E+02  0.68002179611E+03  0.46999998093E+01 0. -1.
       -5    1    3    3    0  502  0.66122379580E+03  0.15839438623E+03  0.16553786785E+04  0.17895827304E+04  0.46999998093E+01 0.  1.
</event>
<event>
 5   0  0.1438701E-05  0.2720987E+04  0.7818609E-02  0.8328228E-01
       -1   -1    0    0    0  501  0.00000000000E+00  0.00000000000E+00  0.13148960021E+04  0.13148960021E+04  0.50400001928E-02 0. -1.
        1   -1    0    0  501    0  0.00000000000E+00  0.00000000000E+00 -0.14076717522E+04  0.14076717522E+04  0.50400001928E-02 0.  1.
    10030    2    1    2    0    0  0.00000000000E+00  0.00000000000E+00 -0.92775750127E+02  0.27225677544E+04  0.27209865559E+04 0.  0.
        4    1    3    3  502    0  0.13035434435E+03  0.91590832015E+03  0.95171876227E+03  0.13272718340E+04  0.12699999809E+01 0. -1.
       -4    1    3    3    0  502 -0.13035434435E+03 -0.91590832015E+03 -0.10444945124E+04  0.13952959203E+04  0.12699999809E+01 0.  1.
</event>
<event>
 5   0  0.1484379E-05  0.1690959E+04  0.7818609E-02  0.8766538E-01
        1   -1    0    0  501    0  0.00000000000E+00  0.00000000000E+00  0.19140669005E+04  0.19140669005E+04  0.50400001928E-02 0.  1.
       -1   -1    0    0    0  501  0.00000000000E+00  0.00000000000E+00 -0.37346404695E+03  0.37346404699E+03  0.50400001928E-02 0. -1.
    10030    2    1    2    0    0  0.00000000000E+00  0.00000000000E+00  0.15406028536E+04  0.22875309475E+04  0.16909585103E+04 0.  0.
        1    1    3    3  502    0  0.80641850378E+03 -0.18373885926E+03  0.10075798488E+04  0.13035673835E+04  0.50400001928E-02 0.  1.
       -1    1    3    3    0  502 -0.80641850378E+03  0.18373885926E+03  0.53302300479E+03  0.98396356401E+03  0.50400001928E-02 0. -1.
</event>
<event>
 5   0  0.1484379E-05  0.2665276E+04  0.7818609E-02  0.8346360E-01
        1   -1    0    0  501    0  0.00000000000E+00  0.00000000000E+00  0.11654541204E+04  0.11654541204E+04  0.50400001928E-02 0. -1.
       -1   -1    0    0    0  501  0.00000000000E+00  0.00000000000E+00 -0.15238046123E+04  0.15238046123E+04  0.50400001928E-02 0.  1.
    10030    2    1    2    0    0  0.00000000000E+00  0.00000000000E+00 -0.35835049189E+03  0.26892587327E+04  0.26652762439E+04 0.  0.
        1    1    3    3  502    0  0.54530028789E+02  0.38654638739E+02  0.11637617086E+04  0.11656796385E+04  0.50400001928E-02 0. -1.
       -1    1    3    3    0  502 -0.54530028789E+02 -0.38654638739E+02 -0.15221122005E+04  0.15235790942E+04  0.50400001928E-02 0.  1.
</event>
<event>
 5   0  0.1474012E-05  0.1468031E+04  0.7818609E-02  0.8905995E-01
        1   -1    0    0  501    0  0.00000000000E+00  0.00000000000E+00  0.15164268911E+04  0.15164268911E+04  0.50400001928E-02 0. -1.
       -1   -1    0    0    0  501  0.00000000000E+00  0.00000000000E+00 -0.35529471695E+03  0.35529471698E+03  0.50400001928E-02 0.  1.
    10030    2    1    2    0    0  0.00000000000E+00  0.00000000000E+00  0.11611321742E+04  0.18717216081E+04  0.14680306033E+04 0.  0.
        2    1    3    3  502    0  0.30002081343E+02 -0.43304582131E+03  0.13352359234E+04  0.14040241378E+04  0.25500000920E-02 0. -1.
       -2    1    3    3    0  502 -0.30002081343E+02  0.43304582131E+03 -0.17410374926E+03  0.46769747033E+03  0.25500000920E-02 0.  1.
</event>
<event>
 5   0  0.1484379E-05  0.2606879E+04  0.7818609E-02  0.8365868E-01
        1   -1    0    0  501    0  0.00000000000E+00  0.00000000000E+00  0.18482247803E+04  0.18482247803E+04  0.50400001928E-02 0.  1.
       -1   -1    0    0    0  501  0.00000000000E+00  0.00000000000E+00 -0.91923569574E+03  0.91923569575E+03  0.50400001928E-02 0. -1.
    10030    2    1    2    0    0  0.00000000000E+00  0.00000000000E+00  0.92898908452E+03  0.27674604760E+04  0.26068787404E+04 0.  0.
        1    1    3    3  502    0 -0.83007644641E+03  0.64839547231E+03 -0.35059703383E+03  0.11101179557E+04  0.50400001928E-02 0. -1.
       -1    1    3    3    0  502  0.83007644641E+03 -0.64839547231E+03  0.12795861183E+04  0.16573425203E+04  0.50400001928E-02 0.  1.
</event>
<event>
 5   0  0.3568647E-05  0.2693880E+04  0.7818609E-02  0.8336993E-01
        2   -1    0    0  501    0  0.00000000000E+00  0.00000000000E+00  0.22610458981E+04  0.22610458981E+04  0.25500000920E-02 0.  1.
       -2   -1    0    0    0  501  0.00000000000E+00  0.00000000000E+00 -0.80239283746E+03  0.80239283747E+03  0.25500000920E-02 0. -1.
    10030    2    1    2    0    0  0.00000000000E+00  0.00000000000E+00  0.14586530606E+04  0.30634387356E+04  0.26938797552E+04 0.  0.
        3    1    3    3  502    0  0.99088520181E+03 -0.12160469780E+03  0.17575866323E+04  0.20213243099E+04  0.10100000352E+00 0.  1.
       -3    1    3    3    0  502 -0.99088520181E+03  0.12160469780E+03 -0.29893357165E+03  0.10421144256E+04  0.10100000352E+00 0. -1.
</event>
<event>
 5   0  0.1449521E-05  0.2686774E+04  0.7818609E-02  0.8339309E-01
        1   -1    0    0  501    0  0.00000000000E+00  0.00000000000E+00  0.26087345679E+04  0.26087345679E+04  0.50400001928E-02 0.  1.
       -1   -1    0    0    0  501  0.00000000000E+00  0.00000000000E+00 -0.69178713110E+03  0.69178713112E+03  0.50400001928E-02 0. -1.
    10030    2    1    2    0    0  0.00000000000E+00  0.00000000000E+00  0.19169474368E+04  0.33005216991E+04  0.26867742760E+04 0.  0.
        3    1    3    3  502    0  0.12685870431E+04  0.16988988617E+03  0.14597485707E+04  0.19414019572E+04  0.10100000352E+00 0.  1.
       -3    1    3    3    0  502 -0.12685870431E+04 -0.16988988617E+03  0.45719886610E+03  0.13591197419E+04  0.10100000352E+00 0. -1.
</event>
<event>
 5   0  0.3676724E-05  0.2610967E+04  0.7818609E-02  0.8364485E-01
       -2   -1    0    0    0  501  0.00000000000E+00  0.00000000000E+00  0.68522472661E+03  0.68522472662E+03  0.25500000920E-02 0. -1.
        2   -1    0    0  501    0  0.00000000000E+00  0.00000000000E+00 -0.24871953060E+04  0.24871953060E+04  0.25500000920E-02 0.  1.
    10030    2    1    2    0    0  0.00000000000E+00  0.00000000000E+00 -0.18019705794E+04  0.31724200326E+04  0.26109674250E+04 0.  0.
        4    1    3    3  502    0  0.23542665324E+03  0.93705205738E+03  0.16575414134E+03  0.98028991404E+03  0.12699999809E+01 0. -1.
       -4    1    3    3    0  502 -0.23542665324E+03 -0.93705205738E+03 -0.19677247207E+04  0.21921301186E+04  0.12699999809E+01 0.  1.
</event>
<event>
 5   0  0.3568647E-05  0.2721902E+04  0.7818609E-02  0.8327933E-01
        2   -1    0    0  501    0  0.00000000000E+00  0.00000000000E+00  0.24842663566E+04  0.24842663566E+04  0.25500000920E-02 0. -1.
       -2   -1    0    0    0  501  0.00000000000E+00  0.00000000000E+00 -0.74556741937E+03  0.74556741937E+03  0.25500000920E-02 0.  1.
    10030    2    1    2    0    0  0.00000000000E+00  0.00000000000E+00  0.17386989372E+04  0.32298337760E+04  0.27219023175E+04 0.  0.
        3    1    3    3  502    0 -0.35767653841E+03 -0.12690427947E+04  0.46908051181E+03  0.13994422667E+04  0.10100000352E+00 0.  1.
       -3    1    3    3    0  502  0.35767653841E+03  0.12690427947E+04  0.12696184254E+04  0.18303915093E+04  0.10100000352E+00 0. -1.
</event>
<event>
 5   0  0.3514294E-05  0.2864229E+04  0.7818609E-02  0.8283601E-01
       -2   -1    0    0    0  501  0.00000000000E+00  0.00000000000E+00  0.14258972279E+04  0.14258972279E+04  0.25500000920E-02 0. -1.
        2   -1    0    0  501    0  0.00000000000E+00  0.00000000000E+00 -0.14383587027E+04  0.14383587027E+04  0.25500000920E-02 0.  1.
    10030    2    1    2    0    0  0.00000000000E+00  0.00000000000E+00 -0.12461474844E+02  0.28642559306E+04  0.28642288225E+04 0.  0.
        2    1    3    3  502    0  0.59015277314E+03 -0.81861161202E+03  0.10099217928E+04  0.14277070059E+04  0.25500000920E-02 0. -1.
       -2    1    3    3    0  502 -0.59015277314E+03  0.81861161202E+03 -0.10223832677E+04  0.14365489247E+04  0.25500000920E-02 0.  1.
</event>
<event>
 5   0  0.1495517E-05  0.2271268E+04  0.7818609E-02  0.8489337E-01
        1   -1    0    0  501    0  0.00000000000E+00  0.00000000000E+00  0.24375122350E+04  0.24375122350E+04  0.50400001928E-02 0. -1.
       -1   -1    0    0    0  501  0.00000000000E+00  0.00000000000E+00 -0.52909035068E+03  0.52909035070E+03  0.50400001928E-02 0.  1.
    10030    2    1    2    0    0  0.00000000000E+00  0.00000000000E+00  0.19084218843E+04  0.29666025857E+04  0.22712676665E+04 0.  0.
        5    1    3    3  502    0  0.36844787063E+03 -0.51138321633E+03 -0.27964616853E+03  0.68955833465E+03  0.46999998093E+01 0.  1.
       -5    1    3    3    0  502 -0.36844787063E+03  0.51138321633E+03  0.21880680528E+04  0.22770442510E+04  0.46999998093E+01 0. -1.
</event>
<event>
 5   0  0.1484379E-05  0.1454029E+04  0.7818609E-02  0.8915612E-01
       -1   -1    0    0    0  501  0.00000000000E+00  0.00000000000E+00  0.60070369385E+03  0.60070369388E+03  0.50400001928E-02 0. -1.
        1   -1    0    0  501    0  0.00000000000E+00  0.00000000000E+00 -0.87988438648E+03  0.87988438649E+03  0.50400001928E-02 0.  1.
    10030    2    1    2    0    0  0.00000000000E+00  0.00000000000E+00 -0.27918069262E+03  0.14805880804E+04  0.14540286120E+04 0.  0.
        1    1    3    3  502    0  0.42367912230E+03  0.58640307117E+03 -0.21285769384E+03  0.75410938093E+03  0.50400001928E-02 0.  1.
       -1    1    3    3    0  502 -0.42367912230E+03 -0.58640307117E+03 -0.66322998787E+02  0.72647869944E+03  0.50400001928E-02 0. -1.
</event>
<event>
 5   0  0.3676724E-05  0.2692084E+04  0.7818609E-02  0.8337578E-01
        2   -1    0    0  501    0  0.00000000000E+00  0.00000000000E+00  0.25380198216E+04  0.25380198216E+04  0.25500000920E-02 0.  1.
       -2   -1    0    0    0  501  0.00000000000E+00  0.00000000000E+00 -0.71387512758E+03  0.71387512759E+03  0.25500000920E-02 0. -1.
    10030    2    1    2    0    0  0.00000000000E+00  0.00000000000E+00  0.18241446941E+04  0.32518949492E+04  0.26920841176E+04 0.  0.
        4    1    3    3  502    0  0.18573996194E+03 -0.19951717333E+03 -0.68018380177E+03  0.73277421694E+03  0.12699999809E+01 0. -1.
       -4    1    3    3    0  502 -0.18573996194E+03  0.19951717333E+03  0.25043284958E+04  0.25191207323E+04  0.12699999809E+01 0.  1.
</event>
<event>
 5   0  0.3676724E-05  0.2555109E+04  0.7818609E-02  0.8383612E-01
       -2   -1    0    0    0  501  0.00000000000E+00  0.00000000000E+00  0.92785833096E+03  0.92785833097E+03  0.25500000920E-02 0.  1.
        2   -1    0    0  501    0  0.00000000000E+00  0.00000000000E+00 -0.17590453358E+04  0.17590453358E+04  0.25500000920E-02 0. -1.
    10030    2    1    2    0    0  0.00000000000E+00  0.00000000000E+00 -0.83118700482E+03  0.26869036667E+04  0.25551085060E+04 0.  0.
        4    1    3    3  502    0  0.51603313469E+03 -0.92912671052E+03 -0.11610870471E+04  0.15740684179E+04  0.12699999809E+01 0. -1.
       -4    1    3    3    0  502 -0.51603313469E+03  0.92912671052E+03  0.32990004230E+03  0.11128352489E+04  0.12699999809E+01 0.  1.
</event>
<event>
 5   0  0.3497949E-05  0.1609112E+04  0.7818609E-02  0.8814969E-01
        2   -1    0    0  501    0  0.00000000000E+00  0.00000000000E+00  0.44289754380E+03  0.44289754381E+03  0.25500000920E-02 0. -1.
       -2   -1    0    0    0  501  0.00000000000E+00  0.00000000000E+00 -0.14615357520E+04  0.14615357520E+04  0.25500000920E-02 0.  1.
    10030    2    1    2    0    0  0.00000000000E+00  0.00000000000E+00 -0.10186382082E+04  0.19044332958E+04  0.16091122953E+04 0.  0.
        5    1    3    3  502    0 -0.42815457465E+03  0.68053982389E+03 -0.54357434669E+03  0.97053900080E+03  0.46999998093E+01 0. -1.
       -5    1    3    3    0  502  0.42815457465E+03 -0.68053982389E+03 -0.47506386146E+03  0.93389429496E+03  0.46999998093E+01 0.  1.
</event>
<event>
 5   0  0.3568647E-05  0.2669231E+04  0.7818609E-02  0.8345058E-01
        2   -1    0    0  501    0  0.00000000000E+00  0.00000000000E+00  0.23140601903E+04  0.23140601903E+04  0.25500000920E-02 0.  1.
       -2   -1    0    0    0  501  0.00000000000E+00  0.00000000000E+00 -0.76972897428E+03  0.76972897428E+03  0.25500000920E-02 0. -1.
    10030    2    1    2    0    0  0.00000000000E+00  0.00000000000E+00  0.15443312160E+04  0.30837891646E+04  0.26692314824E+04 0.  0.
        3    1    3    3  502    0 -0.76494328901E+02 -0.92703489991E+03  0.18778604663E+04  0.20956156682E+04  0.10100000352E+00 0.  1.
       -3    1    3    3    0  502  0.76494328901E+02  0.92703489991E+03 -0.33352925020E+03  0.98817349638E+03  0.10100000352E+00 0. -1.
</event>
<event>
 5   0  0.3676724E-05  0.2550794E+04  0.7818609E-02  0.8385110E-01
       -2   -1    0    0    0  501  0.00000000000E+00  0.00000000000E+00  0.10169916309E+04  0.10169916309E+04  0.25500000920E-02 0.  1.
        2   -1    0    0  501    0  0.00000000000E+00  0.00000000000E+00 -0.15994598786E+04  0.15994598786E+04  0.25500000920E-02 0. -1.
    10030    2    1    2    0    0  0.00000000000E+00  0.00000000000E+00 -0.58246824762E+03  0.26164515095E+04  0.25507938455E+04 0.  0.
        4    1    3    3  502    0 -0.61861678389E+03  0.66366655334E+03 -0.12106862100E+04  0.15129120038E+04  0.12699999809E+01 0. -1.
       -4    1    3    3    0  502  0.61861678389E+03 -0.66366655334E+03  0.62821796241E+03  0.11035395057E+04  0.12699999809E+01 0.  1.
</event>
<event>
 5   0  0.1495517E-05  0.2592723E+04  0.7818609E-02  0.8370677E-01
        1   -1    0    0  501    0  0.00000000000E+00  0.00000000000E+00  0.19274168705E+04  0.19274168705E+04  0.50400001928E-02 0.  1.
       -1   -1    0    0    0  501  0.00000000000E+00  0.00000000000E+00 -0.87192024267E+03  0.87192024268E+03  0.50400001928E-02 0. -1.
    10030    2    1    2    0    0  0.00000000000E+00  0.00000000000E+00  0.10554966279E+04  0.27993371132E+04  0.25927234990E+04 0.  0.
        5    1    3    3  502    0 -0.90329632302E+03  0.48306694938E+03 -0.33006762356E+03  0.10762270443E+04  0.46999998093E+01 0. -1.
       -5    1    3    3    0  502  0.90329632302E+03 -0.48306694938E+03  0.13855642514E+04  0.17231100689E+04  0.46999998093E+01 0.  1.
</event>
<event>
 5   0  0.1474012E-05  0.2621273E+04  0.7818609E-02  0.8361011E-01
        1   -1    0    0  501    0  0.00000000000E+00  0.00000000000E+00  0.14309034299E+04  0.14309034299E+04  0.50400001928E-02 0.  1.
       -1   -1    0    0    0  501  0.00000000000E+00  0.00000000000E+00 -0.12004779639E+04  0.12004779639E+04  0.50400001928E-02 0. -1.
    10030    2    1    2    0    0  0.00000000000E+00  0.00000000000E+00  0.23042546596E+03  0.26313813938E+04  0.26212730007E+04 0.  0.
        2    1    3    3  502    0 -0.10760423703E+03  0.15237480324E+03 -0.11870838412E+04  0.12016508638E+04  0.25500000920E-02 0. -1.
       -2    1    3    3    0  502  0.10760423703E+03 -0.15237480324E+03  0.14175093071E+04  0.14297305300E+04  0.25500000920E-02 0.  1.
</event>
<event>
 5   0  0.3676724E-05  0.2637287E+04  0.7818609E-02  0.8355645E-01
       -2   -1    0    0    0  501  0.00000000000E+00  0.00000000000E+00  0.90991061401E+03  0.90991061401E+03  0.25500000920E-02 0. -1.
        2   -1    0    0  501    0  0.00000000000E+00  0.00000000000E+00 -0.19109793289E+04  0.19109793289E+04  0.25500000920E-02 0.  1.
    10030    2    1    2    0    0  0.00000000000E+00  0.00000000000E+00 -0.10010687149E+04  0.28208899429E+04  0.26372867683E+04 0.  0.
        4    1    3    3  502    0  0.74860341017E+03 -0.95824639247E+03 -0.10461188592E+04  0.16040603152E+04  0.12699999809E+01 0.  1.
       -4    1    3    3    0  502 -0.74860341017E+03  0.95824639247E+03  0.45050144309E+02  0.12168296277E+04  0.12699999809E+01 0. -1.
</event>
<event>
 5   0  0.3568647E-05  0.2726027E+04  0.7818609E-02  0.8326609E-01
        2   -1    0    0  501    0  0.00000000000E+00  0.00000000000E+00  0.11153373369E+04  0.11153373369E+04  0.25500000920E-02 0. -1.
       -2   -1    0    0    0  501  0.00000000000E+00  0.00000000000E+00 -0.16656889921E+04  0.16656889921E+04  0.25500000920E-02 0.  1.
    10030    2    1    2    0    0  0.00000000000E+00  0.00000000000E+00 -0.55035165516E+03  0.27810263291E+04  0.27260265036E+04 0.  0.
        3    1    3    3  502    0 -0.72664747677E+03 -0.32441512560E+03 -0.14040930926E+04  0.16139204293E+04  0.10100000352E+00 0.  1.
       -3    1    3    3    0  502  0.72664747677E+03  0.32441512560E+03  0.85374143740E+03  0.11671058998E+04  0.10100000352E+00 0. -1.
</event>
<event>
 5   0  0.1228050E-05  0.2666488E+04  0.7818609E-02  0.8345961E-01
        3   -1    0    0  501    0  0.00000000000E+00  0.00000000000E+00  0.12525387075E+04  0.12525387116E+04  0.10100000352E+00 0.  1.
       -3   -1    0    0    0  501  0.00000000000E+00  0.00000000000E+00 -0.14191491377E+04  0.14191491413E+04  0.10100000352E+00 0. -1.
    10030    2    1    2    0    0  0.00000000000E+00  0.00000000000E+00 -0.16661043016E+03  0.26716878529E+04  0.26664877551E+04 0.  0.
        4    1    3    3  502    0  0.13304036831E+04 -0.68749243782E+02 -0.13667451628E+03  0.13391721155E+04  0.12699999809E+01 0.  1.
       -4    1    3    3    0  502 -0.13304036831E+04  0.68749243782E+02 -0.29935913875E+02  0.13325157374E+04  0.12699999809E+01 0. -1.
</event>
<event>
 5   0  0.3514294E-05  0.2644556E+04  0.7818609E-02  0.8353222E-01
       -2   -1    0    0    0  501  0.00000000000E+00  0.00000000000E+00  0.16228810351E+04  0.16228810351E+04  0.25500000920E-02 0. -1.
        2   -1    0    0  501    0  0.00000000000E+00  0.00000000000E+00 -0.10773552538E+04  0.10773552538E+04  0.25500000920E-02 0.  1.
    10030    2    1    2    0    0  0.00000000000E+00  0.00000000000E+00  0.54552578124E+03  0.27002362889E+04  0.26445562271E+04 0.  0.
        2    1    3    3  502    0  0.10351557435E+03  0.12609623231E+04 -0.11961705205E+03  0.12708460542E+04  0.25500000920E-02 0. -1.
       -2    1    3    3    0  502 -0.10351557435E+03 -0.12609623231E+04  0.66514283328E+03  0.14293902347E+04  0.25500000920E-02 0.  1.
</event>
<event>
 5   0  0.3676724E-05  0.2731472E+04  0.7818609E-02  0.8324865E-01
       -2   -1    0    0    0  501  0.00000000000E+00  0.00000000000E+00  0.12029106203E+04  0.12029106203E+04  0.25500000920E-02 0.  1.
        2   -1    0    0  501    0  0.00000000000E+00  0.00000000000E+00 -0.15506017493E+04  0.15506017493E+04  0.25500000920E-02 0. -1.
    10030    2    1    2    0    0  0.00000000000E+00  0.00000000000E+00 -0.34769112896E+03  0.27535123696E+04  0.27314723590E+04 0.  0.
        4    1    3    3  502    0  0.58368563444E+03 -0.12259564326E+04 -0.32191714390E+03  0.13954534586E+04  0.12699999809E+01 0. -1.
       -4    1    3    3    0  502 -0.58368563444E+03  0.12259564326E+04 -0.25773985057E+02  0.13580589110E+04  0.12699999809E+01 0.  1.
</event>
<event>
 5   0  0.1484379E-05  0.2389487E+04  0.7818609E-02  0.8443450E-01
       -1   -1    0    0    0  501  0.00000000000E+00  0.00000000000E+00  0.15922147152E+04  0.15922147152E+04  0.50400001928E-02 0. -1.
        1   -1    0    0  501    0  0.00000000000E+00  0.00000000000E+00 -0.89649442370E+03  0.89649442372E+03  0.50400001928E-02 0.  1.
    10030    2    1    2    0    0  0.00000000000E+00  0.00000000000E+00  0.69572029151E+03  0.24887091389E+04  0.23894866508E+04 0.  0.
        1    1    3    3  502    0  0.82270185934E+03  0.86590721015E+03  0.37691042314E+03  0.12524755938E+04  0.50400001928E-02 0.  1.
       -1    1    3    3    0  502 -0.82270185934E+03 -0.86590721015E+03  0.31880986838E+03  0.12362335452E+04  0.50400001928E-02 0. -1.
</event>
<event>
 5   0  0.3514294E-05  0.2812304E+04  0.7818609E-02  0.8299459E-01
        2   -1    0    0  501    0  0.00000000000E+00  0.00000000000E+00  0.10274950498E+04  0.10274950498E+04  0.25500000920E-02 0. -1.
       -2   -1    0    0    0  501  0.00000000000E+00  0.00000000000E+00 -0.19243526869E+04  0.19243526869E+04  0.25500000920E-02 0.  1.
    10030    2    1    2    0    0  0.00000000000E+00  0.00000000000E+00 -0.89685763707E+03  0.29518477367E+04  0.28123035824E+04 0.  0.
        2    1    3    3  502    0 -0.69150393348E+03  0.91416983486E+03  0.40646565106E+03  0.12161819364E+04  0.25500000920E-02 0. -1.
       -2    1    3    3    0  502  0.69150393348E+03 -0.91416983486E+03 -0.13033232881E+04  0.17356658003E+04  0.25500000920E-02 0.  1.
</event>
<event>
 5   0  0.1495517E-05  0.2727943E+04  0.7818609E-02  0.8325995E-01
       -1   -1    0    0    0  501  0.00000000000E+00  0.00000000000E+00  0.11235059179E+04  0.11235059179E+04  0.50400001928E-02 0. -1.
        1   -1    0    0  501    0  0.00000000000E+00  0.00000000000E+00 -0.16559047560E+04  0.16559047560E+04  0.50400001928E-02 0.  1.
    10030    2    1    2    0    0  0.00000000000E+00  0.00000000000E+00 -0.53239883816E+03  0.27794106739E+04  0.27279433959E+04 0.  0.
        5    1    3    3  502    0  0.12277217423E+04  0.57977071290E+03 -0.13350421842E+03  0.13642874412E+04  0.46999998093E+01 0.  1.
       -5    1    3    3    0  502 -0.12277217423E+04 -0.57977071290E+03 -0.39889461973E+03  0.14151232327E+04  0.46999998093E+01 0. -1.
</event>
<event>
 5   0  0.1449521E-05  0.2069354E+04  0.7818609E-02  0.8574865E-01
       -1   -1    0    0    0  501  0.00000000000E+00  0.00000000000E+00  0.12613498898E+04  0.12613498898E+04  0.50400001928E-02 0. -1.
        1   -1    0    0  501    0  0.00000000000E+00  0.00000000000E+00 -0.84873851491E+03  0.84873851493E+03  0.50400001928E-02 0.  1.
    10030    2    1    2    0    0  0.00000000000E+00  0.00000000000E+00  0.41261137492E+03  0.21100884048E+04  0.20693537468E+04 0.  0.
        3    1    3    3  502    0 -0.32942785057E+03 -0.18429347448E+03 -0.77602146092E+03  0.86295776923E+03  0.10100000352E+00 0.  1.
       -3    1    3    3    0  502  0.32942785057E+03  0.18429347448E+03  0.11886328358E+04  0.12471306355E+04  0.10100000352E+00 0. -1.
</event>
<event>
 5   0  0.3497949E-05  0.2366155E+04  0.7818609E-02  0.8452284E-01
       -2   -1    0    0    0  501  0.00000000000E+00  0.00000000000E+00  0.69925854197E+03  0.69925854198E+03  0.25500000920E-02 0. -1.
        2   -1    0    0  501    0  0.00000000000E+00  0.00000000000E+00 -0.20016529341E+04  0.20016529341E+04  0.25500000920E-02 0.  1.
    10030    2    1    2    0    0  0.00000000000E+00  0.00000000000E+00 -0.13023943921E+04  0.27009114761E+04  0.23661554575E+04 0.  0.
        5    1    3    3  502    0 -0.25886523089E+03 -0.21447789850E+03  0.64358108321E+03  0.72610651930E+03  0.46999998093E+01 0. -1.
       -5    1    3    3    0  502  0.25886523089E+03  0.21447789850E+03 -0.19459754753E+04  0.19748049568E+04  0.46999998093E+01 0.  1.
</event>
<event>
 5   0  0.1495517E-05  0.2733312E+04  0.7818609E-02  0.8324277E-01
       -1   -1    0    0    0  501  0.00000000000E+00  0.00000000000E+00  0.20952102220E+04  0.20952102220E+04  0.50400001928E-02 0.  1.
        1   -1    0    0  501    0  0.00000000000E+00  0.00000000000E+00 -0.89143720388E+03  0.89143720390E+03  0.50400001928E-02 0. -1.
    10030    2    1    2    0    0  0.00000000000E+00  0.00000000000E+00  0.12037730181E+04  0.29866474259E+04  0.27333117948E+04 0.  0.
        5    1    3    3  502    0 -0.94665510842E+03  0.41787298087E+03  0.15773499750E+04  0.18864858218E+04  0.46999998093E+01 0.  1.
       -5    1    3    3    0  502  0.94665510842E+03 -0.41787298087E+03 -0.37357695683E+03  0.11001616041E+04  0.46999998093E+01 0. -1.
</event>
<event>
 5   0  0.3568647E-05  0.2759028E+04  0.7818609E-02  0.8316103E-01
       -2   -1    0    0    0  501  0.00000000000E+00  0.00000000000E+00  0.10430956100E+04  0.10430956100E+04  0.25500000920E-02 0.  1.
        2   -1    0    0  501    0  0.00000000000E+00  0.00000000000E+00 -0.18244339082E+04  0.18244339082E+04  0.25500000920E-02 0. -1.
    10030    2    1    2    0    0  0.00000000000E+00  0.00000000000E+00 -0.78133829813E+03  0.28675295182E+04  0.27590280901E+04 0.  0.
        3    1    3    3  502    0  0.40985209345E+03 -0.66376758390E+03 -0.15731703826E+04  0.17559701612E+04  0.10100000352E+00 0. -1.
       -3    1    3    3    0  502 -0.40985209345E+03  0.66376758390E+03  0.79183208451E+03  0.11115593570E+04  0.10100000352E+00 0.  1.
</event>
<event>
 5   0  0.1484379E-05  0.2707717E+04  0.7818609E-02  0.8332505E-01
       -1   -1    0    0    0  501  0.00000000000E+00  0.00000000000E+00  0.10266693694E+04  0.10266693694E+04  0.50400001928E-02 0.  1.
        1   -1    0    0  501    0  0.00000000000E+00  0.00000000000E+00 -0.17853199695E+04  0.17853199695E+04  0.50400001928E-02 0. -1.
    10030    2    1    2    0    0  0.00000000000E+00  0.00000000000E+00 -0.75865060009E+03  0.28119893388E+04  0.27077173613E+04 0.  0.
        1    1    3    3  502    0  0.70319272049E+03  0.20189656135E+03  0.80370537006E+03  0.10868231436E+04  0.50400001928E-02 0.  1.
       -1    1    3    3    0  502 -0.70319272049E+03 -0.20189656135E+03 -0.15623559701E+04  0.17251661952E+04  0.50400001928E-02 0. -1.
</event>
<event>
 5   0  0.1449521E-05  0.2644807E+04  0.7818609E-02  0.8353139E-01
        1   -1    0    0  501    0  0.00000000000E+00  0.00000000000E+00  0.17345516823E+04  0.17345516823E+04  0.50400001928E-02 0.  1.
       -1   -1    0    0    0  501  0.00000000000E+00  0.00000000000E+00 -0.10081859179E+04  0.10081859179E+04  0.50400001928E-02 0. -1.
    10030    2    1    2    0    0  0.00000000000E+00  0.00000000000E+00  0.72636576436E+03  0.27427376002E+04  0.26448066697E+04 0.  0.
        3    1    3    3  502    0 -0.17496534393E+03 -0.65239827536E+03 -0.81580132733E+03  0.10591355896E+04  0.10100000352E+00 0. -1.
       -3    1    3    3    0  502  0.17496534393E+03  0.65239827536E+03  0.15421670917E+04  0.16836020106E+04  0.10100000352E+00 0.  1.
</event>
<event>
 5   0  0.3568647E-05  0.2679261E+04  0.7818609E-02  0.8341766E-01
       -2   -1    0    0    0  501  0.00000000000E+00  0.00000000000E+00  0.90560842873E+03  0.90560842873E+03  0.25500000920E-02 0.  1.
        2   -1    0    0  501    0  0.00000000000E+00  0.00000000000E+00 -0.19816615067E+04  0.19816615067E+04  0.25500000920E-02 0. -1.
    10030    2    1    2    0    0  0.00000000000E+00  0.00000000000E+00 -0.10760530780E+04  0.28872699354E+04  0.26792606169E+04 0.  0.
        3    1    3    3  502    0 -0.36196737872E+02  0.13148919651E+04 -0.26464158644E+03  0.13417474663E+04  0.10100000352E+00 0.  1.
       -3    1    3    3    0  502  0.36196737872E+02 -0.13148919651E+04 -0.81141149155E+03  0.15455224692E+04  0.10100000352E+00 0. -1.
</event>
<event>
 5   0  0.3497949E-05  0.2704775E+04  0.7818609E-02  0.8333457E-01
        2   -1    0    0  501    0  0.00000000000E+00  0.00000000000E+00  0.18699692314E+04  0.18699692314E+04  0.25500000920E-02 0. -1.
       -2   -1    0    0    0  501  0.00000000000E+00  0.00000000000E+00 -0.97806524438E+03  0.97806524438E+03  0.25500000920E-02 0.  1.
    10030    2    1    2    0    0  0.00000000000E+00  0.00000000000E+00  0.89190398702E+03  0.28480344758E+04  0.27047749727E+04 0.  0.
        5    1    3    3  502    0  0.92106919916E+03 -0.46845490736E+03 -0.47267288528E+03  0.11363363130E+04  0.46999998093E+01 0.  1.
       -5    1    3    3    0  502 -0.92106919916E+03  0.46845490736E+03  0.13645768723E+04  0.17116981627E+04  0.46999998093E+01 0. -1.
</event>
<event>
 5   0  0.3497949E-05  0.2697740E+04  0.7818609E-02  0.8335739E-01
       -2   -1    0    0    0  501  0.00000000000E+00  0.00000000000E+00  0.71180666890E+03  0.71180666890E+03  0.25500000920E-02 0.  1.
        2   -1    0    0  501    0  0.00000000000E+00  0.00000000000E+00 -0.25561023383E+04  0.25561023383E+04  0.25500000920E-02 0. -1.
    10030    2    1    2    0    0  0.00000000000E+00  0.00000000000E+00 -0.18442956694E+04  0.32679090072E+04  0.26977403068E+04 0.  0.
        5    1    3    3  502    0  0.12408643511E+04 -0.37067943722E+03 -0.13790711255E+04  0.18918263246E+04  0.46999998093E+01 0. -1.
       -5    1    3    3    0  502 -0.12408643511E+04  0.37067943722E+03 -0.46522454382E+03  0.13760826826E+04  0.46999998093E+01 0.  1.
</event>
<event>
 5   0  0.1438701E-05  0.2419314E+04  0.7818609E-02  0.8432308E-01
       -1   -1    0    0    0  501  0.00000000000E+00  0.00000000000E+00  0.12899257534E+04  0.12899257534E+04  0.50400001928E-02 0. -1.
        1   -1    0    0  501    0  0.00000000000E+00  0.00000000000E+00 -0.11343828056E+04  0.11343828056E+04  0.50400001928E-02 0.  1.
    10030    2    1    2    0    0  0.00000000000E+00  0.00000000000E+00  0.15554294774E+03  0.24243085590E+04  0.24193136177E+04 0.  0.
        4    1    3    3  502    0 -0.55090929419E+03  0.10636605957E+04 -0.91078848108E+02  0.12013208909E+04  0.12699999809E+01 0. -1.
       -4    1    3    3    0  502  0.55090929419E+03 -0.10636605957E+04  0.24662179585E+03  0.12229876681E+04  0.12699999809E+01 0.  1.
</event>
<event>
 5   0  0.1495517E-05  0.2746411E+04  0.7818609E-02  0.8320101E-01
        1   -1    0    0  501    0  0.00000000000E+00  0.00000000000E+00  0.60754845374E+03  0.60754845377E+03  0.50400001928E-02 0. -1.
       -1   -1    0    0    0  501  0.00000000000E+00  0.00000000000E+00 -0.31037746340E+04  0.31037746340E+04  0.50400001928E-02 0.  1.
    10030    2    1    2    0    0  0.00000000000E+00  0.00000000000E+00 -0.24962261803E+04  0.37113230878E+04  0.27464110979E+04 0.  0.
        5    1    3    3  502    0  0.62002804880E+03 -0.83924331315E+02  0.40372171420E+03  0.74464178449E+03  0.46999998093E+01 0. -1.
       -5    1    3    3    0  502 -0.62002804880E+03  0.83924331315E+02 -0.28999478945E+04  0.29666813033E+04  0.46999998093E+01 0.  1.
</event>
<event>
 5   0  0.1438701E-05  0.2705162E+04  0.7818609E-02  0.8333332E-01
        1   -1    0    0  501    0  0.00000000000E+00  0.00000000000E+00  0.15674505329E+04  0.15674505329E+04  0.50400001928E-02 0.  1.
       -1   -1    0    0    0  501  0.00000000000E+00  0.00000000000E+00 -0.11671660179E+04  0.11671660179E+04  0.50400001928E-02 0. -1.
    10030    2    1    2    0    0  0.00000000000E+00  0.00000000000E+00  0.40028451503E+03  0.27346165509E+04  0.27051617303E+04 0.  0.
        4    1    3    3  502    0  0.55098265971E+03 -0.60716649282E+03 -0.88732198528E+03  0.12081287017E+04  0.12699999809E+01 0. -1.
       -4    1    3    3    0  502 -0.55098265971E+03  0.60716649282E+03  0.12876065003E+04  0.15264878492E+04  0.12699999809E+01 0.  1.
</event>
<event>
 5   0  0.1449521E-05  0.2051298E+04  0.7818609E-02  0.8583006E-01
        1   -1    0    0  501    0  0.00000000000E+00  0.00000000000E+00  0.86473574982E+03  0.86473574983E+03  0.50400001928E-02 0. -1.
       -1   -1    0    0    0  501  0.00000000000E+00  0.00000000000E+00 -0.12165056974E+04  0.12165056974E+04  0.50400001928E-02 0.  1.
    10030    2    1    2    0    0  0.00000000000E+00  0.00000000000E+00 -0.35176994757E+03  0.20812414472E+04  0.20512980928E+04 0.  0.
        3    1    3    3  502    0  0.94940491822E+03 -0.91190972986E+02 -0.55857845429E+03  0.11053033032E+04  0.10100000352E+00 0.  1.
       -3    1    3    3    0  502 -0.94940491822E+03  0.91190972986E+02  0.20680850672E+03  0.97593814402E+03  0.10100000352E+00 0. -1.
</event>
<event>
 5   0  0.1438701E-05  0.2775008E+04  0.7818609E-02  0.8311070E-01
       -1   -1    0    0    0  501  0.00000000000E+00  0.00000000000E+00  0.15288812621E+04  0.15288812621E+04  0.50400001928E-02 0. -1.
        1   -1    0    0  501    0  0.00000000000E+00  0.00000000000E+00 -0.12591996308E+04  0.12591996308E+04  0.50400001928E-02 0.  1.
    10030    2    1    2    0    0  0.00000000000E+00  0.00000000000E+00  0.26968163130E+03  0.27880808928E+04  0.27750075464E+04 0.  0.
        4    1    3    3  502    0 -0.12112653958E+04  0.17764084814E+02  0.81455270538E+03  0.14597866777E+04  0.12699999809E+01 0. -1.
       -4    1    3    3    0  502  0.12112653958E+04 -0.17764084814E+02 -0.54487107408E+03  0.13282942151E+04  0.12699999809E+01 0.  1.
</event>
<event>
 5   0  0.3568647E-05  0.2627990E+04  0.7818609E-02  0.8358755E-01
       -2   -1    0    0    0  501  0.00000000000E+00  0.00000000000E+00  0.13852295435E+04  0.13852295435E+04  0.25500000920E-02 0. -1.
        2   -1    0    0  501    0  0.00000000000E+00  0.00000000000E+00 -0.12464232326E+04  0.12464232326E+04  0.25500000920E-02 0.  1.
    10030    2    1    2    0    0  0.00000000000E+00  0.00000000000E+00  0.13880631094E+03  0.26316527761E+04  0.26279895628E+04 0.  0.
        3    1    3    3  502    0 -0.76004547076E+03 -0.43270068772E+03  0.10514246240E+04  0.13676230303E+04  0.10100000352E+00 0. -1.
       -3    1    3    3    0  502  0.76004547076E+03  0.43270068772E+03 -0.91261831309E+03  0.12640297458E+04  0.10100000352E+00 0.  1.
</event>
<event>
 5   0  0.3497949E-05  0.2602738E+04  0.7818609E-02  0.8367272E-01
       -2   -1    0    0    0  501  0.00000000000E+00  0.00000000000E+00  0.12234950072E+04  0.12234950072E+04  0.25500000920E-02 0.  1.
        2   -1    0    0  501    0  0.00000000000E+00  0.00000000000E+00 -0.13841996997E+04  0.13841996997E+04  0.25500000920E-02 0. -1.
    10030    2    1    2    0    0  0.00000000000E+00  0.00000000000E+00 -0.16070469247E+03  0.26076947069E+04  0.26027381132E+04 0.  0.
        5    1    3    3  502    0  0.32335241781E+02 -0.11971041325E+04  0.42996571759E+03  0.12723979252E+04  0.46999998093E+01 0.  1.
       -5    1    3    3    0  502 -0.32335241781E+02  0.11971041325E+04 -0.59067041005E+03  0.13352967817E+04  0.46999998093E+01 0. -1.
</event>
<event>
 5   0  0.3497949E-05  0.2743890E+04  0.7818609E-02  0.8320903E-01
        2   -1    0    0  501    0  0.00000000000E+00  0.00000000000E+00  0.17352795108E+04  0.17352795108E+04  0.25500000920E-02 0.  1.
       -2   -1    0    0    0  501  0.00000000000E+00  0.00000000000E+00 -0.10846860916E+04  0.10846860916E+04  0.25500000920E-02 0. -1.
    10030    2    1    2    0    0  0.00000000000E+00  0.00000000000E+00  0.65059341919E+03  0.28199656025E+04  0.27438903407E+04 0.  0.
        5    1    3    3  502    0 -0.10230106309E+04  0.66296898559E+03  0.97213762093E+03  0.15592152741E+04  0.46999998093E+01 0.  1.
       -5    1    3    3    0  502  0.10230106309E+04 -0.66296898559E+03 -0.32154420174E+03  0.12607503284E+04  0.46999998093E+01 0. -1.
</event>
<event>
 5   0  0.1484379E-05  0.2697584E+04  0.7818609E-02  0.8335789E-01
        1   -1    0    0  501    0  0.00000000000E+00  0.00000000000E+00  0.14470071782E+04  0.14470071782E+04  0.50400001928E-02 0.  1.
       -1   -1    0    0    0  501  0.00000000000E+00  0.00000000000E+00 -0.12572434214E+04  0.12572434214E+04  0.50400001928E-02 0. -1.
    10030    2    1    2    0    0  0.00000000000E+00  0.00000000000E+00  0.18976375684E+03  0.27042505996E+04  0.26975842938E+04 0.  0.
        1    1    3    3  502    0  0.11442841389E+04 -0.33146938749E+02 -0.62015164396E+03  0.13019496809E+04  0.50400001928E-02 0. -1.
       -1    1    3    3    0  502 -0.11442841389E+04  0.33146938749E+02  0.80991540080E+03  0.14023009187E+04  0.50400001928E-02 0.  1.
</event>
<event>
 5   0  0.3652331E-05  0.2688062E+04  0.7818609E-02  0.8338889E-01
        2   -1    0    0  501    0  0.00000000000E+00  0.00000000000E+00  0.15948104509E+04  0.15948104509E+04  0.25500000920E-02 0.  1.
       -2   -1    0    0    0  501  0.00000000000E+00  0.00000000000E+00 -0.11326856100E+04  0.11326856100E+04  0.25500000920E-02 0. -1.
    10030    2    1    2    0    0  0.00000000000E+00  0.00000000000E+00  0.46212484086E+03  0.27274960609E+04  0.26880616425E+04 0.  0.
        1    1    3    3  502    0 -0.64592174801E+03  0.79460139361E+03  0.11143574985E+04  0.15134063941E+04  0.50400001928E-02 0.  1.
       -1    1    3    3    0  502  0.64592174801E+03 -0.79460139361E+03 -0.65223265765E+03  0.12140896668E+04  0.50400001928E-02 0. -1.
</event>
<event>
 5   0  0.3652331E-05  0.2677427E+04  0.7818609E-02  0.8342366E-01
       -2   -1    0    0    0  501  0.00000000000E+00  0.00000000000E+00  0.99580891447E+03  0.99580891448E+03  0.25500000920E-02 0. -1.
        2   -1    0    0  501    0  0.00000000000E+00  0.00000000000E+00 -0.17996971168E+04  0.17996971168E+04  0.25500000920E-02 0.  1.
    10030    2    1    2    0    0  0.00000000000E+00  0.00000000000E+00 -0.80388820230E+03  0.27955060313E+04  0.26774274461E+04 0.  0.
        1    1    3    3  502    0 -0.76236844747E+03 -0.93110157504E+03 -0.10143242233E+04  0.15738517791E+04  0.50400001928E-02 0.  1.
       -1    1    3    3    0  502  0.76236844747E+03  0.93110157504E+03  0.21043602099E+03  0.12216542521E+04  0.50400001928E-02 0. -1.
</event>
<event>
 5   0  0.1449521E-05  0.2828459E+04  0.7818609E-02  0.8294487E-01
        1   -1    0    0  501    0  0.00000000000E+00  0.00000000000E+00  0.13890467626E+04  0.13890467626E+04  0.50400001928E-02 0.  1.
       -1   -1    0    0    0  501  0.00000000000E+00  0.00000000000E+00 -0.14398683137E+04  0.14398683137E+04  0.50400001928E-02 0. -1.
    10030    2    1    2    0    0  0.00000000000E+00  0.00000000000E+00 -0.50821551084E+02  0.28289150763E+04  0.28284585340E+04 0.  0.
        3    1    3    3  502    0  0.29379541168E+03  0.12813465359E+04  0.49609425412E+03  0.14050886834E+04  0.10100000352E+00 0.  1.
       -3    1    3    3    0  502 -0.29379541168E+03 -0.12813465359E+04 -0.54691580520E+03  0.14238263929E+04  0.10100000352E+00 0. -1.
</event>
<event>
 5   0  0.3676724E-05  0.2663573E+04  0.7818609E-02  0.8346922E-01
        2   -1    0    0  501    0  0.00000000000E+00  0.00000000000E+00  0.11101259830E+04  0.11101259830E+04  0.25500000920E-02 0.  1.
       -2   -1    0    0    0  501  0.00000000000E+00  0.00000000000E+00 -0.15977057057E+04  0.15977057057E+04  0.25500000920E-02 0. -1.
    10030    2    1    2    0    0  0.00000000000E+00  0.00000000000E+00 -0.48757972269E+03  0.27078316887E+04  0.26635725011E+04 0.  0.
        4    1    3    3  502    0  0.10646250458E+04  0.79912166901E+03 -0.20273222082E+03  0.13465228911E+04  0.12699999809E+01 0.  1.
       -4    1    3    3    0  502 -0.10646250458E+04 -0.79912166901E+03 -0.28484750187E+03  0.13613087976E+04  0.12699999809E+01 0. -1.
</event>
<event>
 5   0  0.1474012E-05  0.2728702E+04  0.7818609E-02  0.8325752E-01
        1   -1    0    0  501    0  0.00000000000E+00  0.00000000000E+00  0.24626538990E+04  0.24626538990E+04  0.50400001928E-02 0.  1.
       -1   -1    0    0    0  501  0.00000000000E+00  0.00000000000E+00 -0.75587326350E+03  0.75587326352E+03  0.50400001928E-02 0. -1.
    10030    2    1    2    0    0  0.00000000000E+00  0.00000000000E+00  0.17067806355E+04  0.32185271625E+04  0.27287024312E+04 0.  0.
        2    1    3    3  502    0  0.90152467377E+03 -0.62940812896E+02  0.20589989538E+04  0.22485962232E+04  0.25500000920E-02 0.  1.
       -2    1    3    3    0  502 -0.90152467377E+03  0.62940812896E+02 -0.35221831827E+03  0.96993093933E+03  0.25500000920E-02 0. -1.
</event>
<event>
 5   0  0.3514294E-05  0.3482446E+04  0.7818609E-02  0.8117963E-01
        2   -1    0    0  501    0  0.00000000000E+00  0.00000000000E+00  0.13998541221E+04  0.13998541221E+04  0.25500000920E-02 0. -1.
       -2   -1    0    0    0  501  0.00000000000E+00  0.00000000000E+00 -0.21658381674E+04  0.21658381674E+04  0.25500000920E-02 0.  1.
    10030    2    1    2    0    0  0.00000000000E+00  0.00000000000E+00 -0.76598404535E+03  0.35656922895E+04  0.34824459717E+04 0.  0.
        2    1    3    3  502    0  0.14111173021E+03  0.10353368535E+04 -0.18091343356E+04  0.20892108474E+04  0.25500000920E-02 0.  1.
       -2    1    3    3    0  502 -0.14111173021E+03 -0.10353368535E+04  0.10431502903E+04  0.14764814421E+04  0.25500000920E-02 0. -1.
</event>
<event>
 5   0  0.1484379E-05  0.2888526E+04  0.7818609E-02  0.8276299E-01
        1   -1    0    0  501    0  0.00000000000E+00  0.00000000000E+00  0.25656636724E+04  0.25656636724E+04  0.50400001928E-02 0. -1.
       -1   -1    0    0    0  501  0.00000000000E+00  0.00000000000E+00 -0.81300458575E+03  0.81300458576E+03  0.50400001928E-02 0.  1.
    10030    2    1    2    0    0  0.00000000000E+00  0.00000000000E+00  0.17526590866E+04  0.33786682582E+04  0.28885264971E+04 0.  0.
        1    1    3    3  502    0  0.32290227978E+03  0.24500308576E+03  0.24977704888E+04  0.25304445872E+04  0.50400001928E-02 0. -1.
       -1    1    3    3    0  502 -0.32290227978E+03 -0.24500308576E+03 -0.74511140214E+03  0.84822367094E+03  0.50400001928E-02 0.  1.
</event>
<event>
 5   0  0.3514294E-05  0.2697846E+04  0.7818609E-02  0.8335704E-01
        2   -1    0    0  501    0  0.00000000000E+00  0.00000000000E+00  0.12799841332E+04  0.12799841332E+04  0.25500000920E-02 0.  1.
       -2   -1    0    0    0  501  0.00000000000E+00  0.00000000000E+00 -0.14215748570E+04  0.14215748570E+04  0.25500000920E-02 0. -1.
    10030    2    1    2    0    0  0.00000000000E+00  0.00000000000E+00 -0.14159072380E+03  0.27015589903E+04  0.26978460009E+04 0.  0.
        2    1    3    3  502    0 -0.72979924473E+03  0.98492695961E+03  0.49292274864E+03  0.13212346081E+04  0.25500000920E-02 0.  1.
       -2    1    3    3    0  502  0.72979924473E+03 -0.98492695961E+03 -0.63451347245E+03  0.13803243822E+04  0.25500000920E-02 0. -1.
</event>
<event>
 5   0  0.3497949E-05  0.2692904E+04  0.7818609E-02  0.8337311E-01
        2   -1    0    0  501    0  0.00000000000E+00  0.00000000000E+00  0.24338751542E+04  0.24338751542E+04  0.25500000920E-02 0.  1.
       -2   -1    0    0    0  501  0.00000000000E+00  0.00000000000E+00 -0.74487518562E+03  0.74487518562E+03  0.25500000920E-02 0. -1.
    10030    2    1    2    0    0  0.00000000000E+00  0.00000000000E+00  0.16889999685E+04  0.31787503398E+04  0.26929041626E+04 0.  0.
        5    1    3    3  502    0 -0.57046953231E+03 -0.10805564521E+04  0.15121126606E+04  0.19441050696E+04  0.46999998093E+01 0.  1.
       -5    1    3    3    0  502  0.57046953231E+03  0.10805564521E+04  0.17688730794E+03  0.12346452702E+04  0.46999998093E+01 0. -1.
</event>
<event>
 5   0  0.3497949E-05  0.2632698E+04  0.7818609E-02  0.8357179E-01
       -2   -1    0    0    0  501  0.00000000000E+00  0.00000000000E+00  0.15497877761E+04  0.15497877761E+04  0.25500000920E-02 0. -1.
        2   -1    0    0  501    0  0.00000000000E+00  0.00000000000E+00 -0.11180718761E+04  0.11180718761E+04  0.25500000920E-02 0.  1.
    10030    2    1    2    0    0  0.00000000000E+00  0.00000000000E+00  0.43171589996E+03  0.26678596522E+04  0.26326975720E+04 0.  0.
        5    1    3    3  502    0  0.74214281031E+03  0.50680999097E+03  0.11905355270E+04  0.14916531932E+04  0.46999998093E+01 0. -1.
       -5    1    3    3    0  502 -0.74214281031E+03 -0.50680999097E+03 -0.75881962701E+03  0.11762064590E+04  0.46999998093E+01 0.  1.
</event>
<event>
 5   0  0.3497949E-05  0.2680971E+04  0.7818609E-02  0.8341206E-01
        2   -1    0    0  501    0  0.00000000000E+00  0.00000000000E+00  0.21189946703E+04  0.21189946703E+04  0.25500000920E-02 0.  1.
       -2   -1    0    0    0  501  0.00000000000E+00  0.00000000000E+00 -0.84799703263E+03  0.84799703264E+03  0.25500000920E-02 0. -1.
    10030    2    1    2    0    0  0.00000000000E+00  0.00000000000E+00  0.12709976377E+04  0.29669917030E+04  0.26809708634E+04 0.  0.
        5    1    3    3  502    0  0.21280430032E+03 -0.92191784337E+02 -0.82561704162E+03  0.85758415608E+03  0.46999998093E+01 0. -1.
       -5    1    3    3    0  502 -0.21280430032E+03  0.92191784337E+02  0.20966146793E+04  0.21094075469E+04  0.46999998093E+01 0.  1.
</event>
<event>
 5   0  0.1484379E-05  0.2664872E+04  0.7818609E-02  0.8346494E-01
       -1   -1    0    0    0  501  0.00000000000E+00  0.00000000000E+00  0.13326248300E+04  0.13326248300E+04  0.50400001928E-02 0. -1.
        1   -1    0    0  501    0  0.00000000000E+00  0.00000000000E+00 -0.13322467545E+04  0.13322467545E+04  0.50400001928E-02 0.  1.
    10030    2    1    2    0    0  0.00000000000E+00  0.00000000000E+00  0.37807545678E+00  0.26648715845E+04  0.26648715577E+04 0.  0.
        1    1    3    3  502    0 -0.42770016706E+03 -0.12510551646E+04  0.16547257409E+03  0.13324592417E+04  0.50400001928E-02 0.  1.
       -1    1    3    3    0  502  0.42770016706E+03  0.12510551646E+04 -0.16509449864E+03  0.13324123428E+04  0.50400001928E-02 0. -1.
</event>
<event>
 5   0  0.1449521E-05  0.2641822E+04  0.7818609E-02  0.8354132E-01
        1   -1    0    0  501    0  0.00000000000E+00  0.00000000000E+00  0.19409561992E+04  0.19409561992E+04  0.50400001928E-02 0. -1.
       -1   -1    0    0    0  501  0.00000000000E+00  0.00000000000E+00 -0.89894157489E+03  0.89894157490E+03  0.50400001928E-02 0.  1.
    10030    2    1    2    0    0  0.00000000000E+00  0.00000000000E+00  0.10420146243E+04  0.28398977741E+04  0.26418222669E+04 0.  0.
        3    1    3    3  502    0  0.75047442363E+03 -0.87220654328E+03 -0.17636199172E+03  0.11640703059E+04  0.10100000352E+00 0.  1.
       -3    1    3    3    0  502 -0.75047442363E+03  0.87220654328E+03  0.12183766160E+04  0.16758274682E+04  0.10100000352E+00 0. -1.
</event>
<event>
 5   0  0.1449521E-05  0.2649764E+04  0.7818609E-02  0.8351491E-01
       -1   -1    0    0    0  501  0.00000000000E+00  0.00000000000E+00  0.14734470271E+04  0.14734470271E+04  0.50400001928E-02 0.  1.
        1   -1    0    0  501    0  0.00000000000E+00  0.00000000000E+00 -0.11912963830E+04  0.11912963831E+04  0.50400001928E-02 0. -1.
    10030    2    1    2    0    0  0.00000000000E+00  0.00000000000E+00  0.28215064409E+03  0.26647434102E+04  0.26497638491E+04 0.  0.
        3    1    3    3  502    0 -0.13090963030E+04  0.95241516946E+02 -0.40243767577E+02  0.13131731220E+04  0.10100000352E+00 0.  1.
       -3    1    3    3    0  502  0.13090963030E+04 -0.95241516946E+02  0.32239441167E+03  0.13515702882E+04  0.10100000352E+00 0. -1.
</event>
<event>
 5   0  0.3652331E-05  0.2383450E+04  0.7818609E-02  0.8445726E-01
        2   -1    0    0  501    0  0.00000000000E+00  0.00000000000E+00  0.13114095796E+04  0.13114095796E+04  0.25500000920E-02 0.  1.
       -2   -1    0    0    0  501  0.00000000000E+00  0.00000000000E+00 -0.10829631004E+04  0.10829631004E+04  0.25500000920E-02 0. -1.
    10030    2    1    2    0    0  0.00000000000E+00  0.00000000000E+00  0.22844647920E+03  0.23943726800E+04  0.23834497555E+04 0.  0.
        1    1    3    3  502    0  0.33091566921E+03  0.10272216086E+04  0.62202844945E+03  0.12456359040E+04  0.50400001928E-02 0.  1.
       -1    1    3    3    0  502 -0.33091566921E+03 -0.10272216086E+04 -0.39358197025E+03  0.11487367760E+04  0.50400001928E-02 0. -1.
</event>
<event>
 5   0  0.1495517E-05  0.1526772E+04  0.7818609E-02  0.8866842E-01
        1   -1    0    0  501    0  0.00000000000E+00  0.00000000000E+00  0.11409367311E+04  0.11409367311E+04  0.50400001928E-02 0.  1.
       -1   -1    0    0    0  501  0.00000000000E+00  0.00000000000E+00 -0.51077177163E+03  0.51077177165E+03  0.50400001928E-02 0. -1.
    10030    2    1    2    0    0  0.00000000000E+00  0.00000000000E+00  0.63016495944E+03  0.16517085027E+04  0.15267721185E+04 0.  0.
        5    1    3    3  502    0  0.27717235246E+03 -0.70063909613E+03  0.44765208724E+03  0.87643261989E+03  0.46999998093E+01 0.  1.
       -5    1    3    3    0  502 -0.27717235246E+03  0.70063909613E+03  0.18251287219E+03  0.77527588284E+03  0.46999998093E+01 0. -1.
</event>
<event>
 5   0  0.3652331E-05  0.2707856E+04  0.7818609E-02  0.8332460E-01
       -2   -1    0    0    0  501  0.00000000000E+00  0.00000000000E+00  0.97471733013E+03  0.97471733014E+03  0.25500000920E-02 0.  1.
        2   -1    0    0  501    0  0.00000000000E+00  0.00000000000E+00 -0.18806700566E+04  0.18806700566E+04  0.25500000920E-02 0. -1.
    10030    2    1    2    0    0  0.00000000000E+00  0.00000000000E+00 -0.90595272647E+03  0.28553873867E+04  0.27078564928E+04 0.  0.
        1    1    3    3  502    0 -0.11754892397E+04  0.97139513395E+02 -0.11539579831E+04  0.16501000165E+04  0.50400001928E-02 0. -1.
       -1    1    3    3    0  502  0.11754892397E+04 -0.97139513395E+02  0.24800525660E+03  0.12052873703E+04  0.50400001928E-02 0.  1.
</event>
<event>
 5   0  0.3568647E-05  0.2628216E+04  0.7818609E-02  0.8358680E-01
       -2   -1    0    0    0  501  0.00000000000E+00  0.00000000000E+00  0.12241145655E+04  0.12241145655E+04  0.25500000920E-02 0. -1.
        2   -1    0    0  501    0  0.00000000000E+00  0.00000000000E+00 -0.14107170126E+04  0.14107170126E+04  0.25500000920E-02 0.  1.
    10030    2    1    2    0    0  0.00000000000E+00  0.00000000000E+00 -0.18660244707E+03  0.26348315781E+04  0.26282155490E+04 0.  0.
        3    1    3    3  502    0  0.41076343825E+03 -0.12332106362E+04  0.10043160123E+03  0.13036953602E+04  0.10100000352E+00 0. -1.
       -3    1    3    3    0  502 -0.41076343825E+03  0.12332106362E+04 -0.28703404830E+03  0.13311362179E+04  0.10100000352E+00 0.  1.
</event>
<event>
 5   0  0.3514294E-05  0.2148052E+04  0.7818609E-02  0.8540367E-01
        2   -1    0    0  501    0  0.00000000000E+00  0.00000000000E+00  0.68853836722E+03  0.68853836723E+03  0.25500000920E-02 0. -1.
       -2   -1    0    0    0  501  0.00000000000E+00  0.00000000000E+00 -0.16753338706E+04  0.16753338706E+04  0.25500000920E-02 0.  1.
    10030    2    1    2    0    0  0.00000000000E+00  0.00000000000E+00 -0.98679550336E+03  0.23638722378E+04  0.21480518130E+04 0.  0.
        2    1    3    3  502    0 -0.76551772437E+03 -0.75298084670E+03 -0.51883048088E+03  0.11925529798E+04  0.25500000920E-02 0.  1.
       -2    1    3    3    0  502  0.76551772437E+03  0.75298084670E+03 -0.46796502248E+03  0.11713192580E+04  0.25500000920E-02 0. -1.
</event>
<event>
 5   0  0.1474012E-05  0.2751809E+04  0.7818609E-02  0.8318388E-01
        1   -1    0    0  501    0  0.00000000000E+00  0.00000000000E+00  0.85721067642E+03  0.85721067643E+03  0.50400001928E-02 0. -1.
       -1   -1    0    0    0  501  0.00000000000E+00  0.00000000000E+00 -0.22084574190E+04  0.22084574190E+04  0.50400001928E-02 0.  1.
    10030    2    1    2    0    0  0.00000000000E+00  0.00000000000E+00 -0.13512467426E+04  0.30656680954E+04  0.27518090617E+04 0.  0.
        2    1    3    3  502    0  0.32655194590E+03  0.10781726031E+04  0.20442475028E+03  0.11449374716E+04  0.25500000920E-02 0. -1.
       -2    1    3    3    0  502 -0.32655194590E+03 -0.10781726031E+04 -0.15556714929E+04  0.19207306238E+04  0.25500000920E-02 0.  1.
</event>
<event>
 5   0  0.3497949E-05  0.2712668E+04  0.7818609E-02  0.8330906E-01
        2   -1    0    0  501    0  0.00000000000E+00  0.00000000000E+00  0.11090680296E+04  0.11090680296E+04  0.25500000920E-02 0. -1.
       -2   -1    0    0    0  501  0.00000000000E+00  0.00000000000E+00 -0.16587282071E+04  0.16587282071E+04  0.25500000920E-02 0.  1.
    10030    2    1    2    0    0  0.00000000000E+00  0.00000000000E+00 -0.54966017756E+03  0.27677962367E+04  0.27126683721E+04 0.  0.
        5    1    3    3  502    0 -0.85390872937E+03 -0.10284665227E+03  0.79523602785E+03  0.11713923262E+04  0.46999998093E+01 0. -1.
       -5    1    3    3    0  502  0.85390872937E+03  0.10284665227E+03 -0.13448962054E+04  0.15964039105E+04  0.46999998093E+01 0.  1.
</event>
<event>
 5   0  0.1228050E-05  0.2537821E+04  0.7818609E-02  0.8389634E-01
        3   -1    0    0  501    0  0.00000000000E+00  0.00000000000E+00  0.10809641386E+04  0.10809641433E+04  0.10100000352E+00 0. -1.
       -3   -1    0    0    0  501  0.00000000000E+00  0.00000000000E+00 -0.14895349008E+04  0.14895349043E+04  0.10100000352E+00 0.  1.
    10030    2    1    2    0    0  0.00000000000E+00  0.00000000000E+00 -0.40857076223E+03  0.25704990476E+04  0.25378209720E+04 0.  0.
        1    1    3    3  502    0 -0.75709891995E+02  0.90000783496E+03  0.69847549482E+03  0.11417592161E+04  0.50400001928E-02 0. -1.
       -1    1    3    3    0  502  0.75709891995E+02 -0.90000783496E+03 -0.11070462571E+04  0.14287398315E+04  0.50400001928E-02 0.  1.
</event>
<event>
 5   0  0.3497949E-05  0.2754169E+04  0.7818609E-02  0.8317640E-01
       -2   -1    0    0    0  501  0.00000000000E+00  0.00000000000E+00  0.10525035847E+04  0.10525035847E+04  0.25500000920E-02 0.  1.
        2   -1    0    0  501    0  0.00000000000E+00  0.00000000000E+00 -0.18017627580E+04  0.18017627581E+04  0.25500000920E-02 0. -1.
    10030    2    1    2    0    0  0.00000000000E+00  0.00000000000E+00 -0.74925917331E+03  0.28542663428E+04  0.27541690302E+04 0.  0.
        5    1    3    3  502    0  0.77715911289E+03  0.57379794069E+03 -0.13916834426E+04  0.16941148892E+04  0.46999998093E+01 0. -1.
       -5    1    3    3    0  502 -0.77715911289E+03 -0.57379794069E+03  0.64242426928E+03  0.11601514536E+04  0.46999998093E+01 0.  1.
</event>
<event>
 5   0  0.3652331E-05  0.2196506E+04  0.7818609E-02  0.8519884E-01
        2   -1    0    0  501    0  0.00000000000E+00  0.00000000000E+00  0.22752283341E+04  0.22752283341E+04  0.25500000920E-02 0.  1.
       -2   -1    0    0    0  501  0.00000000000E+00  0.00000000000E+00 -0.53012689155E+03  0.53012689156E+03  0.25500000920E-02 0. -1.
    10030    2    1    2    0    0  0.00000000000E+00  0.00000000000E+00  0.17451014426E+04  0.28053552257E+04  0.21965060659E+04 0.  0.
        1    1    3    3  502    0 -0.32432824486E+03  0.10473438576E+04  0.79135360625E+03  0.13521680726E+04  0.50400001928E-02 0.  1.
       -1    1    3    3    0  502  0.32432824486E+03 -0.10473438576E+04  0.95374783633E+03  0.14531871531E+04  0.50400001928E-02 0. -1.
</event>
<event>
 5   0  0.3676724E-05  0.2708128E+04  0.7818609E-02  0.8332372E-01
       -2   -1    0    0    0  501  0.00000000000E+00  0.00000000000E+00  0.13936419085E+04  0.13936419085E+04  0.25500000920E-02 0.  1.
        2   -1    0    0  501    0  0.00000000000E+00  0.00000000000E+00 -0.13156102940E+04  0.13156102940E+04  0.25500000920E-02 0. -1.
    10030    2    1    2    0    0  0.00000000000E+00  0.00000000000E+00  0.78031614513E+02  0.27092522025E+04  0.27081282399E+04 0.  0.
        4    1    3    3  502    0 -0.20349207989E+03 -0.98394215614E+03 -0.86907058662E+03  0.13284714866E+04  0.12699999809E+01 0. -1.
       -4    1    3    3    0  502  0.20349207989E+03  0.98394215614E+03  0.94710220113E+03  0.13807807159E+04  0.12699999809E+01 0.  1.
</event>
<event>
 5   0  0.1474012E-05  0.1578744E+04  0.7818609E-02  0.8833714E-01
       -1   -1    0    0    0  501  0.00000000000E+00  0.00000000000E+00  0.91719176039E+03  0.91719176040E+03  0.50400001928E-02 0. -1.
        1   -1    0    0  501    0  0.00000000000E+00  0.00000000000E+00 -0.67936525831E+03  0.67936525833E+03  0.50400001928E-02 0.  1.
    10030    2    1    2    0    0  0.00000000000E+00  0.00000000000E+00  0.23782650208E+03  0.15965570187E+04  0.15787440796E+04 0.  0.
        2    1    3    3  502    0  0.68546878517E+03  0.12653382392E+03 -0.25571209406E+03  0.74247352754E+03  0.25500000920E-02 0.  1.
       -2    1    3    3    0  502 -0.68546878517E+03 -0.12653382392E+03  0.49353859614E+03  0.85408349119E+03  0.25500000920E-02 0. -1.
</event>
<event>
 5   0  0.1474012E-05  0.2682734E+04  0.7818609E-02  0.8340629E-01
       -1   -1    0    0    0  501  0.00000000000E+00  0.00000000000E+00  0.10356866771E+04  0.10356866771E+04  0.50400001928E-02 0.  1.
        1   -1    0    0  501    0  0.00000000000E+00  0.00000000000E+00 -0.17372682475E+04  0.17372682475E+04  0.50400001928E-02 0. -1.
    10030    2    1    2    0    0  0.00000000000E+00  0.00000000000E+00 -0.70158157040E+03  0.27729549246E+04  0.26827341116E+04 0.  0.
        2    1    3    3  502    0  0.95107549353E+03  0.71571150316E+03 -0.99003738177E+03  0.15482123780E+04  0.25500000920E-02 0. -1.
       -2    1    3    3    0  502 -0.95107549353E+03 -0.71571150316E+03  0.28845581138E+03  0.12247425465E+04  0.25500000920E-02 0.  1.
</event>
<event>
 5   0  0.3497949E-05  0.2759499E+04  0.7818609E-02  0.8315954E-01
        2   -1    0    0  501    0  0.00000000000E+00  0.00000000000E+00  0.14706045165E+04  0.14706045165E+04  0.25500000920E-02 0. -1.
       -2   -1    0    0    0  501  0.00000000000E+00  0.00000000000E+00 -0.12945078139E+04  0.12945078139E+04  0.25500000920E-02 0.  1.
    10030    2    1    2    0    0  0.00000000000E+00  0.00000000000E+00  0.17609670263E+03  0.27651123303E+04  0.27594992572E+04 0.  0.
        5    1    3    3  502    0 -0.34429631641E+03 -0.12824626077E+04 -0.28746270973E+03  0.13586416721E+04  0.46999998093E+01 0.  1.
       -5    1    3    3    0  502  0.34429631641E+03  0.12824626077E+04  0.46355941236E+03  0.14064706582E+04  0.46999998093E+01 0. -1.
</event>
<event>
 5   0  0.3568647E-05  0.2177828E+04  0.7818609E-02  0.8527714E-01
       -2   -1    0    0    0  501  0.00000000000E+00  0.00000000000E+00  0.12115807799E+04  0.12115807800E+04  0.25500000920E-02 0.  1.
        2   -1    0    0  501    0  0.00000000000E+00  0.00000000000E+00 -0.97866647969E+03  0.97866647969E+03  0.25500000920E-02 0. -1.
    10030    2    1    2    0    0  0.00000000000E+00  0.00000000000E+00  0.23291430026E+03  0.21902472596E+04  0.21778278139E+04 0.  0.
        3    1    3    3  502    0  0.53613606967E+03 -0.93809055489E+03 -0.19508913019E+02  0.10806647872E+04  0.10100000352E+00 0.  1.
       -3    1    3    3    0  502 -0.53613606967E+03  0.93809055489E+03  0.25242321328E+03  0.11095824725E+04  0.10100000352E+00 0. -1.
</event>
<event>
 5   0  0.1474012E-05  0.2838755E+04  0.7818609E-02  0.8291336E-01
        1   -1    0    0  501    0  0.00000000000E+00  0.00000000000E+00  0.15654511273E+04  0.15654511273E+04  0.50400001928E-02 0.  1.
       -1   -1    0    0    0  501  0.00000000000E+00  0.00000000000E+00 -0.12869342439E+04  0.12869342439E+04  0.50400001928E-02 0. -1.
    10030    2    1    2    0    0  0.00000000000E+00  0.00000000000E+00  0.27851688340E+03  0.28523853713E+04  0.28387551236E+04 0.  0.
        2    1    3    3  502    0  0.23200465005E+03  0.22709545297E+03  0.15276432965E+04  0.15617594385E+04  0.25500000920E-02 0.  1.
       -2    1    3    3    0  502 -0.23200465005E+03 -0.22709545297E+03 -0.12491264131E+04  0.12906259328E+04  0.25500000920E-02 0. -1.
</event>
<event>
 5   0  0.3514294E-05  0.2703778E+04  0.7818609E-02  0.8333780E-01
        2   -1    0    0  501    0  0.00000000000E+00  0.00000000000E+00  0.23537989133E+04  0.23537989133E+04  0.25500000920E-02 0. -1.
       -2   -1    0    0    0  501  0.00000000000E+00  0.00000000000E+00 -0.77644857922E+03  0.77644857922E+03  0.25500000920E-02 0.  1.
    10030    2    1    2    0    0  0.00000000000E+00  0.00000000000E+00  0.15773503341E+04  0.31302474926E+04  0.27037779658E+04 0.  0.
        2    1    3    3  502    0  0.10374829639E+04  0.21667527425E+03 -0.18291205229E+03  0.10755351662E+04  0.25500000920E-02 0.  1.
       -2    1    3    3    0  502 -0.10374829639E+04 -0.21667527425E+03  0.17602623864E+04  0.20547123263E+04  0.25500000920E-02 0. -1.
</event>
<event>
 5   0  0.1438701E-05  0.2727433E+04  0.7818609E-02  0.8326158E-01
        1   -1    0    0  501    0  0.00000000000E+00  0.00000000000E+00  0.24188014216E+04  0.24188014216E+04  0.50400001928E-02 0. -1.
       -1   -1    0    0    0  501  0.00000000000E+00  0.00000000000E+00 -0.76886153203E+03  0.76886153204E+03  0.50400001928E-02 0.  1.
    10030    2    1    2    0    0  0.00000000000E+00  0.00000000000E+00  0.16499398896E+04  0.31876629536E+04  0.27274334945E+04 0.  0.
        4    1    3    3  502    0 -0.51188296267E+03  0.82998362473E+03 -0.28921760946E+03  0.10171260607E+04  0.12699999809E+01 0.  1.
       -4    1    3    3    0  502  0.51188296267E+03 -0.82998362473E+03  0.19391574990E+04  0.21705368930E+04  0.12699999809E+01 0. -1.
</event>
<event>
 5   0  0.1449521E-05  0.2735593E+04  0.7818609E-02  0.8323548E-01
        1   -1    0    0  501    0  0.00000000000E+00  0.00000000000E+00  0.14285146645E+04  0.14285146646E+04  0.50400001928E-02 0.  1.
       -1   -1    0    0    0  501  0.00000000000E+00  0.00000000000E+00 -0.13096595459E+04  0.13096595459E+04  0.50400001928E-02 0. -1.
    10030    2    1    2    0    0  0.00000000000E+00  0.00000000000E+00  0.11885511865E+03  0.27381742105E+04  0.27355934397E+04 0.  0.
        3    1    3    3  502    0  0.11896919146E+04 -0.35039801506E+03 -0.51793741652E+03  0.13440255944E+04  0.10100000352E+00 0. -1.
       -3    1    3    3    0  502 -0.11896919146E+04  0.35039801506E+03  0.63679253517E+03  0.13941486161E+04  0.10100000352E+00 0.  1.
</event>
<event>
 5   0  0.3652331E-05  0.2264834E+04  0.7818609E-02  0.8491917E-01
        2   -1    0    0  501    0  0.00000000000E+00  0.00000000000E+00  0.87625002385E+03  0.87625002385E+03  0.25500000920E-02 0. -1.
       -2   -1    0    0    0  501  0.00000000000E+00  0.00000000000E+00 -0.14634730699E+04  0.14634730699E+04  0.25500000920E-02 0.  1.
    10030    2    1    2    0    0  0.00000000000E+00  0.00000000000E+00 -0.58722304604E+03  0.23397230937E+04  0.22648340446E+04 0.  0.
        1    1    3    3  502    0  0.93681914701E+03  0.59946451526E+03 -0.73540591196E+02  0.11146282061E+04  0.50400001928E-02 0.  1.
       -1    1    3    3    0  502 -0.93681914701E+03 -0.59946451526E+03 -0.51368245484E+03  0.12250948876E+04  0.50400001928E-02 0. -1.
</event>
<event>
 5   0  0.1474012E-05  0.2763098E+04  0.7818609E-02  0.8314817E-01
        1   -1    0    0  501    0  0.00000000000E+00  0.00000000000E+00  0.22303697331E+04  0.22303697331E+04  0.50400001928E-02 0. -1.
       -1   -1    0    0    0  501  0.00000000000E+00  0.00000000000E+00 -0.85576730680E+03  0.85576730681E+03  0.50400001928E-02 0.  1.
    10030    2    1    2    0    0  0.00000000000E+00  0.00000000000E+00  0.13746024263E+04  0.30861370399E+04  0.27630978989E+04 0.  0.
        2    1    3    3  502    0 -0.98996098647E+03  0.25190138854E+01 -0.38902667128E+03  0.10636591800E+04  0.25500000920E-02 0.  1.
       -2    1    3    3    0  502  0.98996098647E+03 -0.25190138854E+01  0.17636290976E+04  0.20224778600E+04  0.25500000920E-02 0. -1.
</event>
<event>
 5   0  0.3652331E-05  0.2764062E+04  0.7818609E-02  0.8314513E-01
        2   -1    0    0  501    0  0.00000000000E+00  0.00000000000E+00  0.15814872582E+04  0.15814872582E+04  0.25500000920E-02 0.  1.
       -2   -1    0    0    0  501  0.00000000000E+00  0.00000000000E+00 -0.12077302962E+04  0.12077302962E+04  0.25500000920E-02 0. -1.
    10030    2    1    2    0    0  0.00000000000E+00  0.00000000000E+00  0.37375696206E+03  0.27892175544E+04  0.27640622821E+04 0.  0.
        1    1    3    3  502    0 -0.24912406233E+03 -0.11767725426E+04  0.87362602512E+03  0.14866333937E+04  0.50400001928E-02 0.  1.
       -1    1    3    3    0  502  0.24912406233E+03  0.11767725426E+04 -0.49986906306E+03  0.13025841607E+04  0.50400001928E-02 0. -1.
</event>
<event>
 5   0  0.3568647E-05  0.2778212E+04  0.7818609E-02  0.8310065E-01
       -2   -1    0    0    0  501  0.00000000000E+00  0.00000000000E+00  0.11259074328E+04  0.11259074328E+04  0.25500000920E-02 0. -1.
        2   -1    0    0  501    0  0.00000000000E+00  0.00000000000E+00 -0.17138311071E+04  0.17138311071E+04  0.25500000920E-02 0.  1.
    10030    2    1    2    0    0  0.00000000000E+00  0.00000000000E+00 -0.58792367427E+03  0.28397385399E+04  0.27782117861E+04 0.  0.
        3    1    3    3  502    0 -0.13423841536E+04 -0.34190893508E+03 -0.18814015322E+03  0.13979605370E+04  0.10100000352E+00 0.  1.
       -3    1    3    3    0  502  0.13423841536E+04  0.34190893508E+03 -0.39978352105E+03  0.14417780029E+04  0.10100000352E+00 0. -1.
</event>
<event>
 5   0  0.1484379E-05  0.2489114E+04  0.7818609E-02  0.8406874E-01
        1   -1    0    0  501    0  0.00000000000E+00  0.00000000000E+00  0.15580684977E+04  0.15580684977E+04  0.50400001928E-02 0. -1.
       -1   -1    0    0    0  501  0.00000000000E+00  0.00000000000E+00 -0.99412986766E+03  0.99412986767E+03  0.50400001928E-02 0.  1.
    10030    2    1    2    0    0  0.00000000000E+00  0.00000000000E+00  0.56393863004E+03  0.25521983654E+04  0.24891142436E+04 0.  0.
        1    1    3    3  502    0  0.29162556191E+03  0.11857464135E+04  0.52865439098E+03  0.13306071887E+04  0.50400001928E-02 0. -1.
       -1    1    3    3    0  502 -0.29162556191E+03 -0.11857464135E+04  0.35284239051E+02  0.12215911767E+04  0.50400001928E-02 0.  1.
</event>
<event>
 5   0  0.1484379E-05  0.2733629E+04  0.7818609E-02  0.8324175E-01
        1   -1    0    0  501    0  0.00000000000E+00  0.00000000000E+00  0.13350028330E+04  0.13350028331E+04  0.50400001928E-02 0.  1.
       -1   -1    0    0    0  501  0.00000000000E+00  0.00000000000E+00 -0.13993843480E+04  0.13993843480E+04  0.50400001928E-02 0. -1.
    10030    2    1    2    0    0  0.00000000000E+00  0.00000000000E+00 -0.64381514949E+02  0.27343871811E+04  0.27336291403E+04 0.  0.
        1    1    3    3  502    0  0.10537057198E+04  0.25853336889E+03 -0.86371353691E+03  0.13867719065E+04  0.50400001928E-02 0. -1.
       -1    1    3    3    0  502 -0.10537057198E+04 -0.25853336889E+03  0.79933202196E+03  0.13476152745E+04  0.50400001928E-02 0.  1.
</event>
<event>
 5   0  0.3652331E-05  0.2725208E+04  0.7818609E-02  0.8326872E-01
       -2   -1    0    0    0  501  0.00000000000E+00  0.00000000000E+00  0.11194259664E+04  0.11194259664E+04  0.25500000920E-02 0. -1.
        2   -1    0    0  501    0  0.00000000000E+00  0.00000000000E+00 -0.16586086481E+04  0.16586086481E+04  0.25500000920E-02 0.  1.
    10030    2    1    2    0    0  0.00000000000E+00  0.00000000000E+00 -0.53918268172E+03  0.27780346145E+04  0.27252079471E+04 0.  0.
        1    1    3    3  502    0 -0.47995334528E+03  0.12441223762E+04 -0.55518984427E+03  0.14444484981E+04  0.50400001928E-02 0.  1.
       -1    1    3    3    0  502  0.47995334528E+03 -0.12441223762E+04  0.16007162550E+02  0.13335861164E+04  0.50400001928E-02 0. -1.
</event>
<event>
 5   0  0.1474012E-05  0.2697148E+04  0.7818609E-02  0.8335931E-01
        1   -1    0    0  501    0  0.00000000000E+00  0.00000000000E+00  0.16819519572E+04  0.16819519572E+04  0.50400001928E-02 0.  1.
       -1   -1    0    0    0  501  0.00000000000E+00  0.00000000000E+00 -0.10812742072E+04  0.10812742072E+04  0.50400001928E-02 0. -1.
    10030    2    1    2    0    0  0.00000000000E+00  0.00000000000E+00  0.60067775005E+03  0.27632261644E+04  0.26971475815E+04 0.  0.
        2    1    3    3  502    0  0.27714928835E+02  0.13253041711E+04  0.46370433903E+02  0.13264047197E+04  0.25500000920E-02 0. -1.
       -2    1    3    3    0  502 -0.27714928835E+02 -0.13253041711E+04  0.55430731614E+03  0.14368214447E+04  0.25500000920E-02 0.  1.
</event>
<event>
 5   0  0.1484379E-05  0.2669458E+04  0.7818609E-02  0.8344983E-01
       -1   -1    0    0    0  501  0.00000000000E+00  0.00000000000E+00  0.12201517718E+04  0.12201517719E+04  0.50400001928E-02 0. -1.
        1   -1    0    0  501    0  0.00000000000E+00  0.00000000000E+00 -0.14600657614E+04  0.14600657615E+04  0.50400001928E-02 0.  1.
    10030    2    1    2    0    0  0.00000000000E+00  0.00000000000E+00 -0.23991398961E+03  0.26802175333E+04  0.26694582416E+04 0.  0.
        1    1    3    3  502    0 -0.68857301212E+03  0.23764900769E+03 -0.12428976793E+04  0.14406264210E+04  0.50400001928E-02 0.  1.
       -1    1    3    3    0  502  0.68857301212E+03 -0.23764900769E+03  0.10029836896E+04  0.12395911123E+04  0.50400001928E-02 0. -1.
</event>
<event>
 5   0  0.3568647E-05  0.2606549E+04  0.7818609E-02  0.8365980E-01
       -2   -1    0    0    0  501  0.00000000000E+00  0.00000000000E+00  0.72983691184E+03  0.72983691184E+03  0.25500000920E-02 0.  1.
        2   -1    0    0  501    0  0.00000000000E+00  0.00000000000E+00 -0.23272653662E+04  0.23272653662E+04  0.25500000920E-02 0. -1.
    10030    2    1    2    0    0  0.00000000000E+00  0.00000000000E+00 -0.15974284544E+04  0.30571022781E+04  0.26065488048E+04 0.  0.
        3    1    3    3  502    0  0.46195510757E+03  0.11384822193E+04 -0.13085753332E+04  0.17949689964E+04  0.10100000352E+00 0. -1.
       -3    1    3    3    0  502 -0.46195510757E+03 -0.11384822193E+04 -0.28885312116E+03  0.12621332817E+04  0.10100000352E+00 0.  1.
</event>
<event>
 5   0  0.1438701E-05  0.2712552E+04  0.7818609E-02  0.8330944E-01
        1   -1    0    0  501    0  0.00000000000E+00  0.00000000000E+00  0.26342409717E+04  0.26342409717E+04  0.50400001928E-02 0. -1.
       -1   -1    0    0    0  501  0.00000000000E+00  0.00000000000E+00 -0.69829797129E+03  0.69829797131E+03  0.50400001928E-02 0.  1.
    10030    2    1    2    0    0  0.00000000000E+00  0.00000000000E+00  0.19359430004E+04  0.33325389430E+04  0.27125523969E+04 0.  0.
        4    1    3    3  502    0 -0.10223877981E+04 -0.74900344637E+03  0.37468854116E+03  0.13216187378E+04  0.12699999809E+01 0.  1.
       -4    1    3    3    0  502  0.10223877981E+04  0.74900344637E+03  0.15612544592E+04  0.20109202052E+04  0.12699999809E+01 0. -1.
</event>
<event>
 5   0  0.1438701E-05  0.2363155E+04  0.7818609E-02  0.8453428E-01
        1   -1    0    0  501    0  0.00000000000E+00  0.00000000000E+00  0.18257036014E+04  0.18257036014E+04  0.50400001928E-02 0. -1.
       -1   -1    0    0    0  501  0.00000000000E+00  0.00000000000E+00 -0.76470565569E+03  0.76470565571E+03  0.50400001928E-02 0.  1.
    10030    2    1    2    0    0  0.00000000000E+00  0.00000000000E+00  0.10609979457E+04  0.25904092571E+04  0.23631554072E+04 0.  0.
        4    1    3    3  502    0 -0.65222957974E+03  0.20138989984E+03 -0.52669728369E+03  0.86219078979E+03  0.12699999809E+01 0.  1.
       -4    1    3    3    0  502  0.65222957974E+03 -0.20138989984E+03  0.15876952294E+04  0.17282184673E+04  0.12699999809E+01 0. -1.
</event>
<event>
 5   0  0.1438701E-05  0.2725776E+04  0.7818609E-02  0.8326690E-01
       -1   -1    0    0    0  501  0.00000000000E+00  0.00000000000E+00  0.86707125750E+03  0.86707125752E+03  0.50400001928E-02 0. -1.
        1   -1    0    0  501    0  0.00000000000E+00  0.00000000000E+00 -0.21422280057E+04  0.21422280057E+04  0.50400001928E-02 0.  1.
    10030    2    1    2    0    0  0.00000000000E+00  0.00000000000E+00 -0.12751567482E+04  0.30092992632E+04  0.27257764624E+04 0.  0.
        4    1    3    3  502    0 -0.24796938626E+03 -0.13010356194E+04 -0.28277828878E+03  0.13543070822E+04  0.12699999809E+01 0. -1.
       -4    1    3    3    0  502  0.24796938626E+03  0.13010356194E+04 -0.99237845938E+03  0.16549921810E+04  0.12699999809E+01 0.  1.
</event>
<event>
 5   0  0.3514294E-05  0.2545913E+04  0.7818609E-02  0.8386809E-01
        2   -1    0    0  501    0  0.00000000000E+00  0.00000000000E+00  0.12336883208E+04  0.12336883208E+04  0.25500000920E-02 0.  1.
       -2   -1    0    0    0  501  0.00000000000E+00  0.00000000000E+00 -0.13134750763E+04  0.13134750763E+04  0.25500000920E-02 0. -1.
    10030    2    1    2    0    0  0.00000000000E+00  0.00000000000E+00 -0.79786755510E+02  0.25471633971E+04  0.25459134796E+04 0.  0.
        2    1    3    3  502    0 -0.19352500969E+02 -0.26601540355E+03  0.12054185351E+04  0.12345738370E+04  0.25500000920E-02 0.  1.
       -2    1    3    3    0  502  0.19352500969E+02  0.26601540355E+03 -0.12852052906E+04  0.13125895601E+04  0.25500000920E-02 0. -1.
</event>
<event>
 5   0  0.3676724E-05  0.1934101E+04  0.7818609E-02  0.8638066E-01
        2   -1    0    0  501    0  0.00000000000E+00  0.00000000000E+00  0.14300093852E+04  0.14300093852E+04  0.25500000920E-02 0. -1.
       -2   -1    0    0    0  501  0.00000000000E+00  0.00000000000E+00 -0.65397254884E+03  0.65397254884E+03  0.25500000920E-02 0.  1.
    10030    2    1    2    0    0  0.00000000000E+00  0.00000000000E+00  0.77603683633E+03  0.20839819340E+04  0.19341012202E+04 0.  0.
        4    1    3    3  502    0 -0.19340429223E+03  0.94744831184E+03  0.39990731590E+03  0.10464181755E+04  0.12699999809E+01 0.  1.
       -4    1    3    3    0  502  0.19340429223E+03 -0.94744831184E+03  0.37612952043E+03  0.10375637585E+04  0.12699999809E+01 0. -1.
</event>
<event>
 5   0  0.3568647E-05  0.2589588E+04  0.7818609E-02  0.8371746E-01
        2   -1    0    0  501    0  0.00000000000E+00  0.00000000000E+00  0.16305722366E+04  0.16305722366E+04  0.25500000920E-02 0. -1.
       -2   -1    0    0    0  501  0.00000000000E+00  0.00000000000E+00 -0.10281615393E+04  0.10281615393E+04  0.25500000920E-02 0.  1.
    10030    2    1    2    0    0  0.00000000000E+00  0.00000000000E+00  0.60241069731E+03  0.26587337758E+04  0.25895881222E+04 0.  0.
        3    1    3    3  502    0 -0.25190742526E+03  0.12627305554E+04  0.16138594076E+03  0.12976868800E+04  0.10100000352E+00 0.  1.
       -3    1    3    3    0  502  0.25190742526E+03 -0.12627305554E+04  0.44102475655E+03  0.13610468958E+04  0.10100000352E+00 0. -1.
</event>
<event>
 5   0  0.1449521E-05  0.2698841E+04  0.7818609E-02  0.8335381E-01
        1   -1    0    0  501    0  0.00000000000E+00  0.00000000000E+00  0.17555658027E+04  0.17555658027E+04  0.50400001928E-02 0.  1.
       -1   -1    0    0    0  501  0.00000000000E+00  0.00000000000E+00 -0.10372360915E+04  0.10372360915E+04  0.50400001928E-02 0. -1.
    10030    2    1    2    0    0  0.00000000000E+00  0.00000000000E+00  0.71832971119E+03  0.27928018943E+04  0.26988413897E+04 0.  0.
        3    1    3    3  502    0 -0.27467865023E+03 -0.98693280754E+03 -0.54973717782E+03  0.11626244890E+04  0.10100000352E+00 0. -1.
       -3    1    3    3    0  502  0.27467865023E+03  0.98693280754E+03  0.12680668890E+04  0.16301774053E+04  0.10100000352E+00 0.  1.
</event>
<event>
 5   0  0.3497949E-05  0.2663795E+04  0.7818609E-02  0.8346849E-01
       -2   -1    0    0    0  501  0.00000000000E+00  0.00000000000E+00  0.19673420188E+04  0.19673420188E+04  0.25500000920E-02 0. -1.
        2   -1    0    0  501    0  0.00000000000E+00  0.00000000000E+00 -0.90169963175E+03  0.90169963176E+03  0.25500000920E-02 0.  1.
    10030    2    1    2    0    0  0.00000000000E+00  0.00000000000E+00  0.10656423870E+04  0.28690416505E+04  0.26637954680E+04 0.  0.
        5    1    3    3  502    0 -0.45733007853E+03  0.10138881473E+04 -0.25630430564E+03  0.11414175235E+04  0.46999998093E+01 0.  1.
       -5    1    3    3    0  502  0.45733007853E+03 -0.10138881473E+04  0.13219466927E+04  0.17276241270E+04  0.46999998093E+01 0. -1.
</event>
<event>
 5   0  0.3514294E-05  0.2725439E+04  0.7818609E-02  0.8326798E-01
       -2   -1    0    0    0  501  0.00000000000E+00  0.00000000000E+00  0.15937208730E+04  0.15937208730E+04  0.25500000920E-02 0. -1.
        2   -1    0    0  501    0  0.00000000000E+00  0.00000000000E+00 -0.11652005831E+04  0.11652005831E+04  0.25500000920E-02 0.  1.
    10030    2    1    2    0    0  0.00000000000E+00  0.00000000000E+00  0.42852028990E+03  0.27589214560E+04  0.27254390402E+04 0.  0.
        2    1    3    3  502    0  0.33765653242E+03  0.13201168959E+04  0.23131760671E+03  0.13821101215E+04  0.25500000920E-02 0. -1.
       -2    1    3    3    0  502 -0.33765653242E+03 -0.13201168959E+04  0.19720268319E+03  0.13768113346E+04  0.25500000920E-02 0.  1.
</event>
<event>
 5   0  0.1449521E-05  0.2856387E+04  0.7818609E-02  0.8285973E-01
       -1   -1    0    0    0  501  0.00000000000E+00  0.00000000000E+00  0.15018619024E+04  0.15018619024E+04  0.50400001928E-02 0. -1.
        1   -1    0    0  501    0  0.00000000000E+00  0.00000000000E+00 -0.13581383897E+04  0.13581383897E+04  0.50400001928E-02 0.  1.
    10030    2    1    2    0    0  0.00000000000E+00  0.00000000000E+00  0.14372351273E+03  0.28600002921E+04  0.28563867425E+04 0.  0.
        3    1    3    3  502    0  0.75660630576E+03  0.10276676361E+04  0.71390804459E+03  0.14622648798E+04  0.10100000352E+00 0. -1.
       -3    1    3    3    0  502 -0.75660630576E+03 -0.10276676361E+04 -0.57018453185E+03  0.13977354123E+04  0.10100000352E+00 0.  1.
</event>
<event>
 5   0  0.3497949E-05  0.2633909E+04  0.7818609E-02  0.8356774E-01
        2   -1    0    0  501    0  0.00000000000E+00  0.00000000000E+00  0.14276325086E+04  0.14276325086E+04  0.25500000920E-02 0.  1.
       -2   -1    0    0    0  501  0.00000000000E+00  0.00000000000E+00 -0.12148565895E+04  0.12148565895E+04  0.25500000920E-02 0. -1.
    10030    2    1    2    0    0  0.00000000000E+00  0.00000000000E+00  0.21277591906E+03  0.26424890981E+04  0.26339087004E+04 0.  0.
        5    1    3    3  502    0  0.56613357310E+03  0.74664529141E+03 -0.82202402768E+03  0.12464878683E+04  0.46999998093E+01 0. -1.
       -5    1    3    3    0  502 -0.56613357310E+03 -0.74664529141E+03  0.10347999467E+04  0.13960012298E+04  0.46999998093E+01 0.  1.
</event>
<event>
 5   0  0.1495517E-05  0.2718385E+04  0.7818609E-02  0.8329064E-01
       -1   -1    0    0    0  501  0.00000000000E+00  0.00000000000E+00  0.14740006442E+04  0.14740006442E+04  0.50400001928E-02 0.  1.
        1   -1    0    0  501    0  0.00000000000E+00  0.00000000000E+00 -0.12533264800E+04  0.12533264800E+04  0.50400001928E-02 0. -1.
    10030    2    1    2    0    0  0.00000000000E+00  0.00000000000E+00  0.22067416417E+03  0.27273271242E+04  0.27183848432E+04 0.  0.
        5    1    3    3  502    0  0.93637164538E+03 -0.33683516289E+03  0.10391969254E+04  0.14388196986E+04  0.46999998093E+01 0.  1.
       -5    1    3    3    0  502 -0.93637164538E+03  0.33683516289E+03 -0.81852276125E+03  0.12885074256E+04  0.46999998093E+01 0. -1.
</event>
<event>
 5   0  0.3497949E-05  0.2553863E+04  0.7818609E-02  0.8384044E-01
        2   -1    0    0  501    0  0.00000000000E+00  0.00000000000E+00  0.13394235802E+04  0.13394235802E+04  0.25500000920E-02 0.  1.
       -2   -1    0    0    0  501  0.00000000000E+00  0.00000000000E+00 -0.12173551793E+04  0.12173551793E+04  0.25500000920E-02 0. -1.
    10030    2    1    2    0    0  0.00000000000E+00  0.00000000000E+00  0.12206840087E+03  0.25567787594E+04  0.25538631385E+04 0.  0.
        5    1    3    3  502    0 -0.82826578061E+03  0.76782436023E+03  0.65749427481E+03  0.13068661993E+04  0.46999998093E+01 0.  1.
       -5    1    3    3    0  502  0.82826578061E+03 -0.76782436023E+03 -0.53542587394E+03  0.12499125601E+04  0.46999998093E+01 0. -1.
</event>
<event>
 5   0  0.3652331E-05  0.2670630E+04  0.7818609E-02  0.8344598E-01
       -2   -1    0    0    0  501  0.00000000000E+00  0.00000000000E+00  0.73842886961E+03  0.73842886961E+03  0.25500000920E-02 0.  1.
        2   -1    0    0  501    0  0.00000000000E+00  0.00000000000E+00 -0.24146761698E+04  0.24146761698E+04  0.25500000920E-02 0. -1.
    10030    2    1    2    0    0  0.00000000000E+00  0.00000000000E+00 -0.16762473002E+04  0.31531050394E+04  0.26706303335E+04 0.  0.
        1    1    3    3  502    0 -0.10267873673E+04  0.37169112749E+02  0.16882922520E+03  0.10412382763E+04  0.50400001928E-02 0.  1.
       -1    1    3    3    0  502  0.10267873673E+04 -0.37169112749E+02 -0.18450765254E+04  0.21118667632E+04  0.50400001928E-02 0. -1.
</event>
<event>
 5   0  0.3676724E-05  0.3392567E+04  0.7818609E-02  0.8139733E-01
       -2   -1    0    0    0  501  0.00000000000E+00  0.00000000000E+00  0.12253972704E+04  0.12253972704E+04  0.25500000920E-02 0.  1.
        2   -1    0    0  501    0  0.00000000000E+00  0.00000000000E+00 -0.23481181682E+04  0.23481181682E+04  0.25500000920E-02 0. -1.
    10030    2    1    2    0    0  0.00000000000E+00  0.00000000000E+00 -0.11227208978E+04  0.35735154386E+04  0.33925669302E+04 0.  0.
        4    1    3    3  502    0  0.11702552043E+04 -0.33275027687E+03  0.68369784887E+03  0.13955874574E+04  0.12699999809E+01 0.  1.
       -4    1    3    3    0  502 -0.11702552043E+04  0.33275027687E+03 -0.18064187467E+04  0.21779279812E+04  0.12699999809E+01 0. -1.
</event>
<event>
 5   0  0.1449521E-05  0.2717504E+04  0.7818609E-02  0.8329348E-01
        1   -1    0    0  501    0  0.00000000000E+00  0.00000000000E+00  0.19146825379E+04  0.19146825380E+04  0.50400001928E-02 0. -1.
       -1   -1    0    0    0  501  0.00000000000E+00  0.00000000000E+00 -0.96423665414E+03  0.96423665416E+03  0.50400001928E-02 0.  1.
    10030    2    1    2    0    0  0.00000000000E+00  0.00000000000E+00  0.95044588380E+03  0.28789191921E+04  0.27175040638E+04 0.  0.
        3    1    3    3  502    0 -0.91679066226E+03 -0.58492303198E+03  0.13382047949E+04  0.17243642757E+04  0.10100000352E+00 0. -1.
       -3    1    3    3    0  502  0.91679066226E+03  0.58492303198E+03 -0.38775891113E+03  0.11545549165E+04  0.10100000352E+00 0.  1.
</event>
<event>
 5   0  0.1438701E-05  0.2696043E+04  0.7818609E-02  0.8336290E-01
        1   -1    0    0  501    0  0.00000000000E+00  0.00000000000E+00  0.24347608644E+04  0.24347608644E+04  0.50400001928E-02 0. -1.
       -1   -1    0    0    0  501  0.00000000000E+00  0.00000000000E+00 -0.74634121565E+03  0.74634121567E+03  0.50400001928E-02 0.  1.
    10030    2    1    2    0    0  0.00000000000E+00  0.00000000000E+00  0.16884196487E+04  0.31811020800E+04  0.26960433108E+04 0.  0.
        4    1    3    3  502    0 -0.20242029178E+03  0.78552987447E+02  0.24139918953E+04  0.24237374094E+04  0.12699999809E+01 0. -1.
       -4    1    3    3    0  502  0.20242029178E+03 -0.78552987447E+02 -0.72557224659E+03  0.75736467061E+03  0.12699999809E+01 0.  1.
</event>
<event>
 5   0  0.3652331E-05  0.2717339E+04  0.7818609E-02  0.8329401E-01
        2   -1    0    0  501    0  0.00000000000E+00  0.00000000000E+00  0.12359617356E+04  0.12359617356E+04  0.25500000920E-02 0.  1.
       -2   -1    0    0    0  501  0.00000000000E+00  0.00000000000E+00 -0.14935594270E+04  0.14935594270E+04  0.25500000920E-02 0. -1.
    10030    2    1    2    0    0  0.00000000000E+00  0.00000000000E+00 -0.25759769136E+03  0.27295211625E+04  0.27173386256E+04 0.  0.
        1    1    3    3  502    0 -0.82998304574E+03  0.10054282685E+04  0.25530856860E+03  0.13285105662E+04  0.50400001928E-02 0. -1.
       -1    1    3    3    0  502  0.82998304574E+03 -0.10054282685E+04 -0.51290625996E+03  0.14010105963E+04  0.50400001928E-02 0.  1.
</event>
<event>
 5   0  0.1484379E-05  0.2692736E+04  0.7818609E-02  0.8337366E-01
       -1   -1    0    0    0  501  0.00000000000E+00  0.00000000000E+00  0.96131734610E+03  0.96131734611E+03  0.50400001928E-02 0.  1.
        1   -1    0    0  501    0  0.00000000000E+00  0.00000000000E+00 -0.18856492947E+04  0.18856492947E+04  0.50400001928E-02 0. -1.
    10030    2    1    2    0    0  0.00000000000E+00  0.00000000000E+00 -0.92433194863E+03  0.28469666409E+04  0.26927364340E+04 0.  0.
        1    1    3    3  502    0  0.40070098281E+03 -0.86742492962E+03 -0.14650304339E+04  0.17490858922E+04  0.50400001928E-02 0.  1.
       -1    1    3    3    0  502 -0.40070098281E+03  0.86742492962E+03  0.54069848528E+03  0.10978807486E+04  0.50400001928E-02 0. -1.
</event>
<event>
 5   0  0.3676724E-05  0.2710231E+04  0.7818609E-02  0.8331693E-01
        2   -1    0    0  501    0  0.00000000000E+00  0.00000000000E+00  0.12724816591E+04  0.12724816591E+04  0.25500000920E-02 0.  1.
       -2   -1    0    0    0  501  0.00000000000E+00  0.00000000000E+00 -0.14431159043E+04  0.14431159043E+04  0.25500000920E-02 0. -1.
    10030    2    1    2    0    0  0.00000000000E+00  0.00000000000E+00 -0.17063424521E+03  0.27155975634E+04  0.27102313704E+04 0.  0.
        4    1    3    3  502    0  0.23313285571E+02  0.13251197246E+04  0.19782177111E+03  0.13400077835E+04  0.12699999809E+01 0.  1.
       -4    1    3    3    0  502 -0.23313285571E+02 -0.13251197246E+04 -0.36845601632E+03  0.13755897799E+04  0.12699999809E+01 0. -1.
</event>
<event>
 5   0  0.3497949E-05  0.2669510E+04  0.7818609E-02  0.8344966E-01
       -2   -1    0    0    0  501  0.00000000000E+00  0.00000000000E+00  0.98880639051E+03  0.98880639052E+03  0.25500000920E-02 0. -1.
        2   -1    0    0  501    0  0.00000000000E+00  0.00000000000E+00 -0.18017385401E+04  0.18017385401E+04  0.25500000920E-02 0.  1.
    10030    2    1    2    0    0  0.00000000000E+00  0.00000000000E+00 -0.81293214961E+03  0.27905449306E+04  0.26695097546E+04 0.  0.
        5    1    3    3  502    0 -0.13249926771E+04 -0.64104945731E+02 -0.25200511441E+03  0.13502754186E+04  0.46999998093E+01 0.  1.
       -5    1    3    3    0  502  0.13249926771E+04  0.64104945731E+02 -0.56092703520E+03  0.14402695120E+04  0.46999998093E+01 0. -1.
</event>
<event>
 5   0  0.3497949E-05  0.1331436E+04  0.7818609E-02  0.9005001E-01
        2   -1    0    0  501    0  0.00000000000E+00  0.00000000000E+00  0.85395706616E+03  0.85395706616E+03  0.25500000920E-02 0.  1.
       -2   -1    0    0    0  501  0.00000000000E+00  0.00000000000E+00 -0.51897288594E+03  0.51897288594E+03  0.25500000920E-02 0. -1.
    10030    2    1    2    0    0  0.00000000000E+00  0.00000000000E+00  0.33498418022E+03  0.13729299521E+04  0.13314361616E+04 0.  0.
        5    1    3    3  502    0 -0.27430382044E+03  0.57943046781E+02  0.79009570845E+03  0.83837539389E+03  0.46999998093E+01 0.  1.
       -5    1    3    3    0  502  0.27430382044E+03 -0.57943046781E+02 -0.45511152823E+03  0.53455455821E+03  0.46999998093E+01 0. -1.
</event>
<event>
 5   0  0.1438701E-05  0.2753107E+04  0.7818609E-02  0.8317977E-01
        1   -1    0    0  501    0  0.00000000000E+00  0.00000000000E+00  0.20282315121E+04  0.20282315121E+04  0.50400001928E-02 0.  1.
       -1   -1    0    0    0  501  0.00000000000E+00  0.00000000000E+00 -0.93426162334E+03  0.93426162335E+03  0.50400001928E-02 0. -1.
    10030    2    1    2    0    0  0.00000000000E+00  0.00000000000E+00  0.10939698887E+04  0.29624931354E+04  0.27531065108E+04 0.  0.
        4    1    3    3  502    0 -0.13671268050E+04  0.13807153189E+03  0.63570435215E+03  0.15140082844E+04  0.12699999809E+01 0. -1.
       -4    1    3    3    0  502  0.13671268050E+04 -0.13807153189E+03  0.45826553658E+03  0.14484848511E+04  0.12699999809E+01 0.  1.
</event>
<event>
 5   0  0.1438701E-05  0.1427513E+04  0.7818609E-02  0.8934140E-01
       -1   -1    0    0    0  501  0.00000000000E+00  0.00000000000E+00  0.82229404789E+03  0.82229404791E+03  0.50400001928E-02 0.  1.
        1   -1    0    0  501    0  0.00000000000E+00  0.00000000000E+00 -0.61954535369E+03  0.61954535371E+03  0.50400001928E-02 0. -1.
    10030    2    1    2    0    0  0.00000000000E+00  0.00000000000E+00  0.20274869420E+03  0.14418394016E+04  0.14275131618E+04 0.  0.
        4    1    3    3  502    0 -0.24742479149E+03  0.64954735486E+02 -0.57165268441E+03  0.62627992911E+03  0.12699999809E+01 0. -1.
       -4    1    3    3    0  502  0.24742479149E+03 -0.64954735486E+02  0.77440137862E+03  0.81555947251E+03  0.12699999809E+01 0.  1.
</event>
<event>
 5   0  0.1484379E-05  0.2686587E+04  0.7818609E-02  0.8339370E-01
        1   -1    0    0  501    0  0.00000000000E+00  0.00000000000E+00  0.16942468197E+04  0.16942468197E+04  0.50400001928E-02 0.  1.
       -1   -1    0    0    0  501  0.00000000000E+00  0.00000000000E+00 -0.10650377917E+04  0.10650377918E+04  0.50400001928E-02 0. -1.
    10030    2    1    2    0    0  0.00000000000E+00  0.00000000000E+00  0.62920902792E+03  0.27592846114E+04  0.26865866013E+04 0.  0.
        1    1    3    3  502    0 -0.20255200135E+03  0.32600240952E+03  0.16367346586E+04  0.16811321265E+04  0.50400001928E-02 0.  1.
       -1    1    3    3    0  502  0.20255200135E+03 -0.32600240952E+03 -0.10075256306E+04  0.10781524849E+04  0.50400001928E-02 0. -1.
</event>
<event>
 5   0  0.3497949E-05  0.2659636E+04  0.7818609E-02  0.8348222E-01
       -2   -1    0    0    0  501  0.00000000000E+00  0.00000000000E+00  0.28079271703E+04  0.28079271703E+04  0.25500000920E-02 0.  1.
        2   -1    0    0  501    0  0.00000000000E+00  0.00000000000E+00 -0.62979403698E+03  0.62979403698E+03  0.25500000920E-02 0. -1.
    10030    2    1    2    0    0  0.00000000000E+00  0.00000000000E+00  0.21781331333E+04  0.34377212073E+04  0.26596359060E+04 0.  0.
        5    1    3    3  502    0  0.67569021043E+02  0.16243362920E+03 -0.61467533253E+03  0.63937321724E+03  0.46999998093E+01 0. -1.
       -5    1    3    3    0  502 -0.67569021043E+02 -0.16243362920E+03  0.27928084659E+04  0.27983479901E+04  0.46999998093E+01 0.  1.
</event>
<event>
 5   0  0.3676724E-05  0.2726996E+04  0.7818609E-02  0.8326299E-01
       -2   -1    0    0    0  501  0.00000000000E+00  0.00000000000E+00  0.11647627399E+04  0.11647627399E+04  0.25500000920E-02 0. -1.
        2   -1    0    0  501    0  0.00000000000E+00  0.00000000000E+00 -0.15961415276E+04  0.15961415276E+04  0.25500000920E-02 0.  1.
    10030    2    1    2    0    0  0.00000000000E+00  0.00000000000E+00 -0.43137878762E+03  0.27609042675E+04  0.27269955475E+04 0.  0.
        4    1    3    3  502    0  0.63394822012E+03  0.11198481018E+04 -0.67204297688E+03  0.14517553143E+04  0.12699999809E+01 0.  1.
       -4    1    3    3    0  502 -0.63394822012E+03 -0.11198481018E+04  0.24066418926E+03  0.13091489532E+04  0.12699999809E+01 0. -1.
</event>
<event>
 5   0  0.3652331E-05  0.2696263E+04  0.7818609E-02  0.8336219E-01
       -2   -1    0    0    0  501  0.00000000000E+00  0.00000000000E+00  0.69406140521E+03  0.69406140522E+03  0.25500000920E-02 0.  1.
        2   -1    0    0  501    0  0.00000000000E+00  0.00000000000E+00 -0.26185840536E+04  0.26185840536E+04  0.25500000920E-02 0. -1.
    10030    2    1    2    0    0  0.00000000000E+00  0.00000000000E+00 -0.19245226484E+04  0.33126454588E+04  0.26962626934E+04 0.  0.
        1    1    3    3  502    0  0.91164760670E+03 -0.79383220231E+03 -0.22901159519E+03  0.12303321645E+04  0.50400001928E-02 0. -1.
       -1    1    3    3    0  502 -0.91164760670E+03  0.79383220231E+03 -0.16955110532E+04  0.20823132944E+04  0.50400001928E-02 0.  1.
</event>
<event>
 5   0  0.3652331E-05  0.2798031E+04  0.7818609E-02  0.8303880E-01
       -2   -1    0    0    0  501  0.00000000000E+00  0.00000000000E+00  0.25319640863E+04  0.25319640863E+04  0.25500000920E-02 0.  1.
        2   -1    0    0  501    0  0.00000000000E+00  0.00000000000E+00 -0.77301403540E+03  0.77301403541E+03  0.25500000920E-02 0. -1.
    10030    2    1    2    0    0  0.00000000000E+00  0.00000000000E+00  0.17589500509E+04  0.33049781217E+04  0.27980305759E+04 0.  0.
        1    1    3    3  502    0  0.33820589784E+03  0.11438446663E+04  0.15936272494E+02  0.11929031037E+04  0.50400001928E-02 0. -1.
       -1    1    3    3    0  502 -0.33820589784E+03 -0.11438446663E+04  0.17430137784E+04  0.21120750180E+04  0.50400001928E-02 0.  1.
</event>
<event>
 5   0  0.1474012E-05  0.1653631E+04  0.7818609E-02  0.8788261E-01
        1   -1    0    0  501    0  0.00000000000E+00  0.00000000000E+00  0.18301573467E+04  0.18301573467E+04  0.50400001928E-02 0. -1.
       -1   -1    0    0    0  501  0.00000000000E+00  0.00000000000E+00 -0.37353280467E+03  0.37353280470E+03  0.50400001928E-02 0.  1.
    10030    2    1    2    0    0  0.00000000000E+00  0.00000000000E+00  0.14566245421E+04  0.22036901514E+04  0.16536309223E+04 0.  0.
        2    1    3    3  502    0  0.21520901268E+03  0.76628108634E+03  0.42996165386E+03  0.90463730092E+03  0.25500000920E-02 0.  1.
       -2    1    3    3    0  502 -0.21520901268E+03 -0.76628108634E+03  0.10266628882E+04  0.12990528505E+04  0.25500000920E-02 0. -1.
</event>
<event>
 5   0  0.1495517E-05  0.2669146E+04  0.7818609E-02  0.8345086E-01
       -1   -1    0    0    0  501  0.00000000000E+00  0.00000000000E+00  0.14109765679E+04  0.14109765679E+04  0.50400001928E-02 0.  1.
        1   -1    0    0  501    0  0.00000000000E+00  0.00000000000E+00 -0.12623068685E+04  0.12623068685E+04  0.50400001928E-02 0. -1.
    10030    2    1    2    0    0  0.00000000000E+00  0.00000000000E+00  0.14866969941E+03  0.26732834365E+04  0.26691462403E+04 0.  0.
        5    1    3    3  502    0  0.18415014069E+03 -0.10643105775E+04 -0.71071365389E+03  0.12929827020E+04  0.46999998093E+01 0. -1.
       -5    1    3    3    0  502 -0.18415014069E+03  0.10643105775E+04  0.85938335331E+03  0.13803007345E+04  0.46999998093E+01 0.  1.
</event>
<event>
 5   0  0.3497949E-05  0.2693865E+04  0.7818609E-02  0.8336998E-01
        2   -1    0    0  501    0  0.00000000000E+00  0.00000000000E+00  0.26155429565E+04  0.26155429565E+04  0.25500000920E-02 0.  1.
       -2   -1    0    0    0  501  0.00000000000E+00  0.00000000000E+00 -0.69363307219E+03  0.69363307219E+03  0.25500000920E-02 0. -1.
    10030    2    1    2    0    0  0.00000000000E+00  0.00000000000E+00  0.19219098843E+04  0.33091760287E+04  0.26938649531E+04 0.  0.
        5    1    3    3  502    0 -0.67740059983E+03 -0.93789919687E+03  0.11372591962E+03  0.11625326451E+04  0.46999998093E+01 0. -1.
       -5    1    3    3    0  502  0.67740059983E+03  0.93789919687E+03  0.18081839647E+04  0.21466433836E+04  0.46999998093E+01 0.  1.
</event>
<event>
 5   0  0.1438701E-05  0.1581045E+04  0.7818609E-02  0.8832278E-01
       -1   -1    0    0    0  501  0.00000000000E+00  0.00000000000E+00  0.55309132227E+03  0.55309132229E+03  0.50400001928E-02 0.  1.
        1   -1    0    0  501    0  0.00000000000E+00  0.00000000000E+00 -0.11298775766E+04  0.11298775766E+04  0.50400001928E-02 0. -1.
    10030    2    1    2    0    0  0.00000000000E+00  0.00000000000E+00 -0.57678625430E+03  0.16829688989E+04  0.15810445697E+04 0.  0.
        4    1    3    3  502    0 -0.10726466071E+03  0.55947484292E+03  0.29503360465E+03  0.64153273344E+03  0.12699999809E+01 0.  1.
       -4    1    3    3    0  502  0.10726466071E+03 -0.55947484292E+03 -0.87181985895E+03  0.10414361654E+04  0.12699999809E+01 0. -1.
</event>
<event>
 5   0  0.3514294E-05  0.2557713E+04  0.7818609E-02  0.8382709E-01
       -2   -1    0    0    0  501  0.00000000000E+00  0.00000000000E+00  0.73476781310E+03  0.73476781311E+03  0.25500000920E-02 0. -1.
        2   -1    0    0  501    0  0.00000000000E+00  0.00000000000E+00 -0.22258378756E+04  0.22258378756E+04  0.25500000920E-02 0.  1.
    10030    2    1    2    0    0  0.00000000000E+00  0.00000000000E+00 -0.14910700625E+04  0.29606056887E+04  0.25577130630E+04 0.  0.
        2    1    3    3  502    0  0.94027403675E+03  0.81736476172E+03 -0.41150736095E+03  0.13120742075E+04  0.25500000920E-02 0.  1.
       -2    1    3    3    0  502 -0.94027403675E+03 -0.81736476172E+03 -0.10795627015E+04  0.16485314812E+04  0.25500000920E-02 0. -1.
</event>
<event>
 5   0  0.1484379E-05  0.2673872E+04  0.7818609E-02  0.8343533E-01
        1   -1    0    0  501    0  0.00000000000E+00  0.00000000000E+00  0.23782456778E+04  0.23782456778E+04  0.50400001928E-02 0. -1.
       -1   -1    0    0    0  501  0.00000000000E+00  0.00000000000E+00 -0.75156173777E+03  0.75156173779E+03  0.50400001928E-02 0.  1.
    10030    2    1    2    0    0  0.00000000000E+00  0.00000000000E+00  0.16266839400E+04  0.31298074156E+04  0.26738724386E+04 0.  0.
        1    1    3    3  502    0 -0.61434435894E+03 -0.78022249608E+03 -0.23440438867E+03  0.10203487405E+04  0.50400001928E-02 0.  1.
       -1    1    3    3    0  502  0.61434435894E+03  0.78022249608E+03  0.18610883287E+04  0.21094586751E+04  0.50400001928E-02 0. -1.
</event>
<event>
 5   0  0.3568647E-05  0.2730949E+04  0.7818609E-02  0.8325032E-01
       -2   -1    0    0    0  501  0.00000000000E+00  0.00000000000E+00  0.13166139336E+04  0.13166139336E+04  0.25500000920E-02 0. -1.
        2   -1    0    0  501    0  0.00000000000E+00  0.00000000000E+00 -0.14161483726E+04  0.14161483726E+04  0.25500000920E-02 0.  1.
    10030    2    1    2    0    0  0.00000000000E+00  0.00000000000E+00 -0.99534438976E+02  0.27327623062E+04  0.27309490507E+04 0.  0.
        3    1    3    3  502    0  0.51516224927E+03 -0.12162680164E+04 -0.39614823025E+03  0.13789972667E+04  0.10100000352E+00 0.  1.
       -3    1    3    3    0  502 -0.51516224927E+03  0.12162680164E+04  0.29661379127E+03  0.13537650395E+04  0.10100000352E+00 0. -1.
</event>
<event>
 5   0  0.3497949E-05  0.2753153E+04  0.7818609E-02  0.8317962E-01
       -2   -1    0    0    0  501  0.00000000000E+00  0.00000000000E+00  0.89531591138E+03  0.89531591138E+03  0.25500000920E-02 0. -1.
        2   -1    0    0  501    0  0.00000000000E+00  0.00000000000E+00 -0.21165299305E+04  0.21165299305E+04  0.25500000920E-02 0.  1.
    10030    2    1    2    0    0  0.00000000000E+00  0.00000000000E+00 -0.12212140191E+04  0.30118458419E+04  0.27531530460E+04 0.  0.
        5    1    3    3  502    0 -0.11835100579E+04  0.44317770586E+03 -0.13581819704E+02  0.12638469417E+04  0.46999998093E+01 0. -1.
       -5    1    3    3    0  502  0.11835100579E+04 -0.44317770586E+03 -0.12076321994E+04  0.17479989002E+04  0.46999998093E+01 0.  1.
</event>
<event>
 5   0  0.1484379E-05  0.2715878E+04  0.7818609E-02  0.8329871E-01
       -1   -1    0    0    0  501  0.00000000000E+00  0.00000000000E+00  0.13387466227E+04  0.13387466227E+04  0.50400001928E-02 0.  1.
        1   -1    0    0  501    0  0.00000000000E+00  0.00000000000E+00 -0.13774070194E+04  0.13774070194E+04  0.50400001928E-02 0. -1.
    10030    2    1    2    0    0  0.00000000000E+00  0.00000000000E+00 -0.38660396661E+02  0.27161536421E+04  0.27158784916E+04 0.  0.
        1    1    3    3  502    0 -0.23314609718E+03 -0.12778804097E+04 -0.41517776543E+03  0.13637111209E+04  0.50400001928E-02 0. -1.
       -1    1    3    3    0  502  0.23314609718E+03  0.12778804097E+04  0.37651736877E+03  0.13524425212E+04  0.50400001928E-02 0.  1.
</event>
<event>
 5   0  0.1438701E-05  0.2700975E+04  0.7818609E-02  0.8334689E-01
        1   -1    0    0  501    0  0.00000000000E+00  0.00000000000E+00  0.13433952923E+04  0.13433952923E+04  0.50400001928E-02 0. -1.
       -1   -1    0    0    0  501  0.00000000000E+00  0.00000000000E+00 -0.13576166796E+04  0.13576166796E+04  0.50400001928E-02 0.  1.
    10030    2    1    2    0    0  0.00000000000E+00  0.00000000000E+00 -0.14221387272E+02  0.27010119719E+04  0.27009745324E+04 0.  0.
        4    1    3    3  502    0  0.71245739263E+03  0.62027931993E+03 -0.97225218356E+03  0.13555876557E+04  0.12699999809E+01 0.  1.
       -4    1    3    3    0  502 -0.71245739263E+03 -0.62027931993E+03  0.95803079628E+03  0.13454243162E+04  0.12699999809E+01 0. -1.
</event>
<event>
 5   0  0.1495517E-05  0.1687608E+04  0.7818609E-02  0.8768464E-01
       -1   -1    0    0    0  501  0.00000000000E+00  0.00000000000E+00  0.66310994426E+03  0.66310994427E+03  0.50400001928E-02 0. -1.
        1   -1    0    0  501    0  0.00000000000E+00  0.00000000000E+00 -0.10737358115E+04  0.10737358115E+04  0.50400001928E-02 0.  1.
    10030    2    1    2    0    0  0.00000000000E+00  0.00000000000E+00 -0.41062586723E+03  0.17368457558E+04  0.16876076489E+04 0.  0.
        5    1    3    3  502    0  0.44125048094E+02 -0.44247789599E+03  0.53272134764E+03  0.69393647587E+03  0.46999998093E+01 0. -1.
       -5    1    3    3    0  502 -0.44125048094E+02  0.44247789599E+03 -0.94334721487E+03  0.10429092799E+04  0.46999998093E+01 0.  1.
</event>
<event>
 5   0  0.1495517E-05  0.2722443E+04  0.7818609E-02  0.8327759E-01
       -1   -1    0    0    0  501  0.00000000000E+00  0.00000000000E+00  0.15835730938E+04  0.15835730939E+04  0.50400001928E-02 0.  1.
        1   -1    0    0  501    0  0.00000000000E+00  0.00000000000E+00 -0.11700907911E+04  0.11700907911E+04  0.50400001928E-02 0. -1.
    10030    2    1    2    0    0  0.00000000000E+00  0.00000000000E+00  0.41348230279E+03  0.27536638849E+04  0.27224432366E+04 0.  0.
        5    1    3    3  502    0  0.30570169045E+03  0.12508954700E+03  0.15424155203E+04  0.15773929902E+04  0.46999998093E+01 0.  1.
       -5    1    3    3    0  502 -0.30570169045E+03 -0.12508954700E+03 -0.11289332175E+04  0.11762708947E+04  0.46999998093E+01 0. -1.
</event>
<event>
 5   0  0.3497949E-05  0.2757508E+04  0.7818609E-02  0.8316583E-01
        2   -1    0    0  501    0  0.00000000000E+00  0.00000000000E+00  0.11037757074E+04  0.11037757074E+04  0.25500000920E-02 0. -1.
       -2   -1    0    0    0  501  0.00000000000E+00  0.00000000000E+00 -0.17222363001E+04  0.17222363001E+04  0.25500000920E-02 0.  1.
    10030    2    1    2    0    0  0.00000000000E+00  0.00000000000E+00 -0.61846059262E+03  0.28260120075E+04  0.27575079985E+04 0.  0.
        5    1    3    3  502    0  0.43069833994E+03  0.70160199663E+03 -0.14426869259E+04  0.16610581200E+04  0.46999998093E+01 0.  1.
       -5    1    3    3    0  502 -0.43069833994E+03 -0.70160199663E+03  0.82422633327E+03  0.11649538876E+04  0.46999998093E+01 0. -1.
</event>
<event>
 5   0  0.3497949E-05  0.2112046E+04  0.7818609E-02  0.8555955E-01
        2   -1    0    0  501    0  0.00000000000E+00  0.00000000000E+00  0.14027888522E+04  0.14027888522E+04  0.25500000920E-02 0. -1.
       -2   -1    0    0    0  501  0.00000000000E+00  0.00000000000E+00 -0.79497698251E+03  0.79497698251E+03  0.25500000920E-02 0.  1.
    10030    2    1    2    0    0  0.00000000000E+00  0.00000000000E+00  0.60781186974E+03  0.21977658348E+04  0.21120462579E+04 0.  0.
        5    1    3    3  502    0 -0.26677420852E+03  0.43965797344E+03 -0.65585920040E+03  0.83345125394E+03  0.46999998093E+01 0.  1.
       -5    1    3    3    0  502  0.26677420852E+03 -0.43965797344E+03  0.12636710701E+04  0.13643145808E+04  0.46999998093E+01 0. -1.
</event>
<event>
 5   0  0.3568647E-05  0.2720635E+04  0.7818609E-02  0.8328341E-01
        2   -1    0    0  501    0  0.00000000000E+00  0.00000000000E+00  0.22630018478E+04  0.22630018478E+04  0.25500000920E-02 0. -1.
       -2   -1    0    0    0  501  0.00000000000E+00  0.00000000000E+00 -0.81770310547E+03  0.81770310547E+03  0.25500000920E-02 0.  1.
    10030    2    1    2    0    0  0.00000000000E+00  0.00000000000E+00  0.14452987423E+04  0.30807049532E+04  0.27206349543E+04 0.  0.
        3    1    3    3  502    0 -0.93935652592E+03  0.46866144030E+03  0.17022639797E+04  0.19999342227E+04  0.10100000352E+00 0. -1.
       -3    1    3    3    0  502  0.93935652592E+03 -0.46866144030E+03 -0.25696523744E+03  0.10807707305E+04  0.10100000352E+00 0.  1.
</event>
<event>
 5   0  0.3497949E-05  0.2536598E+04  0.7818609E-02  0.8390062E-01
       -2   -1    0    0    0  501  0.00000000000E+00  0.00000000000E+00  0.25492404329E+04  0.25492404329E+04  0.25500000920E-02 0. -1.
        2   -1    0    0  501    0  0.00000000000E+00  0.00000000000E+00 -0.63100438590E+03  0.63100438590E+03  0.25500000920E-02 0.  1.
    10030    2    1    2    0    0  0.00000000000E+00  0.00000000000E+00  0.19182360470E+04  0.31802448188E+04  0.25365976377E+04 0.  0.
        5    1    3    3  502    0 -0.40076639037E+03  0.33064274654E+03 -0.49144921514E+03  0.71518021963E+03  0.46999998093E+01 0.  1.
       -5    1    3    3    0  502  0.40076639037E+03 -0.33064274654E+03  0.24096852621E+04  0.24650645991E+04  0.46999998093E+01 0. -1.
</event>
<event>
 5   0  0.1474012E-05  0.1595786E+04  0.7818609E-02  0.8823141E-01
       -1   -1    0    0    0  501  0.00000000000E+00  0.00000000000E+00  0.73815735225E+03  0.73815735227E+03  0.50400001928E-02 0.  1.
        1   -1    0    0  501    0  0.00000000000E+00  0.00000000000E+00 -0.86246274857E+03  0.86246274858E+03  0.50400001928E-02 0. -1.
    10030    2    1    2    0    0  0.00000000000E+00  0.00000000000E+00 -0.12430539632E+03  0.16006201009E+04  0.15957859743E+04 0.  0.
        2    1    3    3  502    0  0.14096159181E+03  0.26786013042E+03  0.67833432442E+03  0.74280325493E+03  0.25500000920E-02 0.  1.
       -2    1    3    3    0  502 -0.14096159181E+03 -0.26786013042E+03 -0.80263972074E+03  0.85781684592E+03  0.25500000920E-02 0. -1.
</event>
<event>
 5   0  0.3568647E-05  0.2433774E+04  0.7818609E-02  0.8426966E-01
       -2   -1    0    0    0  501  0.00000000000E+00  0.00000000000E+00  0.11474061001E+04  0.11474061001E+04  0.25500000920E-02 0. -1.
        2   -1    0    0  501    0  0.00000000000E+00  0.00000000000E+00 -0.12905752186E+04  0.12905752186E+04  0.25500000920E-02 0.  1.
    10030    2    1    2    0    0  0.00000000000E+00  0.00000000000E+00 -0.14316911857E+03  0.24379813187E+04  0.24337739241E+04 0.  0.
        3    1    3    3  502    0 -0.20545493770E+03 -0.14489056351E+03  0.11211075594E+04  0.11489504675E+04  0.10100000352E+00 0. -1.
       -3    1    3    3    0  502  0.20545493770E+03  0.14489056351E+03 -0.12642766779E+04  0.12890308512E+04  0.10100000352E+00 0.  1.
</event>
<event>
 5   0  0.3514294E-05  0.2688545E+04  0.7818609E-02  0.8338731E-01
       -2   -1    0    0    0  501  0.00000000000E+00  0.00000000000E+00  0.15573338865E+04  0.15573338865E+04  0.25500000920E-02 0. -1.
        2   -1    0    0  501    0  0.00000000000E+00  0.00000000000E+00 -0.11603606105E+04  0.11603606105E+04  0.25500000920E-02 0.  1.
    10030    2    1    2    0    0  0.00000000000E+00  0.00000000000E+00  0.39697327600E+03  0.27176944970E+04  0.26885452567E+04 0.  0.
        2    1    3    3  502    0 -0.45364830834E+03  0.28765617748E+03  0.14441319696E+04  0.15407984975E+04  0.25500000920E-02 0. -1.
       -2    1    3    3    0  502  0.45364830834E+03 -0.28765617748E+03 -0.10471586936E+04  0.11768959995E+04  0.25500000920E-02 0.  1.
</event>
<event>
 5   0  0.3568647E-05  0.1592991E+04  0.7818609E-02  0.8824866E-01
       -2   -1    0    0    0  501  0.00000000000E+00  0.00000000000E+00  0.25014953800E+04  0.25014953800E+04  0.25500000920E-02 0.  1.
        2   -1    0    0  501    0  0.00000000000E+00  0.00000000000E+00 -0.25361030469E+03  0.25361030471E+03  0.25500000920E-02 0. -1.
    10030    2    1    2    0    0  0.00000000000E+00  0.00000000000E+00  0.22478850753E+04  0.27551056847E+04  0.15929909046E+04 0.  0.
        3    1    3    3  502    0 -0.10594676331E+03 -0.57797293789E+03  0.19397087862E+03  0.61879087384E+03  0.10100000352E+00 0. -1.
       -3    1    3    3    0  502  0.10594676331E+03  0.57797293789E+03  0.20539141967E+04  0.21363148108E+04  0.10100000352E+00 0.  1.
</event>
<event>
 5   0  0.1474012E-05  0.2471103E+04  0.7818609E-02  0.8413353E-01
       -1   -1    0    0    0  501  0.00000000000E+00  0.00000000000E+00  0.24681740280E+04  0.24681740280E+04  0.50400001928E-02 0.  1.
        1   -1    0    0  501    0  0.00000000000E+00  0.00000000000E+00 -0.61850893594E+03  0.61850893596E+03  0.50400001928E-02 0. -1.
    10030    2    1    2    0    0  0.00000000000E+00  0.00000000000E+00  0.18496650921E+04  0.30866829640E+04  0.24711031478E+04 0.  0.
        2    1    3    3  502    0 -0.62595645779E+02  0.11854106788E+04  0.13529534985E+04  0.17998888469E+04  0.25500000920E-02 0.  1.
       -2    1    3    3    0  502  0.62595645779E+02 -0.11854106788E+04  0.49671159360E+03  0.12867941170E+04  0.25500000920E-02 0. -1.
</event>
<event>
 5   0  0.3514294E-05  0.2673503E+04  0.7818609E-02  0.8343654E-01
       -2   -1    0    0    0  501  0.00000000000E+00  0.00000000000E+00  0.95951001118E+03  0.95951001118E+03  0.25500000920E-02 0. -1.
        2   -1    0    0  501    0  0.00000000000E+00  0.00000000000E+00 -0.18623097016E+04  0.18623097016E+04  0.25500000920E-02 0.  1.
    10030    2    1    2    0    0  0.00000000000E+00  0.00000000000E+00 -0.90279969046E+03  0.28218197128E+04  0.26735031720E+04 0.  0.
        2    1    3    3  502    0  0.41970976620E+03 -0.10317589048E+04  0.32866945067E+03  0.11613381649E+04  0.25500000920E-02 0. -1.
       -2    1    3    3    0  502 -0.41970976620E+03  0.10317589048E+04 -0.12314691411E+04  0.16604815479E+04  0.25500000920E-02 0.  1.
</event>
<event>
 5   0  0.1438701E-05  0.1498219E+04  0.7818609E-02  0.8885638E-01
       -1   -1    0    0    0  501  0.00000000000E+00  0.00000000000E+00  0.29362804374E+03  0.29362804378E+03  0.50400001928E-02 0.  1.
        1   -1    0    0  501    0  0.00000000000E+00  0.00000000000E+00 -0.19111428010E+04  0.19111428010E+04  0.50400001928E-02 0. -1.
    10030    2    1    2    0    0  0.00000000000E+00  0.00000000000E+00 -0.16175147573E+04  0.22047708448E+04  0.14982191055E+04 0.  0.
        4    1    3    3  502    0  0.51166792450E+02  0.60593219050E+03 -0.14525553716E+04  0.15747033310E+04  0.12699999809E+01 0.  1.
       -4    1    3    3    0  502 -0.51166792450E+02 -0.60593219050E+03 -0.16495938564E+03  0.63006751380E+03  0.12699999809E+01 0. -1.
</event>
<event>
 5   0  0.1438701E-05  0.2923262E+04  0.7818609E-02  0.8265990E-01
        1   -1    0    0  501    0  0.00000000000E+00  0.00000000000E+00  0.29075821491E+04  0.29075821491E+04  0.50400001928E-02 0. -1.
       -1   -1    0    0    0  501  0.00000000000E+00  0.00000000000E+00 -0.73475642337E+03  0.73475642339E+03  0.50400001928E-02 0.  1.
    10030    2    1    2    0    0  0.00000000000E+00  0.00000000000E+00  0.21728257257E+04  0.36423385725E+04  0.29232616445E+04 0.  0.
        4    1    3    3  502    0  0.10693726411E+04  0.99578368562E+03  0.11299341829E+04  0.18471317941E+04  0.12699999809E+01 0.  1.
       -4    1    3    3    0  502 -0.10693726411E+04 -0.99578368562E+03  0.10428915428E+04  0.17952067784E+04  0.12699999809E+01 0. -1.
</event>
<event>
 5   0  0.3676724E-05  0.2678506E+04  0.7818609E-02  0.8342013E-01
       -2   -1    0    0    0  501  0.00000000000E+00  0.00000000000E+00  0.15665592767E+04  0.15665592767E+04  0.25500000920E-02 0. -1.
        2   -1    0    0  501    0  0.00000000000E+00  0.00000000000E+00 -0.11449283368E+04  0.11449283368E+04  0.25500000920E-02 0.  1.
    10030    2    1    2    0    0  0.00000000000E+00  0.00000000000E+00  0.42163093983E+03  0.27114876135E+04  0.26785056335E+04 0.  0.
        4    1    3    3  502    0  0.84366057491E+03 -0.72122863031E+03  0.96948529396E+03  0.14737154579E+04  0.12699999809E+01 0.  1.
       -4    1    3    3    0  502 -0.84366057491E+03  0.72122863031E+03 -0.54785435413E+03  0.12377721556E+04  0.12699999809E+01 0. -1.
</event>
<event>
 5   0  0.1449521E-05  0.2291330E+04  0.7818609E-02  0.8481347E-01
        1   -1    0    0  501    0  0.00000000000E+00  0.00000000000E+00  0.91347091487E+03  0.91347091488E+03  0.50400001928E-02 0. -1.
       -1   -1    0    0    0  501  0.00000000000E+00  0.00000000000E+00 -0.14368807855E+04  0.14368807856E+04  0.50400001928E-02 0.  1.
    10030    2    1    2    0    0  0.00000000000E+00  0.00000000000E+00 -0.52340987068E+03  0.23503517004E+04  0.22913304482E+04 0.  0.
        3    1    3    3  502    0 -0.30028708546E+03 -0.10589548165E+04 -0.58768181963E+03  0.12477690365E+04  0.10100000352E+00 0.  1.
       -3    1    3    3    0  502  0.30028708546E+03  0.10589548165E+04  0.64271948946E+02  0.11025826639E+04  0.10100000352E+00 0. -1.
</event>
<event>
 5   0  0.1474012E-05  0.2742593E+04  0.7818609E-02  0.8321316E-01
        1   -1    0    0  501    0  0.00000000000E+00  0.00000000000E+00  0.22797022385E+04  0.22797022385E+04  0.50400001928E-02 0. -1.
       -1   -1    0    0    0  501  0.00000000000E+00  0.00000000000E+00 -0.82486850116E+03  0.82486850117E+03  0.50400001928E-02 0.  1.
    10030    2    1    2    0    0  0.00000000000E+00  0.00000000000E+00  0.14548337373E+04  0.31045707397E+04  0.27425933483E+04 0.  0.
        2    1    3    3  502    0 -0.13624373520E+04  0.14282818845E+03  0.79737253110E+03  0.15850673118E+04  0.25500000920E-02 0. -1.
       -2    1    3    3    0  502  0.13624373520E+04 -0.14282818845E+03  0.65746120622E+03  0.15195034279E+04  0.25500000920E-02 0.  1.
</event>
<event>
 5   0  0.3568647E-05  0.2736523E+04  0.7818609E-02  0.8323251E-01
       -2   -1    0    0    0  501  0.00000000000E+00  0.00000000000E+00  0.11835180524E+04  0.11835180524E+04  0.25500000920E-02 0. -1.
        2   -1    0    0  501    0  0.00000000000E+00  0.00000000000E+00 -0.15818426488E+04  0.15818426488E+04  0.25500000920E-02 0.  1.
    10030    2    1    2    0    0  0.00000000000E+00  0.00000000000E+00 -0.39832459643E+03  0.27653607012E+04  0.27365228527E+04 0.  0.
        3    1    3    3  502    0  0.77230180775E+03 -0.12918586153E+03 -0.13330384364E+04  0.15460047064E+04  0.10100000352E+00 0.  1.
       -3    1    3    3    0  502 -0.77230180775E+03  0.12918586153E+03  0.93471384001E+03  0.12193559948E+04  0.10100000352E+00 0. -1.
</event>
<event>
 5   0  0.3568647E-05  0.2698839E+04  0.7818609E-02  0.8335382E-01
       -2   -1    0    0    0  501  0.00000000000E+00  0.00000000000E+00  0.10518794634E+04  0.10518794634E+04  0.25500000920E-02 0. -1.
        2   -1    0    0  501    0  0.00000000000E+00  0.00000000000E+00 -0.17311227549E+04  0.17311227549E+04  0.25500000920E-02 0.  1.
    10030    2    1    2    0    0  0.00000000000E+00  0.00000000000E+00 -0.67924329152E+03  0.27830022183E+04  0.26988386202E+04 0.  0.
        3    1    3    3  502    0  0.11296688385E+04 -0.65670097675E+03  0.78198126023E+01  0.13067015792E+04  0.10100000352E+00 0.  1.
       -3    1    3    3    0  502 -0.11296688385E+04  0.65670097675E+03 -0.68706310412E+03  0.14763006390E+04  0.10100000352E+00 0. -1.
</event>
<event>
 5   0  0.3514294E-05  0.2585880E+04  0.7818609E-02  0.8373013E-01
       -2   -1    0    0    0  501  0.00000000000E+00  0.00000000000E+00  0.14001525094E+04  0.14001525094E+04  0.25500000920E-02 0. -1.
        2   -1    0    0  501    0  0.00000000000E+00  0.00000000000E+00 -0.11939365186E+04  0.11939365186E+04  0.25500000920E-02 0.  1.
    10030    2    1    2    0    0  0.00000000000E+00  0.00000000000E+00  0.20621599089E+03  0.25940890280E+04  0.25858795119E+04 0.  0.
        2    1    3    3  502    0  0.26284896853E+03  0.95373655470E+03  0.93821118664E+03  0.13634306828E+04  0.25500000920E-02 0. -1.
       -2    1    3    3    0  502 -0.26284896853E+03 -0.95373655470E+03 -0.73199519575E+03  0.12306583452E+04  0.25500000920E-02 0.  1.
</event>
<event>
 5   0  0.1484379E-05  0.2607926E+04  0.7818609E-02  0.8365514E-01
        1   -1    0    0  501    0  0.00000000000E+00  0.00000000000E+00  0.16968007763E+04  0.16968007763E+04  0.50400001928E-02 0. -1.
       -1   -1    0    0    0  501  0.00000000000E+00  0.00000000000E+00 -0.10020740921E+04  0.10020740921E+04  0.50400001928E-02 0.  1.
    10030    2    1    2    0    0  0.00000000000E+00  0.00000000000E+00  0.69472668414E+03  0.26988748684E+04  0.26079264540E+04 0.  0.
        1    1    3    3  502    0 -0.10013421466E+04 -0.83349942038E+03  0.29151160311E+03  0.13350604455E+04  0.50400001928E-02 0. -1.
       -1    1    3    3    0  502  0.10013421466E+04  0.83349942038E+03  0.40321508103E+03  0.13638144229E+04  0.50400001928E-02 0.  1.
</event>
<event>
 5   0  0.3676724E-05  0.2845190E+04  0.7818609E-02  0.8289375E-01
       -2   -1    0    0    0  501  0.00000000000E+00  0.00000000000E+00  0.18690853603E+04  0.18690853603E+04  0.25500000920E-02 0. -1.
        2   -1    0    0  501    0  0.00000000000E+00  0.00000000000E+00 -0.10827627136E+04  0.10827627136E+04  0.25500000920E-02 0.  1.
    10030    2    1    2    0    0  0.00000000000E+00  0.00000000000E+00  0.78632264670E+03  0.29518480739E+04  0.28451895801E+04 0.  0.
        4    1    3    3  502    0 -0.38697313221E+03 -0.13412929107E+04  0.10911054928E+03  0.14002576914E+04  0.12699999809E+01 0.  1.
       -4    1    3    3    0  502  0.38697313221E+03  0.13412929107E+04  0.67721209742E+03  0.15515903825E+04  0.12699999809E+01 0. -1.
</event>
<event>
 5   0  0.1449521E-05  0.2648531E+04  0.7818609E-02  0.8351901E-01
        1   -1    0    0  501    0  0.00000000000E+00  0.00000000000E+00  0.15527047744E+04  0.15527047744E+04  0.50400001928E-02 0.  1.
       -1   -1    0    0    0  501  0.00000000000E+00  0.00000000000E+00 -0.11294352947E+04  0.11294352947E+04  0.50400001928E-02 0. -1.
    10030    2    1    2    0    0  0.00000000000E+00  0.00000000000E+00  0.42326947966E+03  0.26821400691E+04  0.26485313473E+04 0.  0.
        3    1    3    3  502    0 -0.61063217428E+03 -0.67669733517E+03  0.11844961663E+04  0.14945976428E+04  0.10100000352E+00 0.  1.
       -3    1    3    3    0  502  0.61063217428E+03  0.67669733517E+03 -0.76122668661E+03  0.11875424263E+04  0.10100000352E+00 0. -1.
</event>
<event>
 5   0  0.3568647E-05  0.2632166E+04  0.7818609E-02  0.8357356E-01
        2   -1    0    0  501    0  0.00000000000E+00  0.00000000000E+00  0.90358829137E+03  0.90358829137E+03  0.25500000920E-02 0. -1.
       -2   -1    0    0    0  501  0.00000000000E+00  0.00000000000E+00 -0.19168848604E+04  0.19168848604E+04  0.25500000920E-02 0.  1.
    10030    2    1    2    0    0  0.00000000000E+00  0.00000000000E+00 -0.10132965690E+04  0.28204731518E+04  0.26321661922E+04 0.  0.
        3    1    3    3  502    0 -0.11266381800E+04 -0.43014759842E+03 -0.10713554692E+04  0.16131159589E+04  0.10100000352E+00 0.  1.
       -3    1    3    3    0  502  0.11266381800E+04  0.43014759842E+03  0.58058900185E+02  0.12073571929E+04  0.10100000352E+00 0. -1.
</event>
<event>
 5   0  0.3568647E-05  0.2722273E+04  0.7818609E-02  0.8327814E-01
       -2   -1    0    0    0  501  0.00000000000E+00  0.00000000000E+00  0.11435186391E+04  0.11435186391E+04  0.25500000920E-02 0.  1.
        2   -1    0    0  501    0  0.00000000000E+00  0.00000000000E+00 -0.16201677068E+04  0.16201677068E+04  0.25500000920E-02 0. -1.
    10030    2    1    2    0    0  0.00000000000E+00  0.00000000000E+00 -0.47664906769E+03  0.27636863459E+04  0.27222725589E+04 0.  0.
        3    1    3    3  502    0  0.40672562732E+03 -0.68071889698E+03 -0.13614492567E+04  0.15755469023E+04  0.10100000352E+00 0. -1.
       -3    1    3    3    0  502 -0.40672562732E+03  0.68071889698E+03  0.88480018903E+03  0.11881394436E+04  0.10100000352E+00 0.  1.
</event>
<event>
 5   0  0.1438701E-05  0.1842819E+04  0.7818609E-02  0.8683854E-01
       -1   -1    0    0    0  501  0.00000000000E+00  0.00000000000E+00  0.63173284568E+03  0.63173284570E+03  0.50400001928E-02 0.  1.
        1   -1    0    0  501    0  0.00000000000E+00  0.00000000000E+00 -0.13439156399E+04  0.13439156399E+04  0.50400001928E-02 0. -1.
    10030    2    1    2    0    0  0.00000000000E+00  0.00000000000E+00 -0.71218279423E+03  0.19756484856E+04  0.18428192007E+04 0.  0.
        4    1    3    3  502    0 -0.48194068391E+03 -0.36115541518E+03 -0.11037036229E+04  0.12573238870E+04  0.12699999809E+01 0. -1.
       -4    1    3    3    0  502  0.48194068391E+03  0.36115541518E+03  0.39152082871E+03  0.71832459859E+03  0.12699999809E+01 0.  1.
</event>
<event>
 5   0  0.1484379E-05  0.2667208E+04  0.7818609E-02  0.8345724E-01
        1   -1    0    0  501    0  0.00000000000E+00  0.00000000000E+00  0.14349667277E+04  0.14349667277E+04  0.50400001928E-02 0.  1.
       -1   -1    0    0    0  501  0.00000000000E+00  0.00000000000E+00 -0.12394015588E+04  0.12394015588E+04  0.50400001928E-02 0. -1.
    10030    2    1    2    0    0  0.00000000000E+00  0.00000000000E+00  0.19556516887E+03  0.26743682865E+04  0.26672082777E+04 0.  0.
        1    1    3    3  502    0  0.11683254481E+03  0.10255775603E+04 -0.74890166497E+03  0.12752697282E+04  0.50400001928E-02 0. -1.
       -1    1    3    3    0  502 -0.11683254481E+03 -0.10255775603E+04  0.94446683384E+03  0.13990985584E+04  0.50400001928E-02 0.  1.
</event>
<event>
 5   0  0.3652331E-05  0.2175049E+04  0.7818609E-02  0.8528885E-01
        2   -1    0    0  501    0  0.00000000000E+00  0.00000000000E+00  0.19180210796E+04  0.19180210796E+04  0.25500000920E-02 0. -1.
       -2   -1    0    0    0  501  0.00000000000E+00  0.00000000000E+00 -0.61663034617E+03  0.61663034618E+03  0.25500000920E-02 0.  1.
    10030    2    1    2    0    0  0.00000000000E+00  0.00000000000E+00  0.13013907334E+04  0.25346514257E+04  0.21750494268E+04 0.  0.
        1    1    3    3  502    0  0.66574557675E+03 -0.71590541157E+03  0.95513192876E+02  0.98227312970E+03  0.50400001928E-02 0.  1.
       -1    1    3    3    0  502 -0.66574557675E+03  0.71590541157E+03  0.12058775405E+04  0.15523782960E+04  0.50400001928E-02 0. -1.
</event>
<event>
 5   0  0.1438701E-05  0.2820018E+04  0.7818609E-02  0.8297080E-01
        1   -1    0    0  501    0  0.00000000000E+00  0.00000000000E+00  0.10460376539E+04  0.10460376540E+04  0.50400001928E-02 0.  1.
       -1   -1    0    0    0  501  0.00000000000E+00  0.00000000000E+00 -0.19006251412E+04  0.19006251412E+04  0.50400001928E-02 0. -1.
    10030    2    1    2    0    0  0.00000000000E+00  0.00000000000E+00 -0.85458748728E+03  0.29466627952E+04  0.28200180594E+04 0.  0.
        4    1    3    3  502    0 -0.84633824304E+02 -0.14064571880E+04 -0.37161719046E+03  0.14571841527E+04  0.12699999809E+01 0. -1.
       -4    1    3    3    0  502  0.84633824304E+02  0.14064571880E+04 -0.48297029682E+03  0.14894786425E+04  0.12699999809E+01 0.  1.
</event>
<event>
 5   0  0.3497949E-05  0.2687231E+04  0.7818609E-02  0.8339160E-01
        2   -1    0    0  501    0  0.00000000000E+00  0.00000000000E+00  0.23228875661E+04  0.23228875661E+04  0.25500000920E-02 0.  1.
       -2   -1    0    0    0  501  0.00000000000E+00  0.00000000000E+00 -0.77718060272E+03  0.77718060272E+03  0.25500000920E-02 0. -1.
    10030    2    1    2    0    0  0.00000000000E+00  0.00000000000E+00  0.15457069634E+04  0.31000681688E+04  0.26872314070E+04 0.  0.
        5    1    3    3  502    0 -0.55014851202E+03  0.11349104409E+04  0.13072664184E+04  0.18164946113E+04  0.46999998093E+01 0.  1.
       -5    1    3    3    0  502  0.55014851202E+03 -0.11349104409E+04  0.23844054498E+03  0.12835735575E+04  0.46999998093E+01 0. -1.
</event>
<event>
 5   0  0.1474012E-05  0.3182370E+04  0.7818609E-02  0.8193489E-01
        1   -1    0    0  501    0  0.00000000000E+00  0.00000000000E+00  0.25858526002E+04  0.25858526002E+04  0.50400001928E-02 0. -1.
       -1   -1    0    0    0  501  0.00000000000E+00  0.00000000000E+00 -0.97912349578E+03  0.97912349580E+03  0.50400001928E-02 0.  1.
    10030    2    1    2    0    0  0.00000000000E+00  0.00000000000E+00  0.16067291045E+04  0.35649760960E+04  0.31823695810E+04 0.  0.
        2    1    3    3  502    0  0.57971915986E+03 -0.12034371515E+04 -0.16518403462E+03  0.13459647273E+04  0.25500000920E-02 0.  1.
       -2    1    3    3    0  502 -0.57971915986E+03  0.12034371515E+04  0.17719131391E+04  0.22190113687E+04  0.25500000920E-02 0. -1.
</event>
<event>
 5   0  0.1495517E-05  0.2653371E+04  0.7818609E-02  0.8350295E-01
        1   -1    0    0  501    0  0.00000000000E+00  0.00000000000E+00  0.16571912523E+04  0.16571912523E+04  0.50400001928E-02 0.  1.
       -1   -1    0    0    0  501  0.00000000000E+00  0.00000000000E+00 -0.10620946606E+04  0.10620946606E+04  0.50400001928E-02 0. -1.
    10030    2    1    2    0    0  0.00000000000E+00  0.00000000000E+00  0.59509659170E+03  0.27192859128E+04  0.26533706719E+04 0.  0.
        5    1    3    3  502    0 -0.71591794191E+03 -0.65714296684E+03 -0.62804723927E+03  0.11570828852E+04  0.46999998093E+01 0. -1.
       -5    1    3    3    0  502  0.71591794191E+03  0.65714296684E+03  0.12231438310E+04  0.15622030277E+04  0.46999998093E+01 0.  1.
</event>
<event>
 5   0  0.1484379E-05  0.2697249E+04  0.7818609E-02  0.8335898E-01
        1   -1    0    0  501    0  0.00000000000E+00  0.00000000000E+00  0.22202349711E+04  0.22202349711E+04  0.50400001928E-02 0.  1.
       -1   -1    0    0    0  501  0.00000000000E+00  0.00000000000E+00 -0.81918707226E+03  0.81918707228E+03  0.50400001928E-02 0. -1.
    10030    2    1    2    0    0  0.00000000000E+00  0.00000000000E+00  0.14010478988E+04  0.30394220434E+04  0.26972488100E+04 0.  0.
        1    1    3    3  502    0 -0.12686241645E+04  0.42479908497E+03  0.89217715330E+03  0.16080552249E+04  0.50400001928E-02 0.  1.
       -1    1    3    3    0  502  0.12686241645E+04 -0.42479908497E+03  0.50887074553E+03  0.14313668185E+04  0.50400001928E-02 0. -1.
</event>
<event>
 5   0  0.3497949E-05  0.2667442E+04  0.7818609E-02  0.8345647E-01
        2   -1    0    0  501    0  0.00000000000E+00  0.00000000000E+00  0.90897745964E+03  0.90897745964E+03  0.25500000920E-02 0. -1.
       -2   -1    0    0    0  501  0.00000000000E+00  0.00000000000E+00 -0.19569370819E+04  0.19569370819E+04  0.25500000920E-02 0.  1.
    10030    2    1    2    0    0  0.00000000000E+00  0.00000000000E+00 -0.10479596223E+04  0.28659145416E+04  0.26674419937E+04 0.  0.
        5    1    3    3  502    0 -0.63969896287E+03  0.52536610035E+03 -0.16475251791E+04  0.18437965203E+04  0.46999998093E+01 0. -1.
       -5    1    3    3    0  502  0.63969896287E+03 -0.52536610035E+03  0.59956555681E+03  0.10221180213E+04  0.46999998093E+01 0.  1.
</event>
<event>
 5   0  0.1474012E-05  0.2665568E+04  0.7818609E-02  0.8346264E-01
       -1   -1    0    0    0  501  0.00000000000E+00  0.00000000000E+00  0.10940267026E+04  0.10940267027E+04  0.50400001928E-02 0. -1.
        1   -1    0    0  501    0  0.00000000000E+00  0.00000000000E+00 -0.16236470372E+04  0.16236470372E+04  0.50400001928E-02 0.  1.
    10030    2    1    2    0    0  0.00000000000E+00  0.00000000000E+00 -0.52962033459E+03  0.27176737399E+04  0.26655680178E+04 0.  0.
        2    1    3    3  502    0 -0.83705059946E+03  0.12038841571E+03  0.78545567322E+03  0.11541610335E+04  0.25500000920E-02 0. -1.
       -2    1    3    3    0  502  0.83705059946E+03 -0.12038841571E+03 -0.13150760078E+04  0.15635127064E+04  0.25500000920E-02 0.  1.
</event>
<event>
 5   0  0.1449521E-05  0.1345199E+04  0.7818609E-02  0.8994470E-01
        1   -1    0    0  501    0  0.00000000000E+00  0.00000000000E+00  0.64156819593E+03  0.64156819595E+03  0.50400001928E-02 0.  1.
       -1   -1    0    0    0  501  0.00000000000E+00  0.00000000000E+00 -0.70513185764E+03  0.70513185766E+03  0.50400001928E-02 0. -1.
    10030    2    1    2    0    0  0.00000000000E+00  0.00000000000E+00 -0.63563661710E+02  0.13467000536E+04  0.13451991285E+04 0.  0.
        3    1    3    3  502    0  0.57978127521E+03  0.30658806254E+03 -0.18110453606E+03  0.68039799409E+03  0.10100000352E+00 0. -1.
       -3    1    3    3    0  502 -0.57978127521E+03 -0.30658806254E+03  0.11754087435E+03  0.66630205952E+03  0.10100000352E+00 0.  1.
</event>
<event>
 5   0  0.3568647E-05  0.2756251E+04  0.7818609E-02  0.8316981E-01
       -2   -1    0    0    0  501  0.00000000000E+00  0.00000000000E+00  0.68787765990E+03  0.68787765990E+03  0.25500000920E-02 0.  1.
        2   -1    0    0  501    0  0.00000000000E+00  0.00000000000E+00 -0.27609989276E+04  0.27609989276E+04  0.25500000920E-02 0. -1.
    10030    2    1    2    0    0  0.00000000000E+00  0.00000000000E+00 -0.20731212677E+04  0.34488765875E+04  0.27562507007E+04 0.  0.
        3    1    3    3  502    0 -0.11300984835E+04  0.39689290422E+03 -0.18894457833E+04  0.22371079406E+04  0.10100000352E+00 0. -1.
       -3    1    3    3    0  502  0.11300984835E+04 -0.39689290422E+03 -0.18367548444E+03  0.12117686469E+04  0.10100000352E+00 0.  1.
</event>
<event>
 5   0  0.3497949E-05  0.3060620E+04  0.7818609E-02  0.8226629E-01
       -2   -1    0    0    0  501  0.00000000000E+00  0.00000000000E+00  0.16585468197E+04  0.16585468197E+04  0.25500000920E-02 0. -1.
        2   -1    0    0  501    0  0.00000000000E+00  0.00000000000E+00 -0.14119884835E+04  0.14119884835E+04  0.25500000920E-02 0.  1.
    10030    2    1    2    0    0  0.00000000000E+00  0.00000000000E+00  0.24655833624E+03  0.30705353032E+04  0.30606202043E+04 0.  0.
        5    1    3    3  502    0  0.35187760543E+02  0.69426559609E+02  0.16565524599E+04  0.16583866763E+04  0.46999998093E+01 0. -1.
       -5    1    3    3    0  502 -0.35187760543E+02 -0.69426559609E+02 -0.14099941237E+04  0.14121486269E+04  0.46999998093E+01 0.  1.
</event>
<event>
 5   0  0.3652331E-05  0.2650768E+04  0.7818609E-02  0.8351158E-01
       -2   -1    0    0    0  501  0.00000000000E+00  0.00000000000E+00  0.11922941979E+04  0.11922941979E+04  0.25500000920E-02 0. -1.
        2   -1    0    0  501    0  0.00000000000E+00  0.00000000000E+00 -0.14733298520E+04  0.14733298520E+04  0.25500000920E-02 0.  1.
    10030    2    1    2    0    0  0.00000000000E+00  0.00000000000E+00 -0.28103565409E+03  0.26656240498E+04  0.26507679144E+04 0.  0.
        1    1    3    3  502    0 -0.82280088948E+03  0.99439679255E+03  0.16252863122E+03  0.13008619607E+04  0.50400001928E-02 0. -1.
       -1    1    3    3    0  502  0.82280088948E+03 -0.99439679255E+03 -0.44356428531E+03  0.13647620892E+04  0.50400001928E-02 0.  1.
</event>
<event>
 5   0  0.1438701E-05  0.2658804E+04  0.7818609E-02  0.8348497E-01
       -1   -1    0    0    0  501  0.00000000000E+00  0.00000000000E+00  0.15810842135E+04  0.15810842135E+04  0.50400001928E-02 0.  1.
        1   -1    0    0  501    0  0.00000000000E+00  0.00000000000E+00 -0.11177830855E+04  0.11177830855E+04  0.50400001928E-02 0. -1.
    10030    2    1    2    0    0  0.00000000000E+00  0.00000000000E+00  0.46330112799E+03  0.26988672989E+04  0.26588036336E+04 0.  0.
        4    1    3    3  502    0  0.11849175920E+04 -0.30395507896E+03 -0.29666219957E+03  0.12587408246E+04  0.12699999809E+01 0. -1.
       -4    1    3    3    0  502 -0.11849175920E+04  0.30395507896E+03  0.75996332757E+03  0.14401264743E+04  0.12699999809E+01 0.  1.
</event>
<event>
 5   0  0.1449521E-05  0.2342685E+04  0.7818609E-02  0.8461279E-01
       -1   -1    0    0    0  501  0.00000000000E+00  0.00000000000E+00  0.12318587048E+04  0.12318587049E+04  0.50400001928E-02 0. -1.
        1   -1    0    0  501    0  0.00000000000E+00  0.00000000000E+00 -0.11137990944E+04  0.11137990944E+04  0.50400001928E-02 0.  1.
    10030    2    1    2    0    0  0.00000000000E+00  0.00000000000E+00  0.11805961048E+03  0.23456577992E+04  0.23426848784E+04 0.  0.
        3    1    3    3  502    0 -0.11238602408E+04  0.21312752534E+03 -0.19339707946E+03  0.11601239690E+04  0.10100000352E+00 0. -1.
       -3    1    3    3    0  502  0.11238602408E+04 -0.21312752534E+03  0.31145668994E+03  0.11855338303E+04  0.10100000352E+00 0.  1.
</event>
<event>
 5   0  0.1484379E-05  0.2724171E+04  0.7818609E-02  0.8327205E-01
        1   -1    0    0  501    0  0.00000000000E+00  0.00000000000E+00  0.19610909777E+04  0.19610909777E+04  0.50400001928E-02 0. -1.
       -1   -1    0    0    0  501  0.00000000000E+00  0.00000000000E+00 -0.94604346455E+03  0.94604346456E+03  0.50400001928E-02 0.  1.
    10030    2    1    2    0    0  0.00000000000E+00  0.00000000000E+00  0.10150475131E+04  0.29071344422E+04  0.27241712889E+04 0.  0.
        1    1    3    3  502    0 -0.41703371455E+03 -0.23598241815E+03  0.18681762826E+04  0.19286491240E+04  0.50400001928E-02 0. -1.
       -1    1    3    3    0  502  0.41703371455E+03  0.23598241815E+03 -0.85312876944E+03  0.97848531824E+03  0.50400001928E-02 0.  1.
</event>
<event>
 5   0  0.3514294E-05  0.2607084E+04  0.7818609E-02  0.8365799E-01
        2   -1    0    0  501    0  0.00000000000E+00  0.00000000000E+00  0.26066852215E+04  0.26066852215E+04  0.25500000920E-02 0.  1.
       -2   -1    0    0    0  501  0.00000000000E+00  0.00000000000E+00 -0.65187084016E+03  0.65187084016E+03  0.25500000920E-02 0. -1.
    10030    2    1    2    0    0  0.00000000000E+00  0.00000000000E+00  0.19548143813E+04  0.32585560616E+04  0.26070842605E+04 0.  0.
        2    1    3    3  502    0 -0.11515752528E+04 -0.28746611743E+03  0.16510243040E+04  0.20333823015E+04  0.25500000920E-02 0.  1.
       -2    1    3    3    0  502  0.11515752528E+04  0.28746611743E+03  0.30379007729E+03  0.12251737601E+04  0.25500000920E-02 0. -1.
</event>
<event>
 5   0  0.1484379E-05  0.2629727E+04  0.7818609E-02  0.8358173E-01
        1   -1    0    0  501    0  0.00000000000E+00  0.00000000000E+00  0.11111973410E+04  0.11111973410E+04  0.50400001928E-02 0. -1.
       -1   -1    0    0    0  501  0.00000000000E+00  0.00000000000E+00 -0.15558582862E+04  0.15558582862E+04  0.50400001928E-02 0.  1.
    10030    2    1    2    0    0  0.00000000000E+00  0.00000000000E+00 -0.44466094523E+03  0.26670556272E+04  0.26297266706E+04 0.  0.
        1    1    3    3  502    0  0.11934620153E+04 -0.31596408837E+03 -0.68116903815E+03  0.14100270017E+04  0.50400001928E-02 0.  1.
       -1    1    3    3    0  502 -0.11934620153E+04  0.31596408837E+03  0.23650809292E+03  0.12570286254E+04  0.50400001928E-02 0. -1.
</event>
<event>
 5   0  0.1228050E-05  0.2702618E+04  0.7818609E-02  0.8334156E-01
       -4   -1    0    0    0  501  0.00000000000E+00  0.00000000000E+00  0.14851965437E+04  0.14851970867E+04  0.12699999809E+01 0.  1.
        4   -1    0    0  501    0  0.00000000000E+00  0.00000000000E+00 -0.12294898933E+04  0.12294905492E+04  0.12699999809E+01 0. -1.
    10030    2    1    2    0    0  0.00000000000E+00  0.00000000000E+00  0.25570665041E+03  0.27146876359E+04  0.27026178179E+04 0.  0.
        5    1    3    3  502    0 -0.12177235730E+04  0.57718915910E+03  0.27328150630E+02  0.13478749732E+04  0.46999998093E+01 0. -1.
       -5    1    3    3    0  502  0.12177235730E+04 -0.57718915910E+03  0.22837849978E+03  0.13668126627E+04  0.46999998093E+01 0.  1.
</event>
<event>
 5   0  0.1438701E-05  0.2798563E+04  0.7818609E-02  0.8303715E-01
       -1   -1    0    0    0  501  0.00000000000E+00  0.00000000000E+00  0.12229723701E+04  0.12229723701E+04  0.50400001928E-02 0. -1.
        1   -1    0    0  501    0  0.00000000000E+00  0.00000000000E+00 -0.16010079983E+04  0.16010079983E+04  0.50400001928E-02 0.  1.
    10030    2    1    2    0    0  0.00000000000E+00  0.00000000000E+00 -0.37803562824E+03  0.28239803684E+04  0.27985628785E+04 0.  0.
        4    1    3    3  502    0  0.23899227416E+03  0.13166683397E+04  0.22366368797E+03  0.13567460640E+04  0.12699999809E+01 0.  1.
       -4    1    3    3    0  502 -0.23899227416E+03 -0.13166683397E+04 -0.60169931621E+03  0.14672343044E+04  0.12699999809E+01 0. -1.
</event>
<event>
 5   0  0.3568647E-05  0.2750993E+04  0.7818609E-02  0.8318647E-01
       -2   -1    0    0    0  501  0.00000000000E+00  0.00000000000E+00  0.14138385599E+04  0.14138385599E+04  0.25500000920E-02 0.  1.
        2   -1    0    0  501    0  0.00000000000E+00  0.00000000000E+00 -0.13381938649E+04  0.13381938649E+04  0.25500000920E-02 0. -1.
    10030    2    1    2    0    0  0.00000000000E+00  0.00000000000E+00  0.75644695084E+02  0.27520324248E+04  0.27509926113E+04 0.  0.
        3    1    3    3  502    0 -0.25936387122E+02 -0.11929416612E+04  0.72233793116E+03  0.13948313877E+04  0.10100000352E+00 0.  1.
       -3    1    3    3    0  502  0.25936387122E+02  0.11929416612E+04 -0.64669323608E+03  0.13572010371E+04  0.10100000352E+00 0. -1.
</event>
<event>
 5   0  0.3568647E-05  0.2677936E+04  0.7818609E-02  0.8342200E-01
        2   -1    0    0  501    0  0.00000000000E+00  0.00000000000E+00  0.26388321773E+04  0.26388321773E+04  0.25500000920E-02 0. -1.
       -2   -1    0    0    0  501  0.00000000000E+00  0.00000000000E+00 -0.67940475786E+03  0.67940475786E+03  0.25500000920E-02 0.  1.
    10030    2    1    2    0    0  0.00000000000E+00  0.00000000000E+00  0.19594274195E+04  0.33182369352E+04  0.26779358741E+04 0.  0.
        3    1    3    3  502    0  0.86409284512E+02 -0.47113345004E+03  0.25290387089E+04  0.25739988527E+04  0.10100000352E+00 0. -1.
       -3    1    3    3    0  502 -0.86409284512E+02  0.47113345004E+03 -0.56961128944E+03  0.74423808251E+03  0.10100000352E+00 0.  1.
</event>
<event>
 5   0  0.1474012E-05  0.2707112E+04  0.7818609E-02  0.8332701E-01
       -1   -1    0    0    0  501  0.00000000000E+00  0.00000000000E+00  0.10571480812E+04  0.10571480812E+04  0.50400001928E-02 0. -1.
        1   -1    0    0  501    0  0.00000000000E+00  0.00000000000E+00 -0.17330717239E+04  0.17330717239E+04  0.50400001928E-02 0.  1.
    10030    2    1    2    0    0  0.00000000000E+00  0.00000000000E+00 -0.67592364274E+03  0.27902198051E+04  0.27071117063E+04 0.  0.
        2    1    3    3  502    0 -0.14079712661E+03 -0.42775852387E+03 -0.16535937453E+04  0.17138183860E+04  0.25500000920E-02 0.  1.
       -2    1    3    3    0  502  0.14079712661E+03  0.42775852387E+03  0.97767010260E+03  0.10764014191E+04  0.25500000920E-02 0. -1.
</event>
<event>
 5   0  0.1228050E-05  0.2683064E+04  0.7818609E-02  0.8340521E-01
        3   -1    0    0  501    0  0.00000000000E+00  0.00000000000E+00  0.17220386691E+04  0.17220386721E+04  0.10100000352E+00 0.  1.
       -3   -1    0    0    0  501  0.00000000000E+00  0.00000000000E+00 -0.10451032858E+04  0.10451032907E+04  0.10100000352E+00 0. -1.
    10030    2    1    2    0    0  0.00000000000E+00  0.00000000000E+00  0.67693538332E+03  0.27671419628E+04  0.26830641306E+04 0.  0.
        5    1    3    3  502    0 -0.54510633696E+03 -0.90529876797E+03 -0.51385528065E+03  0.11750643035E+04  0.46999998093E+01 0. -1.
       -5    1    3    3    0  502  0.54510633696E+03  0.90529876797E+03  0.11907906640E+04  0.15920776593E+04  0.46999998093E+01 0.  1.
</event>
<event>
 5   0  0.1495517E-05  0.2716674E+04  0.7818609E-02  0.8329615E-01
       -1   -1    0    0    0  501  0.00000000000E+00  0.00000000000E+00  0.12549108268E+04  0.12549108268E+04  0.50400001928E-02 0. -1.
        1   -1    0    0  501    0  0.00000000000E+00  0.00000000000E+00 -0.14702871790E+04  0.14702871790E+04  0.50400001928E-02 0.  1.
    10030    2    1    2    0    0  0.00000000000E+00  0.00000000000E+00 -0.21537635222E+03  0.27251980058E+04  0.27166739219E+04 0.  0.
        5    1    3    3  502    0  0.13312456996E+04  0.30948868241E+02 -0.37664183980E+03  0.13838548012E+04  0.46999998093E+01 0.  1.
       -5    1    3    3    0  502 -0.13312456996E+04 -0.30948868241E+02  0.16126548758E+03  0.13413432047E+04  0.46999998093E+01 0. -1.
</event>
<event>
 5   0  0.3497949E-05  0.2454599E+04  0.7818609E-02  0.8419341E-01
       -2   -1    0    0    0  501  0.00000000000E+00  0.00000000000E+00  0.58260384997E+03  0.58260384997E+03  0.25500000920E-02 0. -1.
        2   -1    0    0  501    0  0.00000000000E+00  0.00000000000E+00 -0.25853993222E+04  0.25853993222E+04  0.25500000920E-02 0.  1.
    10030    2    1    2    0    0  0.00000000000E+00  0.00000000000E+00 -0.20027954723E+04  0.31680031722E+04  0.24545986221E+04 0.  0.
        5    1    3    3  502    0 -0.87418611907E+03 -0.28019077333E+03 -0.20527214802E+04  0.22486431032E+04  0.46999998093E+01 0.  1.
       -5    1    3    3    0  502  0.87418611907E+03  0.28019077333E+03  0.49926007935E+02  0.91936006902E+03  0.46999998093E+01 0. -1.
</event>
<event>
 5   0  0.3652331E-05  0.2796196E+04  0.7818609E-02  0.8304450E-01
        2   -1    0    0  501    0  0.00000000000E+00  0.00000000000E+00  0.74483879737E+03  0.74483879738E+03  0.25500000920E-02 0.  1.
       -2   -1    0    0    0  501  0.00000000000E+00  0.00000000000E+00 -0.26242960305E+04  0.26242960306E+04  0.25500000920E-02 0. -1.
    10030    2    1    2    0    0  0.00000000000E+00  0.00000000000E+00 -0.18794572332E+04  0.33691348279E+04  0.27961956293E+04 0.  0.
        1    1    3    3  502    0 -0.11785078481E+04  0.63872175291E+02 -0.18427741727E+04  0.21883274559E+04  0.50400001928E-02 0. -1.
       -1    1    3    3    0  502  0.11785078481E+04 -0.63872175291E+02 -0.36683060501E+02  0.11808073720E+04  0.50400001928E-02 0.  1.
</event>
<event>
 5   0  0.1495517E-05  0.2665084E+04  0.7818609E-02  0.8346424E-01
       -1   -1    0    0    0  501  0.00000000000E+00  0.00000000000E+00  0.12950546904E+04  0.12950546904E+04  0.50400001928E-02 0. -1.
        1   -1    0    0  501    0  0.00000000000E+00  0.00000000000E+00 -0.13711147431E+04  0.13711147432E+04  0.50400001928E-02 0.  1.
    10030    2    1    2    0    0  0.00000000000E+00  0.00000000000E+00 -0.76060052794E+02  0.26661694335E+04  0.26650842982E+04 0.  0.
        5    1    3    3  502    0  0.44512127203E+03  0.10694783750E+04  0.62081959277E+03  0.13142891608E+04  0.46999998093E+01 0. -1.
       -5    1    3    3    0  502 -0.44512127203E+03 -0.10694783750E+04 -0.69687964556E+03  0.13518802727E+04  0.46999998093E+01 0.  1.
</event>
<event>
 5   0  0.1438701E-05  0.2707640E+04  0.7818609E-02  0.8332530E-01
       -1   -1    0    0    0  501  0.00000000000E+00  0.00000000000E+00  0.10263447083E+04  0.10263447083E+04  0.50400001928E-02 0. -1.
        1   -1    0    0  501    0  0.00000000000E+00  0.00000000000E+00 -0.17857829060E+04  0.17857829060E+04  0.50400001928E-02 0.  1.
    10030    2    1    2    0    0  0.00000000000E+00  0.00000000000E+00 -0.75943819765E+03  0.28121276143E+04  0.27076401798E+04 0.  0.
        4    1    3    3  502    0  0.79099770491E+03  0.10958200306E+04 -0.46233965082E+03  0.14283761669E+04  0.12699999809E+01 0. -1.
       -4    1    3    3    0  502 -0.79099770491E+03 -0.10958200306E+04 -0.29709854683E+03  0.13837514474E+04  0.12699999809E+01 0.  1.
</event>
<event>
 5   0  0.3676724E-05  0.2528185E+04  0.7818609E-02  0.8393013E-01
        2   -1    0    0  501    0  0.00000000000E+00  0.00000000000E+00  0.14912538809E+04  0.14912538809E+04  0.25500000920E-02 0. -1.
       -2   -1    0    0    0  501  0.00000000000E+00  0.00000000000E+00 -0.10715340320E+04  0.10715340320E+04  0.25500000920E-02 0.  1.
    10030    2    1    2    0    0  0.00000000000E+00  0.00000000000E+00  0.41971984885E+03  0.25627879129E+04  0.25281845532E+04 0.  0.
        4    1    3    3  502    0 -0.64860695910E+03  0.97573859241E+03  0.69087646289E+03  0.13601723008E+04  0.12699999809E+01 0. -1.
       -4    1    3    3    0  502  0.64860695910E+03 -0.97573859241E+03 -0.27115661404E+03  0.12026156121E+04  0.12699999809E+01 0.  1.
</event>
<event>
 5   0  0.3568647E-05  0.2929336E+04  0.7818609E-02  0.8264202E-01
       -2   -1    0    0    0  501  0.00000000000E+00  0.00000000000E+00  0.17328362331E+04  0.17328362331E+04  0.25500000920E-02 0. -1.
        2   -1    0    0  501    0  0.00000000000E+00  0.00000000000E+00 -0.12380004493E+04  0.12380004493E+04  0.25500000920E-02 0.  1.
    10030    2    1    2    0    0  0.00000000000E+00  0.00000000000E+00  0.49483578384E+03  0.29708366824E+04  0.29293357849E+04 0.  0.
        3    1    3    3  502    0  0.75206498640E+03 -0.12397735199E+04  0.38066876118E+02  0.14505479040E+04  0.10100000352E+00 0. -1.
       -3    1    3    3    0  502 -0.75206498640E+03  0.12397735199E+04  0.45676890773E+03  0.15202887784E+04  0.10100000352E+00 0.  1.
</event>
<event>
 5   0  0.3497949E-05  0.2702572E+04  0.7818609E-02  0.8334171E-01
       -2   -1    0    0    0  501  0.00000000000E+00  0.00000000000E+00  0.14216381864E+04  0.14216381864E+04  0.25500000920E-02 0.  1.
        2   -1    0    0  501    0  0.00000000000E+00  0.00000000000E+00 -0.12844155570E+04  0.12844155570E+04  0.25500000920E-02 0. -1.
    10030    2    1    2    0    0  0.00000000000E+00  0.00000000000E+00  0.13722262946E+03  0.27060537434E+04  0.27025722584E+04 0.  0.
        5    1    3    3  502    0 -0.12244956036E+04 -0.90839645447E+02 -0.49630586508E+03  0.13243802046E+04  0.46999998093E+01 0. -1.
       -5    1    3    3    0  502  0.12244956036E+04  0.90839645447E+02  0.63352849454E+03  0.13816735388E+04  0.46999998093E+01 0.  1.
</event>
<event>
 5   0  0.3497949E-05  0.2365012E+04  0.7818609E-02  0.8452720E-01
        2   -1    0    0  501    0  0.00000000000E+00  0.00000000000E+00  0.16777058425E+04  0.16777058425E+04  0.25500000920E-02 0.  1.
       -2   -1    0    0    0  501  0.00000000000E+00  0.00000000000E+00 -0.83347191193E+03  0.83347191194E+03  0.25500000920E-02 0. -1.
    10030    2    1    2    0    0  0.00000000000E+00  0.00000000000E+00  0.84423393061E+03  0.25111777545E+04  0.23650122167E+04 0.  0.
        5    1    3    3  502    0 -0.70186505870E+03  0.79179591581E+03 -0.13847422028E+03  0.10671234852E+04  0.46999998093E+01 0. -1.
       -5    1    3    3    0  502  0.70186505870E+03 -0.79179591581E+03  0.98270815089E+03  0.14440542693E+04  0.46999998093E+01 0.  1.
</event>
<event>
 5   0  0.3497949E-05  0.2724476E+04  0.7818609E-02  0.8327107E-01
        2   -1    0    0  501    0  0.00000000000E+00  0.00000000000E+00  0.19579844043E+04  0.19579844043E+04  0.25500000920E-02 0. -1.
       -2   -1    0    0    0  501  0.00000000000E+00  0.00000000000E+00 -0.94775639748E+03  0.94775639748E+03  0.25500000920E-02 0.  1.
    10030    2    1    2    0    0  0.00000000000E+00  0.00000000000E+00  0.10102280068E+04  0.29057408018E+04  0.27244759095E+04 0.  0.
        5    1    3    3  502    0  0.12827889734E+04  0.15332712571E+03  0.44385257678E+02  0.12926905658E+04  0.46999998093E+01 0.  1.
       -5    1    3    3    0  502 -0.12827889734E+04 -0.15332712571E+03  0.96584274914E+03  0.16130502360E+04  0.46999998093E+01 0. -1.
</event>
<event>
 5   0  0.1495517E-05  0.2711534E+04  0.7818609E-02  0.8331272E-01
       -1   -1    0    0    0  501  0.00000000000E+00  0.00000000000E+00  0.14357050147E+04  0.14357050147E+04  0.50400001928E-02 0. -1.
        1   -1    0    0  501    0  0.00000000000E+00  0.00000000000E+00 -0.12802801963E+04  0.12802801963E+04  0.50400001928E-02 0.  1.
    10030    2    1    2    0    0  0.00000000000E+00  0.00000000000E+00  0.15542481845E+03  0.27159852110E+04  0.27115343981E+04 0.  0.
        5    1    3    3  502    0 -0.12841336865E+04 -0.28783739540E+03 -0.24875650584E+03  0.13393101136E+04  0.46999998093E+01 0.  1.
       -5    1    3    3    0  502  0.12841336865E+04  0.28783739540E+03  0.40418132428E+03  0.13766750975E+04  0.46999998093E+01 0. -1.
</event>
<event>
 5   0  0.3652331E-05  0.2624587E+04  0.7818609E-02  0.8359897E-01
       -2   -1    0    0    0  501  0.00000000000E+00  0.00000000000E+00  0.10030747783E+04  0.10030747783E+04  0.25500000920E-02 0. -1.
        2   -1    0    0  501    0  0.00000000000E+00  0.00000000000E+00 -0.17168351569E+04  0.17168351569E+04  0.25500000920E-02 0.  1.
    10030    2    1    2    0    0  0.00000000000E+00  0.00000000000E+00 -0.71376037855E+03  0.27199099352E+04  0.26245868585E+04 0.  0.
        1    1    3    3  502    0  0.10880822548E+03  0.13055345004E+04 -0.43617373525E+03  0.13807632270E+04  0.50400001928E-02 0. -1.
       -1    1    3    3    0  502 -0.10880822548E+03 -0.13055345004E+04 -0.27758664330E+03  0.13391467082E+04  0.50400001928E-02 0.  1.
</event>
<event>
 5   0  0.1474012E-05  0.1518861E+04  0.7818609E-02  0.8872006E-01
       -1   -1    0    0    0  501  0.00000000000E+00  0.00000000000E+00  0.27830632341E+03  0.27830632345E+03  0.50400001928E-02 0. -1.
        1   -1    0    0  501    0  0.00000000000E+00  0.00000000000E+00 -0.20723022127E+04  0.20723022127E+04  0.50400001928E-02 0.  1.
    10030    2    1    2    0    0  0.00000000000E+00  0.00000000000E+00 -0.17939958893E+04  0.23506085362E+04  0.15188611653E+04 0.  0.
        2    1    3    3  502    0  0.70552855896E+03 -0.24259077067E+03 -0.11164861772E+04  0.13428187567E+04  0.25500000920E-02 0.  1.
       -2    1    3    3    0  502 -0.70552855896E+03  0.24259077067E+03 -0.67750971207E+03  0.10077897794E+04  0.25500000920E-02 0. -1.
</event>
<event>
 5   0  0.1474012E-05  0.2518336E+04  0.7818609E-02  0.8396482E-01
        1   -1    0    0  501    0  0.00000000000E+00  0.00000000000E+00  0.86866334687E+03  0.86866334689E+03  0.50400001928E-02 0.  1.
       -1   -1    0    0    0  501  0.00000000000E+00  0.00000000000E+00 -0.18252227136E+04  0.18252227136E+04  0.50400001928E-02 0. -1.
    10030    2    1    2    0    0  0.00000000000E+00  0.00000000000E+00 -0.95655936672E+03  0.26938860605E+04  0.25183360151E+04 0.  0.
        2    1    3    3  502    0  0.50443750322E+03 -0.80507745953E+02 -0.17094049553E+04  0.17840975290E+04  0.25500000920E-02 0. -1.
       -2    1    3    3    0  502 -0.50443750322E+03  0.80507745953E+02  0.75284558856E+03  0.90978853149E+03  0.25500000920E-02 0.  1.
</event>
<event>
 5   0  0.1449521E-05  0.2721076E+04  0.7818609E-02  0.8328199E-01
       -1   -1    0    0    0  501  0.00000000000E+00  0.00000000000E+00  0.13674235600E+04  0.13674235601E+04  0.50400001928E-02 0. -1.
        1   -1    0    0  501    0  0.00000000000E+00  0.00000000000E+00 -0.13536868424E+04  0.13536868424E+04  0.50400001928E-02 0.  1.
    10030    2    1    2    0    0  0.00000000000E+00  0.00000000000E+00  0.13736717691E+02  0.27211104024E+04  0.27210757293E+04 0.  0.
        3    1    3    3  502    0  0.10610754241E+04 -0.77007701211E+03  0.37041612586E+03  0.13623904641E+04  0.10100000352E+00 0. -1.
       -3    1    3    3    0  502 -0.10610754241E+04  0.77007701211E+03 -0.35667940817E+03  0.13587199383E+04  0.10100000352E+00 0.  1.
</event>
<event>
 5   0  0.3652331E-05  0.2468320E+04  0.7818609E-02  0.8414359E-01
        2   -1    0    0  501    0  0.00000000000E+00  0.00000000000E+00  0.19667232241E+04  0.19667232241E+04  0.25500000920E-02 0. -1.
       -2   -1    0    0    0  501  0.00000000000E+00  0.00000000000E+00 -0.77446143935E+03  0.77446143936E+03  0.25500000920E-02 0.  1.
    10030    2    1    2    0    0  0.00000000000E+00  0.00000000000E+00  0.11922617848E+04  0.27411846635E+04  0.24683203187E+04 0.  0.
        1    1    3    3  502    0  0.81827124051E+02 -0.97360102192E+03  0.14335129571E+04  0.17348066251E+04  0.50400001928E-02 0. -1.
       -1    1    3    3    0  502 -0.81827124051E+02  0.97360102192E+03 -0.24125117231E+03  0.10063780385E+04  0.50400001928E-02 0.  1.
</event>
<event>
 5   0  0.1438701E-05  0.2597730E+04  0.7818609E-02  0.8368973E-01
        1   -1    0    0  501    0  0.00000000000E+00  0.00000000000E+00  0.17969521293E+04  0.17969521293E+04  0.50400001928E-02 0. -1.
       -1   -1    0    0    0  501  0.00000000000E+00  0.00000000000E+00 -0.93884011922E+03  0.93884011924E+03  0.50400001928E-02 0.  1.
    10030    2    1    2    0    0  0.00000000000E+00  0.00000000000E+00  0.85811201009E+03  0.27357922486E+04  0.25977303566E+04 0.  0.
        4    1    3    3  502    0  0.11741685555E+04  0.54196842940E+03  0.55651536626E+03  0.14078751865E+04  0.12699999809E+01 0.  1.
       -4    1    3    3    0  502 -0.11741685555E+04 -0.54196842940E+03  0.30159664383E+03  0.13279170620E+04  0.12699999809E+01 0. -1.
</event>
<event>
 5   0  0.1438701E-05  0.2609282E+04  0.7818609E-02  0.8365055E-01
       -1   -1    0    0    0  501  0.00000000000E+00  0.00000000000E+00  0.10290557103E+04  0.10290557103E+04  0.50400001928E-02 0. -1.
        1   -1    0    0  501    0  0.00000000000E+00  0.00000000000E+00 -0.16540293091E+04  0.16540293091E+04  0.50400001928E-02 0.  1.
    10030    2    1    2    0    0  0.00000000000E+00  0.00000000000E+00 -0.62497359883E+03  0.26830850194E+04  0.26092821278E+04 0.  0.
        4    1    3    3  502    0  0.11850242984E+04 -0.54332408197E+03 -0.36494995083E+03  0.13537628025E+04  0.12699999809E+01 0.  1.
       -4    1    3    3    0  502 -0.11850242984E+04  0.54332408197E+03 -0.26002364800E+03  0.13293222169E+04  0.12699999809E+01 0. -1.
</event>
<event>
 5   0  0.1495517E-05  0.2590165E+04  0.7818609E-02  0.8371550E-01
        1   -1    0    0  501    0  0.00000000000E+00  0.00000000000E+00  0.17385405734E+04  0.17385405734E+04  0.50400001928E-02 0. -1.
       -1   -1    0    0    0  501  0.00000000000E+00  0.00000000000E+00 -0.96473934380E+03  0.96473934382E+03  0.50400001928E-02 0.  1.
    10030    2    1    2    0    0  0.00000000000E+00  0.00000000000E+00  0.77380122963E+03  0.27032799173E+04  0.25901648535E+04 0.  0.
        5    1    3    3  502    0  0.98389233303E+03  0.11805208210E+03  0.12571219635E+04  0.16007367486E+04  0.46999998093E+01 0. -1.
       -5    1    3    3    0  502 -0.98389233303E+03 -0.11805208210E+03 -0.48332073386E+03  0.11025431687E+04  0.46999998093E+01 0.  1.
</event>
<event>
 5   0  0.3514294E-05  0.2611147E+04  0.7818609E-02  0.8364425E-01
        2   -1    0    0  501    0  0.00000000000E+00  0.00000000000E+00  0.19318039303E+04  0.19318039303E+04  0.25500000920E-02 0.  1.
       -2   -1    0    0    0  501  0.00000000000E+00  0.00000000000E+00 -0.88234720385E+03  0.88234720385E+03  0.25500000920E-02 0. -1.
    10030    2    1    2    0    0  0.00000000000E+00  0.00000000000E+00  0.10494567265E+04  0.28141511342E+04  0.26111467184E+04 0.  0.
        2    1    3    3  502    0 -0.17202537082E+02 -0.38624927080E+03 -0.81923230010E+03  0.90588409193E+03  0.25500000920E-02 0. -1.
       -2    1    3    3    0  502  0.17202537082E+02  0.38624927080E+03  0.18686890266E+04  0.19082670422E+04  0.25500000920E-02 0.  1.
</event>
<event>
 5   0  0.3676724E-05  0.2885831E+04  0.7818609E-02  0.8277106E-01
       -2   -1    0    0    0  501  0.00000000000E+00  0.00000000000E+00  0.80943171222E+03  0.80943171222E+03  0.25500000920E-02 0.  1.
        2   -1    0    0  501    0  0.00000000000E+00  0.00000000000E+00 -0.25721818130E+04  0.25721818130E+04  0.25500000920E-02 0. -1.
    10030    2    1    2    0    0  0.00000000000E+00  0.00000000000E+00 -0.17627501007E+04  0.33816135252E+04  0.28858312695E+04 0.  0.
        4    1    3    3  502    0  0.13750923096E+03  0.14309064771E+04 -0.73500907490E+03  0.16145098599E+04  0.12699999809E+01 0.  1.
       -4    1    3    3    0  502 -0.13750923096E+03 -0.14309064771E+04 -0.10277410258E+04  0.17671036653E+04  0.12699999809E+01 0. -1.
</event>
<event>
 5   0  0.3497949E-05  0.2527913E+04  0.7818609E-02  0.8393109E-01
       -2   -1    0    0    0  501  0.00000000000E+00  0.00000000000E+00  0.12487236206E+04  0.12487236206E+04  0.25500000920E-02 0.  1.
        2   -1    0    0  501    0  0.00000000000E+00  0.00000000000E+00 -0.12793746969E+04  0.12793746969E+04  0.25500000920E-02 0. -1.
    10030    2    1    2    0    0  0.00000000000E+00  0.00000000000E+00 -0.30651076292E+02  0.25280983175E+04  0.25279125014E+04 0.  0.
        5    1    3    3  502    0 -0.12291910891E+04 -0.53950318464E+02  0.27407773534E+03  0.12605403863E+04  0.46999998093E+01 0.  1.
       -5    1    3    3    0  502  0.12291910891E+04  0.53950318464E+02 -0.30472881163E+03  0.12675579312E+04  0.46999998093E+01 0. -1.
</event>
<event>
 5   0  0.3568647E-05  0.2717386E+04  0.7818609E-02  0.8329386E-01
       -2   -1    0    0    0  501  0.00000000000E+00  0.00000000000E+00  0.71003686043E+03  0.71003686044E+03  0.25500000920E-02 0.  1.
        2   -1    0    0  501    0  0.00000000000E+00  0.00000000000E+00 -0.25999298690E+04  0.25999298690E+04  0.25500000920E-02 0. -1.
    10030    2    1    2    0    0  0.00000000000E+00  0.00000000000E+00 -0.18898930086E+04  0.33099667295E+04  0.27173855388E+04 0.  0.
        3    1    3    3  502    0 -0.48940412703E+03 -0.40858479268E+02 -0.24880355002E+04  0.25360414971E+04  0.10100000352E+00 0. -1.
       -3    1    3    3    0  502  0.48940412703E+03  0.40858479268E+02  0.59814249155E+03  0.77392523236E+03  0.10100000352E+00 0.  1.
</event>
<event>
 5   0  0.3497949E-05  0.2442388E+04  0.7818609E-02  0.8423803E-01
       -2   -1    0    0    0  501  0.00000000000E+00  0.00000000000E+00  0.60460687194E+03  0.60460687194E+03  0.25500000920E-02 0. -1.
        2   -1    0    0  501    0  0.00000000000E+00  0.00000000000E+00 -0.24665855324E+04  0.24665855324E+04  0.25500000920E-02 0.  1.
    10030    2    1    2    0    0  0.00000000000E+00  0.00000000000E+00 -0.18619786604E+04  0.30711924043E+04  0.24423878178E+04 0.  0.
        5    1    3    3  502    0 -0.93220209008E+03  0.13349687809E+03 -0.19086314198E+04  0.21283134496E+04  0.46999998093E+01 0.  1.
       -5    1    3    3    0  502  0.93220209008E+03 -0.13349687809E+03  0.46652759383E+02  0.94287895468E+03  0.46999998093E+01 0. -1.
</event>
<event>
 5   0  0.3514294E-05  0.1884863E+04  0.7818609E-02  0.8662428E-01
        2   -1    0    0  501    0  0.00000000000E+00  0.00000000000E+00  0.72149331480E+03  0.72149331481E+03  0.25500000920E-02 0. -1.
       -2   -1    0    0    0  501  0.00000000000E+00  0.00000000000E+00 -0.12310264967E+04  0.12310264967E+04  0.25500000920E-02 0.  1.
    10030    2    1    2    0    0  0.00000000000E+00  0.00000000000E+00 -0.50953318189E+03  0.19525198115E+04  0.18848632711E+04 0.  0.
        2    1    3    3  502    0 -0.24563807189E+03 -0.90417798241E+03 -0.35990607995E+03  0.10036973013E+04  0.25500000920E-02 0. -1.
       -2    1    3    3    0  502  0.24563807189E+03  0.90417798241E+03 -0.14962710195E+03  0.94882251021E+03  0.25500000920E-02 0.  1.
</event>
<event>
 5   0  0.1484379E-05  0.2707468E+04  0.7818609E-02  0.8332586E-01
       -1   -1    0    0    0  501  0.00000000000E+00  0.00000000000E+00  0.88225583965E+03  0.88225583966E+03  0.50400001928E-02 0.  1.
        1   -1    0    0  501    0  0.00000000000E+00  0.00000000000E+00 -0.20771707952E+04  0.20771707952E+04  0.50400001928E-02 0. -1.
    10030    2    1    2    0    0  0.00000000000E+00  0.00000000000E+00 -0.11949149556E+04  0.29594266349E+04  0.27074682374E+04 0.  0.
        1    1    3    3  502    0  0.95287500114E+02  0.75724278064E+03  0.62467008246E+03  0.98626013224E+03  0.50400001928E-02 0.  1.
       -1    1    3    3    0  502 -0.95287500114E+02 -0.75724278064E+03 -0.18195850380E+04  0.19731665027E+04  0.50400001928E-02 0. -1.
</event>
<event>
 5   0  0.1438701E-05  0.2824843E+04  0.7818609E-02  0.8295597E-01
        1   -1    0    0  501    0  0.00000000000E+00  0.00000000000E+00  0.15319445576E+04  0.15319445576E+04  0.50400001928E-02 0. -1.
       -1   -1    0    0    0  501  0.00000000000E+00  0.00000000000E+00 -0.13022237257E+04  0.13022237257E+04  0.50400001928E-02 0.  1.
    10030    2    1    2    0    0  0.00000000000E+00  0.00000000000E+00  0.22972083186E+03  0.28341682833E+04  0.28248430394E+04 0.  0.
        4    1    3    3  502    0 -0.25102000488E+03 -0.10012205493E+04  0.10821381136E+04  0.14954859213E+04  0.12699999809E+01 0. -1.
       -4    1    3    3    0  502  0.25102000488E+03  0.10012205493E+04 -0.85241728173E+03  0.13386823620E+04  0.12699999809E+01 0.  1.
</event>
<event>
 5   0  0.3676724E-05  0.2675347E+04  0.7818609E-02  0.8343049E-01
       -2   -1    0    0    0  501  0.00000000000E+00  0.00000000000E+00  0.11783142870E+04  0.11783142870E+04  0.25500000920E-02 0. -1.
        2   -1    0    0  501    0  0.00000000000E+00  0.00000000000E+00 -0.15185851940E+04  0.15185851940E+04  0.25500000920E-02 0.  1.
    10030    2    1    2    0    0  0.00000000000E+00  0.00000000000E+00 -0.34027090696E+03  0.26968994810E+04  0.26753471776E+04 0.  0.
        4    1    3    3  502    0  0.92695775881E+03  0.96350787069E+03 -0.21255668953E+03  0.13538020766E+04  0.12699999809E+01 0.  1.
       -4    1    3    3    0  502 -0.92695775881E+03 -0.96350787069E+03 -0.12771421743E+03  0.13430974044E+04  0.12699999809E+01 0. -1.
</event>
<event>
 5   0  0.3676724E-05  0.2919245E+04  0.7818609E-02  0.8267174E-01
        2   -1    0    0  501    0  0.00000000000E+00  0.00000000000E+00  0.19325607344E+04  0.19325607344E+04  0.25500000920E-02 0.  1.
       -2   -1    0    0    0  501  0.00000000000E+00  0.00000000000E+00 -0.11024222155E+04  0.11024222155E+04  0.25500000920E-02 0. -1.
    10030    2    1    2    0    0  0.00000000000E+00  0.00000000000E+00  0.83013851895E+03  0.30349829499E+04  0.29192450300E+04 0.  0.
        4    1    3    3  502    0 -0.14259547284E+04  0.15327208013E+03  0.69722759361E+03  0.15946683505E+04  0.12699999809E+01 0. -1.
       -4    1    3    3    0  502  0.14259547284E+04 -0.15327208013E+03  0.13291092534E+03  0.14403145993E+04  0.12699999809E+01 0.  1.
</event>
<event>
 5   0  0.1474012E-05  0.2746650E+04  0.7818609E-02  0.8320025E-01
       -1   -1    0    0    0  501  0.00000000000E+00  0.00000000000E+00  0.11344250778E+04  0.11344250778E+04  0.50400001928E-02 0.  1.
        1   -1    0    0  501    0  0.00000000000E+00  0.00000000000E+00 -0.16625352120E+04  0.16625352120E+04  0.50400001928E-02 0. -1.
    10030    2    1    2    0    0  0.00000000000E+00  0.00000000000E+00 -0.52811013416E+03  0.27969602898E+04  0.27466500594E+04 0.  0.
        2    1    3    3  502    0  0.26722851341E+03  0.23963908163E+03 -0.16139238333E+04  0.16533566184E+04  0.25500000920E-02 0. -1.
       -2    1    3    3    0  502 -0.26722851341E+03 -0.23963908163E+03  0.10858136992E+04  0.11436036714E+04  0.25500000920E-02 0.  1.
</event>
<event>
 5   0  0.1474012E-05  0.2695098E+04  0.7818609E-02  0.8336597E-01
       -1   -1    0    0    0  501  0.00000000000E+00  0.00000000000E+00  0.21078128126E+04  0.21078128126E+04  0.50400001928E-02 0.  1.
        1   -1    0    0  501    0  0.00000000000E+00  0.00000000000E+00 -0.86150359915E+03  0.86150359916E+03  0.50400001928E-02 0. -1.
    10030    2    1    2    0    0  0.00000000000E+00  0.00000000000E+00  0.12463092135E+04  0.29693164118E+04  0.26950980127E+04 0.  0.
        2    1    3    3  502    0  0.11520792967E+04  0.42333303123E+03  0.12359783550E+04  0.17418783124E+04  0.25500000920E-02 0.  1.
       -2    1    3    3    0  502 -0.11520792967E+04 -0.42333303123E+03  0.10330858459E+02  0.12274380994E+04  0.25500000920E-02 0. -1.
</event>
<event>
 5   0  0.3514294E-05  0.2651498E+04  0.7818609E-02  0.8350916E-01
        2   -1    0    0  501    0  0.00000000000E+00  0.00000000000E+00  0.11739389942E+04  0.11739389942E+04  0.25500000920E-02 0. -1.
       -2   -1    0    0    0  501  0.00000000000E+00  0.00000000000E+00 -0.14971908464E+04  0.14971908464E+04  0.25500000920E-02 0.  1.
    10030    2    1    2    0    0  0.00000000000E+00  0.00000000000E+00 -0.32325185227E+03  0.26711298406E+04  0.26514982303E+04 0.  0.
        2    1    3    3  502    0 -0.96144769523E+03  0.88158054145E+03  0.76864691618E+02  0.13067035251E+04  0.25500000920E-02 0.  1.
       -2    1    3    3    0  502  0.96144769523E+03 -0.88158054145E+03 -0.40011654389E+03  0.13644263155E+04  0.25500000920E-02 0. -1.
</event>
<event>
 5   0  0.3568647E-05  0.2677182E+04  0.7818609E-02  0.8342447E-01
        2   -1    0    0  501    0  0.00000000000E+00  0.00000000000E+00  0.19865149092E+04  0.19865149092E+04  0.25500000920E-02 0.  1.
       -2   -1    0    0    0  501  0.00000000000E+00  0.00000000000E+00 -0.90199437034E+03  0.90199437034E+03  0.25500000920E-02 0. -1.
    10030    2    1    2    0    0  0.00000000000E+00  0.00000000000E+00  0.10845205388E+04  0.28885092795E+04  0.26771815513E+04 0.  0.
        3    1    3    3  502    0 -0.11362173071E+03 -0.68315955535E+03  0.17782001520E+04  0.19083009895E+04  0.10100000352E+00 0.  1.
       -3    1    3    3    0  502  0.11362173071E+03  0.68315955535E+03 -0.69367961321E+03  0.98020828998E+03  0.10100000352E+00 0. -1.
</event>
<event>
 5   0  0.3514294E-05  0.2889103E+04  0.7818609E-02  0.8276127E-01
       -2   -1    0    0    0  501  0.00000000000E+00  0.00000000000E+00  0.11660320739E+04  0.11660320739E+04  0.25500000920E-02 0.  1.
        2   -1    0    0  501    0  0.00000000000E+00  0.00000000000E+00 -0.17895977663E+04  0.17895977663E+04  0.25500000920E-02 0. -1.
    10030    2    1    2    0    0  0.00000000000E+00  0.00000000000E+00 -0.62356569243E+03  0.29556298402E+04  0.28891025560E+04 0.  0.
        2    1    3    3  502    0 -0.11245556527E+02 -0.42196732307E+03 -0.17250958155E+04  0.17759894304E+04  0.25500000920E-02 0. -1.
       -2    1    3    3    0  502  0.11245556527E+02  0.42196732307E+03  0.11015301231E+04  0.11796404098E+04  0.25500000920E-02 0.  1.
</event>
<event>
 5   0  0.3652331E-05  0.2589288E+04  0.7818609E-02  0.8371849E-01
        2   -1    0    0  501    0  0.00000000000E+00  0.00000000000E+00  0.15702470960E+04  0.15702470960E+04  0.25500000920E-02 0.  1.
       -2   -1    0    0    0  501  0.00000000000E+00  0.00000000000E+00 -0.10674138332E+04  0.10674138333E+04  0.25500000920E-02 0. -1.
    10030    2    1    2    0    0  0.00000000000E+00  0.00000000000E+00  0.50283326272E+03  0.26376609292E+04  0.25892882975E+04 0.  0.
        1    1    3    3  502    0  0.30589935288E+03  0.12572186802E+04  0.20666126605E+03  0.13102984785E+04  0.50400001928E-02 0. -1.
       -1    1    3    3    0  502 -0.30589935288E+03 -0.12572186802E+04  0.29617199667E+03  0.13273624507E+04  0.50400001928E-02 0.  1.
</event>
<event>
 5   0  0.1449521E-05  0.1786372E+04  0.7818609E-02  0.8713581E-01
       -1   -1    0    0    0  501  0.00000000000E+00  0.00000000000E+00  0.80920539114E+03  0.80920539116E+03  0.50400001928E-02 0.  1.
        1   -1    0    0  501    0  0.00000000000E+00  0.00000000000E+00 -0.98588193166E+03  0.98588193167E+03  0.50400001928E-02 0. -1.
    10030    2    1    2    0    0  0.00000000000E+00  0.00000000000E+00 -0.17667654051E+03  0.17950873228E+04  0.17863717129E+04 0.  0.
        3    1    3    3  502    0 -0.38758990921E+03 -0.25660931187E+03 -0.85475640976E+03  0.97297626224E+03  0.10100000352E+00 0. -1.
       -3    1    3    3    0  502  0.38758990921E+03  0.25660931187E+03  0.67807986925E+03  0.82211106059E+03  0.10100000352E+00 0.  1.
</event>
<event>
 5   0  0.3497949E-05  0.1851756E+04  0.7818609E-02  0.8679250E-01
        2   -1    0    0  501    0  0.00000000000E+00  0.00000000000E+00  0.88549233264E+03  0.88549233265E+03  0.25500000920E-02 0.  1.
       -2   -1    0    0    0  501  0.00000000000E+00  0.00000000000E+00 -0.96810562164E+03  0.96810562165E+03  0.25500000920E-02 0. -1.
    10030    2    1    2    0    0  0.00000000000E+00  0.00000000000E+00 -0.82613289001E+02  0.18535979543E+04  0.18517560370E+04 0.  0.
        5    1    3    3  502    0  0.17086517907E+03 -0.28753993047E+03  0.82289091331E+03  0.88828242482E+03  0.46999998093E+01 0.  1.
       -5    1    3    3    0  502 -0.17086517907E+03  0.28753993047E+03 -0.90550420231E+03  0.96531552947E+03  0.46999998093E+01 0. -1.
</event>
<event>
 5   0  0.3676724E-05  0.2702746E+04  0.7818609E-02  0.8334114E-01
       -2   -1    0    0    0  501  0.00000000000E+00  0.00000000000E+00  0.79338455529E+03  0.79338455530E+03  0.25500000920E-02 0.  1.
        2   -1    0    0  501    0  0.00000000000E+00  0.00000000000E+00 -0.23017961591E+04  0.23017961591E+04  0.25500000920E-02 0. -1.
    10030    2    1    2    0    0  0.00000000000E+00  0.00000000000E+00 -0.15084116038E+04  0.30951807144E+04  0.27027463973E+04 0.  0.
        4    1    3    3  502    0  0.39133660573E+03  0.12928562916E+04 -0.70859613748E+03  0.15253628515E+04  0.12699999809E+01 0. -1.
       -4    1    3    3    0  502 -0.39133660573E+03 -0.12928562916E+04 -0.79981546634E+03  0.15698178629E+04  0.12699999809E+01 0.  1.
</event>
<event>
 5   0  0.3514294E-05  0.2667242E+04  0.7818609E-02  0.8345713E-01
       -2   -1    0    0    0  501  0.00000000000E+00  0.00000000000E+00  0.76026654266E+03  0.76026654266E+03  0.25500000920E-02 0.  1.
        2   -1    0    0  501    0  0.00000000000E+00  0.00000000000E+00 -0.23393708503E+04  0.23393708503E+04  0.25500000920E-02 0. -1.
    10030    2    1    2    0    0  0.00000000000E+00  0.00000000000E+00 -0.15791043077E+04  0.30996373930E+04  0.26672423125E+04 0.  0.
        2    1    3    3  502    0  0.10014488897E+04  0.61388112522E+03 -0.55674726880E+02  0.11759462530E+04  0.25500000920E-02 0.  1.
       -2    1    3    3    0  502 -0.10014488897E+04 -0.61388112522E+03 -0.15234295808E+04  0.19236911400E+04  0.25500000920E-02 0. -1.
</event>
<event>
 5   0  0.1449521E-05  0.2679513E+04  0.7818609E-02  0.8341683E-01
        1   -1    0    0  501    0  0.00000000000E+00  0.00000000000E+00  0.26281360579E+04  0.26281360579E+04  0.50400001928E-02 0.  1.
       -1   -1    0    0    0  501  0.00000000000E+00  0.00000000000E+00 -0.68297370007E+03  0.68297370009E+03  0.50400001928E-02 0. -1.
    10030    2    1    2    0    0  0.00000000000E+00  0.00000000000E+00  0.19451623579E+04  0.33111097580E+04  0.26795132452E+04 0.  0.
        3    1    3    3  502    0 -0.13154303864E+04 -0.15188050127E+03  0.72077749445E+03  0.15076289314E+04  0.10100000352E+00 0.  1.
       -3    1    3    3    0  502  0.13154303864E+04  0.15188050127E+03  0.12243848634E+04  0.18034808266E+04  0.10100000352E+00 0. -1.
</event>
<event>
 5   0  0.1495517E-05  0.2567237E+04  0.7818609E-02  0.8379416E-01
       -1   -1    0    0    0  501  0.00000000000E+00  0.00000000000E+00  0.15416933537E+04  0.15416933537E+04  0.50400001928E-02 0.  1.
        1   -1    0    0  501    0  0.00000000000E+00  0.00000000000E+00 -0.10687447563E+04  0.10687447563E+04  0.50400001928E-02 0. -1.
    10030    2    1    2    0    0  0.00000000000E+00  0.00000000000E+00  0.47294859742E+03  0.26104381100E+04  0.25672371824E+04 0.  0.
        5    1    3    3  502    0  0.74821777365E+03 -0.22733069564E+03 -0.79856724805E+03  0.11176944223E+04  0.46999998093E+01 0. -1.
       -5    1    3    3    0  502 -0.74821777365E+03  0.22733069564E+03  0.12715158455E+04  0.14927436877E+04  0.46999998093E+01 0.  1.
</event>
<event>
 5   0  0.3652331E-05  0.2668073E+04  0.7818609E-02  0.8345439E-01
       -2   -1    0    0    0  501  0.00000000000E+00  0.00000000000E+00  0.24955780302E+04  0.24955780302E+04  0.25500000920E-02 0. -1.
        2   -1    0    0  501    0  0.00000000000E+00  0.00000000000E+00 -0.71312255895E+03  0.71312255896E+03  0.25500000920E-02 0.  1.
    10030    2    1    2    0    0  0.00000000000E+00  0.00000000000E+00  0.17824554713E+04  0.32087005892E+04  0.26680727059E+04 0.  0.
        1    1    3    3  502    0 -0.12925559853E+04  0.31232209179E+03  0.76278313241E+03  0.15329984251E+04  0.50400001928E-02 0.  1.
       -1    1    3    3    0  502  0.12925559853E+04 -0.31232209179E+03  0.10196723388E+04  0.16757021641E+04  0.50400001928E-02 0. -1.
</event>
<event>
 5   0  0.3497949E-05  0.2710673E+04  0.7818609E-02  0.8331550E-01
       -2   -1    0    0    0  501  0.00000000000E+00  0.00000000000E+00  0.21649427353E+04  0.21649427353E+04  0.25500000920E-02 0.  1.
        2   -1    0    0  501    0  0.00000000000E+00  0.00000000000E+00 -0.84849226995E+03  0.84849226995E+03  0.25500000920E-02 0. -1.
    10030    2    1    2    0    0  0.00000000000E+00  0.00000000000E+00  0.13164504654E+04  0.30134350053E+04  0.27106731089E+04 0.  0.
        5    1    3    3  502    0  0.37823248545E+03 -0.12676703075E+04  0.33057328523E+03  0.13635793371E+04  0.46999998093E+01 0. -1.
       -5    1    3    3    0  502 -0.37823248545E+03  0.12676703075E+04  0.98587718015E+03  0.16498556682E+04  0.46999998093E+01 0.  1.
</event>
<event>
 5   0  0.3497949E-05  0.2736466E+04  0.7818609E-02  0.8323269E-01
        2   -1    0    0  501    0  0.00000000000E+00  0.00000000000E+00  0.17911732941E+04  0.17911732941E+04  0.25500000920E-02 0.  1.
       -2   -1    0    0    0  501  0.00000000000E+00  0.00000000000E+00 -0.10451591652E+04  0.10451591652E+04  0.25500000920E-02 0. -1.
    10030    2    1    2    0    0  0.00000000000E+00  0.00000000000E+00  0.74601412883E+03  0.28363324593E+04  0.27364657387E+04 0.  0.
        5    1    3    3  502    0  0.84844519447E+03  0.72144936404E+03 -0.45078830894E+03  0.12014909997E+04  0.46999998093E+01 0. -1.
       -5    1    3    3    0  502 -0.84844519447E+03 -0.72144936404E+03  0.11968024378E+04  0.16348414596E+04  0.46999998093E+01 0.  1.
</event>
<event>
 5   0  0.1438701E-05  0.2749127E+04  0.7818609E-02  0.8319239E-01
       -1   -1    0    0    0  501  0.00000000000E+00  0.00000000000E+00  0.14224552427E+04  0.14224552427E+04  0.50400001928E-02 0.  1.
        1   -1    0    0  501    0  0.00000000000E+00  0.00000000000E+00 -0.13282839811E+04  0.13282839811E+04  0.50400001928E-02 0. -1.
    10030    2    1    2    0    0  0.00000000000E+00  0.00000000000E+00  0.94171261530E+02  0.27507392238E+04  0.27491267797E+04 0.  0.
        4    1    3    3  502    0  0.32761260465E+03  0.13284124290E+04  0.17912249058E+03  0.13798898796E+04  0.12699999809E+01 0. -1.
       -4    1    3    3    0  502 -0.32761260465E+03 -0.13284124290E+04 -0.84951229050E+02  0.13708493442E+04  0.12699999809E+01 0.  1.
</event>
<event>
 5   0  0.1438701E-05  0.1936966E+04  0.7818609E-02  0.8636672E-01
       -1   -1    0    0    0  501  0.00000000000E+00  0.00000000000E+00  0.72163180244E+03  0.72163180246E+03  0.50400001928E-02 0.  1.
        1   -1    0    0  501    0  0.00000000000E+00  0.00000000000E+00 -0.12997751287E+04  0.12997751287E+04  0.50400001928E-02 0. -1.
    10030    2    1    2    0    0  0.00000000000E+00  0.00000000000E+00 -0.57814332629E+03  0.20214069312E+04  0.19369657394E+04 0.  0.
        4    1    3    3  502    0 -0.31343584042E+03 -0.15698023295E+03  0.65309984782E+03  0.74123265154E+03  0.12699999809E+01 0.  1.
       -4    1    3    3    0  502  0.31343584042E+03  0.15698023295E+03 -0.12312431741E+04  0.12801742797E+04  0.12699999809E+01 0. -1.
</event>
<event>
 5   0  0.1474012E-05  0.2716783E+04  0.7818609E-02  0.8329580E-01
       -1   -1    0    0    0  501  0.00000000000E+00  0.00000000000E+00  0.13036909251E+04  0.13036909251E+04  0.50400001928E-02 0.  1.
        1   -1    0    0  501    0  0.00000000000E+00  0.00000000000E+00 -0.14153871484E+04  0.14153871484E+04  0.50400001928E-02 0. -1.
    10030    2    1    2    0    0  0.00000000000E+00  0.00000000000E+00 -0.11169622334E+03  0.27190780735E+04  0.27167829364E+04 0.  0.
        2    1    3    3  502    0 -0.33389040577E+03 -0.10639222035E+04 -0.83227027570E+03  0.13914334587E+04  0.25500000920E-02 0. -1.
       -2    1    3    3    0  502  0.33389040577E+03  0.10639222035E+04  0.72057405236E+03  0.13276446148E+04  0.25500000920E-02 0.  1.
</event>
<event>
 5   0  0.3652331E-05  0.2087535E+04  0.7818609E-02  0.8566754E-01
       -2   -1    0    0    0  501  0.00000000000E+00  0.00000000000E+00  0.86068921188E+03  0.86068921188E+03  0.25500000920E-02 0. -1.
        2   -1    0    0  501    0  0.00000000000E+00  0.00000000000E+00 -0.12657880441E+04  0.12657880441E+04  0.25500000920E-02 0.  1.
    10030    2    1    2    0    0  0.00000000000E+00  0.00000000000E+00 -0.40509883219E+03  0.21264772560E+04  0.20875345401E+04 0.  0.
        1    1    3    3  502    0 -0.88894627262E+03  0.48108083267E+03  0.62664716004E+02  0.10127147228E+04  0.50400001928E-02 0. -1.
       -1    1    3    3    0  502  0.88894627262E+03 -0.48108083267E+03 -0.46776354819E+03  0.11137625331E+04  0.50400001928E-02 0.  1.
</event>
<event>
 5   0  0.3497949E-05  0.2464847E+04  0.7818609E-02  0.8415617E-01
       -2   -1    0    0    0  501  0.00000000000E+00  0.00000000000E+00  0.57228154108E+03  0.57228154109E+03  0.25500000920E-02 0. -1.
        2   -1    0    0  501    0  0.00000000000E+00  0.00000000000E+00 -0.26540563644E+04  0.26540563644E+04  0.25500000920E-02 0.  1.
    10030    2    1    2    0    0  0.00000000000E+00  0.00000000000E+00 -0.20817748233E+04  0.32263379055E+04  0.24648468239E+04 0.  0.
        5    1    3    3  502    0  0.12249641033E+04 -0.40241307036E+02 -0.12099838816E+04  0.17222774170E+04  0.46999998093E+01 0.  1.
       -5    1    3    3    0  502 -0.12249641033E+04  0.40241307036E+02 -0.87179094165E+03  0.15040604885E+04  0.46999998093E+01 0. -1.
</event>
<event>
 5   0  0.3568647E-05  0.2340872E+04  0.7818609E-02  0.8461978E-01
        2   -1    0    0  501    0  0.00000000000E+00  0.00000000000E+00  0.16535158978E+04  0.16535158978E+04  0.25500000920E-02 0.  1.
       -2   -1    0    0    0  501  0.00000000000E+00  0.00000000000E+00 -0.82848940429E+03  0.82848940429E+03  0.25500000920E-02 0. -1.
    10030    2    1    2    0    0  0.00000000000E+00  0.00000000000E+00  0.82502649348E+03  0.24820053021E+04  0.23408719753E+04 0.  0.
        3    1    3    3  502    0 -0.87686137887E+03 -0.69196833948E+03  0.78318211222E+03  0.13642141664E+04  0.10100000352E+00 0.  1.
       -3    1    3    3    0  502  0.87686137887E+03  0.69196833948E+03  0.41844381254E+02  0.11177911357E+04  0.10100000352E+00 0. -1.
</event>
<event>
 5   0  0.1438701E-05  0.2736985E+04  0.7818609E-02  0.8323103E-01
       -1   -1    0    0    0  501  0.00000000000E+00  0.00000000000E+00  0.10581857176E+04  0.10581857177E+04  0.50400001928E-02 0. -1.
        1   -1    0    0  501    0  0.00000000000E+00  0.00000000000E+00 -0.17697954295E+04  0.17697954295E+04  0.50400001928E-02 0.  1.
    10030    2    1    2    0    0  0.00000000000E+00  0.00000000000E+00 -0.71160971185E+03  0.28279811471E+04  0.27369853830E+04 0.  0.
        4    1    3    3  502    0 -0.13630670110E+04 -0.11427422176E+03 -0.31245329614E+03  0.14030819468E+04  0.12699999809E+01 0. -1.
       -4    1    3    3    0  502  0.13630670110E+04  0.11427422176E+03 -0.39915641571E+03  0.14248992004E+04  0.12699999809E+01 0.  1.
</event>
<event>
 5   0  0.3652331E-05  0.2661270E+04  0.7818609E-02  0.8347682E-01
       -2   -1    0    0    0  501  0.00000000000E+00  0.00000000000E+00  0.67066966014E+03  0.67066966015E+03  0.25500000920E-02 0.  1.
        2   -1    0    0  501    0  0.00000000000E+00  0.00000000000E+00 -0.26400320942E+04  0.26400320942E+04  0.25500000920E-02 0. -1.
    10030    2    1    2    0    0  0.00000000000E+00  0.00000000000E+00 -0.19693624341E+04  0.33107017543E+04  0.26612699430E+04 0.  0.
        1    1    3    3  502    0  0.70124653857E+03 -0.98163798668E+03 -0.16831461606E+04  0.20708309546E+04  0.50400001928E-02 0. -1.
       -1    1    3    3    0  502 -0.70124653857E+03  0.98163798668E+03 -0.28621627345E+03  0.12398707997E+04  0.50400001928E-02 0.  1.
</event>
<event>
 5   0  0.1438701E-05  0.2191534E+04  0.7818609E-02  0.8521960E-01
       -1   -1    0    0    0  501  0.00000000000E+00  0.00000000000E+00  0.45097754579E+03  0.45097754582E+03  0.50400001928E-02 0.  1.
        1   -1    0    0  501    0  0.00000000000E+00  0.00000000000E+00 -0.26624500842E+04  0.26624500842E+04  0.50400001928E-02 0. -1.
    10030    2    1    2    0    0  0.00000000000E+00  0.00000000000E+00 -0.22114725384E+04  0.31134276300E+04  0.21915338964E+04 0.  0.
        4    1    3    3  502    0  0.32334403810E+03  0.49012585116E+03 -0.24200814037E+04  0.24902952295E+04  0.12699999809E+01 0. -1.
       -4    1    3    3    0  502 -0.32334403810E+03 -0.49012585116E+03  0.20860886528E+03  0.62313240047E+03  0.12699999809E+01 0.  1.
</event>
<event>
 5   0  0.3568647E-05  0.2620231E+04  0.7818609E-02  0.8361362E-01
        2   -1    0    0  501    0  0.00000000000E+00  0.00000000000E+00  0.14941010497E+04  0.14941010497E+04  0.25500000920E-02 0.  1.
       -2   -1    0    0    0  501  0.00000000000E+00  0.00000000000E+00 -0.11487860325E+04  0.11487860325E+04  0.25500000920E-02 0. -1.
    10030    2    1    2    0    0  0.00000000000E+00  0.00000000000E+00  0.34531501721E+03  0.26428870822E+04  0.26202308425E+04 0.  0.
        3    1    3    3  502    0  0.54309528547E+03 -0.71293081132E+03  0.11365245909E+04  0.14473807332E+04  0.10100000352E+00 0.  1.
       -3    1    3    3    0  502 -0.54309528547E+03  0.71293081132E+03 -0.79120957370E+03  0.11955063490E+04  0.10100000352E+00 0. -1.
</event>
<event>
 5   0  0.3676724E-05  0.2647128E+04  0.7818609E-02  0.8352367E-01
       -2   -1    0    0    0  501  0.00000000000E+00  0.00000000000E+00  0.13191592108E+04  0.13191592108E+04  0.25500000920E-02 0. -1.
        2   -1    0    0  501    0  0.00000000000E+00  0.00000000000E+00 -0.13279838843E+04  0.13279838843E+04  0.25500000920E-02 0.  1.
    10030    2    1    2    0    0  0.00000000000E+00  0.00000000000E+00 -0.88246735304E+01  0.26471430951E+04  0.26471283858E+04 0.  0.
        4    1    3    3  502    0 -0.30491331575E+01  0.38134966955E+03 -0.12718513075E+04  0.13277967574E+04  0.12699999809E+01 0.  1.
       -4    1    3    3    0  502  0.30491331575E+01 -0.38134966955E+03  0.12630266340E+04  0.13193463377E+04  0.12699999809E+01 0. -1.
</event>
<event>
 5   0  0.1484379E-05  0.2697944E+04  0.7818609E-02  0.8335672E-01
        1   -1    0    0  501    0  0.00000000000E+00  0.00000000000E+00  0.14101318987E+04  0.14101318987E+04  0.50400001928E-02 0. -1.
       -1   -1    0    0    0  501  0.00000000000E+00  0.00000000000E+00 -0.12904648846E+04  0.12904648847E+04  0.50400001928E-02 0.  1.
    10030    2    1    2    0    0  0.00000000000E+00  0.00000000000E+00  0.11966701407E+03  0.27005967834E+04  0.26979441788E+04 0.  0.
        1    1    3    3  502    0  0.21764477009E+03 -0.97172431354E+03 -0.85106577088E+03  0.13099352403E+04  0.50400001928E-02 0. -1.
       -1    1    3    3    0  502 -0.21764477009E+03  0.97172431354E+03  0.97073278495E+03  0.13906615430E+04  0.50400001928E-02 0.  1.
</event>
<event>
 5   0  0.3652331E-05  0.2972690E+04  0.7818609E-02  0.8251573E-01
        2   -1    0    0  501    0  0.00000000000E+00  0.00000000000E+00  0.17125750155E+04  0.17125750155E+04  0.25500000920E-02 0. -1.
       -2   -1    0    0    0  501  0.00000000000E+00  0.00000000000E+00 -0.12899998244E+04  0.12899998244E+04  0.25500000920E-02 0.  1.
    10030    2    1    2    0    0  0.00000000000E+00  0.00000000000E+00  0.42257519114E+03  0.30025748399E+04  0.29726900069E+04 0.  0.
        1    1    3    3  502    0  0.89115372366E+03 -0.11892894232E+04  0.18539439810E+03  0.14976432734E+04  0.50400001928E-02 0. -1.
       -1    1    3    3    0  502 -0.89115372366E+03  0.11892894232E+04  0.23718079304E+03  0.15049315665E+04  0.50400001928E-02 0.  1.
</event>
<event>
 5   0  0.1495517E-05  0.2711120E+04  0.7818609E-02  0.8331406E-01
       -1   -1    0    0    0  501  0.00000000000E+00  0.00000000000E+00  0.13338211217E+04  0.13338211217E+04  0.50400001928E-02 0. -1.
        1   -1    0    0  501    0  0.00000000000E+00  0.00000000000E+00 -0.13776535758E+04  0.13776535758E+04  0.50400001928E-02 0.  1.
    10030    2    1    2    0    0  0.00000000000E+00  0.00000000000E+00 -0.43832454112E+02  0.27114746974E+04  0.27111203866E+04 0.  0.
        5    1    3    3  502    0  0.46979747004E+03 -0.12143132495E+04 -0.39913261251E+03  0.13618352555E+04  0.46999998093E+01 0.  1.
       -5    1    3    3    0  502 -0.46979747004E+03  0.12143132495E+04  0.35530015840E+03  0.13496394420E+04  0.46999998093E+01 0. -1.
</event>
<event>
 5   0  0.1495517E-05  0.2591764E+04  0.7818609E-02  0.8371004E-01
       -1   -1    0    0    0  501  0.00000000000E+00  0.00000000000E+00  0.10661302087E+04  0.10661302087E+04  0.50400001928E-02 0. -1.
        1   -1    0    0  501    0  0.00000000000E+00  0.00000000000E+00 -0.15751453299E+04  0.15751453299E+04  0.50400001928E-02 0.  1.
    10030    2    1    2    0    0  0.00000000000E+00  0.00000000000E+00 -0.50901512117E+03  0.26412755386E+04  0.25917638931E+04 0.  0.
        5    1    3    3  502    0 -0.12312525006E+04 -0.50914645494E+02  0.15404097094E+03  0.12419040752E+04  0.46999998093E+01 0. -1.
       -5    1    3    3    0  502  0.12312525006E+04  0.50914645494E+02 -0.66305609212E+03  0.13993714634E+04  0.46999998093E+01 0.  1.
</event>
<event>
 5   0  0.1438701E-05  0.2711545E+04  0.7818609E-02  0.8331269E-01
        1   -1    0    0  501    0  0.00000000000E+00  0.00000000000E+00  0.12029722205E+04  0.12029722205E+04  0.50400001928E-02 0. -1.
       -1   -1    0    0    0  501  0.00000000000E+00  0.00000000000E+00 -0.15279807639E+04  0.15279807639E+04  0.50400001928E-02 0.  1.
    10030    2    1    2    0    0  0.00000000000E+00  0.00000000000E+00 -0.32500854338E+03  0.27309529845E+04  0.27115445138E+04 0.  0.
        4    1    3    3  502    0  0.13159283464E+04  0.26616757170E+03 -0.35254564738E+03  0.13880931653E+04  0.12699999809E+01 0.  1.
       -4    1    3    3    0  502 -0.13159283464E+04 -0.26616757170E+03  0.27537104003E+02  0.13428598192E+04  0.12699999809E+01 0. -1.
</event>
<event>
 5   0  0.1449521E-05  0.2675531E+04  0.7818609E-02  0.8342988E-01
       -1   -1    0    0    0  501  0.00000000000E+00  0.00000000000E+00  0.83441074962E+03  0.83441074963E+03  0.50400001928E-02 0.  1.
        1   -1    0    0  501    0  0.00000000000E+00  0.00000000000E+00 -0.21447663539E+04  0.21447663539E+04  0.50400001928E-02 0. -1.
    10030    2    1    2    0    0  0.00000000000E+00  0.00000000000E+00 -0.13103556043E+04  0.29791771036E+04  0.26755306772E+04 0.  0.
        3    1    3    3  502    0 -0.41356100599E+03  0.12573134171E+03  0.75450911283E+03  0.86955453395E+03  0.10100000352E+00 0.  1.
       -3    1    3    3    0  502  0.41356100599E+03 -0.12573134171E+03 -0.20648647171E+04  0.21096225696E+04  0.10100000352E+00 0. -1.
</event>
<event>
 5   0  0.1449521E-05  0.2752031E+04  0.7818609E-02  0.8318318E-01
       -1   -1    0    0    0  501  0.00000000000E+00  0.00000000000E+00  0.13076386964E+04  0.13076386964E+04  0.50400001928E-02 0. -1.
        1   -1    0    0  501    0  0.00000000000E+00  0.00000000000E+00 -0.14479674268E+04  0.14479674268E+04  0.50400001928E-02 0.  1.
    10030    2    1    2    0    0  0.00000000000E+00  0.00000000000E+00 -0.14032873032E+03  0.27556061232E+04  0.27520306964E+04 0.  0.
        3    1    3    3  502    0  0.34221856441E+03 -0.11889372289E+04  0.53289125647E+03  0.13470925660E+04  0.10100000352E+00 0. -1.
       -3    1    3    3    0  502 -0.34221856441E+03  0.11889372289E+04 -0.67321998679E+03  0.14085135572E+04  0.10100000352E+00 0.  1.
</event>
<event>
 5   0  0.1438701E-05  0.2800795E+04  0.7818609E-02  0.8303022E-01
        1   -1    0    0  501    0  0.00000000000E+00  0.00000000000E+00  0.25578833160E+04  0.25578833160E+04  0.50400001928E-02 0. -1.
       -1   -1    0    0    0  501  0.00000000000E+00  0.00000000000E+00 -0.76669387653E+03  0.76669387655E+03  0.50400001928E-02 0.  1.
    10030    2    1    2    0    0  0.00000000000E+00  0.00000000000E+00  0.17911894394E+04  0.33245771925E+04  0.28007952265E+04 0.  0.
        4    1    3    3  502    0  0.76950465918E+03 -0.58705621694E+01 -0.49322945336E+03  0.91402887841E+03  0.12699999809E+01 0.  1.
       -4    1    3    3    0  502 -0.76950465918E+03  0.58705621694E+01  0.22844188928E+04  0.24105483141E+04  0.12699999809E+01 0. -1.
</event>
<event>
 5   0  0.1449521E-05  0.2693157E+04  0.7818609E-02  0.8337229E-01
        1   -1    0    0  501    0  0.00000000000E+00  0.00000000000E+00  0.13941177616E+04  0.13941177616E+04  0.50400001928E-02 0. -1.
       -1   -1    0    0    0  501  0.00000000000E+00  0.00000000000E+00 -0.13006607334E+04  0.13006607335E+04  0.50400001928E-02 0.  1.
    10030    2    1    2    0    0  0.00000000000E+00  0.00000000000E+00  0.93457028149E+02  0.26947784951E+04  0.26931574260E+04 0.  0.
        3    1    3    3  502    0  0.76630693858E+03 -0.93643840262E+03 -0.54450023984E+03  0.13268849714E+04  0.10100000352E+00 0.  1.
       -3    1    3    3    0  502 -0.76630693858E+03  0.93643840262E+03  0.63795726798E+03  0.13678935236E+04  0.10100000352E+00 0. -1.
</event>
<event>
 5   0  0.1484379E-05  0.2723367E+04  0.7818609E-02  0.8327463E-01
        1   -1    0    0  501    0  0.00000000000E+00  0.00000000000E+00  0.19626676973E+04  0.19626676973E+04  0.50400001928E-02 0. -1.
       -1   -1    0    0    0  501  0.00000000000E+00  0.00000000000E+00 -0.94472513686E+03  0.94472513687E+03  0.50400001928E-02 0.  1.
    10030    2    1    2    0    0  0.00000000000E+00  0.00000000000E+00  0.10179425604E+04  0.29073928342E+04  0.27233666730E+04 0.  0.
        1    1    3    3  502    0  0.19765957100E+03 -0.29899201759E+03  0.19114047151E+04  0.19447193930E+04  0.50400001928E-02 0. -1.
       -1    1    3    3    0  502 -0.19765957100E+03  0.29899201759E+03 -0.89346215464E+03  0.96267344120E+03  0.50400001928E-02 0.  1.
</event>
<event>
 5   0  0.1495517E-05  0.2725788E+04  0.7818609E-02  0.8326686E-01
        1   -1    0    0  501    0  0.00000000000E+00  0.00000000000E+00  0.25326269043E+04  0.25326269043E+04  0.50400001928E-02 0.  1.
       -1   -1    0    0    0  501  0.00000000000E+00  0.00000000000E+00 -0.73342022943E+03  0.73342022945E+03  0.50400001928E-02 0. -1.
    10030    2    1    2    0    0  0.00000000000E+00  0.00000000000E+00  0.17992066748E+04  0.32660471337E+04  0.27257878166E+04 0.  0.
        5    1    3    3  502    0  0.91918505378E+03 -0.47895447699E+03  0.19599684200E+04  0.22171596360E+04  0.46999998093E+01 0.  1.
       -5    1    3    3    0  502 -0.91918505378E+03  0.47895447699E+03 -0.16076174519E+03  0.10488874977E+04  0.46999998093E+01 0. -1.
</event>
<event>
 5   0  0.3568647E-05  0.2731530E+04  0.7818609E-02  0.8324847E-01
        2   -1    0    0  501    0  0.00000000000E+00  0.00000000000E+00  0.10757773401E+04  0.10757773401E+04  0.25500000920E-02 0. -1.
       -2   -1    0    0    0  501  0.00000000000E+00  0.00000000000E+00 -0.17339219522E+04  0.17339219522E+04  0.25500000920E-02 0.  1.
    10030    2    1    2    0    0  0.00000000000E+00  0.00000000000E+00 -0.65814461208E+03  0.28096992923E+04  0.27315299344E+04 0.  0.
        3    1    3    3  502    0  0.67118901083E+03 -0.11733090041E+04 -0.12812239949E+03  0.13577790936E+04  0.10100000352E+00 0.  1.
       -3    1    3    3    0  502 -0.67118901083E+03  0.11733090041E+04 -0.53002221259E+03  0.14519201987E+04  0.10100000352E+00 0. -1.
</event>
<event>
 5   0  0.3514294E-05  0.2719701E+04  0.7818609E-02  0.8328641E-01
       -2   -1    0    0    0  501  0.00000000000E+00  0.00000000000E+00  0.10320335566E+04  0.10320335566E+04  0.25500000920E-02 0. -1.
        2   -1    0    0  501    0  0.00000000000E+00  0.00000000000E+00 -0.17917963627E+04  0.17917963627E+04  0.25500000920E-02 0.  1.
    10030    2    1    2    0    0  0.00000000000E+00  0.00000000000E+00 -0.75976280616E+03  0.28238299193E+04  0.27197014343E+04 0.  0.
        2    1    3    3  502    0  0.18875497187E+03  0.29893546299E+03 -0.17432444505E+04  0.17787332753E+04  0.25500000920E-02 0.  1.
       -2    1    3    3    0  502 -0.18875497187E+03 -0.29893546299E+03  0.98348164437E+03  0.10450966440E+04  0.25500000920E-02 0. -1.
</event>
<event>
 5   0  0.1495517E-05  0.2624935E+04  0.7818609E-02  0.8359780E-01
       -1   -1    0    0    0  501  0.00000000000E+00  0.00000000000E+00  0.14551806668E+04  0.14551806668E+04  0.50400001928E-02 0.  1.
        1   -1    0    0  501    0  0.00000000000E+00  0.00000000000E+00 -0.11837503766E+04  0.11837503766E+04  0.50400001928E-02 0. -1.
    10030    2    1    2    0    0  0.00000000000E+00  0.00000000000E+00  0.27143029023E+03  0.26389310434E+04  0.26249347895E+04 0.  0.
        5    1    3    3  502    0 -0.37575531038E+03  0.91903459644E+03  0.99862269618E+03  0.14082208712E+04  0.46999998093E+01 0.  1.
       -5    1    3    3    0  502  0.37575531038E+03 -0.91903459644E+03 -0.72719240595E+03  0.12307101722E+04  0.46999998093E+01 0. -1.
</event>
<event>
 5   0  0.3568647E-05  0.2724430E+04  0.7818609E-02  0.8327122E-01
       -2   -1    0    0    0  501  0.00000000000E+00  0.00000000000E+00  0.14463890799E+04  0.14463890799E+04  0.25500000920E-02 0. -1.
        2   -1    0    0  501    0  0.00000000000E+00  0.00000000000E+00 -0.12829396449E+04  0.12829396449E+04  0.25500000920E-02 0.  1.
    10030    2    1    2    0    0  0.00000000000E+00  0.00000000000E+00  0.16344943496E+03  0.27293287248E+04  0.27244301367E+04 0.  0.
        3    1    3    3  502    0 -0.19416391983E+03 -0.11221517427E+04  0.83053487939E+03  0.14095078423E+04  0.10100000352E+00 0. -1.
       -3    1    3    3    0  502  0.19416391983E+03  0.11221517427E+04 -0.66708544444E+03  0.13198208825E+04  0.10100000352E+00 0.  1.
</event>
<event>
 5   0  0.3652331E-05  0.2649353E+04  0.7818609E-02  0.8351628E-01
        2   -1    0    0  501    0  0.00000000000E+00  0.00000000000E+00  0.12808236796E+04  0.12808236796E+04  0.25500000920E-02 0.  1.
       -2   -1    0    0    0  501  0.00000000000E+00  0.00000000000E+00 -0.13700309164E+04  0.13700309164E+04  0.25500000920E-02 0. -1.
    10030    2    1    2    0    0  0.00000000000E+00  0.00000000000E+00 -0.89207236751E+02  0.26508545960E+04  0.26493531584E+04 0.  0.
        1    1    3    3  502    0  0.11447965059E+04  0.50805387272E+03 -0.47622989570E+03  0.13399524958E+04  0.50400001928E-02 0. -1.
       -1    1    3    3    0  502 -0.11447965059E+04 -0.50805387272E+03  0.38702265895E+03  0.13109021001E+04  0.50400001928E-02 0.  1.
</event>
<event>
 5   0  0.3676724E-05  0.2691578E+04  0.7818609E-02  0.8337743E-01
        2   -1    0    0  501    0  0.00000000000E+00  0.00000000000E+00  0.22267219860E+04  0.22267219860E+04  0.25500000920E-02 0. -1.
       -2   -1    0    0    0  501  0.00000000000E+00  0.00000000000E+00 -0.81336987186E+03  0.81336987186E+03  0.25500000920E-02 0.  1.
    10030    2    1    2    0    0  0.00000000000E+00  0.00000000000E+00  0.14133521142E+04  0.30400918579E+04  0.26915784042E+04 0.  0.
        4    1    3    3  502    0  0.64966742699E+03  0.11735848869E+04  0.58409873783E+03  0.14630591926E+04  0.12699999809E+01 0.  1.
       -4    1    3    3    0  502 -0.64966742699E+03 -0.11735848869E+04  0.82925337632E+03  0.15770326653E+04  0.12699999809E+01 0. -1.
</event>
<event>
 5   0  0.3514294E-05  0.2788994E+04  0.7818609E-02  0.8306693E-01
       -2   -1    0    0    0  501  0.00000000000E+00  0.00000000000E+00  0.11799438059E+04  0.11799438059E+04  0.25500000920E-02 0.  1.
        2   -1    0    0  501    0  0.00000000000E+00  0.00000000000E+00 -0.16480631058E+04  0.16480631058E+04  0.25500000920E-02 0. -1.
    10030    2    1    2    0    0  0.00000000000E+00  0.00000000000E+00 -0.46811929990E+03  0.28280069117E+04  0.27889939788E+04 0.  0.
        2    1    3    3  502    0  0.10861133561E+04  0.65771906177E+03  0.35053356781E+03  0.13172358819E+04  0.25500000920E-02 0.  1.
       -2    1    3    3    0  502 -0.10861133561E+04 -0.65771906177E+03 -0.81865286771E+03  0.15107710297E+04  0.25500000920E-02 0. -1.
</event>
<event>
 5   0  0.1657163E-05  0.1435899E+04  0.7818609E-02  0.8928235E-01
       -1   -1    0    0    0  501  0.00000000000E+00  0.00000000000E+00  0.49727470904E+03  0.49727470907E+03  0.50400001928E-02 0.  1.
        1   -1    0    0  501    0  0.00000000000E+00  0.00000000000E+00 -0.10365534030E+04  0.10365534030E+04  0.50400001928E-02 0. -1.
    10030    2    1    2    0    0  0.00000000000E+00  0.00000000000E+00 -0.53927869397E+03  0.15338281121E+04  0.14358994281E+04 0.  0.
        5    1    3    3  502    0 -0.45034962422E+03  0.36539275083E+03 -0.72170776547E+03  0.92585681135E+03  0.46999998093E+01 0. -1.
       -5    1    3    3    0  502  0.45034962422E+03 -0.36539275083E+03  0.18242907150E+03  0.60797130074E+03  0.46999998093E+01 0.  1.
</event>
<event>
 5   0  0.3514294E-05  0.2672811E+04  0.7818609E-02  0.8343881E-01
        2   -1    0    0  501    0  0.00000000000E+00  0.00000000000E+00  0.21715384877E+04  0.21715384877E+04  0.25500000920E-02 0. -1.
       -2   -1    0    0    0  501  0.00000000000E+00  0.00000000000E+00 -0.82244907748E+03  0.82244907749E+03  0.25500000920E-02 0.  1.
    10030    2    1    2    0    0  0.00000000000E+00  0.00000000000E+00  0.13490894103E+04  0.29939875652E+04  0.26728111239E+04 0.  0.
        2    1    3    3  502    0  0.95810936292E+03  0.74906633587E+03  0.12951055079E+04  0.17766181930E+04  0.25500000920E-02 0. -1.
       -2    1    3    3    0  502 -0.95810936292E+03 -0.74906633587E+03  0.53983902328E+02  0.12173693723E+04  0.25500000920E-02 0.  1.
</event>
<event>
 5   0  0.1495517E-05  0.2976241E+04  0.7818609E-02  0.8250548E-01
        1   -1    0    0  501    0  0.00000000000E+00  0.00000000000E+00  0.23500385032E+04  0.23500385032E+04  0.50400001928E-02 0. -1.
       -1   -1    0    0    0  501  0.00000000000E+00  0.00000000000E+00 -0.94232579024E+03  0.94232579026E+03  0.50400001928E-02 0.  1.
    10030    2    1    2    0    0  0.00000000000E+00  0.00000000000E+00  0.14077127129E+04  0.32923642934E+04  0.29762405075E+04 0.  0.
        5    1    3    3  502    0 -0.45576451132E+03 -0.14165732324E+04  0.69403736244E+03  0.16419838498E+04  0.46999998093E+01 0.  1.
       -5    1    3    3    0  502  0.45576451132E+03  0.14165732324E+04  0.71367535048E+03  0.16503804436E+04  0.46999998093E+01 0. -1.
</event>
<event>
 5   0  0.1438701E-05  0.1377302E+04  0.7818609E-02  0.8970414E-01
       -1   -1    0    0    0  501  0.00000000000E+00  0.00000000000E+00  0.73743831087E+03  0.73743831089E+03  0.50400001928E-02 0. -1.
        1   -1    0    0  501    0  0.00000000000E+00  0.00000000000E+00 -0.64309148867E+03  0.64309148869E+03  0.50400001928E-02 0.  1.
    10030    2    1    2    0    0  0.00000000000E+00  0.00000000000E+00  0.94346822205E+02  0.13805297996E+04  0.13773021472E+04 0.  0.
        4    1    3    3  502    0 -0.27621802479E+03 -0.45300383006E+03 -0.39286543793E+03  0.66019219360E+03  0.12699999809E+01 0.  1.
       -4    1    3    3    0  502  0.27621802479E+03  0.45300383006E+03  0.48721226013E+03  0.72033760598E+03  0.12699999809E+01 0. -1.
</event>
<event>
 5   0  0.1474012E-05  0.2781912E+04  0.7818609E-02  0.8308906E-01
        1   -1    0    0  501    0  0.00000000000E+00  0.00000000000E+00  0.12250501260E+04  0.12250501260E+04  0.50400001928E-02 0.  1.
       -1   -1    0    0    0  501  0.00000000000E+00  0.00000000000E+00 -0.15793305895E+04  0.15793305896E+04  0.50400001928E-02 0. -1.
    10030    2    1    2    0    0  0.00000000000E+00  0.00000000000E+00 -0.35428046355E+03  0.28043807156E+04  0.27819123910E+04 0.  0.
        2    1    3    3  502    0 -0.55296596874E+03 -0.12726343333E+04 -0.27482295028E+03  0.14145307218E+04  0.25500000920E-02 0.  1.
       -2    1    3    3    0  502  0.55296596874E+03  0.12726343333E+04 -0.79457513270E+02  0.13898499938E+04  0.25500000920E-02 0. -1.
</event>
<event>
 5   0  0.1438701E-05  0.1416381E+04  0.7818609E-02  0.8942045E-01
       -1   -1    0    0    0  501  0.00000000000E+00  0.00000000000E+00  0.57693122410E+03  0.57693122412E+03  0.50400001928E-02 0. -1.
        1   -1    0    0  501    0  0.00000000000E+00  0.00000000000E+00 -0.86931352133E+03  0.86931352134E+03  0.50400001928E-02 0.  1.
    10030    2    1    2    0    0  0.00000000000E+00  0.00000000000E+00 -0.29238229723E+03  0.14462447455E+04  0.14163814656E+04 0.  0.
        4    1    3    3  502    0 -0.35604738771E+03 -0.44579592424E+01  0.47887827801E+03  0.59675424904E+03  0.12699999809E+01 0. -1.
       -4    1    3    3    0  502  0.35604738771E+03  0.44579592424E+01 -0.77126057524E+03  0.84949049643E+03  0.12699999809E+01 0.  1.
</event>
<event>
 5   0  0.3652331E-05  0.2703192E+04  0.7818609E-02  0.8333970E-01
       -2   -1    0    0    0  501  0.00000000000E+00  0.00000000000E+00  0.56212895855E+03  0.56212895856E+03  0.25500000920E-02 0. -1.
        2   -1    0    0  501    0  0.00000000000E+00  0.00000000000E+00 -0.32498083754E+04  0.32498083754E+04  0.25500000920E-02 0.  1.
    10030    2    1    2    0    0  0.00000000000E+00  0.00000000000E+00 -0.26876794168E+04  0.38119373339E+04  0.27031917413E+04 0.  0.
        1    1    3    3  502    0 -0.11460095878E+04 -0.57527161089E+03 -0.74135897891E+03  0.14811780910E+04  0.50400001928E-02 0.  1.
       -1    1    3    3    0  502  0.11460095878E+04  0.57527161089E+03 -0.19463204379E+04  0.23307592429E+04  0.50400001928E-02 0. -1.
</event>
<event>
 5   0  0.3676724E-05  0.2707843E+04  0.7818609E-02  0.8332465E-01
       -2   -1    0    0    0  501  0.00000000000E+00  0.00000000000E+00  0.13589895570E+04  0.13589895570E+04  0.25500000920E-02 0.  1.
        2   -1    0    0  501    0  0.00000000000E+00  0.00000000000E+00 -0.13488718893E+04  0.13488718893E+04  0.25500000920E-02 0. -1.
    10030    2    1    2    0    0  0.00000000000E+00  0.00000000000E+00  0.10117667721E+02  0.27078614464E+04  0.27078425444E+04 0.  0.
        4    1    3    3  502    0  0.10114343462E+04  0.57562073355E+03 -0.68687267782E+03  0.13513453867E+04  0.12699999809E+01 0. -1.
       -4    1    3    3    0  502 -0.10114343462E+04 -0.57562073355E+03  0.69699034554E+03  0.13565160597E+04  0.12699999809E+01 0.  1.
</event>
<event>
 5   0  0.1449521E-05  0.2774191E+04  0.7818609E-02  0.8311326E-01
       -1   -1    0    0    0  501  0.00000000000E+00  0.00000000000E+00  0.12014540071E+04  0.12014540071E+04  0.50400001928E-02 0.  1.
        1   -1    0    0  501    0  0.00000000000E+00  0.00000000000E+00 -0.16014216726E+04  0.16014216726E+04  0.50400001928E-02 0. -1.
    10030    2    1    2    0    0  0.00000000000E+00  0.00000000000E+00 -0.39996766552E+03  0.28028756797E+04  0.27741914034E+04 0.  0.
        3    1    3    3  502    0  0.11761186863E+04  0.11342476654E+03  0.53410574514E+03  0.12966839627E+04  0.10100000352E+00 0.  1.
       -3    1    3    3    0  502 -0.11761186863E+04 -0.11342476654E+03 -0.93407341066E+03  0.15061917171E+04  0.10100000352E+00 0. -1.
</event>
<event>
 5   0  0.3568647E-05  0.2702571E+04  0.7818609E-02  0.8334171E-01
        2   -1    0    0  501    0  0.00000000000E+00  0.00000000000E+00  0.11694849480E+04  0.11694849480E+04  0.25500000920E-02 0. -1.
       -2   -1    0    0    0  501  0.00000000000E+00  0.00000000000E+00 -0.15613475146E+04  0.15613475146E+04  0.25500000920E-02 0.  1.
    10030    2    1    2    0    0  0.00000000000E+00  0.00000000000E+00 -0.39186256659E+03  0.27308324626E+04  0.27025709367E+04 0.  0.
        3    1    3    3  502    0  0.32837570885E+03  0.26539495599E+03  0.11011225157E+04  0.11792946594E+04  0.10100000352E+00 0. -1.
       -3    1    3    3    0  502 -0.32837570885E+03 -0.26539495599E+03 -0.14929850823E+04  0.15515378033E+04  0.10100000352E+00 0.  1.
</event>
<event>
 5   0  0.1449521E-05  0.2477504E+04  0.7818609E-02  0.8411044E-01
        1   -1    0    0  501    0  0.00000000000E+00  0.00000000000E+00  0.15775422214E+04  0.15775422214E+04  0.50400001928E-02 0.  1.
       -1   -1    0    0    0  501  0.00000000000E+00  0.00000000000E+00 -0.97271980656E+03  0.97271980657E+03  0.50400001928E-02 0. -1.
    10030    2    1    2    0    0  0.00000000000E+00  0.00000000000E+00  0.60482241485E+03  0.25502620280E+04  0.24775040379E+04 0.  0.
        3    1    3    3  502    0  0.96708057263E+03  0.48534347596E+03  0.92320037818E+03  0.14223579269E+04  0.10100000352E+00 0.  1.
       -3    1    3    3    0  502 -0.96708057263E+03 -0.48534347596E+03 -0.31837796333E+03  0.11279041011E+04  0.10100000352E+00 0. -1.
</event>
<event>
 5   0  0.1474012E-05  0.2679052E+04  0.7818609E-02  0.8341834E-01
        1   -1    0    0  501    0  0.00000000000E+00  0.00000000000E+00  0.15047470219E+04  0.15047470220E+04  0.50400001928E-02 0.  1.
       -1   -1    0    0    0  501  0.00000000000E+00  0.00000000000E+00 -0.11924461829E+04  0.11924461829E+04  0.50400001928E-02 0. -1.
    10030    2    1    2    0    0  0.00000000000E+00  0.00000000000E+00  0.31230083908E+03  0.26971932048E+04  0.26790519536E+04 0.  0.
        2    1    3    3  502    0  0.33064379747E+03 -0.13440217830E+03  0.14559936604E+04  0.14991019997E+04  0.25500000920E-02 0.  1.
       -2    1    3    3    0  502 -0.33064379747E+03  0.13440217830E+03 -0.11436928213E+04  0.11980912052E+04  0.25500000920E-02 0. -1.
</event>
<event>
 5   0  0.3514294E-05  0.2490089E+04  0.7818609E-02  0.8406525E-01
       -2   -1    0    0    0  501  0.00000000000E+00  0.00000000000E+00  0.83969556777E+03  0.83969556777E+03  0.25500000920E-02 0.  1.
        2   -1    0    0  501    0  0.00000000000E+00  0.00000000000E+00 -0.18460683238E+04  0.18460683238E+04  0.25500000920E-02 0. -1.
    10030    2    1    2    0    0  0.00000000000E+00  0.00000000000E+00 -0.10063727561E+04  0.26857638916E+04  0.24900886646E+04 0.  0.
        2    1    3    3  502    0 -0.10209709149E+04 -0.19136820907E+03  0.23714186177E+03  0.10654762612E+04  0.25500000920E-02 0.  1.
       -2    1    3    3    0  502  0.10209709149E+04  0.19136820907E+03 -0.12435146178E+04  0.16202876304E+04  0.25500000920E-02 0. -1.
</event>
<event>
 5   0  0.1495517E-05  0.2382299E+04  0.7818609E-02  0.8446160E-01
        1   -1    0    0  501    0  0.00000000000E+00  0.00000000000E+00  0.86516823347E+03  0.86516823348E+03  0.50400001928E-02 0.  1.
       -1   -1    0    0    0  501  0.00000000000E+00  0.00000000000E+00 -0.16399550793E+04  0.16399550793E+04  0.50400001928E-02 0. -1.
    10030    2    1    2    0    0  0.00000000000E+00  0.00000000000E+00 -0.77478684582E+03  0.25051233128E+04  0.23822989224E+04 0.  0.
        5    1    3    3  502    0  0.29470820126E+03  0.45247051597E+03  0.72905739669E+03  0.90726471847E+03  0.46999998093E+01 0.  1.
       -5    1    3    3    0  502 -0.29470820126E+03 -0.45247051597E+03 -0.15038442425E+04  0.15978585943E+04  0.46999998093E+01 0. -1.
</event>
<event>
 5   0  0.1484379E-05  0.2083146E+04  0.7818609E-02  0.8568704E-01
        1   -1    0    0  501    0  0.00000000000E+00  0.00000000000E+00  0.92718664478E+03  0.92718664479E+03  0.50400001928E-02 0.  1.
       -1   -1    0    0    0  501  0.00000000000E+00  0.00000000000E+00 -0.11700712390E+04  0.11700712390E+04  0.50400001928E-02 0. -1.
    10030    2    1    2    0    0  0.00000000000E+00  0.00000000000E+00 -0.24288459419E+03  0.20972578838E+04  0.20831461074E+04 0.  0.
        1    1    3    3  502    0  0.86549625108E+03 -0.48123430488E+03 -0.44643584239E+03  0.10862666239E+04  0.50400001928E-02 0. -1.
       -1    1    3    3    0  502 -0.86549625108E+03  0.48123430488E+03  0.20355124821E+03  0.10109912599E+04  0.50400001928E-02 0.  1.
</event>
<event>
 5   0  0.3676724E-05  0.2717831E+04  0.7818609E-02  0.8329242E-01
       -2   -1    0    0    0  501  0.00000000000E+00  0.00000000000E+00  0.14041491708E+04  0.14041491708E+04  0.25500000920E-02 0.  1.
        2   -1    0    0  501    0  0.00000000000E+00  0.00000000000E+00 -0.13151391443E+04  0.13151391443E+04  0.25500000920E-02 0. -1.
    10030    2    1    2    0    0  0.00000000000E+00  0.00000000000E+00  0.89010026462E+02  0.27192883152E+04  0.27178311493E+04 0.  0.
        4    1    3    3  502    0 -0.11287684797E+03  0.11941314831E+04  0.68356394328E+03  0.13805623706E+04  0.12699999809E+01 0.  1.
       -4    1    3    3    0  502  0.11287684797E+03 -0.11941314831E+04 -0.59455391682E+03  0.13387259445E+04  0.12699999809E+01 0. -1.
</event>
<event>
 5   0  0.1484379E-05  0.2617211E+04  0.7818609E-02  0.8362378E-01
       -1   -1    0    0    0  501  0.00000000000E+00  0.00000000000E+00  0.13595184440E+04  0.13595184440E+04  0.50400001928E-02 0. -1.
        1   -1    0    0  501    0  0.00000000000E+00  0.00000000000E+00 -0.12595995790E+04  0.12595995790E+04  0.50400001928E-02 0.  1.
    10030    2    1    2    0    0  0.00000000000E+00  0.00000000000E+00  0.99918864989E+02  0.26191180230E+04  0.26172113860E+04 0.  0.
        1    1    3    3  502    0 -0.10055990765E+04  0.68983343418E+03  0.52501484333E+03  0.13276822870E+04  0.50400001928E-02 0. -1.
       -1    1    3    3    0  502  0.10055990765E+04 -0.68983343418E+03 -0.42509597834E+03  0.12914357360E+04  0.50400001928E-02 0.  1.
</event>
<event>
 5   0  0.3676724E-05  0.2839107E+04  0.7818609E-02  0.8291229E-01
        2   -1    0    0  501    0  0.00000000000E+00  0.00000000000E+00  0.18822290814E+04  0.18822290814E+04  0.25500000920E-02 0. -1.
       -2   -1    0    0    0  501  0.00000000000E+00  0.00000000000E+00 -0.10706097171E+04  0.10706097171E+04  0.25500000920E-02 0.  1.
    10030    2    1    2    0    0  0.00000000000E+00  0.00000000000E+00  0.81161936435E+03  0.29528387985E+04  0.28391074261E+04 0.  0.
        4    1    3    3  502    0  0.20983951661E+02  0.19554037690E+03  0.18679914106E+04  0.18783157051E+04  0.12699999809E+01 0. -1.
       -4    1    3    3    0  502 -0.20983951661E+02 -0.19554037690E+03 -0.10563720462E+04  0.10745230934E+04  0.12699999809E+01 0.  1.
</event>
<event>
 5   0  0.3497949E-05  0.1344016E+04  0.7818609E-02  0.8995371E-01
        2   -1    0    0  501    0  0.00000000000E+00  0.00000000000E+00  0.14607470105E+04  0.14607470105E+04  0.25500000920E-02 0. -1.
       -2   -1    0    0    0  501  0.00000000000E+00  0.00000000000E+00 -0.30915313129E+03  0.30915313130E+03  0.25500000920E-02 0.  1.
    10030    2    1    2    0    0  0.00000000000E+00  0.00000000000E+00  0.11515938792E+04  0.17699001418E+04  0.13440156432E+04 0.  0.
        5    1    3    3  502    0 -0.42568847836E+03  0.22461963578E+03  0.11933364069E+04  0.12867550394E+04  0.46999998093E+01 0. -1.
       -5    1    3    3    0  502  0.42568847836E+03 -0.22461963578E+03 -0.41742527662E+02  0.48314510243E+03  0.46999998093E+01 0.  1.
</event>
<event>
 5   0  0.1438701E-05  0.2661631E+04  0.7818609E-02  0.8347563E-01
        1   -1    0    0  501    0  0.00000000000E+00  0.00000000000E+00  0.11055664700E+04  0.11055664700E+04  0.50400001928E-02 0.  1.
       -1   -1    0    0    0  501  0.00000000000E+00  0.00000000000E+00 -0.16019568984E+04  0.16019568984E+04  0.50400001928E-02 0. -1.
    10030    2    1    2    0    0  0.00000000000E+00  0.00000000000E+00 -0.49639042840E+03  0.27075233685E+04  0.26616309536E+04 0.  0.
        4    1    3    3  502    0  0.30442207998E+03 -0.11583340319E+03 -0.15607838204E+04  0.15944083313E+04  0.12699999809E+01 0. -1.
       -4    1    3    3    0  502 -0.30442207998E+03  0.11583340319E+03  0.10643933920E+04  0.11131150371E+04  0.12699999809E+01 0.  1.
</event>
<event>
 5   0  0.3497949E-05  0.2704144E+04  0.7818609E-02  0.8333662E-01
        2   -1    0    0  501    0  0.00000000000E+00  0.00000000000E+00  0.16283870547E+04  0.16283870547E+04  0.25500000920E-02 0.  1.
       -2   -1    0    0    0  501  0.00000000000E+00  0.00000000000E+00 -0.11226440030E+04  0.11226440030E+04  0.25500000920E-02 0. -1.
    10030    2    1    2    0    0  0.00000000000E+00  0.00000000000E+00  0.50574305166E+03  0.27510310577E+04  0.27041441984E+04 0.  0.
        5    1    3    3  502    0 -0.65782350404E+03 -0.11212453573E+03  0.14491743368E+04  0.15954410119E+04  0.46999998093E+01 0.  1.
       -5    1    3    3    0  502  0.65782350404E+03  0.11212453573E+03 -0.94343128517E+03  0.11555900457E+04  0.46999998093E+01 0. -1.
</event>
<event>
 5   0  0.1474012E-05  0.2005403E+04  0.7818609E-02  0.8604099E-01
        1   -1    0    0  501    0  0.00000000000E+00  0.00000000000E+00  0.11066490582E+04  0.11066490582E+04  0.50400001928E-02 0.  1.
       -1   -1    0    0    0  501  0.00000000000E+00  0.00000000000E+00 -0.90851745818E+03  0.90851745819E+03  0.50400001928E-02 0. -1.
    10030    2    1    2    0    0  0.00000000000E+00  0.00000000000E+00  0.19813160004E+03  0.20151665164E+04  0.20054026922E+04 0.  0.
        2    1    3    3  502    0  0.15326532365E+03  0.73505707894E+03 -0.56870772683E+03  0.94192762318E+03  0.25500000920E-02 0. -1.
       -2    1    3    3    0  502 -0.15326532365E+03 -0.73505707894E+03  0.76683932687E+03  0.10732388932E+04  0.25500000920E-02 0.  1.
</event>
<event>
 5   0  0.3514294E-05  0.2366377E+04  0.7818609E-02  0.8452200E-01
        2   -1    0    0  501    0  0.00000000000E+00  0.00000000000E+00  0.20790840336E+04  0.20790840336E+04  0.25500000920E-02 0.  1.
       -2   -1    0    0    0  501  0.00000000000E+00  0.00000000000E+00 -0.67334238316E+03  0.67334238317E+03  0.25500000920E-02 0. -1.
    10030    2    1    2    0    0  0.00000000000E+00  0.00000000000E+00  0.14057416504E+04  0.27524264167E+04  0.23663773139E+04 0.  0.
        2    1    3    3  502    0  0.62195847542E+03 -0.86832930636E+03  0.12949387342E+04  0.16785989559E+04  0.25500000920E-02 0.  1.
       -2    1    3    3    0  502 -0.62195847542E+03  0.86832930636E+03  0.11080291622E+03  0.10738274608E+04  0.25500000920E-02 0. -1.
</event>
<event>
 5   0  0.1495517E-05  0.2731808E+04  0.7818609E-02  0.8324758E-01
       -1   -1    0    0    0  501  0.00000000000E+00  0.00000000000E+00  0.98185820189E+03  0.98185820191E+03  0.50400001928E-02 0. -1.
        1   -1    0    0  501    0  0.00000000000E+00  0.00000000000E+00 -0.19001659731E+04  0.19001659731E+04  0.50400001928E-02 0.  1.
    10030    2    1    2    0    0  0.00000000000E+00  0.00000000000E+00 -0.91830777118E+03  0.28820241750E+04  0.27318078598E+04 0.  0.
        5    1    3    3  502    0  0.78095901265E+03 -0.10970664364E+04 -0.70023583717E+03  0.15178287331E+04  0.46999998093E+01 0.  1.
       -5    1    3    3    0  502 -0.78095901265E+03  0.10970664364E+04 -0.21807193401E+03  0.13641954419E+04  0.46999998093E+01 0. -1.
</event>
</LesHouchesEvents>
